Membrane in water
40155
    1TCq1    O1    1   4.106   4.673  10.924 -0.4648 -0.1557  0.0893
    1TCq1    C1    2   4.017   0.028  10.857 -0.5770 -0.7730  0.1489
    1TCq1    O2    3   4.001   0.020  10.736 -0.3181 -0.2798  0.0762
    1TCq1    C2    4   3.992   0.146  10.937  0.0395  0.4829 -0.5865
    1TCq1    C3    5   3.926   0.141  11.062 -0.0436 -0.2923 -0.4531
    1TCq1    C4    6   3.880   0.253  11.115 -0.1022 -0.1308  0.1152
    1TCq1    C5    7   3.874   0.369  11.043 -0.0951  1.1534 -0.6714
    1TCq1    C6    8   3.933   0.375  10.917 -0.9939 -0.4218 -0.4755
    1TCq1    C7    9   3.992   0.262  10.864  0.6127 -0.1388  0.5974
    1TCq1    C8   10   3.962   0.508  10.866  0.1684  0.5517 -0.5362
    1TCq1    O4   11   4.016   0.514  10.757  0.4224  0.7162  0.1855
    1TCq1    C9   12   3.820   0.241  11.245 -0.2276  0.1698 -1.1115
    1TCq1    O5   13   3.791   0.346  11.301  0.2772 -0.3020  0.3946
    1TCq1    O6   14   3.808   0.126  11.289 -0.5622  0.0548 -0.3059
    1TCq1    H1   15   4.112   4.694  11.020  1.2662  2.6055 -0.6164
    1TCq1    H2   16   3.927   0.051  11.122  1.8218 -1.0517 -1.6329
    1TCq1    H3   17   3.813   0.446  11.090  1.2635  2.9106 -1.7739
    1TCq1    H4   18   4.048   0.275  10.772  0.5344 -1.4977  0.3563
    2MPD2     C   19   4.004   1.027  10.894 -0.0508 -0.0899 -0.3513
    2MPD2    C1   20   3.995   0.975  11.024 -0.8297 -0.9001 -0.2358
    2MPD2    C2   21   3.966   0.846  11.030  0.5486  0.2294  0.1451
    2MPD2    C3   22   3.959   0.755  10.928  0.0959 -0.0961 -0.3813
    2MPD2    C4   23   3.969   0.809  10.803  0.6369 -0.0191 -0.4535
    2MPD2    C5   24   3.987   0.943  10.783  0.6683 -0.1606  0.3295
    2MPD2     H   25   3.954   0.804  11.129  1.2448  0.3835  0.2902
    2MPD2    H1   26   3.960   0.751  10.711  0.8733  0.1149 -0.5599
    2MPD2    H2   27   4.029   1.131  10.877 -0.1882 -0.1727 -1.0379
    2MPD2    H3   28   4.004   0.983  10.684 -1.2643  0.6658  0.3404
    2MPD2     N   29   3.952   0.614  10.957 -0.7765 -0.3194 -0.4381
    2MPD2    H5   30   3.930   0.587  11.052  0.5957  0.3935  0.0851
    2MPD2    N1   31   4.003   1.051  11.142  0.0640  0.6851  0.1906
    2MPD2    H7   32   3.984   1.000  11.228  2.6352  0.5091  0.6496
    3TCq1    O1   33   3.505   2.063  10.265 -0.0306 -0.2316 -0.1625
    3TCq1    C1   34   3.520   2.177  10.185  0.8307  0.7596 -1.1442
    3TCq1    O2   35   3.629   2.215  10.137 -0.5030  0.3012  0.2968
    3TCq1    C2   36   3.423   2.273  10.249 -0.3681  0.2110  0.0237
    3TCq1    C3   37   3.407   2.389  10.183  0.1235  0.0129  0.0974
    3TCq1    C4   38   3.323   2.489  10.237 -0.4281  1.4833 -0.2036
    3TCq1    C5   39   3.256   2.455  10.348  0.4546 -0.5254  0.2906
    3TCq1    C6   40   3.273   2.340  10.417  0.1835 -0.6750  0.7927
    3TCq1    C7   41   3.361   2.248  10.367 -0.5110  0.5611 -0.1760
    3TCq1    C8   42   3.216   2.323  10.550  0.6961  0.0993  0.8263
    3TCq1    O4   43   3.223   2.212  10.597 -0.0190 -0.0714  0.0149
    3TCq1    C9   44   3.296   2.612  10.168 -0.1613 -0.3427 -0.1036
    3TCq1    O5   45   3.386   2.643  10.085 -0.6228  0.4963  0.3406
    3TCq1    O6   46   3.189   2.672  10.200  0.2726 -0.6871 -0.3478
    3TCq1    H1   47   3.410   2.046  10.253 -0.2502  0.1406  1.0799
    3TCq1    H2   48   3.465   2.406  10.093 -1.4467  1.7111 -0.5998
    3TCq1    H3   49   3.169   2.510  10.383  0.2243 -1.2426  0.8554
    3TCq1    H4   50   3.383   2.155  10.418 -0.0095  1.0256  0.4559
    4MPD2     C   51   2.975   2.479  10.974  0.3336 -0.2377  0.4143
    4MPD2    C1   52   3.020   2.589  10.909  0.3186 -0.1255  0.4617
    4MPD2    C2   53   3.085   2.579  10.781  0.1539  0.8510  0.4584
    4MPD2    C3   54   3.114   2.451  10.729  0.6009 -0.3054 -0.2114
    4MPD2    C4   55   3.086   2.341  10.805  0.1965  0.0349  0.2520
    4MPD2    C5   56   3.009   2.354  10.924  0.4553  1.1595 -0.1187
    4MPD2     H   57   3.114   2.673  10.736  0.7886  1.1890  1.5738
    4MPD2    H1   58   3.117   2.241  10.776 -0.3439  0.2203 -0.9724
    4MPD2    H2   59   2.911   2.484  11.061  0.9694 -0.7268  0.9064
    4MPD2    H3   60   2.980   2.270  10.987  0.2510  1.4843  0.2221
    4MPD2     N   61   3.187   2.440  10.611  0.0117 -0.4418  0.4365
    4MPD2    H5   62   3.229   2.528  10.582  2.1064 -1.6174 -0.1254
    4MPD2    N1   63   3.001   2.712  10.976 -0.7491  0.1524  0.3943
    4MPD2    H7   64   3.021   2.796  10.923  0.8659 -1.2760 -1.2132
    5TCq1    O1   65   2.886   3.849  10.730  0.1445  0.0508 -0.0721
    5TCq1    C1   66   3.019   3.833  10.715  0.5712 -0.5246  0.0163
    5TCq1    O2   67   3.073   3.761  10.637  0.0558  0.2128  0.6468
    5TCq1    C2   68   3.090   3.894  10.823  0.0463  0.5459  0.6837
    5TCq1    C3   69   3.025   3.906  10.946 -0.6927  0.4780  0.2189
    5TCq1    C4   70   3.098   3.936  11.061  0.1529  0.9508  0.0681
    5TCq1    C5   71   3.230   3.966  11.047  1.0244  0.4260  0.1498
    5TCq1    C6   72   3.286   3.953  10.925 -0.1921  0.2387  0.1678
    5TCq1    C7   73   3.218   3.923  10.810  0.0747  0.7306  0.3893
    5TCq1    C8   74   3.433   3.938  10.915  0.0351 -0.8583 -0.4415
    5TCq1    O4   75   3.478   3.873  10.822 -0.6585 -0.1306  0.4165
    5TCq1    C9   76   3.033   3.930  11.186  0.3851 -0.5644  0.7362
    5TCq1    O5   77   3.072   4.014  11.274  0.3390 -0.9660  0.2226
    5TCq1    O6   78   2.921   3.872  11.194 -0.8881  0.0312  0.1041
    5TCq1    H1   79   2.863   3.919  10.794  1.6049 -2.1411  2.8432
    5TCq1    H2   80   2.918   3.895  10.961 -1.1069 -0.4632 -3.3374
    5TCq1    H3   81   3.284   3.988  11.139 -0.7207 -0.5811  1.4057
    5TCq1    H4   82   3.269   3.927  10.714  1.2194  1.6772  1.0432
    6MPD2     C   83   3.704   4.030  11.149  0.2599 -0.7909  0.0015
    6MPD2    C1   84   3.642   3.964  11.044  0.3937 -0.1457 -0.3484
    6MPD2    C2   85   3.725   3.896  10.958 -0.2529 -0.4038 -0.6049
    6MPD2    C3   86   3.865   3.889  10.977 -0.3427  0.4089  0.0403
    6MPD2    C4   87   3.921   3.963  11.076  0.5526 -0.1132  0.0224
    6MPD2    C5   88   3.840   4.025  11.161 -0.1866  0.1062  0.1660
    6MPD2     H   89   3.682   3.841  10.875 -2.2188  0.7249 -0.3406
    6MPD2    H1   90   4.027   3.966  11.097  0.6142  1.5925 -0.5692
    6MPD2    H2   91   3.644   4.086  11.220 -0.0004  0.4187 -1.1871
    6MPD2    H3   92   3.879   4.076  11.249  0.5369 -0.9136  0.4378
    6MPD2     N   93   3.956   3.816  10.899  0.0920  0.1870 -0.0774
    6MPD2    H5   94   4.055   3.810  10.923  0.7642 -0.1218 -2.9490
    6MPD2    N1   95   3.504   3.979  11.023  0.3215  0.6762 -0.3058
    6MPD2    H7   96   3.461   4.029  11.101  0.2530 -0.2161  0.2225
    7TCq1    O1   97   0.584   2.759  12.964 -0.4578 -0.0472  0.0320
    7TCq1    C1   98   0.703   2.803  12.912  0.7018  0.2756 -0.5368
    7TCq1    O2   99   0.779   2.734  12.841 -0.0657 -0.1008 -0.1527
    7TCq1    C2  100   0.750   2.900  13.011 -0.4652 -0.2141  0.0626
    7TCq1    C3  101   0.674   3.008  13.051  0.3684 -0.2099 -0.0029
    7TCq1    C4  102   0.729   3.087  13.148  0.2014  0.4139 -0.2368
    7TCq1    C5  103   0.862   3.080  13.184  0.0554  0.1046  0.4382
    7TCq1    C6  104   0.927   2.966  13.154  0.9117  0.2864  0.1927
    7TCq1    C7  105   0.874   2.872  13.064 -1.3348 -0.4410 -0.8106
    7TCq1    C8  106   1.029   2.912  13.240  0.2125 -0.1425 -0.1463
    7TCq1    O4  107   1.077   2.803  13.217 -0.0793 -0.7156 -0.4239
    7TCq1    C9  108   0.656   3.203  13.188 -0.2405  0.2603  0.5893
    7TCq1    O5  109   0.550   3.224  13.122  0.1156 -0.3564 -0.3829
    7TCq1    O6  110   0.696   3.261  13.285  0.0315  0.4189 -0.1145
    7TCq1    H1  111   0.561   2.802  13.049 -2.9401 -1.1210 -0.1030
    7TCq1    H2  112   0.579   3.026  13.002  0.5954 -0.3043 -0.4830
    7TCq1    H3  113   0.896   3.156  13.253 -2.6059  0.6610  1.1567
    7TCq1    H4  114   0.932   2.785  13.035  0.3984 -0.5695  3.0496
    8MPD2     C  115   1.332   2.893  13.660  0.1078 -0.0219  0.0622
    8MPD2    C1  116   1.280   2.785  13.586 -0.0009  0.1273 -0.2328
    8MPD2    C2  117   1.197   2.811  13.475  0.1025  0.0751  0.1971
    8MPD2    C3  118   1.163   2.948  13.446 -0.3631  0.0277  0.1750
    8MPD2    C4  119   1.219   3.049  13.512 -0.2917  0.4837 -0.5403
    8MPD2    C5  120   1.303   3.020  13.615 -0.4403  0.0870  0.2865
    8MPD2     H  121   1.141   2.738  13.417  0.8179 -0.5688  0.3089
    8MPD2    H1  122   1.200   3.155  13.505  0.2162  0.5574 -0.8010
    8MPD2    H2  123   1.405   2.875  13.738  0.0561 -1.5441 -0.2325
    8MPD2    H3  124   1.339   3.103  13.675  0.4754 -0.6179  0.7229
    8MPD2     N  125   1.068   2.986  13.350  0.0542 -0.4401 -0.2264
    8MPD2    H5  126   1.040   3.083  13.358  1.2023 -0.1890  0.6636
    8MPD2    N1  127   1.312   2.656  13.617 -0.6173  0.0563  0.2018
    8MPD2    H7  128   1.373   2.653  13.698  1.2301 -0.9644 -1.2395
    9TCq1    O1  129   3.698   1.806  10.627  0.0584  0.3698  0.2070
    9TCq1    C1  130   3.745   1.828  10.753  1.0824 -0.1395  0.1493
    9TCq1    O2  131   3.711   1.772  10.852  0.4439 -0.2423  0.0283
    9TCq1    C2  132   3.820   1.958  10.755 -0.3067 -0.4707  0.0419
    9TCq1    C3  133   3.919   1.972  10.667 -0.0277  0.0613  0.4742
    9TCq1    C4  134   4.010   2.076  10.685  0.1922  0.2665 -0.4124
    9TCq1    C5  135   4.000   2.171  10.782 -0.2161  0.3390  0.4767
    9TCq1    C6  136   3.895   2.149  10.866  0.6670 -0.1393  0.0363
    9TCq1    C7  137   3.804   2.046  10.860  0.1261 -0.3013  0.5218
    9TCq1    C8  138   3.869   2.242  10.971 -0.3097 -0.0161  0.0206
    9TCq1    O4  139   3.926   2.349  10.967  0.6565  0.2403 -0.5652
    9TCq1    C9  140   4.119   2.093  10.599 -1.2506  0.2182  0.6404
    9TCq1    O5  141   4.227   2.144  10.649  0.0897 -0.2017  0.0001
    9TCq1    O6  142   4.114   2.021  10.496 -0.3087  0.1285  0.3693
    9TCq1    H1  143   3.723   1.875  10.562 -0.6506  0.6007  0.1815
    9TCq1    H2  144   3.935   1.898  10.590 -2.0420 -0.1952  0.3065
    9TCq1    H3  145   4.088   2.232  10.794  0.1482  0.3413 -2.2461
    9TCq1    H4  146   3.722   2.035  10.930  0.7654 -0.2625  1.2677
   10MPD2     C  147   3.729   2.409  11.159 -0.2643  0.5274  0.4027
   10MPD2    C1  148   3.740   2.275  11.172 -0.2477 -0.3010  0.4248
   10MPD2    C2  149   3.697   2.206  11.281  0.1264  0.1613 -0.4798
   10MPD2    C3  150   3.653   2.282  11.389  0.6651  0.4855  0.0143
   10MPD2    C4  151   3.655   2.421  11.375 -0.4454 -0.3120 -1.0587
   10MPD2    C5  152   3.673   2.489  11.254  0.3395 -0.2331 -0.0302
   10MPD2     H  153   3.706   2.100  11.303  3.1645  0.6235  0.3749
   10MPD2    H1  154   3.645   2.487  11.461 -2.0741 -0.0517 -1.4479
   10MPD2    H2  155   3.748   2.457  11.064 -0.5567  1.0774  0.6264
   10MPD2    H3  156   3.671   2.597  11.247 -2.8543 -0.4979 -3.3049
   10MPD2     N  157   3.621   2.231  11.515 -0.5112  0.1980 -0.4155
   10MPD2    H5  158   3.608   2.298  11.590 -1.1322  0.3027 -0.6160
   10MPD2    N1  159   3.788   2.199  11.066  0.5352  0.5973 -0.7364
   10MPD2    H7  160   3.783   2.097  11.073  0.8226  0.5808 -0.7723
   11TCq1    O1  161   3.922   2.286  15.197 -0.1486 -0.0982 -0.0024
   11TCq1    C1  162   4.054   2.262  15.186 -0.7246  0.8696  0.3993
   11TCq1    O2  163   4.130   2.318  15.265  0.2806  0.0746  0.7070
   11TCq1    C2  164   4.086   2.167  15.080 -0.6198 -0.0633  0.3992
   11TCq1    C3  165   4.211   2.114  15.082 -0.0403  0.0915 -0.3733
   11TCq1    C4  166   4.256   2.055  14.968  0.8557  0.4189 -0.1574
   11TCq1    C5  167   4.192   2.054  14.844  0.5349  0.2007  0.8196
   11TCq1    C6  168   4.070   2.121  14.845 -0.5819 -0.5462 -0.2566
   11TCq1    C7  169   4.012   2.169  14.961  0.4407  0.1259 -0.1978
   11TCq1    C8  170   4.005   2.166  14.727 -0.1760  0.9317  1.2756
   11TCq1    O4  171   3.926   2.264  14.738 -0.7861 -0.1882  0.0319
   11TCq1    C9  172   4.392   1.996  14.980 -0.1693  0.0640 -0.6504
   11TCq1    O5  173   4.443   1.941  14.877 -0.2812  0.5679 -0.2323
   11TCq1    O6  174   4.455   2.011  15.088 -0.5287 -0.5967 -0.4216
   11TCq1    H1  175   3.864   2.229  15.141  0.6494 -0.3176 -0.6116
   11TCq1    H2  176   4.278   2.125  15.166 -1.9473  0.3005  1.1022
   11TCq1    H3  177   4.241   2.023  14.752 -3.0716  0.7675 -1.2818
   11TCq1    H4  178   3.924   2.232  14.960  0.4412  0.1310  0.2461
   12MPD2     C  179   3.905   2.210  14.448  0.1659 -0.7910  0.5457
   12MPD2    C1  180   3.983   2.108  14.487  0.2143 -0.8678  0.5265
   12MPD2    C2  181   4.009   2.003  14.400  0.3395 -0.3045 -0.4607
   12MPD2    C3  182   3.957   1.998  14.272  0.2274  0.4464 -0.1955
   12MPD2    C4  183   3.864   2.094  14.239 -0.1052  0.0803  0.8893
   12MPD2    C5  184   3.838   2.196  14.326  0.0696 -0.3627 -0.3746
   12MPD2     H  185   4.055   1.914  14.442 -0.0672 -0.2033  0.1933
   12MPD2    H1  186   3.826   2.100  14.138  0.8380  1.1086  0.5793
   12MPD2    H2  187   3.889   2.299  14.508  0.2255 -1.7541  1.9935
   12MPD2    H3  188   3.774   2.279  14.296  0.7261 -0.6309 -2.5337
   12MPD2     N  189   3.970   1.884  14.187 -0.5971  0.4916  0.1948
   12MPD2    H5  190   3.910   1.886  14.105 -2.7708  0.1596  1.7906
   12MPD2    N1  191   4.046   2.094  14.617 -0.7357 -0.6496 -0.1751
   12MPD2    H7  192   4.099   2.010  14.635 -0.1253  0.1127  1.6057
   13TCq1    O1  193   4.138   1.376  10.672 -0.1379 -0.3171 -0.1268
   13TCq1    C1  194   4.052   1.350  10.580  0.1399  0.3576  0.2312
   13TCq1    O2  195   4.078   1.326  10.466 -0.6586 -0.2436  0.2641
   13TCq1    C2  196   3.922   1.298  10.633 -0.7420  0.8239 -0.5305
   13TCq1    C3  197   3.860   1.189  10.568  0.5174  0.1942  0.2322
   13TCq1    C4  198   3.735   1.155  10.612 -0.3798 -0.7005  0.1377
   13TCq1    C5  199   3.667   1.235  10.702 -0.0679  0.0716 -0.0307
   13TCq1    C6  200   3.732   1.338  10.755  0.2483  0.5150  0.8739
   13TCq1    C7  201   3.866   1.364  10.737 -0.4087  0.4749 -0.7144
   13TCq1    C8  202   3.661   1.417  10.852 -0.8200  0.1847 -0.0419
   13TCq1    O4  203   3.710   1.435  10.961 -0.1568 -0.0130  0.1554
   13TCq1    C9  204   3.659   1.050  10.548  0.4586 -0.7035 -0.0230
   13TCq1    O5  205   3.569   1.008  10.620  0.1879  0.1957  0.2866
   13TCq1    O6  206   3.722   0.990  10.456 -0.4481  0.5680  0.0373
   13TCq1    H1  207   4.104   1.394  10.762  1.3457 -1.6144  0.7038
   13TCq1    H2  208   3.907   1.137  10.485  2.2977 -2.7020  3.0480
   13TCq1    H3  209   3.565   1.212  10.730  0.3540 -0.9596  0.6906
   13TCq1    H4  210   3.897   1.465  10.761 -1.8629  0.6226  0.5518
   14MPD2     C  211   3.324   1.553  10.778  0.0440 -0.1651 -0.2974
   14MPD2    C1  212   3.438   1.530  10.853 -0.3900  0.4208  0.7551
   14MPD2    C2  213   3.445   1.592  10.971  0.1711  0.5654  0.2317
   14MPD2    C3  214   3.338   1.669  11.012 -0.1864  0.3129  0.5678
   14MPD2    C4  215   3.224   1.686  10.941 -0.5398  0.7296 -0.5896
   14MPD2    C5  216   3.212   1.625  10.819 -0.3810 -0.2917  0.3611
   14MPD2     H  217   3.535   1.582  11.031  0.6236  1.4141 -0.3210
   14MPD2    H1  218   3.148   1.758  10.971 -0.3388  0.5412  0.3619
   14MPD2    H2  219   3.318   1.523  10.674 -0.6141 -0.1325 -0.2669
   14MPD2    H3  220   3.127   1.640  10.754 -0.6952 -1.9433  0.3736
   14MPD2     N  221   3.339   1.754  11.134  0.0357  0.2727 -0.3167
   14MPD2    H5  222   3.275   1.833  11.131  0.8967  0.8279 -4.1630
   14MPD2    N1  223   3.540   1.455  10.794 -0.2195  0.4712 -0.1254
   14MPD2    H7  224   3.537   1.439  10.694 -0.2816  3.4046 -0.5995
   15TCq1    O1  225   0.600   1.135   1.970  0.3806 -0.1750  0.4531
   15TCq1    C1  226   0.619   1.000   1.968  0.3449  0.1273 -0.0951
   15TCq1    O2  227   0.674   0.936   2.057 -0.1559  0.0760 -0.2286
   15TCq1    C2  228   0.606   0.964   1.834  0.1214  0.1770  0.1024
   15TCq1    C3  229   0.498   1.023   1.774  0.0743  0.3110  0.5756
   15TCq1    C4  230   0.484   0.996   1.640  0.1283 -0.4314  0.1130
   15TCq1    C5  231   0.570   0.917   1.572  0.8167  0.5056 -0.2823
   15TCq1    C6  232   0.679   0.863   1.637  0.3526  0.7686 -0.4634
   15TCq1    C7  233   0.699   0.893   1.767  0.5151 -0.6671 -0.6477
   15TCq1    C8  234   0.786   0.793   1.564  0.0584  0.2075 -0.4066
   15TCq1    O4  235   0.885   0.757   1.635  0.5901 -0.4560  0.4723
   15TCq1    C9  236   0.362   1.051   1.572  0.0142  0.6634 -0.2695
   15TCq1    O5  237   0.346   1.022   1.452  0.8959  0.3056 -0.3561
   15TCq1    O6  238   0.282   1.133   1.630  0.3130 -0.1076 -0.5171
   15TCq1    H1  239   0.598   1.161   1.875 -1.1211 -1.7263  0.0546
   15TCq1    H2  240   0.410   1.069   1.818 -2.3161 -3.6538 -0.1047
   15TCq1    H3  241   0.542   0.886   1.472  0.2600  0.0903  0.0070
   15TCq1    H4  242   0.775   0.849   1.831  1.2846 -1.2385 -1.9552
   16MPD2     C  243   0.823   0.817   1.200  0.5216 -0.5082 -0.3856
   16MPD2    C1  244   0.865   0.789   1.326 -0.9263 -0.2427  0.2941
   16MPD2    C2  245   0.993   0.738   1.354 -0.2841 -0.2119 -0.6124
   16MPD2    C3  246   1.086   0.732   1.249 -0.3313  0.4738 -0.4163
   16MPD2    C4  247   1.040   0.762   1.123 -0.0080  0.4590 -0.3520
   16MPD2    C5  248   0.909   0.795   1.098 -0.5936  0.6357  0.3353
   16MPD2     H  249   1.033   0.710   1.450 -1.4925 -0.7235 -0.2511
   16MPD2    H1  250   1.094   0.765   1.029  1.1738 -1.3127  0.2765
   16MPD2    H2  251   0.723   0.856   1.184  0.6489  0.0541  0.1798
   16MPD2    H3  252   0.874   0.832   1.002  1.2198 -1.2316 -1.0369
   16MPD2     N  253   1.211   0.670   1.273  0.9144  0.5466 -0.4372
   16MPD2    H5  254   1.237   0.662   1.371  0.9605  1.7113 -0.3571
   16MPD2    N1  255   0.772   0.813   1.431 -0.1898 -0.0043  0.3119
   16MPD2    H7  256   0.679   0.834   1.397  0.5180  1.9619 -0.4138
   17TCq1    O1  257   3.594   0.101  10.855  0.1136 -0.3348  0.7774
   17TCq1    C1  258   3.581   0.149  10.730 -0.0824 -1.1218  0.0745
   17TCq1    O2  259   3.579   0.080  10.629  0.1166  0.5694 -0.6554
   17TCq1    C2  260   3.635   0.280  10.735  0.1764 -0.5303 -0.1983
   17TCq1    C3  261   3.583   0.384  10.809 -0.5324  0.0842 -0.6455
   17TCq1    C4  262   3.624   0.512  10.778  0.0377  0.1943  0.2342
   17TCq1    C5  263   3.714   0.531  10.676 -0.2449  0.2937 -0.5417
   17TCq1    C6  264   3.756   0.427  10.602 -0.6069 -0.1150 -0.5948
   17TCq1    C7  265   3.712   0.304  10.627  0.5310  0.0156  0.3809
   17TCq1    C8  266   3.838   0.449  10.484 -0.3024 -0.0422  0.2231
   17TCq1    O4  267   3.803   0.398  10.380  0.4097 -0.7245  0.0245
   17TCq1    C9  268   3.563   0.622  10.850 -0.3642  0.3412  0.2016
   17TCq1    O5  269   3.531   0.606  10.970 -0.2122 -0.1246  0.2963
   17TCq1    O6  270   3.555   0.734  10.789 -0.3306 -0.2403 -0.3015
   17TCq1    H1  271   3.589   0.168  10.927  1.7817  0.3479  0.2572
   17TCq1    H2  272   3.512   0.388  10.891 -2.4237  0.9265 -2.3138
   17TCq1    H3  273   3.739   0.630  10.638  2.1455 -0.3152 -0.5753
   17TCq1    H4  274   3.745   0.218  10.569  0.3063 -1.0167  1.7851
   18MPD2     C  275   4.013   0.569  10.272 -0.0076  0.5521  0.4689
   18MPD2    C1  276   4.044   0.579  10.406 -0.8329 -0.5114  0.1574
   18MPD2    C2  277   4.158   0.646  10.451  0.3004 -0.2062  0.2210
   18MPD2    C3  278   4.237   0.711  10.357  0.3184  0.0505 -0.5051
   18MPD2    C4  279   4.206   0.701  10.229 -0.4399  0.6442  0.1686
   18MPD2    C5  280   4.098   0.634  10.184 -0.2745  0.8301 -0.0074
   18MPD2     H  281   4.170   0.645  10.559 -2.2425 -1.3560  0.5033
   18MPD2    H1  282   4.262   0.759  10.156 -0.1927 -0.1753 -0.2972
   18MPD2    H2  283   3.915   0.526  10.252 -0.3840  2.3285 -1.4361
   18MPD2    H3  284   4.084   0.632  10.076 -0.2246  1.3208 -0.0220
   18MPD2     N  285   4.359   0.779  10.374  0.3265 -0.0462  0.1732
   18MPD2    H5  286   4.414   0.816  10.297  1.1370 -2.2503 -0.3120
   18MPD2    N1  287   3.956   0.524  10.502  0.2792 -0.0025  0.3455
   18MPD2    H7  288   3.977   0.539  10.600  1.4791 -1.6759  0.3382
   19TMC2    C1  289   1.216   1.390  13.591 -0.2920 -0.3474 -0.2084
   19TMC2    C2  290   1.202   1.429  13.461  0.4171 -0.3045 -0.0772
   19TMC2    C3  291   1.083   1.484  13.422  0.0855  1.0547  0.1567
   19TMC2    C4  292   1.125   1.422  13.687 -0.2045  0.1991 -1.1444
   19TMC2    C5  293   1.011   1.478  13.647 -0.3834  0.8861  0.2416
   19TMC2    C6  294   0.982   1.502  13.512 -0.3382  0.1457 -0.4031
   19TMC2     C  295   1.346   1.336  13.624 -0.5747  0.0863 -0.0356
   19TMC2     O  296   1.437   1.336  13.543 -0.1379 -0.1094  0.1853
   19TMC2     H  297   1.279   1.417  13.386  0.4782  1.6299 -0.3401
   19TMC2    H1  298   1.131   1.384  13.789 -1.4602 -0.0872 -1.1778
   19TMC2    H2  299   0.882   1.523  13.476 -1.0027 -0.5793  1.0058
   19TMC2    C7  300   0.906   1.501  13.744  0.0320  0.6891 -0.3002
   19TMC2    C8  301   1.062   1.504  13.281 -0.3772 -0.3009  0.1451
   19TMC2    O1  302   0.794   1.518  13.699  0.7997 -0.4579  0.0503
   19TMC2    O2  303   1.118   1.437  13.194 -0.6785 -0.4723 -0.0974
   19TMC2    O5  304   0.973   1.605  13.262  0.3193  0.4969 -0.4748
   19TMC2    H5  305   0.952   1.658  13.341  0.4588 -1.8660  1.1338
   20MPD2     C  306   1.591   1.232  13.774  1.4241 -0.5811 -0.1052
   20MPD2    C1  307   1.462   1.229  13.818 -0.1563  0.0486 -0.1056
   20MPD2    C2  308   1.439   1.187  13.946 -0.5551  0.0268 -0.2343
   20MPD2    C3  309   1.541   1.156  14.037 -0.1819  0.6075 -0.8552
   20MPD2    C4  310   1.665   1.151  13.990 -0.8932  0.0728  0.7901
   20MPD2    C5  311   1.687   1.187  13.861 -0.0992  0.6204 -0.3678
   20MPD2     H  312   1.339   1.174  13.984 -0.0907  2.1145  1.6974
   20MPD2    H1  313   1.747   1.124  14.056  0.7239 -0.2319 -1.3363
   20MPD2    H2  314   1.616   1.270  13.676 -1.2737 -0.2021 -0.6479
   20MPD2    H3  315   1.790   1.197  13.831 -0.5011  1.2999 -1.4895
   20MPD2     N  316   1.520   1.132  14.174  0.3170 -0.4387 -0.6011
   20MPD2    H5  317   1.591   1.090  14.233 -1.0730 -1.4881  0.3201
   20MPD2    N1  318   1.347   1.280  13.749 -0.0104 -0.5710 -0.0779
   20MPD2    H7  319   1.258   1.292  13.797 -0.0781 -0.7107 -0.1702
   21MPD2     C  320   3.515   2.006  14.751 -0.0475 -0.6728 -0.0185
   21MPD2    C1  321   3.535   1.893  14.671 -0.2936 -0.6941  0.4595
   21MPD2    C2  322   3.415   1.830  14.624 -0.3629  0.0452 -0.3794
   21MPD2    C3  323   3.290   1.883  14.653 -0.3979 -0.7781  0.0750
   21MPD2    C4  324   3.282   1.994  14.728  0.1327 -0.2828 -0.1279
   21MPD2    C5  325   3.396   2.064  14.773 -0.6401  0.8645 -0.1687
   21MPD2     H  326   3.433   1.736  14.575  3.2205  0.9057 -0.7511
   21MPD2    H1  327   3.186   2.038  14.753 -0.7422 -0.7620 -2.6868
   21MPD2    H2  328   3.601   2.058  14.792  0.4887 -0.3160 -1.5812
   21MPD2    H3  329   3.377   2.146  14.841  0.0040  0.1665  0.8535
   21MPD2     N  330   3.169   1.816  14.624  0.2254 -0.5420  0.2962
   21MPD2    H5  331   3.094   1.829  14.691 -0.4763  0.8796 -0.7745
   21MPD2    N1  332   3.657   1.834  14.648  0.7291 -0.1799  0.4202
   21MPD2    H7  333   3.664   1.748  14.595  0.9887 -0.1440  0.3979
   22TCq2    C1  334   3.169   1.708  14.547  0.0176  0.7902 -0.2858
   22TCq2    O2  335   3.255   1.661  14.470 -0.0142 -0.1917 -0.6093
   22TCq2    C2  336   3.055   1.625  14.576  0.7631  0.4024 -0.6380
   22TCq2    C3  337   3.075   1.496  14.613 -0.7092 -0.8557 -0.2568
   22TCq2    C4  338   2.980   1.437  14.688  0.3798  0.4979 -0.0329
   22TCq2    C5  339   2.871   1.504  14.735 -0.0710 -0.5939 -0.3994
   22TCq2    C6  340   2.847   1.635  14.697 -0.9327  0.2606 -0.4229
   22TCq2    C7  341   2.944   1.693  14.620 -0.6125  0.2465 -0.7704
   22TCq2    C8  342   2.757   1.717  14.774  0.1788  0.1577 -0.7640
   22TCq2    O4  343   2.728   1.670  14.885 -0.0525  0.3693 -0.2072
   22TCq2    C9  344   2.976   1.296  14.702  0.1535  0.8958  0.2717
   22TCq2    O5  345   2.877   1.242  14.752 -0.1557  0.5258 -0.5953
   22TCq2    O6  346   3.084   1.242  14.663  0.0259 -0.5092  0.2992
   22TCq2    H2  347   3.153   1.429  14.579 -0.4360  0.0273 -1.3674
   22TCq2    H3  348   2.798   1.457  14.800 -1.6167  0.3148 -1.4856
   22TCq2    H4  349   2.930   1.801  14.613  1.8470  0.6862  1.3253
   23MPD2     C  350   4.551   3.139  15.282 -0.2892  0.2086 -0.1641
   23MPD2    C1  351   4.463   3.038  15.292 -0.4245  0.0962  0.2852
   23MPD2    C2  352   4.382   3.018  15.189  0.2833  0.3295 -0.8859
   23MPD2    C3  353   4.391   3.090  15.071 -0.3964 -0.3259 -0.2709
   23MPD2    C4  354   4.482   3.191  15.063  0.1927  0.3978 -0.1045
   23MPD2    C5  355   4.560   3.220  15.167  0.7116 -0.0486 -0.0868
   23MPD2     H  356   4.312   2.936  15.181 -1.7073  1.9570 -0.0969
   23MPD2    H1  357   4.469   3.269  14.989  0.5840 -1.2506 -1.8825
   23MPD2    H2  358   4.605   3.167  15.372  0.0897  4.0559 -1.5830
   23MPD2    H3  359   4.631   3.301  15.166  0.8362 -0.1466  0.4197
   23MPD2     N  360   4.306   3.066  14.955 -0.4486  0.2745  0.5243
   23MPD2    H5  361   4.320   3.133  14.879 -0.9002 -0.6060 -0.3339
   23MPD2    N1  362   4.454   2.965  15.410  0.0972 -0.0895  0.0084
   23MPD2    H7  363   4.497   2.992  15.498  3.2089 -1.9589 -0.9216
   24TCq2    C1  364   4.209   2.969  14.943  0.1613  0.5363  0.1957
   24TCq2    O2  365   4.164   2.896  15.028  0.5652  0.0459 -0.7611
   24TCq2    C2  366   4.148   2.978  14.812  0.2172  0.0453 -0.2137
   24TCq2    C3  367   4.206   3.038  14.701  0.5607  0.5010  0.0526
   24TCq2    C4  368   4.139   3.035  14.582 -0.6515 -0.2844 -0.2076
   24TCq2    C5  369   4.023   2.955  14.556 -0.1673  0.3649 -0.5168
   24TCq2    C6  370   3.966   2.911  14.672 -0.3599  0.5395  0.2286
   24TCq2    C7  371   4.024   2.917  14.794 -0.2835  0.1692  0.0528
   24TCq2    C8  372   3.835   2.861  14.686  0.1166 -0.0499 -0.6297
   24TCq2    O4  373   3.813   2.787  14.777  0.1329  0.2484 -0.1071
   24TCq2    C9  374   4.186   3.123  14.480 -0.2844  0.8665 -0.0746
   24TCq2    O5  375   4.147   3.111  14.367 -0.8510  0.2104 -0.1285
   24TCq2    O6  376   4.260   3.218  14.516  0.3297 -0.7165  0.0964
   24TCq2    H2  377   4.304   3.082  14.705  1.0356 -0.3166 -2.6811
   24TCq2    H3  378   3.977   2.960  14.458 -1.7648  1.5558  0.2799
   24TCq2    H4  379   3.970   2.879  14.880  0.4020 -1.3064 -0.1559
   25TMC2    C1  380   3.553   4.618  11.536  0.1052  0.6052 -0.6048
   25TMC2    C2  381   3.679   4.566  11.505  0.3101 -0.0418 -0.1966
   25TMC2    C3  382   3.784   4.647  11.535 -0.7365 -0.3281 -0.7223
   25TMC2    C4  383   3.542   0.019  11.598  0.3704 -0.3064  0.0504
   25TMC2    C5  384   3.649   0.098  11.626  0.5754  0.8974 -0.2983
   25TMC2    C6  385   3.773   0.051  11.587  0.2424 -0.7415  0.3034
   25TMC2     C  386   3.437   4.540  11.508  0.0051  0.5010 -0.3146
   25TMC2     O  387   3.459   4.418  11.512 -0.2350  0.3058  0.1155
   25TMC2     H  388   3.683   4.466  11.462 -0.2826  0.8401 -2.3039
   25TMC2    H1  389   3.445   0.050  11.635  0.3193  0.4229 -0.6885
   25TMC2    H2  390   3.857   0.117  11.606 -0.7895  0.7985 -0.4647
   25TMC2    C7  391   3.636   0.155  11.762 -0.6538  0.0182  0.2888
   25TMC2    C8  392   3.908   4.597  11.495  0.3646  0.2711  0.0763
   25TMC2    O1  393   3.547   0.105  11.832 -0.4824  0.2560  0.0942
   25TMC2    O2  394   3.959   4.490  11.531 -0.2835  0.6309  0.2542
   25TMC2    O5  395   3.946   4.657  11.381  0.1776  0.6211 -0.6865
   25TMC2    H5  396   3.877   4.723  11.357  0.1395  0.9349  0.3106
   26MPD2     C  397   2.936   4.462  11.445 -0.5830 -0.5363  0.4751
   26MPD2    C1  398   2.962   4.592  11.412 -0.1083 -0.3259 -0.8163
   26MPD2    C2  399   3.091   4.639  11.423  0.7284 -0.4357 -0.6095
   26MPD2    C3  400   3.192   4.561  11.468  0.4170  0.5514 -0.0094
   26MPD2    C4  401   3.160   4.431  11.503 -0.0681  0.2416  0.3505
   26MPD2    C5  402   3.033   4.378  11.483  0.3027  0.0029  0.5478
   26MPD2     H  403   3.122   0.015  11.390 -0.9429  0.8246  1.6070
   26MPD2    H1  404   3.225   4.362  11.554 -0.6607  1.0132  2.1484
   26MPD2    H2  405   2.841   4.415  11.420 -1.3234  1.2894 -0.2158
   26MPD2    H3  406   3.008   4.276  11.510  2.0404 -0.2671  1.1166
   26MPD2     N  407   3.325   4.614  11.483 -0.0093  0.0370  0.1134
   26MPD2    H5  408   3.342   4.714  11.480 -0.4288  0.2068  3.2914
   26MPD2    N1  409   2.864   4.658  11.336 -0.0330  0.0905  0.1528
   26MPD2    H7  410   2.775   4.608  11.329  0.0446  0.3772 -2.8613
   27TMC2    C1  411   2.193   2.427  11.862 -0.1285  0.4700  0.2218
   27TMC2    C2  412   2.186   2.411  11.730  0.1340  0.3868 -0.4479
   27TMC2    C3  413   2.179   2.520  11.649  0.6478 -0.1719  0.0635
   27TMC2    C4  414   2.188   2.551  11.921 -0.4070 -0.2936 -0.0986
   27TMC2    C5  415   2.176   2.659  11.832  0.6415 -0.4131  0.5905
   27TMC2    C6  416   2.162   2.647  11.698  0.0714 -0.4814 -0.1110
   27TMC2     C  417   2.165   2.306  11.934  0.1680  0.0330 -0.9130
   27TMC2     O  418   2.191   2.200  11.879 -0.4084 -0.7995 -0.5025
   27TMC2     H  419   2.199   2.312  11.686 -1.6897 -0.1794  0.3145
   27TMC2    H1  420   2.186   2.559  12.029  2.2379 -0.1387 -0.0656
   27TMC2    H2  421   2.131   2.721  11.626 -1.7308 -0.7958  0.3523
   27TMC2    C7  422   2.187   2.797  11.886 -0.0307  0.0662 -0.2124
   27TMC2    C8  423   2.168   2.494  11.507  0.1634 -0.5891 -1.0055
   27TMC2    O1  424   2.224   2.884  11.806 -0.1973  0.0182  0.1800
   27TMC2    O2  425   2.123   2.570  11.425  0.4373 -0.0039  0.3613
   27TMC2    O5  426   2.283   2.425  11.489 -0.4633 -0.4760  0.4757
   27TMC2    H5  427   2.327   2.401  11.574  2.4494  0.5283 -0.7289
   28MPD2     C  428   2.028   2.037  12.340 -0.3433 -0.2542 -0.0157
   28MPD2    C1  429   1.960   2.154  12.358  0.7960  0.6179 -0.4583
   28MPD2    C2  430   1.991   2.253  12.262 -0.4054 -0.2147  0.1598
   28MPD2    C3  431   2.069   2.224  12.151  0.1869  0.0119  0.1940
   28MPD2    C4  432   2.138   2.105  12.140  0.3880  0.3722 -0.1166
   28MPD2    C5  433   2.118   2.014  12.242  0.5070  0.2421  0.8484
   28MPD2     H  434   1.951   2.353  12.269  0.8695  0.6082 -4.1692
   28MPD2    H1  435   2.204   2.071  12.061 -0.5709 -0.4928 -0.5393
   28MPD2    H2  436   2.007   1.956  12.409  0.9002 -1.3118 -0.8801
   28MPD2    H3  437   2.173   1.920  12.241 -2.3037 -1.3866  0.0039
   28MPD2     N  438   2.114   2.329  12.062 -0.3453 -0.4513  0.5741
   28MPD2    H5  439   2.098   2.425  12.088 -2.2816 -0.3093 -1.2298
   28MPD2    N1  440   1.868   2.168  12.469  0.5655 -0.2205 -0.1106
   28MPD2    H7  441   1.857   2.085  12.526  3.0569  1.0366  2.2196
   29MPD2     C  442   1.405   4.321  13.841  0.0247 -0.1927  0.4404
   29MPD2    C1  443   1.501   4.284  13.931  0.0533 -0.0759  0.3198
   29MPD2    C2  444   1.600   4.382  13.954 -0.3109  0.9133 -0.0036
   29MPD2    C3  445   1.591   4.512  13.910  0.0604 -0.8862  0.0049
   29MPD2    C4  446   1.486   4.543  13.823 -0.0269  0.1451  0.5019
   29MPD2    C5  447   1.406   4.443  13.781 -0.4695  0.6800  0.2657
   29MPD2     H  448   1.687   4.362  14.017 -2.2219 -0.8341  2.0766
   29MPD2    H1  449   1.478   4.644  13.783 -1.2924  0.1263  0.7329
   29MPD2    H2  450   1.321   4.258  13.814  0.4698 -1.0551  1.0725
   29MPD2    H3  451   1.324   4.467  13.714  1.4057  0.5291 -2.0449
   29MPD2     N  452   1.691   4.610  13.927  0.2540 -0.6974  1.5663
   29MPD2    H5  453   1.683   4.695  13.871  0.0149 -1.0526  1.0696
   29MPD2    N1  454   1.509   4.160  13.999  0.3769 -0.3270  0.1481
   29MPD2    H7  455   1.583   4.159  14.069  1.5418  0.4352 -1.0447
   30TCq2    C1  456   1.802   4.601  14.005  0.0735 -0.5261  0.0924
   30TCq2    O2  457   1.845   4.517  14.084  0.0053 -0.0477 -0.5901
   30TCq2    C2  458   1.879   4.722  14.010 -0.3233  0.5920 -0.0080
   30TCq2    C3  459   2.016   4.704  14.020  0.2865  0.0285 -0.0211
   30TCq2    C4  460   2.098   0.091  14.000 -0.6824 -0.5999 -0.8940
   30TCq2    C5  461   2.045   0.214  13.978  0.3846  0.3676 -0.1668
   30TCq2    C6  462   1.910   0.224  13.969  0.4106  0.4320  0.1535
   30TCq2    C7  463   1.824   0.118  13.982 -0.2081  0.2196  0.5991
   30TCq2    C8  464   1.851   0.356  13.963  0.2493 -0.0849 -0.2019
   30TCq2    O4  465   1.766   0.382  13.879  0.2187  0.0343 -0.1035
   30TCq2    C9  466   2.239   0.061  14.008  0.1299 -0.0815  0.0499
   30TCq2    O5  467   2.310   0.163  13.983 -0.2700  0.2263 -0.2932
   30TCq2    O6  468   2.276   4.671  14.053  0.3517  0.1048 -0.1401
   30TCq2    H2  469   2.051   4.608  14.055 -0.6050 -0.1297  0.4231
   30TCq2    H3  470   2.114   0.298  13.981  0.8230  0.0792 -1.9256
   30TCq2    H4  471   1.717   0.136  13.977 -0.1598  0.9760  2.3144
   31MPD2     C  472   4.585   3.604  14.961 -0.0058  0.8796  0.3630
   31MPD2    C1  473   4.476   3.672  14.914 -0.3791 -0.2579  0.4243
   31MPD2    C2  474   4.361   3.675  14.996  0.1766  0.3084  0.6393
   31MPD2    C3  475   4.359   3.613  15.117  0.5349 -0.3484 -0.3889
   31MPD2    C4  476   4.474   3.556  15.162  0.1686  1.1096 -0.1320
   31MPD2    C5  477   4.588   3.545  15.085 -0.6145 -0.5273 -0.2282
   31MPD2     H  478   4.270   3.725  14.965 -1.3052 -0.4278  3.7891
   31MPD2    H1  479   4.484   3.518  15.263 -0.0212 -0.1938 -0.5932
   31MPD2    H2  480   4.682   3.601  14.912  0.0417 -0.0455  0.5142
   31MPD2    H3  481   4.673   3.495  15.130 -0.3461 -0.7072 -0.9321
   31MPD2     N  482   4.261   3.641  15.213  0.8240 -0.6801 -0.9868
   31MPD2    H5  483   4.270   3.588  15.299 -1.7514  1.7633  0.7880
   31MPD2    N1  484   4.484   3.718  14.781 -0.4747  0.5860 -0.1354
   31MPD2    H7  485   4.574   3.720  14.734 -0.4661 -1.7818 -0.2159
   32TCq2    C1  486   4.146   3.722  15.207  0.2226 -0.2256  0.2553
   32TCq2    O2  487   4.112   3.798  15.118 -0.1426 -0.2049  0.3237
   32TCq2    C2  488   4.056   3.715  15.323 -0.5105  0.2199  0.4682
   32TCq2    C3  489   3.936   3.770  15.310  0.4781 -0.0819  0.2881
   32TCq2    C4  490   3.855   3.762  15.424 -1.3251 -0.9911 -0.6591
   32TCq2    C5  491   3.897   3.708  15.538 -0.6846  0.0276 -0.0342
   32TCq2    C6  492   4.016   3.645  15.543  0.3911 -0.0516  0.0395
   32TCq2    C7  493   4.100   3.649  15.434  0.4759 -0.8163  0.4978
   32TCq2    C8  494   4.070   3.603  15.671  0.2189  0.4807 -0.1777
   32TCq2    O4  495   4.189   3.574  15.665  0.6367  0.2819 -0.4209
   32TCq2    C9  496   3.717   3.815  15.410 -1.1866  0.0911  0.3219
   32TCq2    O5  497   3.687   3.860  15.297 -0.3690  0.2556 -0.2114
   32TCq2    O6  498   3.648   3.826  15.514  0.4188  0.2544  0.6820
   32TCq2    H2  499   3.895   3.817  15.221 -0.5869  0.1878  0.9155
   32TCq2    H3  500   3.820   3.696  15.614 -0.2673  1.8272  0.6860
   32TCq2    H4  501   4.192   3.593  15.437 -0.3414 -2.1441  0.5462
   33MPD2     C  502   4.681   1.337  10.775 -0.0292 -0.5019  0.2913
   33MPD2    C1  503   4.716   1.300  10.649 -0.3185 -0.6263 -0.6713
   33MPD2    C2  504   4.722   1.391  10.543 -0.2869  0.1819 -0.4116
   33MPD2    C3  505   4.679   1.521  10.569 -0.2119 -0.1851 -0.2014
   33MPD2    C4  506   4.646   1.558  10.702 -0.3525  0.1430 -0.0247
   33MPD2    C5  507   4.655   1.465  10.801 -0.2583  0.1220  0.0631
   33MPD2     H  508   0.019   1.363  10.440 -0.6157 -0.9339 -0.1647
   33MPD2    H1  509   4.617   1.658  10.731  0.3041 -0.1025  1.4967
   33MPD2    H2  510   4.671   1.275  10.864 -0.9254  0.0375  0.5645
   33MPD2    H3  511   4.632   1.480  10.906  0.3286  1.0590  0.0548
   33MPD2     N  512   4.670   1.623  10.469 -0.5410 -0.2117  0.9329
   33MPD2    H5  513   4.608   1.700  10.493  0.6485  0.9962  0.0703
   33MPD2    N1  514   0.009   1.157  10.629  1.0382  0.0577 -0.0198
   33MPD2    H7  515   4.702   1.089  10.697 -2.2175  0.3219 -1.1814
   34TCq2    C1  516   0.024   1.628  10.352 -0.9347  0.0974  0.4500
   34TCq2    O2  517   0.125   1.559  10.328  0.1483  0.2060 -0.0222
   34TCq2    C2  518   4.715   1.741  10.263 -0.1480 -0.4348  0.0236
   34TCq2    C3  519   4.583   1.785  10.250  0.5323 -0.2173  0.3967
   34TCq2    C4  520   4.545   1.876  10.153  0.0202 -0.1126  0.0200
   34TCq2    C5  521   4.638   1.928  10.068 -0.1594  0.1330  0.3451
   34TCq2    C6  522   0.054   1.882  10.084  0.2486  0.6729  0.3817
   34TCq2    C7  523   0.092   1.783  10.177  0.0785  0.8819 -0.2120
   34TCq2    C8  524   0.151   1.907   9.973  0.7337 -0.1515  0.2305
   34TCq2    O4  525   0.266   1.947   9.997 -0.9132 -0.0093 -0.3975
   34TCq2    C9  526   4.411   1.916  10.133 -0.3055  0.2981 -0.8219
   34TCq2    O5  527   4.389   1.960  10.018 -0.1015  0.0814  0.5852
   34TCq2    O6  528   4.329   1.890  10.226  0.3642  0.5995  0.6704
   34TCq2    H2  529   4.505   1.766  10.323  0.0963  0.8356  0.1997
   34TCq2    H3  530   4.620   2.015  10.007  0.2320 -0.3744 -0.4878
   34TCq2    H4  531   0.194   1.746  10.181 -1.0452 -2.4264 -1.7384
   35MPD2     C  532   1.784   2.989  11.979 -0.1825  0.8302 -0.1168
   35MPD2    C1  533   1.745   2.861  12.003  0.4045 -0.6693 -0.0319
   35MPD2    C2  534   1.775   2.760  11.911 -0.1542  0.1558 -0.2414
   35MPD2    C3  535   1.831   2.781  11.790 -0.4390 -0.3330  0.4168
   35MPD2    C4  536   1.869   2.910  11.762 -0.3403 -0.2212 -0.0131
   35MPD2    C5  537   1.844   3.009  11.852 -1.0765 -0.3829 -0.2133
   35MPD2     H  538   1.739   2.659  11.924 -0.3831  0.1906 -0.5896
   35MPD2    H1  539   1.905   2.941  11.665 -0.3832  0.1279  0.0838
   35MPD2    H2  540   1.770   3.066  12.054  2.4657  2.1817 -1.0334
   35MPD2    H3  541   1.861   3.113  11.827  4.3367 -1.1325  0.3350
   35MPD2     N  542   1.834   2.677  11.697  0.4261  0.0663 -0.5569
   35MPD2    H5  543   1.818   2.585  11.736  0.7635  1.1285  2.1473
   35MPD2    N1  544   1.669   2.828  12.119 -0.3790 -0.7624 -0.0483
   35MPD2    H7  545   1.631   2.906  12.173  0.4187  1.0283 -2.0894
   36TCq2    C1  546   1.849   2.686  11.564 -0.1095  0.1062 -0.3936
   36TCq2    O2  547   1.867   2.788  11.498 -0.1000  0.0023  0.0654
   36TCq2    C2  548   1.802   2.573  11.492 -0.6466 -0.2191 -0.1146
   36TCq2    C3  549   1.793   2.570  11.356 -0.6080 -0.1331  0.4347
   36TCq2    C4  550   1.717   2.473  11.293  0.1602  0.2280 -0.3585
   36TCq2    C5  551   1.658   2.374  11.357  0.1360 -0.7696 -0.2071
   36TCq2    C6  552   1.663   2.382  11.493 -0.2690  0.1238  0.1767
   36TCq2    C7  553   1.732   2.476  11.566  0.4163  0.0419 -0.1048
   36TCq2    C8  554   1.547   2.316  11.558  0.3976  0.6842 -0.5829
   36TCq2    O4  555   1.500   2.219  11.499  0.1209 -0.4025  1.0519
   36TCq2    C9  556   1.724   2.457  11.154  0.1399 -0.1310 -0.6178
   36TCq2    O5  557   1.788   2.544  11.091 -0.0560  0.4207  0.0979
   36TCq2    O6  558   1.665   2.358  11.099  0.4846  0.0339  0.8160
   36TCq2    H2  559   1.847   2.646  11.300 -0.6578  0.0098  0.5840
   36TCq2    H3  560   1.594   2.306  11.303  1.5309 -1.2279 -1.2839
   36TCq2    H4  561   1.737   2.463  11.674  0.6469  2.3596  0.1526
   37TMC2    C1  562   2.664   3.546  11.486  0.3626 -0.1170  0.4297
   37TMC2    C2  563   2.615   3.640  11.404 -0.0479  0.4924 -0.2843
   37TMC2    C3  564   2.694   3.676  11.296 -0.6004  0.1042 -0.4096
   37TMC2    C4  565   2.788   3.481  11.476 -0.4890 -0.4313  0.3619
   37TMC2    C5  566   2.871   3.528  11.373 -0.1767  0.0658 -0.0335
   37TMC2    C6  567   2.817   3.612  11.277  0.4594 -0.3764 -0.5705
   37TMC2     C  568   2.565   3.508  11.595  0.6981 -0.4537 -0.1471
   37TMC2     O  569   2.464   3.573  11.604  0.0888 -0.0993 -0.1274
   37TMC2     H  570   2.515   3.682  11.409 -0.5220 -0.9243  1.8574
   37TMC2    H1  571   2.827   3.417  11.554  0.1002  0.1356  0.5295
   37TMC2    H2  572   2.877   3.624  11.188 -0.0556 -2.0012 -1.1471
   37TMC2    C7  573   3.009   3.491  11.375  0.2847 -0.4856  0.3615
   37TMC2    C8  574   2.629   3.744  11.181 -0.2615  0.0589 -0.2692
   37TMC2    O1  575   3.045   3.394  11.444 -0.5285  0.0099  0.3893
   37TMC2    O2  576   2.515   3.723  11.160 -0.4159  0.4178 -0.2354
   37TMC2    O5  577   2.716   3.769  11.080  0.2573  0.1122 -0.0721
   37TMC2    H5  578   2.798   3.789  11.130  0.2565  1.1252 -0.4625
   38MPD2     C  579   2.428   3.259  12.019  0.5245 -0.4325  0.4083
   38MPD2    C1  580   2.559   3.234  11.989 -1.2100  0.9727 -0.0448
   38MPD2    C2  581   2.618   3.294  11.884 -0.1247 -0.3139 -0.2387
   38MPD2    C3  582   2.556   3.370  11.795 -0.1890 -0.0097 -0.0074
   38MPD2    C4  583   2.420   3.390  11.813 -0.5077 -0.2758 -0.3797
   38MPD2    C5  584   2.368   3.348  11.932  0.2485 -0.2575  0.2187
   38MPD2     H  585   2.717   3.265  11.853 -1.1856 -3.1432 -1.0077
   38MPD2    H1  586   2.352   3.436  11.743  1.0291 -0.0685 -1.7428
   38MPD2    H2  587   2.375   3.216  12.104 -1.5043 -0.3433 -0.8235
   38MPD2    H3  588   2.262   3.361  11.955  0.0016 -1.2184 -0.3515
   38MPD2     N  589   2.618   3.416  11.678  0.2859 -0.0275  0.1180
   38MPD2    H5  590   2.711   3.383  11.656  0.6016  0.5616  0.5445
   38MPD2    N1  591   2.643   3.157  12.073  0.2870  0.7038  0.3280
   38MPD2    H7  592   2.742   3.161  12.051  0.0971  3.1769 -0.1761
   39MPD2     C  593   1.845   0.125   1.343  0.3000  0.0027 -0.0718
   39MPD2    C1  594   1.768   0.188   1.433 -0.4229  0.0765 -0.2631
   39MPD2    C2  595   1.631   0.198   1.402 -0.0434  0.2785  0.1747
   39MPD2    C3  596   1.589   0.154   1.272 -0.1372  0.4786  0.1234
   39MPD2    C4  597   1.674   0.081   1.191 -0.9657 -0.4092 -0.5423
   39MPD2    C5  598   1.805   0.067   1.228 -0.1397  0.0662 -0.3934
   39MPD2     H  599   1.559   0.238   1.472  0.6896  1.2907  0.3549
   39MPD2    H1  600   1.650   0.055   1.089 -0.7901 -0.4087 -0.5828
   39MPD2    H2  601   1.950   0.123   1.370 -0.3413  0.3126  2.4257
   39MPD2    H3  602   1.876   0.019   1.161  0.4718 -0.2469  0.4766
   39MPD2     N  603   1.460   0.181   1.218  0.5446 -0.0854 -0.7745
   39MPD2    H5  604   1.447   0.140   1.126 -1.3234 -2.7549  0.6872
   39MPD2    N1  605   1.839   0.251   1.543  0.2880 -0.5551  0.1841
   39MPD2    H7  606   1.939   0.237   1.555 -0.2025 -2.3704  2.3021
   40TCq2    C1  607   1.778   0.346   1.626 -0.0231  0.0705 -0.3360
   40TCq2    O2  608   1.665   0.392   1.625 -0.1023  0.7893 -0.4190
   40TCq2    C2  609   1.868   0.398   1.724  0.1348 -0.0231 -0.1657
   40TCq2    C3  610   1.835   0.516   1.782  0.3196 -0.3497 -0.4349
   40TCq2    C4  611   1.925   0.577   1.865 -0.8694  0.3713  0.3378
   40TCq2    C5  612   2.055   0.540   1.883  0.3439  0.2023  0.2013
   40TCq2    C6  613   2.081   0.415   1.831  0.0411  0.2072 -0.5229
   40TCq2    C7  614   1.992   0.343   1.755  0.4370  0.3382  0.2941
   40TCq2    C8  615   2.228   0.371   1.829  0.3576  0.0009  0.1107
   40TCq2    O4  616   2.249   0.258   1.871  0.6673  0.2902  0.3000
   40TCq2    C9  617   1.874   0.706   1.924  0.7419 -0.3412  0.2322
   40TCq2    O5  618   1.959   0.780   1.984 -0.6590  0.0617  0.1774
   40TCq2    O6  619   1.749   0.727   1.920  0.4966 -0.1934  0.5439
   40TCq2    H2  620   1.738   0.561   1.764  0.3469 -0.8210 -1.7150
   40TCq2    H3  621   2.122   0.603   1.941  0.8229  1.4815 -1.7432
   40TCq2    H4  622   2.023   0.244   1.724  0.0552  0.6198 -1.0014
   41TMC2    C1  623   0.232   2.347  13.921  0.6131  1.0047  0.0665
   41TMC2    C2  624   0.279   2.263  13.827 -0.1863  0.1612 -0.3656
   41TMC2    C3  625   0.254   2.307  13.704 -0.2086 -0.1786 -0.2106
   41TMC2    C4  626   0.157   2.461  13.902 -1.0383  0.5517 -0.7007
   41TMC2    C5  627   0.133   2.495  13.771 -0.7958 -0.0771  0.5009
   41TMC2    C6  628   0.178   2.416  13.678  0.7676  0.2435  0.0719
   41TMC2     C  629   0.240   2.310  14.059 -0.4608  0.5330  0.1289
   41TMC2     O  630   0.238   2.189  14.068 -0.2039  0.0632  0.3932
   41TMC2     H  631   0.356   2.194  13.859 -0.8641 -0.3250  0.2312
   41TMC2    H1  632   0.115   2.528  13.976 -3.1474 -1.0669 -0.4410
   41TMC2    H2  633   0.146   2.437  13.577  1.5499 -0.8149 -0.4005
   41TMC2    C7  634   4.722   2.555  13.756  0.5885 -0.4200  0.4570
   41TMC2    C8  635   0.321   2.246  13.590  0.2059  0.3836  0.5127
   41TMC2    O1  636   4.651   2.546  13.855  0.2209  0.1974 -0.5703
   41TMC2    O2  637   0.358   2.322  13.505  0.8865  0.3671  0.2521
   41TMC2    O5  638   0.335   2.116  13.617 -0.3999 -0.2788 -0.9589
   41TMC2    H5  639   0.297   2.072  13.696 -0.0984 -0.0975 -0.7167
   42MPD2     C  640   0.202   2.287  14.350  0.1498 -0.7538 -0.4362
   42MPD2    C1  641   0.233   2.407  14.294 -0.3214 -0.6447  0.7543
   42MPD2    C2  642   0.227   2.522  14.370 -0.4252 -0.2992  0.0549
   42MPD2    C3  643   0.203   2.517  14.505  0.1488  0.3574 -0.2252
   42MPD2    C4  644   0.184   2.397  14.562  0.4275  0.6970  0.5194
   42MPD2    C5  645   0.181   2.283  14.483  0.2757  0.0220  0.7249
   42MPD2     H  646   0.233   2.617  14.318 -0.4007  0.4459  1.4102
   42MPD2    H1  647   0.173   2.381  14.668 -0.8893 -1.4149  0.0748
   42MPD2    H2  648   0.182   2.200  14.289 -1.5595 -0.2451 -0.6128
   42MPD2    H3  649   0.154   2.188  14.528  0.6890  0.6234  2.2270
   42MPD2     N  650   0.195   2.634  14.584 -0.2193 -0.0169  0.3589
   42MPD2    H5  651   0.169   2.621  14.681 -0.9599 -2.2828 -0.1489
   42MPD2    N1  652   0.246   2.419  14.153 -0.0502  0.1909 -0.4606
   42MPD2    H7  653   0.254   2.511  14.111 -1.9261  0.8325  0.5666
   43MPD2     C  654   1.557   1.128   0.579  0.0359 -0.4927 -0.5382
   43MPD2    C1  655   1.669   1.139   0.656 -0.7063 -0.1633 -0.7884
   43MPD2    C2  656   1.649   1.170   0.784 -0.2974  1.1446 -0.1900
   43MPD2    C3  657   1.526   1.198   0.838  0.7578 -0.6789 -0.1405
   43MPD2    C4  658   1.414   1.193   0.758  0.3696 -0.4034  0.5391
   43MPD2    C5  659   1.435   1.155   0.628 -0.3247 -0.2547 -0.0577
   43MPD2     H  660   1.744   1.174   0.836  0.5341 -1.1012 -1.5348
   43MPD2    H1  661   1.318   1.217   0.802 -0.0265 -1.3085  0.1565
   43MPD2    H2  662   1.564   1.101   0.474 -0.8249 -0.3753 -0.6299
   43MPD2    H3  663   1.362   1.155   0.548 -0.9066 -0.2239  0.4717
   43MPD2     N  664   1.507   1.249   0.971  0.3132 -0.3686 -0.5225
   43MPD2    H5  665   1.414   1.265   1.007 -0.0351 -1.8316 -0.7448
   43MPD2    N1  666   1.800   1.106   0.611 -0.3889 -0.1075  0.0653
   43MPD2    H7  667   1.859   1.096   0.693 -0.2743 -0.3029 -0.0401
   44TCq2    C1  668   1.263   1.422   1.344 -0.0357  0.3213  0.1512
   44TCq2    O2  669   1.188   1.393   1.251  0.4446 -0.3179 -0.1646
   44TCq2    C2  670   1.401   1.388   1.328 -0.5985 -0.3463  0.8435
   44TCq2    C3  671   1.488   1.377   1.430 -0.3190 -0.1618 -0.5060
   44TCq2    C4  672   1.621   1.367   1.398  0.2269 -0.1321  0.1379
   44TCq2    C5  673   1.663   1.342   1.270  0.0429  0.1686 -0.2393
   44TCq2    C6  674   1.569   1.326   1.177 -0.8170 -0.7865 -0.5910
   44TCq2    C7  675   1.434   1.353   1.200 -0.4519 -0.6296 -0.6731
   44TCq2    C8  676   1.617   1.281   1.051 -0.2060 -0.5142  0.0777
   44TCq2    O4  677   1.736   1.263   1.045  0.3640  0.5308  0.2424
   44TCq2    C9  678   1.726   1.393   1.500  0.5156  0.1136  0.3489
   44TCq2    O5  679   1.844   1.379   1.461 -0.2406 -0.4632 -0.0759
   44TCq2    O6  680   1.694   1.424   1.620 -0.1709  0.2493 -0.5187
   44TCq2    H2  681   1.454   1.388   1.532 -2.8383 -0.6754 -1.2835
   44TCq2    H3  682   1.768   1.331   1.246  0.3862 -1.0459  1.7826
   44TCq2    H4  683   1.360   1.358   1.121 -0.0283 -1.9564 -1.1642
   45TMC2    C1  684   2.196   3.432   9.140  0.2207  0.2377  0.5542
   45TMC2    C2  685   2.091   3.431   9.233 -0.4465 -0.3879  0.1235
   45TMC2    C3  686   2.096   3.518   9.338  0.1172 -0.1780 -0.0319
   45TMC2    C4  687   2.296   3.522   9.143  0.0869 -0.2509  0.0109
   45TMC2    C5  688   2.298   3.600   9.253  0.3630  0.2144  0.3340
   45TMC2    C6  689   2.203   3.601   9.359 -0.0117  0.0742  0.0536
   45TMC2     C  690   2.205   3.342   9.026  0.1231 -0.1792  0.3585
   45TMC2     O  691   2.315   3.318   8.980  0.4970  0.5887  0.5208
   45TMC2     H  692   2.014   3.355   9.240 -0.1822 -0.8861 -2.2971
   45TMC2    H1  693   2.368   3.531   9.063 -0.5077 -0.4336 -0.5422
   45TMC2    H2  694   2.196   3.669   9.444  0.5812 -0.8378  0.8300
   45TMC2    C7  695   2.390   3.714   9.255  0.2118 -0.1208 -0.6012
   45TMC2    C8  696   1.999   3.500   9.443  0.8595 -0.1929 -0.2011
   45TMC2    O1  697   2.452   3.740   9.151 -0.3841 -0.0397 -0.1314
   45TMC2    O2  698   1.936   3.399   9.456  0.3502  0.6718 -0.4325
   45TMC2    O5  699   1.974   3.626   9.492 -0.0021 -0.4060  0.1025
   45TMC2    H5  700   2.009   3.698   9.435  4.0543  0.1161  3.2032
   46MPD2     C  701   2.175   3.085   8.874  0.0073  0.3493 -0.1274
   46MPD2    C1  702   2.066   3.167   8.924  0.2236 -0.8067  0.9629
   46MPD2    C2  703   1.942   3.107   8.924 -0.0561  0.1139 -0.0877
   46MPD2    C3  704   1.923   2.976   8.870 -0.1147 -0.0299  0.4440
   46MPD2    C4  705   2.037   2.909   8.821 -0.2691 -0.0859 -0.1745
   46MPD2    C5  706   2.164   2.963   8.828 -0.8942  0.0135 -0.8408
   46MPD2     H  707   1.858   3.166   8.960  2.8069  3.7424  0.6321
   46MPD2    H1  708   2.021   2.816   8.766  0.4162  0.6068 -1.5351
   46MPD2    H2  709   2.280   3.110   8.879 -0.6559  2.9808  0.4221
   46MPD2    H3  710   2.253   2.921   8.784  0.6786  2.4531  0.0006
   46MPD2     N  711   1.794   2.915   8.862 -0.1194  0.5177  0.1713
   46MPD2    H5  712   1.718   2.972   8.899 -1.2689 -0.1907 -1.1052
   46MPD2    N1  713   2.080   3.289   8.993  0.3859 -0.3456 -0.3879
   46MPD2    H7  714   1.999   3.344   9.024  1.8122  1.3648  0.3075
   47TMC2    C1  715   4.459   3.094   9.054  0.0176 -0.5781 -0.1283
   47TMC2    C2  716   4.456   3.114   8.919 -0.0185  0.5922  0.5054
   47TMC2    C3  717   4.348   3.063   8.851  0.3572 -0.1427  0.2890
   47TMC2    C4  718   4.365   3.020   9.121 -0.2428  0.0414 -0.0641
   47TMC2    C5  719   4.255   2.968   9.052  0.0310  0.3400  0.0022
   47TMC2    C6  720   4.259   2.985   8.915 -0.3639  0.1912  0.2117
   47TMC2     C  721   4.586   3.118   9.116  0.4182  0.0980 -0.5658
   47TMC2     O  722   4.588   3.112   9.239 -0.2727  0.0290  0.5747
   47TMC2     H  723   4.498   3.201   8.871  1.4158  0.4794  1.5828
   47TMC2    H1  724   4.376   3.006   9.228  0.3140  0.6478 -0.0390
   47TMC2    H2  725   4.183   2.943   8.850  0.1408  1.9207 -1.5409
   47TMC2    C7  726   4.142   2.907   9.113  0.2183 -0.0675 -0.6342
   47TMC2    C8  727   4.329   3.064   8.701 -0.5699 -0.5714  0.1512
   47TMC2    O1  728   4.043   2.885   9.045 -0.4457 -0.1942 -0.0056
   47TMC2    O2  729   4.219   3.045   8.643  0.1594 -0.4570 -0.3115
   47TMC2    O5  730   4.450   3.061   8.638 -0.3885  0.0513  0.2925
   47TMC2    H5  731   4.523   3.092   8.695  1.6576  0.0865 -2.3468
   48MPD2     C  732   0.139   3.235   9.193  0.0529 -0.1078 -0.5063
   48MPD2    C1  733   0.096   3.195   9.064  0.3194 -0.2309 -0.1876
   48MPD2    C2  734   0.188   3.196   8.959 -0.5539 -0.7445 -0.6450
   48MPD2    C3  735   0.318   3.238   8.977  0.3802  0.2375  0.9948
   48MPD2    C4  736   0.359   3.284   9.097 -0.1866 -0.1584  0.3736
   48MPD2    C5  737   0.270   3.275   9.206 -0.1265 -0.7231  0.0005
   48MPD2     H  738   0.169   3.155   8.861  0.6574 -1.7406 -0.4640
   48MPD2    H1  739   0.451   3.337   9.116  0.8177 -1.8698  0.3363
   48MPD2    H2  740   0.076   3.249   9.280 -0.9550 -0.2492 -1.2213
   48MPD2    H3  741   0.305   3.316   9.301 -0.0175 -0.3569 -0.1980
   48MPD2     N  742   0.418   3.222   8.881  0.5376 -0.0170  0.5829
   48MPD2    H5  743   0.390   3.161   8.805 -1.1499  0.3145  0.9452
   48MPD2    N1  744   4.690   3.147   9.028  0.0742  0.2950 -0.3680
   48MPD2    H7  745   4.661   3.128   8.933 -1.5633  1.0155 -0.0270
   49MPD2     C  746   2.617   0.290  10.379  0.2949 -0.2215  0.0741
   49MPD2    C1  747   2.534   0.242  10.476  0.1850 -0.1664  0.0531
   49MPD2    C2  748   2.541   0.280  10.602  0.5476 -0.3777 -0.1892
   49MPD2    C3  749   2.637   0.362  10.655  0.8421 -0.0991  1.0790
   49MPD2    C4  750   2.723   0.417  10.558 -0.4192 -0.4916 -0.2776
   49MPD2    C5  751   2.718   0.374  10.429  0.5045  0.2969 -0.5190
   49MPD2     H  752   2.465   0.234  10.664  1.2188 -0.1836  0.7657
   49MPD2    H1  753   2.796   0.493  10.586 -1.3082  1.0191 -2.0842
   49MPD2    H2  754   2.627   0.260  10.276 -2.3267  0.4609 -0.3875
   49MPD2    H3  755   2.788   0.423  10.363  0.5675 -2.6130 -2.6196
   49MPD2     N  756   2.640   0.403  10.791  0.6492 -0.5670 -0.3965
   49MPD2    H5  757   2.721   0.459  10.816  0.4059  0.2056 -1.3854
   49MPD2    N1  758   2.448   0.133  10.450  0.7216  0.5403 -0.3278
   49MPD2    H7  759   2.379   0.106  10.519 -0.1761  3.4500 -0.0850
   50TCq2    C1  760   2.426   0.069  10.326 -0.7278  0.3890 -0.0125
   50TCq2    O2  761   2.456   0.103  10.210  0.3321 -0.5198 -0.2970
   50TCq2    C2  762   2.361   4.661  10.342  1.0358  0.0601  0.0185
   50TCq2    C3  763   2.292   4.641  10.463  0.1979  0.0247 -0.1086
   50TCq2    C4  764   2.232   4.515  10.466 -0.0113  1.0635 -0.1149
   50TCq2    C5  765   2.235   4.434  10.359 -0.7712  0.3305  0.3253
   50TCq2    C6  766   2.297   4.458  10.241 -0.1810 -0.1882 -0.1006
   50TCq2    C7  767   2.359   4.581  10.233  0.6003 -0.3048  0.1664
   50TCq2    C8  768   2.258   4.391  10.124 -0.0404 -0.2112 -0.1249
   50TCq2    O4  769   2.300   4.439  10.021  0.3649 -0.3944 -0.2293
   50TCq2    C9  770   2.150   4.480  10.582 -0.1122 -0.0357 -0.3663
   50TCq2    O5  771   2.156   4.554  10.678  0.6248 -0.2304 -0.2453
   50TCq2    O6  772   2.046   4.409  10.568  0.0080  0.2318  0.4008
   50TCq2    H2  773   2.289   4.705  10.550 -2.9503 -0.0542 -0.1656
   50TCq2    H3  774   2.182   4.342  10.378  1.1381 -1.0370 -0.9382
   50TCq2    H4  775   2.412   4.613  10.145  0.8404 -0.4102  0.2719
   51MPD2     C  776   3.114   4.461   1.932 -0.1541  0.3155 -0.2955
   51MPD2    C1  777   3.184   4.343   1.935 -0.2118  0.9197 -0.0938
   51MPD2    C2  778   3.306   4.349   1.988 -0.4730 -0.1099  0.4687
   51MPD2    C3  779   3.354   4.464   2.045 -0.7049 -0.0256 -0.4002
   51MPD2    C4  780   3.277   4.572   2.054  0.1318  0.0829  0.5302
   51MPD2    C5  781   3.155   4.566   2.001  0.4761 -0.2167 -0.8880
   51MPD2     H  782   3.365   4.258   1.998  1.6979  0.9047 -2.9913
   51MPD2    H1  783   3.307   4.666   2.099  3.4281 -0.3557 -0.7645
   51MPD2    H2  784   3.013   4.468   1.895  0.1999  1.2239 -1.0976
   51MPD2    H3  785   3.097   4.657   2.013 -0.4727 -0.7572 -1.4535
   51MPD2     N  786   3.484   4.484   2.105 -0.1900  0.2268  0.0847
   51MPD2    H5  787   3.500   4.579   2.137 -0.4261  0.4416 -0.4365
   51MPD2    N1  788   3.157   4.221   1.864 -0.2468  0.5554 -0.2254
   51MPD2    H7  789   3.225   4.146   1.867  2.7221  3.2092 -0.8452
   52TCq2    C1  790   3.593   4.395   2.104 -0.3885 -0.2706 -0.0042
   52TCq2    O2  791   3.587   4.283   2.054 -0.2554  0.4363  0.3250
   52TCq2    C2  792   3.717   4.455   2.156 -0.1725 -0.1296  1.0197
   52TCq2    C3  793   3.829   4.378   2.168  0.0034 -0.5760  0.6246
   52TCq2    C4  794   3.950   4.420   2.212  0.4455 -0.2120 -0.2846
   52TCq2    C5  795   3.962   4.547   2.258  0.5066 -0.0978 -0.4724
   52TCq2    C6  796   3.851   4.630   2.243  0.2532  0.0441  0.0687
   52TCq2    C7  797   3.724   4.586   2.200  0.4751  0.3421 -0.1243
   52TCq2    C8  798   3.883   0.049   2.249  1.1233  0.3320  0.1853
   52TCq2    O4  799   4.002   0.074   2.245 -0.2697  0.6456  0.7248
   52TCq2    C9  800   4.046   4.314   2.227 -0.2038  1.0757  0.4802
   52TCq2    O5  801   4.166   4.349   2.237  0.4886  0.1647 -0.2281
   52TCq2    O6  802   4.014   4.190   2.213  0.5049 -0.4136 -0.0978
   52TCq2    H2  803   3.821   4.281   2.121 -0.8242 -0.2023  0.0092
   52TCq2    H3  804   4.060   4.573   2.297 -0.4032  1.3106  0.8770
   52TCq2    H4  805   3.651   4.662   2.173 -0.3221 -0.6706 -0.8056
   53TMC2    C1  806   3.701   3.415  11.641 -0.7338  0.2982  0.2325
   53TMC2    C2  807   3.828   3.354  11.662  1.1580 -0.7180 -0.3453
   53TMC2    C3  808   3.841   3.291  11.781  0.3372 -0.1675 -0.5393
   53TMC2    C4  809   3.599   3.401  11.740  0.0323 -0.7325 -0.2604
   53TMC2    C5  810   3.634   3.354  11.863 -0.1009 -0.1688  0.1581
   53TMC2    C6  811   3.753   3.294  11.885 -0.9516  0.2878  0.4893
   53TMC2     C  812   3.666   3.470  11.511  0.3985  0.1413  0.3134
   53TMC2     O  813   3.759   3.482  11.433  0.2274  0.5242  0.2808
   53TMC2     H  814   3.915   3.357  11.598 -0.4712  0.5628 -2.5128
   53TMC2    H1  815   3.503   3.450  11.728  1.3487  1.4816 -1.7844
   53TMC2    H2  816   3.763   3.233  11.974 -1.2638  0.3581  0.5719
   53TMC2    C7  817   3.528   3.331  11.955 -0.8697 -0.0495 -0.3800
   53TMC2    C8  818   3.976   3.241  11.819  0.1323 -0.0753  0.2874
   53TMC2    O1  819   3.419   3.316  11.901  0.1110 -0.0761  0.6945
   53TMC2    O2  820   4.031   3.248  11.927  0.0471  0.2180  0.0024
   53TMC2    O5  821   4.043   3.198  11.700  0.1202  0.1809 -0.1999
   53TMC2    H5  822   3.970   3.159  11.647 -1.0993  1.5735  0.4834
   54MPD2     C  823   3.503   3.594  11.284  0.0860 -0.1307 -0.8944
   54MPD2    C1  824   3.447   3.514  11.382 -0.2675 -0.4520  0.4517
   54MPD2    C2  825   3.310   3.496  11.382  0.0317 -0.7563  0.0174
   54MPD2    C3  826   3.233   3.561  11.287 -0.0636  0.4861  0.5237
   54MPD2    C4  827   3.294   3.635  11.183  0.5246 -0.5849 -0.8189
   54MPD2    C5  828   3.427   3.651  11.181  0.4997 -0.1646  0.1262
   54MPD2     H  829   3.269   3.441  11.466 -1.5012 -1.8495 -1.4317
   54MPD2    H1  830   3.246   3.686  11.101  0.3400  0.2240 -0.2077
   54MPD2    H2  831   3.610   3.608  11.282  0.1395 -0.5554 -0.8313
   54MPD2    H3  832   3.481   3.693  11.098 -1.6291  0.8732 -0.7335
   54MPD2     N  833   3.093   3.569  11.295  0.0818 -0.1834  0.3771
   54MPD2    H5  834   3.049   3.631  11.228 -1.4748 -0.1048  1.4789
   54MPD2    N1  835   3.530   3.460  11.489  0.2000 -0.6574 -0.0282
   54MPD2    H7  836   3.477   3.409  11.560 -0.9327  0.9150  0.2455
   55MPD2     C  837   4.386   0.005   0.917  0.5754  0.4053  0.0089
   55MPD2    C1  838   4.310   0.083   0.998  0.6036  0.4199 -0.6215
   55MPD2    C2  839   4.263   0.206   0.951 -0.8532  0.0673  0.0620
   55MPD2    C3  840   4.288   0.251   0.826 -0.0224  0.1200  0.5277
   55MPD2    C4  841   4.375   0.174   0.747  0.0917 -0.1244 -0.4690
   55MPD2    C5  842   4.413   0.045   0.788 -0.1648 -0.1955 -0.7337
   55MPD2     H  843   4.200   0.272   1.010 -1.1719  0.7746 -1.0642
   55MPD2    H1  844   4.400   0.195   0.644  0.8791 -0.8970 -0.4286
   55MPD2    H2  845   4.424   4.630   0.945 -0.0631  0.3901  0.8628
   55MPD2    H3  846   4.473   4.698   0.730  1.4781  0.1792  0.4957
   55MPD2     N  847   4.237   0.378   0.790  0.3722 -0.0698  0.0470
   55MPD2    H5  848   4.184   0.423   0.864 -2.4463  0.0914 -2.0853
   55MPD2    N1  849   4.275   0.042   1.126 -0.7892  0.3388  0.0605
   55MPD2    H7  850   4.318   4.679   1.159 -2.2354 -0.8747 -1.1738
   56TCq2    C1  851   4.183   0.090   1.215  0.1414  0.3021  0.4103
   56TCq2    O2  852   4.103   0.183   1.195  0.3735  0.0509  0.5811
   56TCq2    C2  853   4.170   4.721   1.327 -0.1480 -0.1772  0.0840
   56TCq2    C3  854   4.276   4.645   1.367 -0.0896  0.0331 -0.9055
   56TCq2    C4  855   4.250   4.555   1.468 -0.3391 -0.1966  0.4568
   56TCq2    C5  856   4.120   4.524   1.505 -0.1045 -0.0343 -0.5747
   56TCq2    C6  857   4.024   4.610   1.462  0.9466  0.4375 -0.0777
   56TCq2    C7  858   4.046   4.714   1.380 -0.0944 -0.2648  0.0528
   56TCq2    C8  859   3.886   4.589   1.528  0.5058 -0.3837  0.2390
   56TCq2    O4  860   3.857   4.482   1.570 -0.1747  0.2755 -0.2916
   56TCq2    C9  861   4.360   4.489   1.538 -0.7585  0.0504  0.0184
   56TCq2    O5  862   4.472   4.534   1.500  0.2674 -0.2399  0.3132
   56TCq2    O6  863   4.337   4.424   1.641 -0.0795 -0.0801 -0.2247
   56TCq2    H2  864   4.377   4.658   1.331 -0.6071  0.7812 -2.0539
   56TCq2    H3  865   4.097   4.443   1.573 -0.5947  0.8625  0.3319
   56TCq2    H4  866   3.968   0.050   1.332 -0.3525  0.1863  1.0144
   57TMC2    C1  867   3.661   1.861  13.471 -0.8661 -0.0289  0.7978
   57TMC2    C2  868   3.735   1.970  13.491 -0.1881 -0.5070  0.1665
   57TMC2    C3  869   3.781   2.038  13.381  0.1084  0.4777 -0.3859
   57TMC2    C4  870   3.650   1.803  13.340 -0.2603  0.2384 -0.5654
   57TMC2    C5  871   3.706   1.884  13.243  0.4992  0.0686 -0.2718
   57TMC2    C6  872   3.769   1.999  13.256  0.7343 -0.2416 -0.5888
   57TMC2     C  873   3.572   1.818  13.579  0.0593 -0.2766 -0.5196
   57TMC2     O  874   3.599   1.848  13.689  0.4826 -0.2527 -0.0713
   57TMC2     H  875   3.743   2.014  13.590 -0.5734  1.5178 -0.7163
   57TMC2    H1  876   3.597   1.713  13.310 -1.3050  0.8084 -0.4427
   57TMC2    H2  877   3.782   2.062  13.168 -1.0386 -0.8515 -1.2749
   57TMC2    C7  878   3.697   1.831  13.108 -0.3879  0.3293  0.2563
   57TMC2    C8  879   3.783   2.183  13.404  0.1023  0.3904 -0.2929
   57TMC2    O1  880   3.606   1.750  13.089  0.0652  0.5053  0.1494
   57TMC2    O2  881   3.720   2.236  13.502  0.2284 -0.4006  0.7000
   57TMC2    O5  882   3.847   2.240  13.304 -0.1018  0.4354  0.1750
   57TMC2    H5  883   3.919   2.190  13.261  0.7644 -0.9934  3.3042
   58MPD2     C  884   3.199   1.548  13.779 -0.2588  0.1201  0.2206
   58MPD2    C1  885   3.264   1.660  13.828 -0.1807 -0.2716 -0.2325
   58MPD2    C2  886   3.341   1.735  13.748 -0.2914  0.1536 -0.1783
   58MPD2    C3  887   3.372   1.684  13.625  0.2617 -0.5070 -0.8113
   58MPD2    C4  888   3.311   1.567  13.578 -0.0504 -0.8532  0.0947
   58MPD2    C5  889   3.210   1.502  13.647 -0.1847 -0.7137  0.4594
   58MPD2     H  890   3.380   1.833  13.772  2.4543 -1.1704  0.6854
   58MPD2    H1  891   3.338   1.526  13.482 -2.1177 -3.5453  0.6691
   58MPD2    H2  892   3.137   1.487  13.844  1.9837  0.0477  2.3132
   58MPD2    H3  893   3.169   1.408  13.612  4.5367 -2.5887  0.0212
   58MPD2     N  894   3.474   1.732  13.540  0.5448 -0.5050  0.7056
   58MPD2    H5  895   3.471   1.705  13.443  0.4282  1.6530  0.0951
   58MPD2    N1  896   3.252   1.714  13.955  0.1244  0.0382  0.0995
   58MPD2    H7  897   3.306   1.799  13.970 -0.7579  0.6135  0.0311
   59MPD2     C  898   1.506   1.604  13.047  0.7692 -0.5393 -0.6524
   59MPD2    C1  899   1.557   1.695  12.956  0.7259  0.0405  1.0721
   59MPD2    C2  900   1.638   1.795  13.002 -0.3053 -0.0088  0.1109
   59MPD2    C3  901   1.670   1.809  13.139  0.6360  0.3122 -0.5796
   59MPD2    C4  902   1.616   1.719  13.230  0.1244  0.1900  0.3167
   59MPD2    C5  903   1.539   1.615  13.182  0.4912  0.4393  0.8614
   59MPD2     H  904   1.690   1.863  12.937  0.1174 -1.1982 -0.7949
   59MPD2    H1  905   1.625   1.734  13.337 -1.7333  1.5657  0.2732
   59MPD2    H2  906   1.430   1.535  13.013 -0.6705  0.5561  0.3232
   59MPD2    H3  907   1.500   1.547  13.257  0.3027 -0.6564 -0.2373
   59MPD2     N  908   1.767   1.904  13.193  0.4202  0.6030  0.3273
   59MPD2    H5  909   1.764   1.911  13.294 -1.7017  1.0063  0.2247
   59MPD2    N1  910   1.537   1.680  12.820  0.1014  0.1445 -0.8601
   59MPD2    H7  911   1.579   1.750  12.760 -0.5759  0.2251 -1.2402
   60TCq2    C1  912   1.473   1.570  12.761 -0.4461 -0.4227  0.4360
   60TCq2    O2  913   1.413   1.475  12.813 -0.0039 -0.5083  0.3984
   60TCq2    C2  914   1.492   1.557  12.618  0.5892  0.9042 -0.3434
   60TCq2    C3  915   1.423   1.458  12.551  0.3930  0.2032 -0.3779
   60TCq2    C4  916   1.427   1.448  12.416 -0.3973  0.7724  0.2616
   60TCq2    C5  917   1.499   1.537  12.344  0.2950 -0.8251 -0.1266
   60TCq2    C6  918   1.561   1.633  12.413  0.0759 -0.8950  0.3391
   60TCq2    C7  919   1.556   1.654  12.548  0.0700  0.0430 -0.1029
   60TCq2    C8  920   1.651   1.718  12.332 -0.0015 -0.1014 -0.0977
   60TCq2    O4  921   1.722   1.672  12.242  0.2474  0.0576  0.8234
   60TCq2    C9  922   1.336   1.365  12.342  0.5041  0.2006  0.0787
   60TCq2    O5  923   1.316   1.393  12.219 -0.2407 -0.0299  0.1366
   60TCq2    O6  924   1.260   1.286  12.411 -0.1091 -0.4864 -0.6085
   60TCq2    H2  925   1.361   1.385  12.601  0.6259  0.2275 -0.0563
   60TCq2    H3  926   1.512   1.531  12.237  0.4176 -0.8954 -0.1082
   60TCq2    H4  927   1.627   1.725  12.590  0.5549  0.3065 -1.3611
   61MPD2     C  928   1.149   3.343  15.779 -0.7094  0.6928 -0.1988
   61MPD2    C1  929   1.071   3.427  15.706 -0.1839  0.0474 -0.0501
   61MPD2    C2  930   1.077   3.423  15.569 -0.6392 -0.0686 -1.0202
   61MPD2    C3  931   1.168   3.343  15.499 -0.5088  0.0109 -0.1107
   61MPD2    C4  932   1.244   3.250  15.579  0.3555 -0.2742 -0.3281
   61MPD2    C5  933   1.228   3.254  15.711  0.0219 -0.3582  1.1196
   61MPD2     H  934   1.020   3.503  15.524 -2.2324 -0.2165  0.7672
   61MPD2    H1  935   1.313   3.188  15.524 -1.1354 -3.8299  1.7814
   61MPD2    H2  936   1.150   3.337  15.887 -0.1475  0.7932 -0.1975
   61MPD2    H3  937   1.282   3.187  15.776  0.2851  1.5178  2.8574
   61MPD2     N  938   1.203   3.369  15.367 -0.0261 -0.3811  0.0972
   61MPD2    H5  939   1.276   3.307  15.334  0.6030  0.8330 -0.7846
   61MPD2    N1  940   0.987   3.524  15.760 -0.0636 -0.1986 -0.1528
   61MPD2    H7  941   0.949   3.587  15.689  0.4493  0.9518  0.6096
   62TCq2    C1  942   0.979   3.552  15.895  0.4317  0.5871  0.2781
   62TCq2    O2  943   1.013   3.480  15.984  0.1956  0.2407  0.2903
   62TCq2    C2  944   0.913   3.677  15.919 -0.1553 -0.1703 -0.1365
   62TCq2    C3  945   0.870   3.707  16.044 -0.5103 -0.3162 -0.7300
   62TCq2    C4  946   0.804   3.824  16.065  0.3347 -0.3226  0.6360
   62TCq2    C5  947   0.768   3.903  15.963  0.4147  0.2989 -0.0653
   62TCq2    C6  948   0.814   3.871  15.837  0.0799 -0.0653  0.0522
   62TCq2    C7  949   0.881   3.759  15.815 -0.0531  0.4067 -0.3616
   62TCq2    C8  950   0.793   3.957  15.726  0.4290 -0.6812 -0.0245
   62TCq2    O4  951   0.821   3.914  15.612 -0.1584  0.1761 -0.4989
   62TCq2    C9  952   0.755   3.853  16.193 -0.7635  0.1488  0.5306
   62TCq2    O5  953   0.778   3.777  16.288 -0.2336  0.1234  0.0792
   62TCq2    O6  954   0.693   3.960  16.210  0.1246 -0.4055  0.8438
   62TCq2    H2  955   0.912   3.645  16.122  3.7160  1.1413 -1.8669
   62TCq2    H3  956   0.698   3.981  15.991  1.9614  1.8593 -0.5282
   62TCq2    H4  957   0.905   3.740  15.711  2.4676  0.9536  0.1118
   63TMC2    C1  958   0.539   3.069  11.036 -0.1523 -0.4781  1.0854
   63TMC2    C2  959   0.635   3.105  11.124 -0.2276  0.4361  0.0494
   63TMC2    C3  960   0.725   3.207  11.096  0.3912  0.1053 -0.2182
   63TMC2    C4  961   0.547   3.117  10.908  0.2185 -0.3055 -0.0635
   63TMC2    C5  962   0.630   3.223  10.878 -0.6782 -0.4821 -0.2023
   63TMC2    C6  963   0.714   3.274  10.976  0.3581  0.1942 -0.3290
   63TMC2     C  964   0.448   2.963  11.072  0.0225  0.1220 -0.4333
   63TMC2     O  965   0.464   2.914  11.185  0.3927 -0.1953  0.2889
   63TMC2     H  966   0.630   3.063  11.223 -0.6176  0.0183 -0.1457
   63TMC2    H1  967   0.487   3.085  10.824  1.5100 -0.0986 -1.0597
   63TMC2    H2  968   0.757   3.373  10.964  0.4947  0.4263  2.0065
   63TMC2    C7  969   0.601   3.286  10.747 -0.0350  0.3339  0.0913
   63TMC2    C8  970   0.832   3.213  11.192  0.2569 -0.6486 -0.1932
   63TMC2    O1  971   0.523   3.233  10.670  0.1554  0.2614  0.2751
   63TMC2    O2  972   0.802   3.204  11.310  0.1312 -0.4359  0.0213
   63TMC2    O5  973   0.931   3.289  11.132  0.1738  0.1603  0.8800
   63TMC2    H5  974   0.923   3.277  11.035  0.1195 -0.7630  0.9946
   64MPD2     C  975   0.120   2.604  10.907 -0.0175 -0.3515  0.0971
   64MPD2    C1  976   0.162   2.684  10.801 -0.2876 -1.1416  0.1608
   64MPD2    C2  977   0.238   2.801  10.820  0.8000 -0.2361 -0.2441
   64MPD2    C3  978   0.288   2.823  10.950 -0.3812 -0.1637 -0.2479
   64MPD2    C4  979   0.255   2.735  11.049 -0.0132 -0.0550 -0.2638
   64MPD2    C5  980   0.175   2.622  11.026  0.1565 -0.3042  1.2207
   64MPD2     H  981   0.246   2.880  10.746  0.9960 -0.6663 -0.6846
   64MPD2    H1  982   0.286   2.748  11.153  0.6898  0.4337 -0.5334
   64MPD2    H2  983   0.058   2.517  10.889 -1.9229  0.9084  0.4823
   64MPD2    H3  984   0.145   2.554  11.105 -0.6323  0.7461  1.8172
   64MPD2     N  985   0.362   2.934  10.970  0.1430  0.0297  0.8439
   64MPD2    H5  986   0.370   2.991  10.886  1.1662 -1.3334  0.0031
   64MPD2    N1  987   0.127   2.655  10.662 -0.2321 -0.2047  0.2661
   64MPD2    H7  988   0.158   2.715  10.587  0.2947 -2.7459 -1.5485
   65MPD2     C  989   1.643   2.696  15.931  0.0928 -0.1556  0.2135
   65MPD2    C1  990   1.650   2.684  15.794  0.6259  0.0787 -0.4460
   65MPD2    C2  991   1.613   2.561  15.736 -0.0681  0.6160  1.0350
   65MPD2    C3  992   1.601   2.454  15.815  0.5965 -0.5650 -0.4141
   65MPD2    C4  993   1.588   2.469  15.954  0.2940 -0.2971  0.1094
   65MPD2    C5  994   1.608   2.590  16.015 -0.7239  0.7104  0.2123
   65MPD2     H  995   1.610   2.557  15.628  0.4686 -0.3300  1.0588
   65MPD2    H1  996   1.559   2.378  16.006  1.5052 -0.1612  1.0066
   65MPD2    H2  997   1.648   2.792  15.980  0.2224 -0.0716  0.0344
   65MPD2    H3  998   1.599   2.609  16.122 -0.8771  1.4704  0.0668
   65MPD2     N  999   1.567   2.323  15.768  0.2112  0.0677  0.2801
   65MPD2    H5 1000   1.519   2.265  15.837 -1.1148  0.4781 -0.2879
   65MPD2    N1 1001   1.653   2.800  15.709  0.0410 -0.0494  0.3177
   65MPD2    H7 1002   1.639   2.770  15.614 -0.7948  1.0497  0.0904
   66TCq2    C1 1003   1.673   2.930  15.742  0.1008  0.2131 -0.0912
   66TCq2    O2 1004   1.656   2.997  15.845 -0.1814 -0.8239  0.7180
   66TCq2    C2 1005   1.702   3.010  15.622  0.3215 -0.2207  0.8232
   66TCq2    C3 1006   1.753   2.943  15.515  0.1128  0.1761  0.3113
   66TCq2    C4 1007   1.761   3.013  15.396 -0.8473  0.1106  0.4732
   66TCq2    C5 1008   1.701   3.138  15.384 -0.8993  0.1187  0.6321
   66TCq2    C6 1009   1.639   3.191  15.492  0.3720 -0.6207  0.3750
   66TCq2    C7 1010   1.643   3.129  15.614  0.1569 -0.1341  0.5937
   66TCq2    C8 1011   1.589   3.332  15.475 -0.3118 -0.0760  0.1968
   66TCq2    O4 1012   1.594   3.370  15.358 -0.2174  0.0525  0.5420
   66TCq2    C9 1013   1.830   2.956  15.284 -0.0954 -0.1085  0.3291
   66TCq2    O5 1014   1.933   2.889  15.320 -0.4679 -0.4358 -0.5947
   66TCq2    O6 1015   1.821   3.023  15.176  0.7921 -0.3876 -0.0103
   66TCq2    H2 1016   1.796   2.844  15.524 -1.9259 -0.5420  2.0376
   66TCq2    H3 1017   1.707   3.197  15.293  1.9540  0.4136  1.0022
   66TCq2    H4 1018   1.600   3.167  15.706 -0.8763  0.8858 -0.3015
   67MPD2     C 1019   0.950   2.182  14.584  0.2926  0.4007  0.7723
   67MPD2    C1 1020   1.021   2.287  14.530  0.0097  1.0249  0.5796
   67MPD2    C2 1021   1.042   2.298  14.392  0.3261 -0.0573  0.2392
   67MPD2    C3 1022   0.997   2.197  14.314  0.1261  0.1092  0.2563
   67MPD2    C4 1023   0.937   2.086  14.363 -0.4323  0.1719  0.5898
   67MPD2    C5 1024   0.914   2.079  14.502 -0.7462 -0.2205 -0.5621
   67MPD2     H 1025   1.096   2.385  14.356  1.0614 -1.4846 -2.1058
   67MPD2    H1 1026   0.891   2.007  14.305  1.6326  0.5405 -1.5437
   67MPD2    H2 1027   0.938   2.179  14.692 -1.4560  1.5522  0.6176
   67MPD2    H3 1028   0.863   1.988  14.533 -0.4749 -0.0431  0.3934
   67MPD2     N 1029   1.008   2.198  14.173 -0.0560 -0.4554  0.1208
   67MPD2    H5 1030   0.997   2.108  14.126 -0.6925 -0.3812  0.1311
   67MPD2    N1 1031   1.069   2.391  14.609 -0.3282  0.5011  0.2496
   67MPD2    H7 1032   1.144   2.452  14.576  1.2335 -1.1359  0.7352
   68TCq2    C1 1033   1.024   2.423  14.738 -0.7117 -0.1453  0.1694
   68TCq2    O2 1034   0.915   2.403  14.791  0.0615 -0.0737  0.3534
   68TCq2    C2 1035   1.115   2.503  14.807 -0.0348 -0.0966 -0.5013
   68TCq2    C3 1036   1.071   2.585  14.911 -0.0440  1.5870 -0.8183
   68TCq2    C4 1037   1.160   2.637  15.000 -0.6943  0.2738 -0.2573
   68TCq2    C5 1038   1.290   2.600  14.989 -0.3570  0.2425 -0.2156
   68TCq2    C6 1039   1.333   2.532  14.882  0.4482 -0.1076 -0.4509
   68TCq2    C7 1040   1.251   2.475  14.794  1.0832  0.0416 -0.1047
   68TCq2    C8 1041   1.470   2.485  14.882 -0.1856 -0.5073  0.0053
   68TCq2    O4 1042   1.514   2.445  14.773  0.1187 -0.0513 -0.2307
   68TCq2    C9 1043   1.103   2.711  15.113  0.3706  0.1654 -0.0929
   68TCq2    O5 1044   1.184   2.779  15.182  0.0314  0.0368 -0.7110
   68TCq2    O6 1045   0.977   2.697  15.132 -0.1359  0.3923 -0.0820
   68TCq2    H2 1046   0.964   2.597  14.922 -0.1285  0.6023 -0.5784
   68TCq2    H3 1047   1.346   2.637  15.074  2.6450 -1.0658 -1.6087
   68TCq2    H4 1048   1.293   2.400  14.728 -0.1640  0.7630 -1.7101
   69TMC2    C1 1049   3.294   3.867  12.422 -0.6397  0.1716  0.4935
   69TMC2    C2 1050   3.199   3.959  12.390 -0.6101 -0.6933 -0.2180
   69TMC2    C3 1051   3.200   3.999  12.255  0.1510  0.1935 -0.4324
   69TMC2    C4 1052   3.363   3.800  12.322  0.6213  0.2604 -0.0036
   69TMC2    C5 1053   3.334   3.827  12.188 -0.2005  0.1926  0.0311
   69TMC2    C6 1054   3.252   3.928  12.148  0.0352  0.5738 -0.7518
   69TMC2     C 1055   3.305   3.795  12.551  0.1007 -0.6586  0.7394
   69TMC2     O 1056   3.206   3.738  12.593 -0.4196 -0.4594 -0.4127
   69TMC2     H 1057   3.144   4.008  12.470  0.7809  0.6034 -0.0505
   69TMC2    H1 1058   3.441   3.727  12.337  0.4920  0.3142  0.9309
   69TMC2    H2 1059   3.237   3.967  12.048  0.3628  0.3540 -0.8894
   69TMC2    C7 1060   3.442   3.797  12.091  0.1417  0.1577 -0.2761
   69TMC2    C8 1061   3.122   4.119  12.220 -0.9254 -0.9315 -0.3371
   69TMC2    O1 1062   3.560   3.766  12.117  0.2626 -0.1124  0.2032
   69TMC2    O2 1063   3.047   4.176  12.299  0.0367  0.0022  0.2260
   69TMC2    O5 1064   3.197   4.186  12.128 -0.0329 -0.2213 -0.3554
   69TMC2    H5 1065   3.290   4.153  12.126 -0.8281 -2.4071 -0.6951
   70MPD2     C 1066   3.634   3.751  12.733 -0.0492  0.3916 -0.1353
   70MPD2    C1 1067   3.509   3.712  12.685 -0.2997 -1.2362  0.9103
   70MPD2    C2 1068   3.440   3.601  12.735  0.7624  0.1403  0.8103
   70MPD2    C3 1069   3.500   3.518  12.831  0.7316 -0.0051 -0.0034
   70MPD2    C4 1070   3.622   3.552  12.878 -0.4189 -0.0063 -0.2539
   70MPD2    C5 1071   3.678   3.667  12.833 -0.1717  0.3869 -0.4131
   70MPD2     H 1072   3.346   3.581  12.684  0.3000  0.8834  1.3738
   70MPD2    H1 1073   3.677   3.500  12.956  1.8861  1.6071 -0.7814
   70MPD2    H2 1074   3.690   3.838  12.701 -0.6753  0.5671 -0.7675
   70MPD2    H3 1075   3.771   3.695  12.882 -0.9057  0.2202  1.0647
   70MPD2     N 1076   3.445   3.398  12.884  0.2167 -0.2961  0.1044
   70MPD2    H5 1077   3.503   3.339  12.944 -0.1272  0.2690  1.0031
   70MPD2    N1 1078   3.438   3.789  12.591  0.1501  0.0636 -0.0385
   70MPD2    H7 1079   3.500   3.848  12.535  1.2318  0.1763  1.2639
   71TMC2    C1 1080   1.880   4.094   1.292 -0.0662  0.2828 -0.2016
   71TMC2    C2 1081   1.947   3.985   1.322  0.3467 -0.7768 -0.0621
   71TMC2    C3 1082   1.968   3.968   1.453 -0.1435  0.1247  0.1288
   71TMC2    C4 1083   1.805   4.165   1.378 -0.4573  0.3167  0.2512
   71TMC2    C5 1084   1.812   4.133   1.509  0.2580  0.1644  0.0398
   71TMC2    C6 1085   1.894   4.030   1.549 -0.3142 -0.0618 -0.5526
   71TMC2     C 1086   1.894   4.153   1.160  0.6564 -0.0328 -0.1337
   71TMC2     O 1087   1.901   4.274   1.149 -0.4057 -0.1803  0.6227
   71TMC2     H 1088   2.015   3.939   1.252  0.4159 -1.8951  0.7319
   71TMC2    H1 1089   1.748   4.248   1.338  1.5154  1.3632 -0.3804
   71TMC2    H2 1090   1.905   4.009   1.655 -0.0911  1.6708 -0.2305
   71TMC2    C7 1091   1.737   4.215   1.601 -0.0132 -0.3111  0.2866
   71TMC2    C8 1092   2.073   3.876   1.498 -0.2670  0.1674 -0.7029
   71TMC2    O1 1093   1.785   4.229   1.712  0.2738  0.2486  0.2965
   71TMC2    O2 1094   2.128   3.794   1.424  0.1231 -0.4237 -0.4960
   71TMC2    O5 1095   2.148   3.947   1.584  0.0914  0.0385 -0.3067
   71TMC2    H5 1096   2.127   4.042   1.598 -0.4985 -0.1877  0.3793
   72MPD2     C 1097   1.979   4.098   0.647  0.0857 -0.9420  0.6512
   72MPD2    C1 1098   1.981   4.214   0.728 -0.5463  1.1457  0.8458
   72MPD2    C2 1099   1.958   4.199   0.867 -0.6803  0.3517  0.2479
   72MPD2    C3 1100   1.955   4.074   0.928  0.3680  0.1000 -0.6816
   72MPD2    C4 1101   1.976   3.967   0.847 -0.0884 -0.7642  0.6825
   72MPD2    C5 1102   1.991   3.985   0.714 -0.4672 -0.3999 -0.1786
   72MPD2     H 1103   1.942   4.289   0.926 -2.3204 -3.0153  5.0028
   72MPD2    H1 1104   1.991   3.867   0.886 -0.9819 -1.1095  0.1392
   72MPD2    H2 1105   1.990   4.092   0.539 -0.8909 -0.3910  0.5172
   72MPD2    H3 1106   1.999   3.896   0.653  0.7918 -0.6329  0.3401
   72MPD2     N 1107   1.936   4.057   1.068  0.0603  0.0797  0.1359
   72MPD2    H5 1108   1.947   3.966   1.112  0.7433  0.1657  0.1432
   72MPD2    N1 1109   1.982   4.351   0.681  0.6301  0.4622  0.4798
   72MPD2    H7 1110   1.976   4.423   0.753  1.3483  1.5127 -0.5138
   73TMC2    C1 1111   0.874   1.161  14.010 -0.1017  0.0774 -0.8456
   73TMC2    C2 1112   0.765   1.084  14.046  0.3055  0.5238  0.3246
   73TMC2    C3 1113   0.770   1.012  14.159 -0.1870 -0.3667 -0.3960
   73TMC2    C4 1114   0.988   1.143  14.082 -0.2675  0.2847 -0.5507
   73TMC2    C5 1115   0.995   1.051  14.180  0.0675 -0.3288 -0.0962
   73TMC2    C6 1116   0.884   0.989  14.233 -0.1505  0.6234  0.4849
   73TMC2     C 1117   0.895   1.172  13.876  0.8383  0.5952  0.0655
   73TMC2     O 1118   1.013   1.154  13.844  0.2845 -0.1011 -0.1145
   73TMC2     H 1119   0.679   1.079  13.980  2.7550 -0.2430 -2.8472
   73TMC2    H1 1120   1.080   1.193  14.055  1.7276 -2.0016  2.0101
   73TMC2    H2 1121   0.886   0.917  14.314  0.6919 -0.1231 -0.1907
   73TMC2    C7 1122   1.120   0.970  14.166  0.2975 -0.4613 -0.6527
   73TMC2    C8 1123   0.639   1.000  14.229 -0.0966 -0.3641  0.3392
   73TMC2    O1 1124   1.165   0.903  14.258 -0.0893  0.0749  0.2077
   73TMC2    O2 1125   0.525   1.004  14.180 -0.2162 -0.6082  0.3472
   73TMC2    O5 1126   0.659   1.038  14.356 -0.2202  0.2906  0.0188
   73TMC2    H5 1127   0.756   1.037  14.373 -0.2932  0.0845  0.4167
   74MPD2     C 1128   0.805   1.214  13.372  0.3902  0.0459 -0.3766
   74MPD2    C1 1129   0.917   1.168  13.442 -0.5309 -0.4952  0.5930
   74MPD2    C2 1130   0.899   1.152  13.578 -0.6381 -0.1225 -0.6496
   74MPD2    C3 1131   0.793   1.185  13.650  0.1935 -0.0431  1.0473
   74MPD2    C4 1132   0.680   1.224  13.577 -0.7328 -0.6044  0.0799
   74MPD2    C5 1133   0.694   1.249  13.444 -0.3304 -0.4876  0.4686
   74MPD2     H 1134   0.986   1.123  13.636 -0.6856  0.4415 -0.2969
   74MPD2    H1 1135   0.588   1.246  13.629 -0.3596 -1.0496  0.9362
   74MPD2    H2 1136   0.814   1.217  13.264 -1.8510 -0.4064 -0.5797
   74MPD2    H3 1137   0.608   1.292  13.393 -0.4961 -2.6829 -1.0771
   74MPD2     N 1138   0.782   1.175  13.796 -0.1489  0.0297 -0.0485
   74MPD2    H5 1139   0.688   1.183  13.834  0.7103  0.4299  1.9619
   74MPD2    N1 1140   1.038   1.146  13.374  0.0117 -0.5506  0.5710
   74MPD2    H7 1141   1.053   1.158  13.274 -0.8660 -1.4828  0.3242
   75TCq2    C1 1142   1.034   2.308  14.096 -0.2727  0.2409  0.8944
   75TCq2    O2 1143   1.040   2.423  14.126  0.3736  0.1568 -0.0032
   75TCq2    C2 1144   1.045   2.266  13.960  0.2757 -0.2984  0.3109
   75TCq2    C3 1145   1.076   2.138  13.930  0.4129 -0.0368 -0.3029
   75TCq2    C4 1146   1.072   2.087  13.804 -0.2698  0.1143 -0.2242
   75TCq2    C5 1147   1.023   2.172  13.709  0.4598 -0.1498  0.6363
   75TCq2    C6 1148   0.990   2.305  13.735  0.4979 -0.1998  0.4180
   75TCq2    C7 1149   1.007   2.358  13.862  0.3131 -0.1559  0.3517
   75TCq2    C8 1150   0.943   2.393  13.625 -0.4874 -0.0232 -0.9322
   75TCq2    O4 1151   0.950   2.514  13.642 -0.2804 -0.1807  0.1416
   75TCq2    C9 1152   1.102   1.947  13.785 -0.1266 -0.2915 -0.4073
   75TCq2    O5 1153   1.082   1.903  13.665  0.7402  0.0809 -0.2943
   75TCq2    O6 1154   1.136   1.875  13.887  0.4336 -0.0694  0.0038
   75TCq2    H2 1155   1.125   2.074  14.003  0.1335 -0.8662 -0.8413
   75TCq2    H3 1156   1.009   2.134  13.609 -0.4113  0.0489  0.6800
   75TCq2    H4 1157   0.970   2.457  13.887  1.5438 -0.2439  2.5231
   76MPD2     C 1158   4.539   3.432  12.114  0.0204 -0.1921 -0.1314
   76MPD2    C1 1159   4.502   3.344  12.008 -0.2918  0.5210 -0.0257
   76MPD2    C2 1160   4.567   3.225  11.992  0.5088  0.1281 -0.3426
   76MPD2    C3 1161   4.674   3.184  12.069  0.1054 -0.0977  0.2227
   76MPD2    C4 1162   4.700   3.266  12.178 -1.1657 -0.1690 -0.3648
   76MPD2    C5 1163   4.636   3.390  12.196  0.1642  0.5209  0.2707
   76MPD2     H 1164   4.541   3.165  11.906 -0.2317 -1.3729  0.9359
   76MPD2    H1 1165   0.054   3.233  12.247  1.4603  1.6408 -2.4489
   76MPD2    H2 1166   4.494   3.529  12.132 -0.2060 -0.1115 -1.1346
   76MPD2    H3 1167   4.670   3.458  12.273  0.2138 -2.0803  2.5513
   76MPD2     N 1168   0.016   3.063  12.065  0.1637 -0.7862  0.5002
   76MPD2    H5 1169   0.073   3.045  12.147 -0.1203 -0.8052  0.6971
   76MPD2    N1 1170   4.401   3.381  11.920 -1.3298  0.6054 -0.0066
   76MPD2    H7 1171   4.404   3.325  11.835  2.4590 -0.2770  0.7426
   77TCq2    C1 1172   0.002   2.978  11.964  0.3441 -0.3281 -0.2404
   77TCq2    O2 1173   4.671   2.985  11.852 -0.3793  0.0034 -0.0225
   77TCq2    C2 1174   0.097   2.874  11.976 -0.9828  0.5777 -0.5619
   77TCq2    C3 1175   0.127   2.802  11.859 -0.0409  0.4926 -0.2963
   77TCq2    C4 1176   0.213   2.696  11.871 -0.4979  0.6732  0.4990
   77TCq2    C5 1177   0.266   2.661  11.988  0.2733 -0.1593 -0.4047
   77TCq2    C6 1178   0.231   2.724  12.100 -0.4932  0.0314  0.1121
   77TCq2    C7 1179   0.151   2.836  12.092  0.2536 -0.5438  0.9070
   77TCq2    C8 1180   0.298   2.684  12.219 -0.0490 -0.3331 -0.2807
   77TCq2    O4 1181   0.409   2.627  12.217  0.1605 -0.1851 -0.2692
   77TCq2    C9 1182   0.245   2.623  11.752  0.2831  0.8683  0.2432
   77TCq2    O5 1183   0.340   2.544  11.771 -0.0088 -0.2313 -0.0248
   77TCq2    O6 1184   0.178   2.641  11.648  0.4458  0.3818  0.1766
   77TCq2    H2 1185   0.083   2.832  11.765  3.4480 -0.4407 -2.2025
   77TCq2    H3 1186   0.339   2.581  11.990 -0.8181 -1.1559 -0.1168
   77TCq2    H4 1187   0.128   2.898  12.177 -2.5452 -0.0553 -0.1958
   78MPD1     C 1188   0.695   3.952   1.353 -0.1567 -0.3608  0.2502
   78MPD1    C1 1189   0.662   4.017   1.466 -0.5184 -0.4687 -0.0341
   78MPD1    C2 1190   0.764   4.054   1.550  0.2246  0.1388  0.3991
   78MPD1    C3 1191   0.896   4.043   1.516  0.4027  0.1622 -0.6107
   78MPD1    C4 1192   0.921   4.006   1.387 -0.1730  0.1452  0.4390
   78MPD1    C5 1193   0.818   3.960   1.302  0.0594  0.0402  0.2146
   78MPD1     H 1194   0.741   4.091   1.649  0.3658 -1.6758  1.1198
   78MPD1    H1 1195   1.023   3.994   1.352  0.2316  0.4722  1.5055
   78MPD1    H2 1196   0.620   3.913   1.284  1.2162  0.6820 -1.8505
   78MPD1    H3 1197   0.829   3.927   1.200 -2.0357  1.7779 -0.5716
   78MPD1     N 1198   1.003   4.056   1.602  0.2672  0.6641  0.0840
   78MPD1    H5 1199   1.099   4.047   1.571 -0.0161  0.3687 -0.7260
   78MPD1    N1 1200   0.533   4.017   1.509  0.2189 -0.0843 -0.6071
   78MPD1    H6 1201   0.469   4.024   1.430  0.5670  1.3451 -0.7626
   78MPD1    H7 1202   0.504   4.083   1.580 -1.5851 -0.8549 -0.6300
   79TCq2    C1 1203   1.001   4.083   1.738  0.8348  0.1003  0.7798
   79TCq2    O2 1204   0.907   4.129   1.807 -0.4079  0.6289  0.2093
   79TCq2    C2 1205   1.132   4.072   1.808 -0.0303 -1.1829  0.2699
   79TCq2    C3 1206   1.139   4.101   1.940 -0.9548 -0.5332  0.4425
   79TCq2    C4 1207   1.256   4.083   2.001 -0.6855  0.6236  0.1727
   79TCq2    C5 1208   1.370   4.039   1.939  0.2945  0.2244  0.0681
   79TCq2    C6 1209   1.361   4.005   1.808  0.3463  0.8587  0.2110
   79TCq2    C7 1210   1.238   4.012   1.746  0.1369  0.8434 -0.1625
   79TCq2    C8 1211   1.486   3.949   1.748  0.1841  0.5849  0.2146
   79TCq2    O4 1212   1.588   3.951   1.816 -0.6189  0.3682  0.1071
   79TCq2    C9 1213   1.270   4.109   2.142 -0.0684 -0.1444  0.3313
   79TCq2    O5 1214   1.380   4.085   2.192 -0.3669 -0.5753 -0.2999
   79TCq2    O6 1215   1.177   4.178   2.196  0.5568 -0.2587 -0.0184
   79TCq2    H2 1216   1.051   4.139   1.992 -0.8428 -0.8940  0.8873
   79TCq2    H3 1217   1.463   4.029   1.994  0.1239 -1.3564  0.0828
   79TCq2    H4 1218   1.237   3.963   1.650 -0.9704 -1.4497  1.0264
   80MPD2     C 1219   3.590   3.032  12.295 -0.0032 -0.0705  0.1009
   80MPD2    C1 1220   3.504   3.012  12.186 -0.1299  0.3554 -0.7653
   80MPD2    C2 1221   3.363   3.022  12.209  0.7096 -0.4135  0.0341
   80MPD2    C3 1222   3.320   3.044  12.331  0.0910  0.3321  0.6656
   80MPD2    C4 1223   3.407   3.051  12.443 -0.2325  0.4909  0.1135
   80MPD2    C5 1224   3.543   3.041  12.421  0.3879 -0.4403 -0.4375
   80MPD2     H 1225   3.291   2.987  12.135  0.5623 -0.9647  0.4404
   80MPD2    H1 1226   3.371   3.073  12.543 -1.0713  1.5946 -0.4215
   80MPD2    H2 1227   3.698   3.028  12.280  0.3858  0.1966  2.7899
   80MPD2    H3 1228   3.603   3.033  12.511 -0.6851  1.9105  0.4943
   80MPD2     N 1229   3.188   3.059  12.356  0.4635  0.2106 -0.5445
   80MPD2    H5 1230   3.161   3.062  12.454  0.0654 -2.0926 -0.5970
   80MPD2    N1 1231   3.549   2.959  12.060  0.1513 -0.0585 -0.4927
   80MPD2    H7 1232   3.475   2.936  11.994  0.0236  1.3301 -0.8383
   81TCq2    C1 1233   3.678   2.942  12.021  0.7649  0.5993 -0.5132
   81TCq2    O2 1234   3.780   2.988  12.066  0.0416  0.2878  0.4686
   81TCq2    C2 1235   3.683   2.881  11.892  0.1797 -0.3293 -0.2826
   81TCq2    C3 1236   3.758   2.938  11.794 -0.3778  0.2466  0.0992
   81TCq2    C4 1237   3.748   2.888  11.673 -1.0044 -0.5671  0.3325
   81TCq2    C5 1238   3.674   2.774  11.646  0.2410  0.4459 -0.9287
   81TCq2    C6 1239   3.602   2.712  11.749 -0.3092 -0.4187  0.1138
   81TCq2    C7 1240   3.598   2.775  11.870  0.0206  0.2833  0.3503
   81TCq2    C8 1241   3.503   2.607  11.717  0.6926  0.4642 -0.0043
   81TCq2    O4 1242   3.461   2.609  11.602 -0.3027  0.4039 -0.1972
   81TCq2    C9 1243   3.822   2.951  11.569 -0.2968  0.4700 -0.1134
   81TCq2    O5 1244   3.846   2.882  11.465  0.5119  0.8910  0.1043
   81TCq2    O6 1245   3.858   3.075  11.582  0.6473  0.2706 -0.5487
   81TCq2    H2 1246   3.817   3.027  11.812  0.9050 -0.6858  0.5271
   81TCq2    H3 1247   3.667   2.735  11.545 -2.9574 -0.7976 -0.2067
   81TCq2    H4 1248   3.530   2.735  11.945  0.2552 -3.1099 -1.2615
   82MPD2     C 1249   2.274   2.404  10.306  0.1464 -0.0948 -0.1219
   82MPD2    C1 1250   2.192   2.355  10.407  0.3011  0.2887 -0.7843
   82MPD2    C2 1251   2.244   2.277  10.504 -0.1953  0.2596  0.6273
   82MPD2    C3 1252   2.376   2.238  10.499 -0.0858  0.0707 -0.9141
   82MPD2    C4 1253   2.459   2.295  10.412  0.4390 -0.1389  0.0671
   82MPD2    C5 1254   2.407   2.378  10.316 -0.1410  0.1413 -0.4619
   82MPD2     H 1255   2.166   2.230  10.562 -1.6868  2.1467  0.1532
   82MPD2    H1 1256   2.566   2.275  10.415  0.5260  0.3931  0.6767
   82MPD2    H2 1257   2.241   2.459  10.218 -2.1725  0.4215  1.0686
   82MPD2    H3 1258   2.481   2.411  10.244  1.4559  0.8387  1.4932
   82MPD2     N 1259   2.435   2.142  10.581 -0.1623 -0.8392  0.1370
   82MPD2    H5 1260   2.533   2.120  10.566  0.3626  0.6246  1.4020
   82MPD2    N1 1261   2.053   2.376  10.394  0.3184 -0.0774  0.1674
   82MPD2    H7 1262   2.027   2.440  10.319  0.4720  0.9064  0.9508
   83TCq2    C1 1263   2.369   2.065  10.668 -0.0010  0.7495 -0.2444
   83TCq2    O2 1264   2.259   2.082  10.721 -0.0163  0.0951 -0.5480
   83TCq2    C2 1265   2.442   1.942  10.698  0.1961 -0.2948 -0.3275
   83TCq2    C3 1266   2.569   1.910  10.645  0.8472  0.2110  0.2172
   83TCq2    C4 1267   2.632   1.794  10.691 -0.1018  0.2173  0.1690
   83TCq2    C5 1268   2.566   1.705  10.771 -0.1441  0.2849  0.8337
   83TCq2    C6 1269   2.433   1.729  10.798 -0.5294  0.3404 -0.0943
   83TCq2    C7 1270   2.368   1.844  10.765  0.2780 -0.2171  0.2811
   83TCq2    C8 1271   2.348   1.623  10.837  0.2454 -0.6395  0.3351
   83TCq2    O4 1272   2.392   1.544  10.924 -0.6954 -0.0130  0.2785
   83TCq2    C9 1273   2.770   1.771  10.658  1.2470 -0.3710 -0.2471
   83TCq2    O5 1274   2.824   1.678  10.718  0.4571 -1.0117 -0.5718
   83TCq2    O6 1275   2.833   1.864  10.597  0.0953 -0.1321 -0.1873
   83TCq2    H2 1276   2.632   1.966  10.577 -1.1999  1.4175 -0.6786
   83TCq2    H3 1277   2.612   1.610  10.796  0.8327  0.5983  0.1835
   83TCq2    H4 1278   2.263   1.856  10.787  0.0903  0.0690 -0.7407
   84TCq2    C1 1279   2.546   0.367  10.891 -0.0247  0.4544  0.7231
   84TCq2    O2 1280   2.453   0.287  10.890  0.2463  0.1340 -0.4980
   84TCq2    C2 1281   2.586   0.432  11.015 -0.5422 -0.6681  0.5020
   84TCq2    C3 1282   2.541   0.361  11.119 -0.6343 -0.5519  0.5368
   84TCq2    C4 1283   2.608   0.370  11.239 -0.3559  0.0582 -0.0569
   84TCq2    C5 1284   2.729   0.432  11.256  0.2838 -0.6599 -0.3847
   84TCq2    C6 1285   2.766   0.502  11.145  0.1518  0.3201  0.3112
   84TCq2    C7 1286   2.703   0.497  11.024  0.0712 -0.6340 -0.2946
   84TCq2    C8 1287   2.901   0.559  11.139  0.0729 -0.0969 -0.2666
   84TCq2    O4 1288   2.930   0.644  11.054 -0.1701  0.2083  0.2995
   84TCq2    C9 1289   2.541   0.291  11.348 -0.2070  0.0163 -0.0690
   84TCq2    O5 1290   2.437   0.221  11.325  0.0462  0.3507  0.1045
   84TCq2    O6 1291   2.622   0.265  11.445  0.4327 -0.0879 -0.4858
   84TCq2    H2 1292   2.448   0.306  11.113 -1.9054  1.3167  3.0089
   84TCq2    H3 1293   2.778   0.428  11.352 -0.2675  2.1240  0.0109
   84TCq2    H4 1294   2.731   0.563  10.942 -1.9937 -0.2578 -0.7004
   85MPD2     C 1295   3.797   3.755  16.448 -0.2173 -0.1014  0.5139
   85MPD2    C1 1296   3.680   3.767  16.379  0.8627  0.3051  0.2704
   85MPD2    C2 1297   3.667   3.884  16.309  0.6309  0.2332  0.4272
   85MPD2    C3 1298   3.756   3.985  16.306  0.6273  0.1787 -0.1872
   85MPD2    C4 1299   3.874   3.965  16.370 -0.7848  0.1566 -0.0465
   85MPD2    C5 1300   3.892   3.852  16.440  0.2557  0.1495  0.6817
   85MPD2     H 1301   3.574   3.889  16.255  0.4993 -0.9551  0.5507
   85MPD2    H1 1302   3.964   4.025  16.362 -0.6386 -0.3425 -2.1347
   85MPD2    H2 1303   3.819   3.658  16.490  1.1572 -0.3523 -0.7734
   85MPD2    H3 1304   3.992   3.824  16.471  0.5197 -1.1379 -1.3568
   85MPD2     N 1305   3.727   4.098  16.228  0.3514  0.2931  0.0552
   85MPD2    H5 1306   3.648   4.099  16.165  0.2036  2.0192  0.2406
   85MPD2    N1 1307   3.586   3.663  16.379 -0.1177  0.2039  0.2166
   85MPD2    H7 1308   3.514   3.665  16.307  1.3474 -0.8346 -1.2543
   86TCq2    C1 1309   3.811   4.204  16.220  0.0282 -0.0862 -0.4247
   86TCq2    O2 1310   3.922   4.212  16.272 -0.4020  0.2429 -0.0431
   86TCq2    C2 1311   3.764   4.300  16.120 -0.0108  0.6162  0.8704
   86TCq2    C3 1312   3.635   4.326  16.087  0.1010  0.1480 -0.4928
   86TCq2    C4 1313   3.606   4.391  15.977  0.1502 -0.4903 -0.0462
   86TCq2    C5 1314   3.705   4.444  15.900 -1.0444 -0.1887 -0.3843
   86TCq2    C6 1315   3.838   4.422  15.930 -0.2063  0.5205 -0.0317
   86TCq2    C7 1316   3.866   4.345  16.042 -0.4363 -0.1330 -0.3672
   86TCq2    C8 1317   3.947   4.449  15.836  0.1952 -0.6010 -0.1697
   86TCq2    O4 1318   4.049   4.389  15.860  0.1212  0.1905  0.5948
   86TCq2    C9 1319   3.470   4.418  15.947  0.4457  0.0896  0.2484
   86TCq2    O5 1320   3.444   4.518  15.872 -0.1271  0.3862  0.0357
   86TCq2    O6 1321   3.387   4.337  15.988  0.3667 -0.0867 -0.0048
   86TCq2    H2 1322   3.562   4.291  16.160  1.2354 -1.5931 -0.1890
   86TCq2    H3 1323   3.685   4.508  15.814 -1.1980 -1.6028 -1.3966
   86TCq2    H4 1324   3.971   4.325  16.056 -0.7138  0.2380  2.1411
   87MPD2     C 1325   0.691   2.245   0.858  0.4184 -0.4735 -0.8163
   87MPD2    C1 1326   0.766   2.320   0.769 -0.4826 -0.1664  0.0031
   87MPD2    C2 1327   0.705   2.384   0.665  0.6685  0.5433  0.2131
   87MPD2    C3 1328   0.568   2.362   0.650  0.8632 -0.0035  0.9303
   87MPD2    C4 1329   0.505   2.263   0.724  0.3630 -0.2446 -0.6862
   87MPD2    C5 1330   0.571   2.198   0.821  0.0262 -0.0248 -0.0422
   87MPD2     H 1331   0.754   2.455   0.600  1.6939  0.1681  0.5659
   87MPD2    H1 1332   0.401   2.245   0.701  1.5392 -1.1250 -5.3100
   87MPD2    H2 1333   0.734   2.216   0.953 -0.5554 -0.8078 -0.4701
   87MPD2    H3 1334   0.506   2.143   0.889  0.8119 -2.9435 -1.6612
   87MPD2     N 1335   0.493   2.426   0.552 -0.0973  0.3644  0.4836
   87MPD2    H5 1336   0.393   2.408   0.559 -0.4198  1.4122 -1.6461
   87MPD2    N1 1337   0.903   2.336   0.800 -0.1725 -0.6553 -0.1492
   87MPD2    H7 1338   0.931   2.300   0.891 -1.8031  0.4346  0.7729
   88TCq2    C1 1339   0.996   2.388   0.707  0.3077 -0.5209 -0.8682
   88TCq2    O2 1340   0.981   2.443   0.596 -0.6425  0.6854  0.0951
   88TCq2    C2 1341   1.126   2.397   0.762  0.0688 -0.8079 -0.1962
   88TCq2    C3 1342   1.157   2.386   0.900 -0.0583 -0.1851  0.6234
   88TCq2    C4 1343   1.290   2.372   0.942  0.7403  0.8888 -0.3878
   88TCq2    C5 1344   1.386   2.352   0.849  0.0007 -0.2868 -0.0531
   88TCq2    C6 1345   1.354   2.372   0.717 -0.0401 -0.4362  0.5272
   88TCq2    C7 1346   1.227   2.402   0.670 -0.6069 -0.1541  0.3669
   88TCq2    C8 1347   1.446   2.314   0.617  0.4025 -0.1284 -0.7365
   88TCq2    O4 1348   1.452   2.376   0.512 -0.1388  0.1282  0.1854
   88TCq2    C9 1349   1.316   2.367   1.079  0.2400 -1.0970 -0.6533
   88TCq2    O5 1350   1.214   2.378   1.152  0.3547 -0.3544  0.2072
   88TCq2    O6 1351   1.432   2.386   1.118 -0.3952  0.0770 -0.0734
   88TCq2    H2 1352   1.083   2.381   0.979  0.1267 -2.0739  0.6705
   88TCq2    H3 1353   1.490   2.342   0.878  0.0604 -2.0981 -0.8795
   88TCq2    H4 1354   1.213   2.411   0.563  2.0667  1.8555  0.1678
   89MPD2     C 1355   2.506   0.310   1.805  0.6909 -0.0978  0.5355
   89MPD2    C1 1356   2.451   0.432   1.769 -0.7972  0.0390  0.3202
   89MPD2    C2 1357   2.536   0.524   1.707 -0.4335  0.2808  0.2797
   89MPD2    C3 1358   2.674   0.502   1.686 -0.2465  0.2060 -0.9548
   89MPD2    C4 1359   2.730   0.387   1.734  0.0044  0.2962 -0.0388
   89MPD2    C5 1360   2.647   0.294   1.794 -0.0690 -0.6009  0.1093
   89MPD2     H 1361   2.495   0.619   1.676  1.0435  1.6199  2.4825
   89MPD2    H1 1362   2.837   0.367   1.733  0.0164  0.4049 -0.6320
   89MPD2    H2 1363   2.455   0.233   1.862  0.7542 -0.4288  0.1477
   89MPD2    H3 1364   2.695   0.201   1.821 -0.3570 -0.8762 -0.3235
   89MPD2     N 1365   2.738   0.601   1.619  0.5828 -0.2085 -0.1896
   89MPD2    H5 1366   2.680   0.678   1.589 -0.2894 -0.7775  0.0284
   89MPD2    N1 1367   2.312   0.465   1.788  0.0710 -0.3833  0.2571
   89MPD2    H7 1368   2.280   0.561   1.775 -0.2521 -0.3525  1.3081
   90TCq2    C1 1369   2.874   0.620   1.609 -0.5289 -0.2414 -0.2181
   90TCq2    O2 1370   2.960   0.564   1.672 -0.1544 -0.3893  0.4213
   90TCq2    C2 1371   2.917   0.719   1.516 -0.1391  0.5377  0.1620
   90TCq2    C3 1372   2.857   0.732   1.394 -0.1264 -0.5235 -0.4066
   90TCq2    C4 1373   2.914   0.815   1.303  0.2241 -0.0831 -0.3684
   90TCq2    C5 1374   3.022   0.896   1.335  0.0932  0.2569 -0.2977
   90TCq2    C6 1375   3.089   0.859   1.450 -0.8270  0.6773 -0.0687
   90TCq2    C7 1376   3.043   0.770   1.540 -0.3134  0.0055 -0.2724
   90TCq2    C8 1377   3.226   0.914   1.469  0.1480  0.3817  0.5762
   90TCq2    O4 1378   3.273   0.887   1.579 -0.0090 -0.8819 -0.4380
   90TCq2    C9 1379   2.844   0.831   1.180  0.2367  0.4247 -0.1405
   90TCq2    O5 1380   2.910   0.882   1.086  0.2391  0.1594 -0.5308
   90TCq2    O6 1381   2.717   0.810   1.179 -0.9724  0.3874  0.3303
   90TCq2    H2 1382   2.779   0.662   1.366 -1.0369  0.6891 -0.8793
   90TCq2    H3 1383   3.051   0.969   1.260 -2.8542  1.8443  0.1204
   90TCq2    H4 1384   3.095   0.752   1.634 -3.6661 -1.6550  1.2872
   91TMC2    C1 1385   3.707   0.108  16.523  0.3939 -1.0120  0.2895
   91TMC2    C2 1386   3.767   0.196  16.611  0.4265 -0.6731 -0.1456
   91TMC2    C3 1387   3.682   0.250  16.706  0.7122 -0.0261 -0.1462
   91TMC2    C4 1388   3.573   0.081  16.527  0.1400 -0.0759  0.1864
   91TMC2    C5 1389   3.492   0.168  16.604  0.9527 -0.2955  0.0631
   91TMC2    C6 1390   3.546   0.249  16.705  0.3485 -0.7782  0.0241
   91TMC2     C 1391   3.778   0.042  16.422 -0.1351  0.1837 -0.1122
   91TMC2     O 1392   3.714   4.694  16.345 -0.3704  0.2720  0.5515
   91TMC2     H 1393   3.874   0.204  16.623  0.2100 -0.1090  1.3269
   91TMC2    H1 1394   3.522   0.018  16.455  2.7849 -0.1014 -1.6349
   91TMC2    H2 1395   3.497   0.307  16.783  1.3117 -0.6859  0.5614
   91TMC2    C7 1396   3.350   0.142  16.618 -1.0015  0.1007  0.3874
   91TMC2    C8 1397   3.720   0.361  16.789  0.0405 -0.2559  0.8984
   91TMC2    O1 1398   3.300   0.152  16.726 -0.2662  0.0758 -0.1037
   91TMC2    O2 1399   3.676   0.473  16.761  0.1272  0.0082 -0.1850
   91TMC2    O5 1400   3.841   0.335  16.837  0.3402  0.7022  0.3675
   91TMC2    H5 1401   3.852   0.238  16.831 -1.4770  0.4927  0.2725
   92MPD2     C 1402   3.983   4.625  16.262  0.0886  0.4521  0.6466
   92MPD2    C1 1403   4.004   0.021  16.332 -0.5658 -0.6175  0.0208
   92MPD2    C2 1404   4.117   0.095  16.310 -0.0947  0.7861 -0.5506
   92MPD2    C3 1405   4.228   0.046  16.239  0.3081  0.7388 -0.7335
   92MPD2    C4 1406   4.208   4.643  16.184 -0.0806 -0.5809  0.3505
   92MPD2    C5 1407   4.086   4.583  16.181 -0.3733  0.0064 -0.0363
   92MPD2     H 1408   4.123   0.197  16.345  0.5676  0.9075 -1.0245
   92MPD2    H1 1409   4.280   4.588  16.123  1.1646  2.3778 -0.8447
   92MPD2    H2 1410   3.890   4.571  16.275 -0.2633  0.7852 -0.5381
   92MPD2    H3 1411   4.071   4.496  16.118  0.9196  1.1345 -1.8700
   92MPD2     N 1412   4.349   0.122  16.229 -0.0068  0.0127 -0.5614
   92MPD2    H5 1413   4.343   0.219  16.256  0.1047  0.4967 -2.2840
   92MPD2    N1 1414   3.911   0.077  16.417  0.1420  0.2519  0.1708
   92MPD2    H7 1415   3.943   0.159  16.468  0.7810  0.6794 -0.9363
   93MPD2     C 1416   0.632   0.855  13.808 -0.0147  0.6999 -0.2570
   93MPD2    C1 1417   0.638   0.759  13.907 -0.4502  0.7098 -0.2456
   93MPD2    C2 1418   0.522   0.715  13.959  0.0250 -0.3178 -0.4042
   93MPD2    C3 1419   0.393   0.761  13.917  0.7355 -0.0356 -0.3872
   93MPD2    C4 1420   0.393   0.859  13.827  0.3968  0.3771 -0.9519
   93MPD2    C5 1421   0.510   0.908  13.773  0.3660  0.1609  0.0742
   93MPD2     H 1422   0.531   0.636  14.032  1.4381 -0.0447 -0.2919
   93MPD2    H1 1423   0.301   0.909  13.800 -0.1233 -0.0593  0.0131
   93MPD2    H2 1424   0.722   0.896  13.765 -0.0535  2.1275  1.0376
   93MPD2    H3 1425   0.517   0.977  13.690  1.9753 -0.2093 -0.0941
   93MPD2     N 1426   0.268   0.725  13.970  0.3561  0.0040 -0.6758
   93MPD2    H5 1427   0.196   0.782  13.926  1.1428  1.7977  0.3899
   93MPD2    N1 1428   0.761   0.713  13.959 -0.4330 -0.3191  0.2855
   93MPD2    H7 1429   0.753   0.649  14.037 -0.9010 -1.6933 -0.9111
   94TCq2    C1 1430   0.885   0.743  13.913 -0.0222 -0.3264 -0.7509
   94TCq2    O2 1431   0.923   0.813  13.819  0.1345  0.8778  0.4715
   94TCq2    C2 1432   0.992   0.668  13.985  0.4297 -0.4138  0.0833
   94TCq2    C3 1433   0.974   0.631  14.112  0.6469 -0.2138 -0.1257
   94TCq2    C4 1434   1.071   0.561  14.177  0.0874  0.9663  0.1531
   94TCq2    C5 1435   1.189   0.529  14.109  0.3443 -0.1984  0.4298
   94TCq2    C6 1436   1.204   0.564  13.978  0.3183  0.0125 -0.0947
   94TCq2    C7 1437   1.101   0.627  13.912 -0.2279  0.8274 -0.0482
   94TCq2    C8 1438   1.310   0.500  13.908  0.1075  0.8177  0.2387
   94TCq2    O4 1439   1.414   0.465  13.962  0.0154 -0.1642 -0.1724
   94TCq2    C9 1440   1.045   0.518  14.315  0.4911  0.3482  0.1767
   94TCq2    O5 1441   1.147   0.465  14.372  0.1171 -0.6772  0.2397
   94TCq2    O6 1442   0.940   0.565  14.374  0.0435 -0.3080  0.7992
   94TCq2    H2 1443   0.889   0.658  14.173  1.9971 -0.7958  2.0398
   94TCq2    H3 1444   1.244   0.445  14.150 -2.4048 -2.5665 -0.6881
   94TCq2    H4 1445   1.120   0.663  13.811 -0.8520  1.0015 -0.1050
   95TMC2    C1 1446   0.756   2.098  16.325 -0.6070  0.7832 -0.2899
   95TMC2    C2 1447   0.657   2.002  16.373  0.2518  0.1189 -0.5225
   95TMC2    C3 1448   0.634   1.991  16.507  0.1707  0.4617 -0.8618
   95TMC2    C4 1449   0.818   2.179  16.420 -0.1148  0.5354  0.0542
   95TMC2    C5 1450   0.790   2.159  16.555  0.1238  0.5137  0.3160
   95TMC2    C6 1451   0.700   2.068  16.600  0.2543 -0.0891 -1.1812
   95TMC2     C 1452   0.819   2.085  16.190  0.2731  0.4708 -0.2171
   95TMC2     O 1453   0.913   2.156  16.165  0.6421  0.1535 -0.6184
   95TMC2     H 1454   0.600   1.946  16.299  1.8993 -1.0402 -0.9263
   95TMC2    H1 1455   0.893   2.249  16.386  1.8450 -0.5921  1.9896
   95TMC2    H2 1456   0.664   2.055  16.702  0.7638 -0.9412 -1.1178
   95TMC2    C7 1457   0.863   2.238  16.650 -0.3608 -0.2277 -0.3338
   95TMC2    C8 1458   0.536   1.892  16.545  0.7310  0.0958  0.2166
   95TMC2    O1 1459   0.905   2.349  16.629  0.5447  0.4439 -0.1991
   95TMC2    O2 1460   0.530   1.777  16.506 -0.2761 -0.3877  0.0672
   95TMC2    O5 1461   0.441   1.974  16.594 -0.1643 -0.3808 -0.2801
   95TMC2    H5 1462   0.468   2.067  16.578 -0.2735 -0.6340 -1.9961
   96MPD2     C 1463   0.837   1.933  15.699 -0.2261 -0.3929  0.0635
   96MPD2    C1 1464   0.931   2.007  15.772 -0.3631 -0.2077  0.1749
   96MPD2    C2 1465   0.907   2.031  15.905 -0.2097  0.0772  0.0927
   96MPD2    C3 1466   0.791   1.990  15.965 -0.0497 -0.4037  0.2174
   96MPD2    C4 1467   0.701   1.916  15.886  0.1110  0.1024 -0.3776
   96MPD2    C5 1468   0.726   1.893  15.753  0.2831 -0.0957  0.3184
   96MPD2     H 1469   0.986   2.071  15.967  0.6687  1.0538 -1.6425
   96MPD2    H1 1470   0.602   1.888  15.922  1.0414 -2.1008  0.4580
   96MPD2    H2 1471   0.850   1.908  15.594  0.5403 -0.2222  0.1121
   96MPD2    H3 1472   0.650   1.831  15.704 -0.3245 -0.4485  1.7182
   96MPD2     N 1473   0.750   2.007  16.100  0.2368  0.0229  0.2145
   96MPD2    H5 1474   0.678   1.944  16.134  1.3401 -0.4085  1.7294
   96MPD2    N1 1475   1.040   2.055  15.701 -0.0253  0.6880 -0.0289
   96MPD2    H7 1476   1.054   1.999  15.617 -1.4879 -1.4879  1.1653
   97MPD2     C 1477   2.282   4.130   1.315  0.4805 -0.2149  0.0231
   97MPD2    C1 1478   2.269   4.254   1.256 -0.1064  0.6979  0.7650
   97MPD2    C2 1479   2.278   4.248   1.114  0.0571 -0.5632  0.5948
   97MPD2    C3 1480   2.286   4.127   1.045 -0.6922  0.2128 -0.7893
   97MPD2    C4 1481   2.284   4.011   1.116  0.2760 -0.8516  0.5406
   97MPD2    C5 1482   2.292   4.009   1.251 -0.3242  0.3699  0.1171
   97MPD2     H 1483   2.255   4.335   1.054 -0.2712  0.2136  1.8283
   97MPD2    H1 1484   2.300   3.920   1.059  0.9400  0.3908 -1.2663
   97MPD2    H2 1485   2.298   4.130   1.422  3.4532  1.4710 -0.4275
   97MPD2    H3 1486   2.300   3.914   1.304  2.9273  0.3323 -0.4523
   97MPD2     N 1487   2.311   4.120   0.907  0.8066 -0.5805  0.7067
   97MPD2    H5 1488   2.311   4.024   0.875 -0.0733 -0.4543  0.2980
   97MPD2    N1 1489   2.272   4.368   1.334  0.0655  0.3698  0.3086
   97MPD2    H7 1490   2.306   4.359   1.430 -0.1938 -3.1537  0.0420
   98TCq2    C1 1491   2.322   4.220   0.823  0.4808  0.4218 -0.0549
   98TCq2    O2 1492   2.317   4.341   0.843 -1.1262  0.7570 -0.7154
   98TCq2    C2 1493   2.347   4.191   0.683  0.0274  0.5075 -0.0437
   98TCq2    C3 1494   2.316   4.070   0.629 -0.2248  0.6133 -0.1487
   98TCq2    C4 1495   2.363   4.040   0.510  0.9160 -0.0756 -0.2225
   98TCq2    C5 1496   2.442   4.121   0.438 -0.6918  0.5754  0.5959
   98TCq2    C6 1497   2.480   4.239   0.502  0.6787  0.5144 -0.0014
   98TCq2    C7 1498   2.421   4.278   0.620  0.5940  0.0210 -0.4699
   98TCq2    C8 1499   2.589   4.327   0.454  0.3231  0.4812 -0.2121
   98TCq2    O4 1500   2.648   4.404   0.527  0.0835  0.2762  0.2274
   98TCq2    C9 1501   2.323   3.913   0.456  0.0144  0.0650 -0.5521
   98TCq2    O5 1502   2.236   3.847   0.517  0.6752  0.5581  0.3594
   98TCq2    O6 1503   2.404   3.871   0.370 -0.4027  1.1959  0.0185
   98TCq2    H2 1504   2.261   3.999   0.690  1.4885 -0.2523  0.3918
   98TCq2    H3 1505   2.489   4.083   0.348  0.3602 -1.5999  2.0616
   98TCq2    H4 1506   2.456   4.367   0.671  0.3279  0.4493 -1.0406
   99MPD2     C 1507   0.873   1.531   1.659  0.4736 -0.1185 -0.1938
   99MPD2    C1 1508   0.994   1.559   1.712  0.2298  0.8413  0.6631
   99MPD2    C2 1509   1.113   1.539   1.653 -0.2022 -0.6933  0.0879
   99MPD2    C3 1510   1.112   1.486   1.526 -0.2087  0.4353 -0.1797
   99MPD2    C4 1511   0.990   1.460   1.463 -0.9660  0.3403  0.1229
   99MPD2    C5 1512   0.873   1.487   1.533 -0.2240 -0.1725  0.5957
   99MPD2     H 1513   1.203   1.559   1.709  0.9196 -0.1247 -1.9424
   99MPD2    H1 1514   0.985   1.427   1.361  1.9777  0.7419 -0.1492
   99MPD2    H2 1515   0.776   1.533   1.706  1.6983 -0.0806  2.3310
   99MPD2    H3 1516   0.777   1.456   1.493 -0.7569 -1.3060  2.7235
   99MPD2     N 1517   1.242   1.474   1.466 -0.3663  0.4479  0.1092
   99MPD2    H5 1518   1.323   1.494   1.524 -1.0259 -1.6867  1.7810
   99MPD2    N1 1519   1.004   1.604   1.840 -0.5221  0.3224 -1.2362
   99MPD2    H7 1520   1.101   1.615   1.868 -0.9411  0.4169  0.1215
  100TCq2    C1 1521   0.907   1.640   1.930  0.1456 -0.2065 -0.2718
  100TCq2    O2 1522   0.790   1.677   1.911  0.0764 -0.3936  0.1256
  100TCq2    C2 1523   0.939   1.613   2.065  0.3192 -0.0385  0.1618
  100TCq2    C3 1524   0.866   1.656   2.167  0.6520 -0.2024 -0.1673
  100TCq2    C4 1525   0.882   1.608   2.294 -0.9624  0.5455 -0.5324
  100TCq2    C5 1526   0.979   1.521   2.324  0.2856  0.2843  0.5028
  100TCq2    C6 1527   1.047   1.470   2.219 -0.3553  0.4387 -0.3061
  100TCq2    C7 1528   1.032   1.520   2.093 -0.5295 -0.5334 -0.2773
  100TCq2    C8 1529   1.104   1.333   2.231  0.2740  0.3853  0.2858
  100TCq2    O4 1530   1.156   1.295   2.334  0.9886  0.3540 -0.4362
  100TCq2    C9 1531   0.802   1.675   2.404  0.3322 -0.7961 -0.2263
  100TCq2    O5 1532   0.726   1.774   2.380  0.0716  0.1178  0.3100
  100TCq2    O6 1533   0.823   1.634   2.520  0.2708 -0.1980 -0.4464
  100TCq2    H2 1534   0.789   1.729   2.143  1.8327  0.4446 -2.0576
  100TCq2    H3 1535   0.980   1.492   2.428  1.4589  2.5496  1.1260
  100TCq2    H4 1536   1.100   1.480   2.019 -0.9955  1.2447 -1.6750
  101MPD2     C 1537   2.367   2.792  12.965 -0.2590  0.2781  0.0400
  101MPD2    C1 1538   2.246   2.836  13.019 -0.2974 -0.1964  1.2201
  101MPD2    C2 1539   2.156   2.738  13.067 -0.3044  0.1526 -0.3079
  101MPD2    C3 1540   2.198   2.610  13.079  0.8552 -0.5871 -0.1332
  101MPD2    C4 1541   2.326   2.573  13.036  0.1925 -0.1126 -0.1621
  101MPD2    C5 1542   2.409   2.660  12.978 -0.1280 -0.1238  0.4366
  101MPD2     H 1543   2.059   2.764  13.106 -0.7375 -0.6114 -0.8777
  101MPD2    H1 1544   2.358   2.469  13.034 -0.9864 -0.4841  0.1947
  101MPD2    H2 1545   2.442   2.846  12.908 -0.3560 -0.3798 -0.7226
  101MPD2    H3 1546   2.500   2.614  12.943  0.7736  0.2888  2.2053
  101MPD2     N 1547   2.108   2.514  13.133  0.4033 -0.1049  0.2875
  101MPD2    H5 1548   2.013   2.543  13.155  0.4465  0.2543 -0.0040
  101MPD2    N1 1549   2.204   2.967  12.993  0.1513  0.5059  0.1458
  101MPD2    H7 1550   2.267   3.026  12.939 -0.3796  2.3980  1.6053
  102TCq2    C1 1551   2.136   3.289  12.637  0.1028 -0.2739 -0.1039
  102TCq2    O2 1552   2.245   3.237  12.630 -0.2509 -0.0727 -0.3986
  102TCq2    C2 1553   2.068   3.267  12.763 -0.6662  0.4921  0.1951
  102TCq2    C3 1554   1.994   3.367  12.821  0.4535  0.4919 -0.0373
  102TCq2    C4 1555   1.963   3.352  12.950  0.2749  0.0749  0.1111
  102TCq2    C5 1556   1.991   3.244  13.028  0.3064  0.1581 -0.0189
  102TCq2    C6 1557   2.055   3.142  12.965  0.9400 -0.2462  0.2392
  102TCq2    C7 1558   2.103   3.154  12.837  0.4024 -0.3685  0.2902
  102TCq2    C8 1559   2.088   3.022  13.043 -0.3424  0.1163 -0.4565
  102TCq2    O4 1560   2.011   2.990  13.127  0.0508  0.3043  1.2458
  102TCq2    C9 1561   1.907   3.467  13.021 -0.0830  0.3356 -0.0042
  102TCq2    O5 1562   1.874   3.435  13.140 -0.2003  0.2142  0.4128
  102TCq2    O6 1563   1.942   3.582  12.986  0.2879  0.0523 -0.9009
  102TCq2    H2 1564   1.967   3.456  12.765 -0.1243  0.7943  0.7292
  102TCq2    H3 1565   1.968   3.249  13.134 -1.0760  1.1265 -0.3554
  102TCq2    H4 1566   2.138   3.067  12.783  5.1508  2.0146 -0.5550
  103TMC2    C1 1567   4.576   2.874  12.842 -0.1457 -1.1489 -0.0054
  103TMC2    C2 1568   4.456   2.924  12.801 -0.3576  0.4660  0.1237
  103TMC2    C3 1569   4.342   2.897  12.879  0.0895 -1.1755 -0.5666
  103TMC2    C4 1570   4.583   2.788  12.948 -0.2530 -0.1837 -1.0015
  103TMC2    C5 1571   4.475   2.770  13.033  0.2213 -0.5484  0.3941
  103TMC2    C6 1572   4.359   2.820  12.991  0.9355  0.5906  0.6704
  103TMC2     C 1573   4.664   2.845  12.730  0.5001  0.3034  0.1392
  103TMC2     O 1574   4.611   2.855  12.620 -0.1277  0.0429  0.4971
  103TMC2     H 1575   4.451   2.981  12.709 -0.7216 -2.6082 -1.7786
  103TMC2    H1 1576   4.673   2.733  12.975 -0.4895 -1.8585 -3.6737
  103TMC2    H2 1577   4.264   2.806  13.041  1.5612 -0.4031  1.5717
  103TMC2    C7 1578   4.504   2.735  13.170 -0.5827  0.1215  0.0865
  103TMC2    C8 1579   4.213   2.911  12.830 -0.4220 -0.4440 -0.4599
  103TMC2    O1 1580   4.622   2.708  13.186 -0.3089  0.7014  0.1527
  103TMC2    O2 1581   4.122   2.836  12.861  0.2612 -0.2548  0.1703
  103TMC2    O5 1582   4.217   2.993  12.723  0.0984 -0.9286 -0.4369
  103TMC2    H5 1583   4.281   3.068  12.730 -1.1211  0.4952 -4.1326
  104MPD2     C 1584   0.289   2.732  12.726  0.3074 -0.0853  0.1272
  104MPD2    C1 1585   0.163   2.752  12.677  0.4308  0.0315 -0.2511
  104MPD2    C2 1586   0.139   2.743  12.539  0.0628  1.0463 -0.0677
  104MPD2    C3 1587   0.246   2.711  12.458 -0.0472  1.0650 -0.7977
  104MPD2    C4 1588   0.369   2.685  12.505  0.1374 -0.4618 -0.3395
  104MPD2    C5 1589   0.394   2.699  12.637  0.5628 -0.3422 -0.8620
  104MPD2     H 1590   0.037   2.742  12.503  0.7547 -0.4525 -1.9555
  104MPD2    H1 1591   0.455   2.649  12.450  0.2402 -1.8122  0.7050
  104MPD2    H2 1592   0.310   2.736  12.832  0.4571 -0.8946  0.1296
  104MPD2    H3 1593   0.494   2.684  12.675  0.1736  0.3547  0.4487
  104MPD2     N 1594   0.210   2.706  12.325 -0.1116 -0.0417 -0.2764
  104MPD2    H5 1595   0.111   2.727  12.310 -0.1358 -1.0153 -1.5056
  104MPD2    N1 1596   0.062   2.794  12.769  0.3613 -0.2606 -0.2150
  104MPD2    H7 1597   0.086   2.789  12.867 -2.6019 -1.8712  0.3993
  105MPD2     C 1598   2.363   1.970  17.089  0.4375 -0.0361  0.5919
  105MPD2    C1 1599   2.297   2.091  17.072  0.7718 -0.2830 -0.1264
  105MPD2    C2 1600   2.267   2.166  17.191 -0.3120 -0.3341 -0.0775
  105MPD2    C3 1601   2.302   2.115  17.316  0.0235  0.1876  0.0513
  105MPD2    C4 1602   2.381   2.004  17.320  0.3078  0.1238 -0.0292
  105MPD2    C5 1603   2.408   1.934  17.208 -0.8196 -0.3118  0.8930
  105MPD2     H 1604   2.203   2.253  17.185  1.4218  0.8103 -1.7952
  105MPD2    H1 1605   2.429   1.974  17.412 -0.6619 -0.0175  0.4237
  105MPD2    H2 1606   2.402   1.918  17.002 -0.2798 -0.5640  0.5857
  105MPD2    H3 1607   2.481   1.854  17.215  1.3077  1.3868 -1.9687
  105MPD2     N 1608   2.251   2.173  17.433 -0.0888  0.2795  0.5798
  105MPD2    H5 1609   2.203   2.262  17.421 -1.7569 -0.8286 -0.8702
  105MPD2    N1 1610   2.245   2.141  16.952  0.3024  0.2579  0.4722
  105MPD2    H7 1611   2.189   2.225  16.960 -0.1446 -0.3639  3.6424
  106TCq2    C1 1612   2.254   2.114  17.559  0.0982 -0.3445 -0.0045
  106TCq2    O2 1613   2.292   2.002  17.598 -0.3265 -0.4576  0.5429
  106TCq2    C2 1614   2.163   2.188  17.648 -0.4313  0.1904 -0.9298
  106TCq2    C3 1615   2.140   2.325  17.637 -0.8552 -0.8068  0.1583
  106TCq2    C4 1616   2.048   2.377   0.034  0.0759 -0.1058  0.3900
  106TCq2    C5 1617   1.980   2.297   0.124  0.2032  0.1096  0.3856
  106TCq2    C6 1618   1.998   2.159   0.121 -0.5176  0.7624  0.2574
  106TCq2    C7 1619   2.092   2.105   0.037  0.5492  0.1468 -0.0648
  106TCq2    C8 1620   1.936   2.076   0.227  1.2000 -0.3036 -0.0853
  106TCq2    O4 1621   1.995   1.972   0.249  0.8172  0.1387 -0.1043
  106TCq2    C9 1622   2.027   2.521   0.034  0.1172  0.0720  0.4880
  106TCq2    O5 1623   1.957   2.571   0.122 -0.0327 -0.1518 -0.3195
  106TCq2    O6 1624   2.117   2.591  17.664 -0.2235 -0.5619  0.1853
  106TCq2    H2 1625   2.197   2.392  17.573 -0.2014  0.0572  1.6481
  106TCq2    H3 1626   1.904   2.343   0.186  1.0141  1.5438  0.3193
  106TCq2    H4 1627   2.107   1.998   0.044 -0.4265  0.0322  0.2718
  107TMC2    C1 1628   3.262   1.286  11.337  0.8964 -0.0275 -0.8594
  107TMC2    C2 1629   3.266   1.309  11.201  0.6244  0.6090  0.0669
  107TMC2    C3 1630   3.330   1.216  11.131 -0.0872 -0.7607  0.4686
  107TMC2    C4 1631   3.311   1.176  11.402  0.4528 -0.0521  0.1776
  107TMC2    C5 1632   3.377   1.088  11.322  0.1135  0.5073  0.3889
  107TMC2    C6 1633   3.384   1.107  11.186  0.2936 -0.7624  0.0039
  107TMC2     C 1634   3.171   1.377  11.414 -0.0999 -0.6232 -0.0659
  107TMC2     O 1635   3.143   1.343  11.527 -0.9254  0.0020 -0.0100
  107TMC2     H 1636   3.232   1.396  11.147 -1.5571  0.3428  0.9782
  107TMC2    H1 1637   3.302   1.158  11.509 -0.9576  0.0239  0.0623
  107TMC2    H2 1638   3.436   1.033  11.126  0.7427 -0.7827  0.4217
  107TMC2    C7 1639   3.369   0.954  11.374 -0.6418  0.2360 -0.4158
  107TMC2    C8 1640   3.336   1.217  10.982 -0.3169  0.5827  0.8609
  107TMC2    O1 1641   3.413   0.938  11.485  0.2451  0.2561 -0.5016
  107TMC2    O2 1642   3.402   1.132  10.927  0.2836  0.3313  0.2675
  107TMC2    O5 1643   3.221   1.265  10.936  0.2669 -0.0032  0.1000
  107TMC2    H5 1644   3.157   1.298  11.003  1.5150  2.5928  0.0134
  108MPD2     C 1645   3.000   1.684  11.291  0.3866 -0.6601  0.3838
  108MPD2    C1 1646   3.027   1.584  11.378  0.3385  0.2858 -1.0382
  108MPD2    C2 1647   2.973   1.587  11.509  0.4973 -0.1147  0.0732
  108MPD2    C3 1648   2.882   1.683  11.537  0.2850  0.5756  0.7532
  108MPD2    C4 1649   2.842   1.775  11.438 -0.9879  0.1356 -0.2945
  108MPD2    C5 1650   2.906   1.781  11.321 -0.3066  0.6175 -0.4478
  108MPD2     H 1651   2.997   1.503  11.573  0.5689  0.0818  0.3052
  108MPD2    H1 1652   2.760   1.845  11.456  2.7843  3.7480  2.9000
  108MPD2    H2 1653   3.040   1.674  11.191  0.0888 -1.2946  0.3298
  108MPD2    H3 1654   2.884   1.859  11.249  1.1539  0.0143 -1.5318
  108MPD2     N 1655   2.817   1.699  11.663 -0.1649 -0.3080  0.4999
  108MPD2    H5 1656   2.755   1.778  11.675 -1.3717 -1.0631 -0.7976
  108MPD2    N1 1657   3.116   1.477  11.337 -0.2796  0.5830  0.2140
  108MPD2    H7 1658   3.160   1.495  11.247 -0.7349 -2.3662 -0.5829
  109MPD2     C 1659   2.773   3.527   1.836 -0.2932 -0.2119  0.8979
  109MPD2    C1 1660   2.671   3.620   1.849 -0.5798  0.2977 -0.5661
  109MPD2    C2 1661   2.697   3.747   1.903  0.0147  0.2749  0.3121
  109MPD2    C3 1662   2.821   3.774   1.958  0.8256  0.8436  0.0562
  109MPD2    C4 1663   2.922   3.683   1.938  0.5112  0.0991  1.1894
  109MPD2    C5 1664   2.895   3.559   1.888 -0.0380 -0.4599 -0.6803
  109MPD2     H 1665   2.621   3.812   1.944 -1.0432 -1.8645  1.7945
  109MPD2    H1 1666   3.022   3.705   1.971 -0.0210  0.2777  2.6929
  109MPD2    H2 1667   2.763   3.428   1.793  0.6644 -0.7519  1.9317
  109MPD2    H3 1668   2.973   3.484   1.880  1.3013  1.1684 -2.8066
  109MPD2     N 1669   2.836   3.894   2.036 -0.5872  1.0847 -0.4761
  109MPD2    H5 1670   2.755   3.955   2.040 -2.2805 -1.1153 -1.2189
  109MPD2    N1 1671   2.541   3.577   1.828 -0.2526 -0.3367  0.4692
  109MPD2    H7 1672   2.538   3.479   1.802 -0.4134 -1.0770  3.3301
  110TCq2    C1 1673   2.954   3.941   2.073  0.4645 -0.2527 -0.1908
  110TCq2    O2 1674   3.068   3.897   2.065 -0.4480  0.8356 -0.2443
  110TCq2    C2 1675   2.936   4.077   2.120 -0.1939 -0.2390 -0.3946
  110TCq2    C3 1676   3.023   4.127   2.211 -1.0178 -0.1835  0.1508
  110TCq2    C4 1677   3.021   4.257   2.258  0.3927  0.2096 -0.6409
  110TCq2    C5 1678   2.925   4.334   2.207 -0.0290 -0.4571 -0.0305
  110TCq2    C6 1679   2.834   4.287   2.113 -0.1154  0.0168 -0.6286
  110TCq2    C7 1680   2.833   4.159   2.072 -0.5671  0.7186 -0.7555
  110TCq2    C8 1681   2.719   4.364   2.078 -0.3735 -0.2691 -0.0493
  110TCq2    O4 1682   2.631   4.312   2.018 -0.5182 -0.2830 -0.1697
  110TCq2    C9 1683   3.106   4.306   2.360  0.0697 -0.0516 -0.5720
  110TCq2    O5 1684   3.087   4.425   2.403 -0.4846 -0.4237 -0.0628
  110TCq2    O6 1685   3.154   4.214   2.442 -0.9567  0.1543 -0.1959
  110TCq2    H2 1686   3.097   4.071   2.267 -1.1591  0.0066  0.5257
  110TCq2    H3 1687   2.934   4.440   2.229  2.1400 -0.5322 -0.5299
  110TCq2    H4 1688   2.756   4.128   2.003 -1.2776 -1.3562  0.9798
  111TMC2    C1 1689   2.500   4.096  11.332 -0.2528 -0.1434  0.0107
  111TMC2    C2 1690   2.573   4.169  11.246  0.2393 -0.6440  0.0971
  111TMC2    C3 1691   2.709   4.165  11.262  0.3827 -1.0987 -0.0496
  111TMC2    C4 1692   2.566   4.009  11.422 -0.1061  0.0676  0.0300
  111TMC2    C5 1693   2.699   4.022  11.437 -0.1134 -0.0435  0.4316
  111TMC2    C6 1694   2.777   4.092  11.350 -0.6079 -0.0400 -1.0002
  111TMC2     C 1695   2.369   4.056  11.292  0.1764 -0.4665 -0.5239
  111TMC2     O 1696   2.333   4.100  11.184 -0.0250  0.2417 -0.6515
  111TMC2     H 1697   2.526   4.223  11.164  2.5738 -1.6551 -1.8956
  111TMC2    H1 1698   2.503   3.954  11.492 -0.8570 -1.9765 -2.2580
  111TMC2    H2 1699   2.883   4.112  11.368  0.0434 -4.1186 -0.3200
  111TMC2    C7 1700   2.762   3.946  11.541 -0.1792 -0.1136 -0.4218
  111TMC2    C8 1701   2.789   4.259  11.179  0.2330  0.5919 -0.3390
  111TMC2    O1 1702   2.691   3.937  11.642 -0.0315 -0.8470 -0.3212
  111TMC2    O2 1703   2.743   4.354  11.114  0.0436 -0.1209 -0.1692
  111TMC2    O5 1704   2.911   4.201  11.154 -0.5050 -0.4189 -0.4751
  111TMC2    H5 1705   2.928   4.119  11.204  2.5475  0.1547 -0.5177
  112MPD2     C 1706   2.026   3.696  11.263  0.2139 -0.0474 -0.0494
  112MPD2    C1 1707   2.041   3.812  11.184  0.1848  0.2132  0.3672
  112MPD2    C2 1708   2.117   3.917  11.228 -0.0594  0.6503 -0.1807
  112MPD2    C3 1709   2.181   3.909  11.353  0.2891  0.9653 -0.7297
  112MPD2    C4 1710   2.167   3.794  11.424  0.1134 -0.1040 -0.1533
  112MPD2    C5 1711   2.089   3.688  11.381 -0.4774  0.3857 -0.1679
  112MPD2     H 1712   2.126   4.004  11.164 -1.9849  3.0259  2.7222
  112MPD2    H1 1713   2.223   3.765  11.512  2.8598  1.6259 -1.3608
  112MPD2    H2 1714   1.970   3.609  11.229  0.2961  0.3646 -1.2517
  112MPD2    H3 1715   2.089   3.603  11.449  2.2187  0.9743  0.5946
  112MPD2     N 1716   2.293   3.990  11.388  0.1688 -0.2114 -0.2979
  112MPD2    H5 1717   2.345   3.962  11.470 -0.9741 -0.7533  0.2295
  112MPD2    N1 1718   1.976   3.816  11.058  0.1990  0.0933  0.6303
  112MPD2    H7 1719   1.982   3.904  11.008  1.3990 -0.1560  0.3320
  113MPD2     C 1720   0.719   1.848   0.621  0.0906  0.5545 -0.9871
  113MPD2    C1 1721   0.632   1.781   0.709  0.1361 -0.4759 -0.1506
  113MPD2    C2 1722   0.544   1.690   0.651 -0.0646 -1.2518 -0.0349
  113MPD2    C3 1723   0.534   1.668   0.518  0.9412  0.1309 -0.8911
  113MPD2    C4 1724   0.608   1.746   0.432 -0.5115  0.1250  0.1107
  113MPD2    C5 1725   0.699   1.830   0.485 -0.7405  0.4927  0.2576
  113MPD2     H 1726   0.478   1.639   0.721  1.6653  1.9939  4.0177
  113MPD2    H1 1727   0.606   1.734   0.324 -3.9768  1.6126  0.0220
  113MPD2    H2 1728   0.795   1.920   0.649  0.5702  0.9557 -3.3654
  113MPD2    H3 1729   0.749   1.888   0.408  0.1777  0.1894  0.6218
  113MPD2     N 1730   0.461   1.562   0.461  0.7927  0.0131  0.3448
  113MPD2    H5 1731   0.415   1.573   0.372 -1.1097 -1.7688  1.1133
  113MPD2    N1 1732   0.636   1.793   0.849 -0.4285  0.2922  0.1150
  113MPD2    H7 1733   0.550   1.765   0.896 -0.2796  4.3588  2.7737
  114TCq2    C1 1734   0.420   1.447   0.521  0.2622 -0.6981  0.2457
  114TCq2    O2 1735   0.464   1.389   0.617 -0.2357 -0.2710  0.6390
  114TCq2    C2 1736   0.300   1.385   0.450  0.2835 -0.1214 -0.7133
  114TCq2    C3 1737   0.237   1.462   0.355 -0.5796  0.1458 -0.2375
  114TCq2    C4 1738   0.161   1.394   0.266  0.6048 -0.7424  0.1073
  114TCq2    C5 1739   0.135   1.262   0.271  0.3994  0.3965 -0.0408
  114TCq2    C6 1740   0.208   1.193   0.366 -0.0970  0.1790  0.5725
  114TCq2    C7 1741   0.276   1.249   0.471 -0.7659 -0.1789 -0.1112
  114TCq2    C8 1742   0.201   1.045   0.372  0.6042 -0.1857  0.5135
  114TCq2    O4 1743   0.169   0.994   0.262 -0.0119  0.2081 -0.3079
  114TCq2    C9 1744   0.083   1.477   0.170  0.0859 -0.1052 -0.2058
  114TCq2    O5 1745   4.692   1.440   0.150 -0.1549 -0.1511 -0.2642
  114TCq2    O6 1746   0.137   1.587   0.141  0.0758 -0.3009  0.4154
  114TCq2    H2 1747   0.241   1.570   0.343  2.2194  0.0118 -0.4515
  114TCq2    H3 1748   0.085   1.217   0.186  0.4504  0.7323 -0.2464
  114TCq2    H4 1749   0.339   1.188   0.535  1.1255  1.2386 -0.6269
  115TMC2    C1 1750   1.393   4.589   0.027  0.0193 -0.5635  0.2020
  115TMC2    C2 1751   1.370   4.579  17.581 -0.3808  0.6102  0.0836
  115TMC2    C3 1752   1.425   4.669  17.493  0.0060 -0.1365  0.5557
  115TMC2    C4 1753   1.470   4.691   0.070 -0.4769 -0.1722 -0.3863
  115TMC2    C5 1754   1.532   0.046  17.670 -0.2005 -0.6617 -0.0539
  115TMC2    C6 1755   1.507   0.045  17.535  0.4516  0.0625  0.1685
  115TMC2     C 1756   1.410   4.451   0.087  1.0843 -0.0140  0.2293
  115TMC2     O 1757   1.328   4.370   0.055  0.5097 -0.7692 -0.1961
  115TMC2     H 1758   1.321   4.490  17.542 -0.6091 -0.0385  1.8284
  115TMC2    H1 1759   1.482   4.701   0.177  1.5263  1.3837 -0.7630
  115TMC2    H2 1760   1.536   0.126  17.470 -0.0935 -0.9308 -1.3232
  115TMC2    C7 1761   1.601   0.159   0.029  0.0065 -0.1385 -0.0842
  115TMC2    C8 1762   1.416   4.635  17.351 -0.6415  0.4180 -0.0296
  115TMC2    O1 1763   1.573   0.199   0.139 -0.3633  0.1056 -0.1537
  115TMC2    O2 1764   1.352   4.540  17.310 -0.0736 -0.2559  0.0112
  115TMC2    O5 1765   1.481   4.723  17.270 -0.5586  0.3116 -0.2715
  115TMC2    H5 1766   1.542   0.057  17.321  0.1819 -1.0116  0.3093
  116MPD2     C 1767   1.656   4.097   0.346 -0.2839  0.2569  0.1332
  116MPD2    C1 1768   1.580   4.084   0.235  1.0037  0.5787  0.4271
  116MPD2    C2 1769   1.530   4.200   0.178 -0.4555  0.0915  1.1067
  116MPD2    C3 1770   1.558   4.330   0.229  0.4367  0.7788 -0.3637
  116MPD2    C4 1771   1.642   4.330   0.343  0.2539 -0.0427  0.2090
  116MPD2    C5 1772   1.688   4.217   0.399 -0.5785  0.1048  0.5160
  116MPD2     H 1773   1.453   4.188   0.103  0.4318  1.1465  0.0214
  116MPD2    H1 1774   1.670   4.425   0.387  0.1527 -0.2771  0.7813
  116MPD2    H2 1775   1.701   4.007   0.385 -1.1400 -0.7748 -1.2794
  116MPD2    H3 1776   1.754   4.227   0.484  2.3070  0.4902 -1.7407
  116MPD2     N 1777   1.505   4.449   0.182  0.9141 -0.9718  0.2464
  116MPD2    H5 1778   1.532   4.537   0.225 -1.6667 -0.0489 -0.0683
  116MPD2    N1 1779   1.558   3.955   0.188 -0.0833  0.4057  1.2266
  116MPD2    H7 1780   1.593   3.877   0.243 -0.5086 -1.1925 -0.7639
  117TMC2    C1 1781   0.129   1.189  13.963 -0.0275  0.0990  0.8008
  117TMC2    C2 1782   0.088   1.155  14.092 -0.2916 -0.0541  0.2939
  117TMC2    C3 1783   0.184   1.166  14.187 -0.1875 -0.5663 -0.3158
  117TMC2    C4 1784   0.258   1.224  13.934  0.4324  0.2511 -0.4354
  117TMC2    C5 1785   0.346   1.234  14.033 -0.0209  0.1401  0.2758
  117TMC2    C6 1786   0.313   1.219  14.161  0.2033 -0.1065  0.2609
  117TMC2     C 1787   0.037   1.184  13.854  0.2438 -0.9712  0.6024
  117TMC2     O 1788   0.091   1.173  13.745  0.2810  0.1894 -0.2665
  117TMC2     H 1789   4.714   1.108  14.098  0.3026 -1.1934  1.0687
  117TMC2    H1 1790   0.284   1.243  13.831  0.5637  0.0682 -0.4365
  117TMC2    H2 1791   0.387   1.227  14.239  0.2080  1.6470  0.0758
  117TMC2    C7 1792   0.475   1.294  14.000  0.2657 -0.0074 -1.2276
  117TMC2    C8 1793   0.176   1.081  14.308  0.0469  0.0856 -0.0158
  117TMC2    O1 1794   0.519   1.268  13.885 -0.0012  0.7261  0.3474
  117TMC2    O2 1795   0.072   1.045  14.355  0.0413 -0.1037  0.6355
  117TMC2    O5 1796   0.289   1.006  14.306  0.3741  0.0192  0.2280
  117TMC2    H5 1797   0.358   1.040  14.245  1.3774 -0.9897  0.7968
  118MPD2     C 1798   0.708   1.483  14.218 -0.1137  0.4225  0.6853
  118MPD2    C1 1799   0.660   1.431  14.097 -0.4869  0.0513  0.2312
  118MPD2    C2 1800   0.731   1.445  13.976 -0.1214  0.4755  0.2368
  118MPD2    C3 1801   0.856   1.503  13.985 -0.4649 -0.0859  0.3540
  118MPD2    C4 1802   0.906   1.536  14.103 -0.0439 -0.5779 -0.5692
  118MPD2    C5 1803   0.834   1.528  14.221  0.6616 -0.3583 -0.4885
  118MPD2     H 1804   0.685   1.420  13.881  1.3059  2.9584 -1.1196
  118MPD2    H1 1805   1.009   1.568  14.117 -0.5279 -0.1550  2.0262
  118MPD2    H2 1806   0.655   1.484  14.312  2.5556  0.0786  2.1920
  118MPD2    H3 1807   0.884   1.545  14.316 -0.5572  2.8325 -0.4337
  118MPD2     N 1808   0.949   1.511  13.872 -0.1286  0.6494 -0.5757
  118MPD2    H5 1809   1.048   1.524  13.888 -0.1948 -0.9200  1.1695
  118MPD2    N1 1810   0.533   1.363  14.101  0.1022 -0.1740 -0.9644
  118MPD2    H7 1811   0.484   1.370  14.190  0.1714  2.4563 -1.1234
  119MPD2     C 1812   3.542   2.200  14.031  0.2251 -0.5231 -0.4671
  119MPD2    C1 1813   3.419   2.167  13.985  0.2514 -0.1932 -0.3447
  119MPD2    C2 1814   3.400   2.147  13.851  0.5703 -0.0375  0.2537
  119MPD2    C3 1815   3.495   2.187  13.762  0.2115 -0.7149  0.9081
  119MPD2    C4 1816   3.607   2.244  13.805 -0.0414  0.6876  0.2149
  119MPD2    C5 1817   3.630   2.248  13.940  0.3084 -0.1411  0.3512
  119MPD2     H 1818   3.309   2.099  13.818  0.4192  0.2732  0.2232
  119MPD2    H1 1819   3.682   2.271  13.732 -0.6975  0.7353 -0.4347
  119MPD2    H2 1820   3.567   2.198  14.137 -0.0061  2.2321 -0.3625
  119MPD2    H3 1821   3.733   2.265  13.971  0.6059  2.7211 -2.2691
  119MPD2     N 1822   3.467   2.197  13.625  0.4802  0.4874 -0.4303
  119MPD2    H5 1823   3.532   2.251  13.569  1.9435 -0.4218  0.3596
  119MPD2    N1 1824   3.322   2.137  14.086 -0.1205 -0.1320  0.4452
  119MPD2    H7 1825   3.346   2.144  14.184  0.1253  0.3672  0.3481
  120TCq2    C1 1826   3.365   2.137  13.557  0.2266 -0.2026  1.1357
  120TCq2    O2 1827   3.281   2.061  13.602 -0.6679 -0.1361 -0.4479
  120TCq2    C2 1828   3.341   2.178  13.420 -0.0887  0.4473 -0.2600
  120TCq2    C3 1829   3.388   2.299  13.379 -0.3811  0.4845 -0.2160
  120TCq2    C4 1830   3.322   2.362  13.274  0.4117  0.9280 -0.1990
  120TCq2    C5 1831   3.212   2.315  13.217 -0.2163  0.0085 -0.2971
  120TCq2    C6 1832   3.177   2.181  13.254 -0.0641 -0.5974 -0.3262
  120TCq2    C7 1833   3.238   2.116  13.359  0.3966 -0.0745 -0.0377
  120TCq2    C8 1834   3.036   2.144  13.224  0.0028 -0.0100  0.2386
  120TCq2    O4 1835   2.988   2.200  13.128  0.5126 -0.7306  0.0227
  120TCq2    C9 1836   3.363   2.497  13.251 -0.6940  0.2483  0.6749
  120TCq2    O5 1837   3.301   2.559  13.161 -0.4174  0.3213  0.4487
  120TCq2    O6 1838   3.469   2.545  13.299 -0.0500 -0.4415 -0.1072
  120TCq2    H2 1839   3.474   2.344  13.427  1.1490 -3.3161  0.5815
  120TCq2    H3 1840   3.160   2.370  13.139 -0.9257 -0.7853 -0.3859
  120TCq2    H4 1841   3.222   2.009  13.372 -0.4211  0.1654  0.8184
  121TMC2    C1 1842   0.070   3.681  14.214 -0.5730  0.3336 -0.5687
  121TMC2    C2 1843   0.015   3.631  14.327  0.1611  0.6025 -0.5777
  121TMC2    C3 1844   4.604   3.625  14.338 -0.2754  0.1366 -0.5261
  121TMC2    C4 1845   4.721   3.732  14.109  0.3170 -0.9098 -0.3466
  121TMC2    C5 1846   4.588   3.708  14.119  0.1858  0.9589  0.1890
  121TMC2    C6 1847   4.527   3.667  14.237 -0.3721  0.2968 -0.2479
  121TMC2     C 1848   0.216   3.652  14.192  0.2017  0.0407  0.3413
  121TMC2     O 1849   0.269   3.571  14.265 -0.2161 -0.8218  0.0213
  121TMC2     H 1850   0.080   3.592  14.405 -2.9317 -0.5891  1.4030
  121TMC2    H1 1851   0.046   3.762  14.016  0.2092 -1.2591 -0.5155
  121TMC2    H2 1852   4.421   3.647  14.247 -0.5072  0.8036 -0.6456
  121TMC2    C7 1853   4.511   3.752  14.004  0.5770  0.1254 -0.2913
  121TMC2    C8 1854   4.548   3.548  14.439 -0.2421 -0.1931 -0.1607
  121TMC2    O1 1855   4.578   3.803  13.915  0.2914  0.1271 -0.3827
  121TMC2    O2 1856   4.430   3.559  14.463 -0.1397 -0.1214  0.7598
  121TMC2    O5 1857   4.628   3.441  14.471 -0.2171  0.1205 -0.3189
  121TMC2    H5 1858   4.719   3.443  14.434 -0.3806 -2.0626 -0.8266
  122MPD2     C 1859   0.487   3.605  14.069  0.8663 -0.3743 -0.7664
  122MPD2    C1 1860   0.402   3.715  14.038  0.1164 -0.7446  0.3887
  122MPD2    C2 1861   0.448   3.804  13.944  0.1473  0.4399  0.2137
  122MPD2    C3 1862   0.560   3.789  13.860  0.0779  1.3071 -0.6178
  122MPD2    C4 1863   0.642   3.685  13.898  0.2365 -0.5693  0.9304
  122MPD2    C5 1864   0.604   3.596  13.992 -0.5456 -0.0721 -0.6941
  122MPD2     H 1865   0.385   3.888  13.919  0.1333  0.1633 -0.6720
  122MPD2    H1 1866   0.723   3.664  13.830 -1.7071 -3.4315 -0.5407
  122MPD2    H2 1867   0.457   3.516  14.123 -2.0056  1.3270  0.4289
  122MPD2    H3 1868   0.665   3.507  14.006  3.8107  2.8470 -1.0234
  122MPD2     N 1869   0.579   3.859  13.739 -0.4497 -0.0489  0.2500
  122MPD2    H5 1870   0.644   3.818  13.674 -1.3106 -1.3954  0.2446
  122MPD2    N1 1871   0.278   3.734  14.098  0.0364  0.1657 -0.6180
  122MPD2    H7 1872   0.215   3.805  14.063  0.4165  0.5103 -0.5897
  123MPD2     C 1873   3.482   2.011   9.213  0.9142  0.5682 -0.9829
  123MPD2    C1 1874   3.352   1.961   9.210 -0.2386  0.3978  0.0031
  123MPD2    C2 1875   3.265   1.997   9.108 -0.4078  0.0002 -0.1172
  123MPD2    C3 1876   3.307   2.084   9.014  0.2723  0.0270  0.3036
  123MPD2    C4 1877   3.423   2.155   9.031  0.9697  0.1241 -0.3560
  123MPD2    C5 1878   3.513   2.111   9.125  0.3895 -0.0340  0.2993
  123MPD2     H 1879   3.164   1.957   9.112 -0.2677 -0.4578 -1.2006
  123MPD2    H1 1880   3.454   2.230   8.960 -1.1582  0.5196 -0.8331
  123MPD2    H2 1881   3.555   1.973   9.284 -2.3104 -1.3286  1.3168
  123MPD2    H3 1882   3.614   2.151   9.123  0.7649 -1.1224 -2.0330
  123MPD2     N 1883   3.223   2.101   8.900 -0.3255  0.5654  0.2000
  123MPD2    H5 1884   3.142   2.040   8.894 -0.0717  0.2736 -0.2968
  123MPD2    N1 1885   3.314   1.862   9.308 -0.5866 -0.2148  0.1443
  123MPD2    H7 1886   3.383   1.863   9.382  0.6258  2.4747 -1.0072
  124TCq2    C1 1887   3.243   2.185   8.792  0.2094  0.0703 -0.5101
  124TCq2    O2 1888   3.338   2.251   8.760  0.4496 -0.4965 -0.3298
  124TCq2    C2 1889   3.131   2.146   8.697 -0.7548 -0.2271 -0.1006
  124TCq2    C3 1890   3.179   2.123   8.572 -0.0851 -0.2496 -0.3931
  124TCq2    C4 1891   3.110   2.041   8.491 -0.0259  0.1698 -0.3017
  124TCq2    C5 1892   2.994   1.983   8.534  0.1883 -0.0046  0.3477
  124TCq2    C6 1893   2.944   2.016   8.661 -0.7284  0.4652 -0.6462
  124TCq2    C7 1894   3.008   2.101   8.742 -0.0490 -0.7796  0.7608
  124TCq2    C8 1895   2.871   1.919   8.734 -0.8522  0.1124 -0.7154
  124TCq2    O4 1896   2.912   1.903   8.845 -0.0622  0.1086 -0.2432
  124TCq2    C9 1897   3.170   2.008   8.364 -0.4770 -0.1696  0.4942
  124TCq2    O5 1898   3.096   1.947   8.286 -0.2787 -0.0810  0.1678
  124TCq2    O6 1899   3.278   2.070   8.346  0.2397 -0.1541 -0.1136
  124TCq2    H2 1900   3.277   2.164   8.550 -0.3388  0.7155  0.2775
  124TCq2    H3 1901   2.950   1.896   8.486 -0.5592  1.7984 -2.2498
  124TCq2    H4 1902   2.971   2.138   8.837  0.9045  0.2689  0.7279
  125TMC2    C1 1903   3.321   2.921   9.494  0.1184  0.1262 -0.8395
  125TMC2    C2 1904   3.274   2.915   9.364 -0.0416 -0.3812 -0.6820
  125TMC2    C3 1905   3.357   2.860   9.273 -0.5748 -0.5699 -0.6153
  125TMC2    C4 1906   3.426   2.846   9.530 -0.6193 -0.6602 -0.0593
  125TMC2    C5 1907   3.496   2.777   9.434 -0.1657  0.0553  0.7523
  125TMC2    C6 1908   3.460   2.776   9.300  0.2676  0.0642 -0.0213
  125TMC2     C 1909   3.226   2.962   9.596 -0.8993  0.7677  0.0575
  125TMC2     O 1910   3.108   2.961   9.560  0.2241  0.1281  0.7630
  125TMC2     H 1911   3.202   2.992   9.338 -0.1243 -0.4364 -0.6175
  125TMC2    H1 1912   3.454   2.825   9.633 -0.0574  4.7976  0.8764
  125TMC2    H2 1913   3.533   2.739   9.230 -1.5156  0.8417 -2.2861
  125TMC2    C7 1914   3.626   2.719   9.469  0.1071 -0.4976 -0.6697
  125TMC2    C8 1915   3.320   2.883   9.135 -1.0316  0.0163 -0.5938
  125TMC2    O1 1916   3.644   2.666   9.577 -0.5386  0.4486 -0.8075
  125TMC2    O2 1917   3.201   2.868   9.104 -0.3424 -0.1097  0.1464
  125TMC2    O5 1918   3.432   2.867   9.062 -0.2607  0.2988 -0.1555
  125TMC2    H5 1919   3.515   2.883   9.112  1.7598  0.3846 -3.5558
  126MPD1     C 1920   3.134   3.192  10.040  0.0535  0.5400 -0.1690
  126MPD1    C1 1921   3.270   3.183  10.024 -0.2223  0.3726  0.2793
  126MPD1    C2 1922   3.323   3.133   9.907 -0.4578  0.3867  0.2476
  126MPD1    C3 1923   3.237   3.085   9.818  0.0970  0.1887 -1.4220
  126MPD1    C4 1924   3.099   3.089   9.835  0.1658  0.3705  0.0244
  126MPD1    C5 1925   3.046   3.155   9.940  0.1413 -0.5041 -0.2983
  126MPD1     H 1926   3.428   3.132   9.881 -1.4252 -3.0580 -3.4913
  126MPD1    H1 1927   3.031   3.063   9.754  0.3876  0.8302 -0.3094
  126MPD1    H2 1928   3.091   3.243  10.125  1.1214  0.2135  0.5746
  126MPD1    H3 1929   2.940   3.177   9.948  0.0388 -0.8755 -0.6534
  126MPD1     N 1930   3.297   3.022   9.702 -0.1244 -0.1327  0.5401
  126MPD1    H5 1931   3.397   3.005   9.701 -0.3480 -1.4917  1.6141
  126MPD1    N1 1932   3.356   3.236  10.121 -0.2998  0.4013  0.1422
  126MPD1    H6 1933   3.322   3.240  10.216 -2.3982  1.3737 -0.6469
  126MPD1    H7 1934   3.451   3.199  10.124 -0.8846 -1.1502 -0.3746
  127MPD2     C 1935   0.809   2.425   8.939 -0.1294 -0.0107 -0.0916
  127MPD2    C1 1936   0.760   2.524   9.022 -0.0160  0.1198  0.2655
  127MPD2    C2 1937   0.741   2.652   8.976  0.2011  0.6536  0.4077
  127MPD2    C3 1938   0.772   2.693   8.848  0.1290  0.1495 -1.0144
  127MPD2    C4 1939   0.825   2.595   8.767 -0.2307 -0.0087 -0.0100
  127MPD2    C5 1940   0.851   2.466   8.812 -0.7180  0.3921  0.2909
  127MPD2     H 1941   0.689   2.727   9.034 -0.0918  0.7132  0.0659
  127MPD2    H1 1942   0.849   2.624   8.666 -3.6611 -0.2322 -0.9010
  127MPD2    H2 1943   0.818   2.326   8.981  0.1352  0.6051  1.2976
  127MPD2    H3 1944   0.885   2.383   8.752 -0.1947  1.0933 -0.3832
  127MPD2     N 1945   0.752   2.831   8.825 -0.6617  0.5516 -0.0349
  127MPD2    H5 1946   0.711   2.880   8.904  1.4449  0.6597  0.9984
  127MPD2    N1 1947   0.731   2.479   9.154 -0.0775 -0.2274  0.4032
  127MPD2    H7 1948   0.729   2.378   9.169 -1.3307 -0.3093 -0.3700
  128TCq2    C1 1949   0.691   2.553   9.265  0.4524  0.3783  0.0711
  128TCq2    O2 1950   0.708   2.672   9.271 -0.4069 -0.4852 -0.2799
  128TCq2    C2 1951   0.672   2.474   9.382 -0.3394  0.0357  0.6926
  128TCq2    C3 1952   0.670   2.546   9.495  0.1103 -0.3141 -0.7494
  128TCq2    C4 1953   0.605   2.497   9.606  0.4841 -0.0644  0.3132
  128TCq2    C5 1954   0.525   2.393   9.595 -0.0424 -1.0582  0.4967
  128TCq2    C6 1955   0.527   2.324   9.474  0.4232 -0.2392 -1.2708
  128TCq2    C7 1956   0.613   2.351   9.370  0.5344  0.5126 -0.1227
  128TCq2    C8 1957   0.445   2.202   9.455  0.3107 -0.3502  0.0831
  128TCq2    O4 1958   0.441   2.164   9.338 -0.3286  0.1394 -0.0986
  128TCq2    C9 1959   0.599   2.581   9.725 -0.2468  0.2216 -0.4611
  128TCq2    O5 1960   0.694   2.660   9.738  0.0454  0.4361 -0.7161
  128TCq2    O6 1961   0.502   2.561   9.799 -0.4362  0.0414 -0.0282
  128TCq2    H2 1962   0.715   2.644   9.505  0.5435 -0.5206 -0.6997
  128TCq2    H3 1963   0.447   2.380   9.670  0.2270 -2.0520  0.6085
  128TCq2    H4 1964   0.588   2.308   9.273  0.4501 -2.1937  1.1222
  129MPD2     C 1965   2.607   3.416   1.438 -0.3603  0.3925  0.2331
  129MPD2    C1 1966   2.736   3.405   1.475 -0.4230  0.0232 -0.0516
  129MPD2    C2 1967   2.804   3.518   1.510  0.2910 -0.2254 -0.2544
  129MPD2    C3 1968   2.750   3.644   1.512 -0.1862 -0.6324  0.3591
  129MPD2    C4 1969   2.620   3.658   1.466 -0.3086  0.2465  0.3009
  129MPD2    C5 1970   2.548   3.541   1.436  0.3249 -0.3114 -0.1625
  129MPD2     H 1971   2.909   3.513   1.538 -0.1541  1.8632  1.7347
  129MPD2    H1 1972   2.570   3.754   1.472 -2.2081 -0.6435 -1.2758
  129MPD2    H2 1973   2.556   3.327   1.405  0.5915  0.0792 -0.4002
  129MPD2    H3 1974   2.444   3.553   1.408  0.9249 -0.0266 -2.2893
  129MPD2     N 1975   2.839   3.743   1.546  0.5983 -0.2365  0.2903
  129MPD2    H5 1976   2.930   3.718   1.584  0.1095 -3.5781 -0.6842
  129MPD2    N1 1977   2.809   3.284   1.479 -0.4812 -0.5028  0.3093
  129MPD2    H7 1978   2.909   3.297   1.493  0.0035 -2.6950 -1.1274
  130TCq2    C1 1979   2.760   3.160   1.468  0.0973 -0.5857  0.1390
  130TCq2    O2 1980   2.645   3.118   1.479  0.3726  0.0588  0.2582
  130TCq2    C2 1981   2.867   3.058   1.464 -0.1941  0.9073  0.1278
  130TCq2    C3 1982   2.992   3.102   1.448 -0.3332 -0.2231  0.6184
  130TCq2    C4 1983   3.093   3.020   1.494 -0.3277  0.1015  0.1271
  130TCq2    C5 1984   3.068   2.906   1.567 -0.4893 -0.0123 -0.0298
  130TCq2    C6 1985   2.940   2.872   1.588 -0.9331 -0.3690 -0.1871
  130TCq2    C7 1986   2.838   2.940   1.531 -0.2391  0.8774  0.5214
  130TCq2    C8 1987   2.896   2.744   1.635  0.3792 -0.7067 -0.2607
  130TCq2    O4 1988   2.781   2.719   1.660 -0.4006 -0.4248  0.0538
  130TCq2    C9 1989   3.233   3.059   1.465  0.0253 -0.1973  0.5240
  130TCq2    O5 1990   3.239   3.166   1.396 -0.0745  0.0204  0.0287
  130TCq2    O6 1991   3.324   2.993   1.527 -0.4439 -0.1701  0.3579
  130TCq2    H2 1992   3.008   3.187   1.382  3.5411  0.2579  2.1794
  130TCq2    H3 1993   3.155   2.854   1.607 -0.3077  0.0645 -0.3205
  130TCq2    H4 1994   2.739   2.905   1.557  0.1056  0.1327  0.8318
  131MPD2     C 1995   2.385   1.645   9.458  0.2073 -0.4222 -0.5695
  131MPD2    C1 1996   2.468   1.701   9.367 -0.8404  0.2320 -0.5294
  131MPD2    C2 1997   2.607   1.703   9.386 -0.2317  0.3634 -0.2033
  131MPD2    C3 1998   2.664   1.658   9.501  0.0557 -0.0908  0.6978
  131MPD2    C4 1999   2.583   1.604   9.598  0.3410 -0.7691 -0.2968
  131MPD2    C5 2000   2.444   1.599   9.573 -0.8914  0.0532 -0.6376
  131MPD2     H 2001   2.671   1.736   9.305 -0.9225  0.4015 -0.7295
  131MPD2    H1 2002   2.608   1.590   9.702 -1.0678  2.0790  0.4421
  131MPD2    H2 2003   2.280   1.626   9.438  0.4267 -0.2870 -1.8925
  131MPD2    H3 2004   2.384   1.547   9.647 -2.6655  1.4593 -1.0832
  131MPD2     N 2005   2.801   1.678   9.513 -0.2082  0.2013 -0.6549
  131MPD2    H5 2006   2.844   1.740   9.445  0.6285  1.6138  1.1683
  131MPD2    N1 2007   2.407   1.754   9.243  0.2111 -0.4392 -0.3357
  131MPD2    H7 2008   2.306   1.750   9.240  0.2072  0.2557 -1.3283
  132TCq2    C1 2009   2.438   2.096   8.760  0.4494 -0.9360  0.4330
  132TCq2    O2 2010   2.368   2.135   8.664 -0.1783 -0.3882  0.3570
  132TCq2    C2 2011   2.382   1.996   8.844  0.3462 -0.1980  0.1443
  132TCq2    C3 2012   2.281   1.918   8.794 -0.1976  0.3410 -0.0649
  132TCq2    C4 2013   2.220   1.815   8.866  0.4833  0.7954  0.3553
  132TCq2    C5 2014   2.266   1.784   8.993  0.7722 -0.2364 -0.1130
  132TCq2    C6 2015   2.378   1.857   9.035  0.4502 -0.3331 -0.5034
  132TCq2    C7 2016   2.428   1.971   8.972 -0.1942 -0.2225  0.2292
  132TCq2    C8 2017   2.472   1.826   9.150 -0.0798  0.5344 -0.0224
  132TCq2    O4 2018   2.592   1.858   9.137  0.1742  0.2318  0.5607
  132TCq2    C9 2019   2.118   1.735   8.814  0.3007  0.3657 -0.4089
  132TCq2    O5 2020   2.072   1.777   8.705 -0.1655 -0.4382 -0.2366
  132TCq2    O6 2021   2.088   1.634   8.880 -0.0923 -0.0562 -0.2627
  132TCq2    H2 2022   2.237   1.930   8.696  1.8592 -1.0853 -1.1624
  132TCq2    H3 2023   2.243   1.687   9.035 -0.4475  1.0819  2.3115
  132TCq2    H4 2024   2.490   2.038   9.030  0.5026  0.3654 -1.1895
  133MPD2     C 2025   0.869   3.106   9.049  0.3442  0.1009 -0.2476
  133MPD2    C1 2026   0.976   3.177   9.000  0.4471 -0.0456  0.6007
  133MPD2    C2 2027   1.098   3.109   8.988  0.6391 -0.3102  0.6506
  133MPD2    C3 2028   1.101   2.967   9.013  0.6642  0.6050 -0.3480
  133MPD2    C4 2029   0.988   2.906   9.056 -0.0434  0.0913 -0.6399
  133MPD2    C5 2030   0.870   2.973   9.077 -0.4765 -0.6160  0.0637
  133MPD2     H 2031   1.190   3.164   8.971 -0.9111  2.1366  0.2713
  133MPD2    H1 2032   0.984   2.800   9.074  0.7028  0.8380  3.8568
  133MPD2    H2 2033   0.776   3.152   9.079 -0.0281 -0.2534 -0.8693
  133MPD2    H3 2034   0.785   2.915   9.109 -2.0123  0.6382 -1.7373
  133MPD2     N 2035   1.210   2.887   8.984  0.1375 -0.0902  0.6873
  133MPD2    H5 2036   1.197   2.786   8.982 -2.3360  0.2033  1.4274
  133MPD2    N1 2037   0.972   3.316   8.988 -0.1410 -0.2818 -0.5473
  133MPD2    H7 2038   0.882   3.362   9.001 -0.0331 -0.5562  1.2697
  134TCq2    C1 2039   1.075   3.406   8.969  0.2269 -0.1802  0.4224
  134TCq2    O2 2040   1.190   3.400   8.943 -0.3209  0.5797 -0.1398
  134TCq2    C2 2041   1.030   3.544   8.956  0.1345 -0.8476 -0.2613
  134TCq2    C3 2042   1.123   3.646   8.965 -0.3331 -0.2168  0.2977
  134TCq2    C4 2043   1.108   3.767   8.906  0.3470 -0.0368 -0.5361
  134TCq2    C5 2044   0.987   3.789   8.853  0.0199  0.6148  0.7619
  134TCq2    C6 2045   0.891   3.693   8.855  0.3744 -0.1547  0.3505
  134TCq2    C7 2046   0.908   3.563   8.909 -0.1947  0.4552 -0.2983
  134TCq2    C8 2047   0.756   3.728   8.806  0.8759  0.0835 -0.4685
  134TCq2    O4 2048   0.683   3.633   8.783 -0.2709  0.2412  0.3239
  134TCq2    C9 2049   1.203   3.869   8.917 -0.3335  0.3025 -0.7000
  134TCq2    O5 2050   1.163   3.984   8.870  0.1020  0.6698  0.0334
  134TCq2    O6 2051   1.325   3.837   8.929  0.5617  0.0377 -0.3638
  134TCq2    H2 2052   1.222   3.627   9.005 -1.2104 -1.8476  1.6824
  134TCq2    H3 2053   0.970   3.885   8.806 -0.3490  0.0146 -0.3339
  134TCq2    H4 2054   0.826   3.494   8.919 -0.3972  0.4878 -1.8548
  135MPD2     C 2055   4.311   3.437   8.846 -0.2977 -0.3881 -0.0185
  135MPD2    C1 2056   4.276   3.481   8.975  0.8942 -0.5132  0.4661
  135MPD2    C2 2057   4.336   3.598   9.017 -0.7265  0.8137 -0.2008
  135MPD2    C3 2058   4.425   3.668   8.934 -0.1824 -0.1350  0.1757
  135MPD2    C4 2059   4.454   3.622   8.810 -0.0321  0.3004  0.5875
  135MPD2    C5 2060   4.406   3.500   8.771 -0.5396  0.1514 -0.0761
  135MPD2     H 2061   4.323   3.633   9.119 -2.7345 -0.2420 -0.1133
  135MPD2    H1 2062   4.527   3.671   8.747 -0.1440 -1.1761 -0.6915
  135MPD2    H2 2063   4.266   3.349   8.801  0.5840  0.8364 -3.2469
  135MPD2    H3 2064   4.422   3.468   8.669  3.1485 -0.2970  0.6571
  135MPD2     N 2065   4.502   3.781   8.976  0.1423 -0.2935 -0.4284
  135MPD2    H5 2066   4.579   3.809   8.915 -0.2341  1.4232 -0.1117
  135MPD2    N1 2067   4.184   3.416   9.065 -0.2552 -0.4804 -0.7190
  135MPD2    H7 2068   4.166   3.459   9.155 -0.1622  2.8875 -2.2975
  136TCq2    C1 2069   4.106   3.311   9.032 -0.4097 -0.1460 -0.2542
  136TCq2    O2 2070   4.100   3.254   8.923 -0.8100 -0.1290 -0.0385
  136TCq2    C2 2071   4.012   3.261   9.135 -0.1982 -1.0369  0.3822
  136TCq2    C3 2072   3.906   3.196   9.086  0.9238  0.0070 -0.3552
  136TCq2    C4 2073   3.831   3.118   9.166  0.7648 -0.9293  0.0525
  136TCq2    C5 2074   3.863   3.094   9.300 -0.9089 -0.6738 -0.3489
  136TCq2    C6 2075   3.972   3.165   9.347 -0.4096  0.4227 -0.3194
  136TCq2    C7 2076   4.049   3.253   9.268 -0.4421  0.0764 -0.5424
  136TCq2    C8 2077   4.021   3.140   9.484 -0.6430 -0.2547 -0.0615
  136TCq2    O4 2078   4.107   3.208   9.530 -0.6176 -0.5198  0.2052
  136TCq2    C9 2079   3.710   3.043   9.109  0.6690 -0.4484 -0.4776
  136TCq2    O5 2080   3.636   2.969   9.182  0.1314 -0.0519  0.8125
  136TCq2    O6 2081   3.682   3.077   8.991 -0.4315  0.2847 -1.1107
  136TCq2    H2 2082   3.876   3.214   8.983 -1.0168  3.1817  0.7660
  136TCq2    H3 2083   3.807   3.030   9.366 -1.4647  0.6482  0.4585
  136TCq2    H4 2084   4.131   3.307   9.314 -0.9836  0.1841  0.2844
  137MPD2     C 2085   4.637   2.750   8.722  0.8892 -0.3296  0.6928
  137MPD2    C1 2086   4.517   2.702   8.758  0.4832  0.1389  0.8817
  137MPD2    C2 2087   4.492   2.687   8.895  0.3319 -0.2564 -0.0928
  137MPD2    C3 2088   4.585   2.722   8.990  0.0251  0.8273  0.1840
  137MPD2    C4 2089   4.705   2.768   8.955 -0.2170 -0.1916  0.2254
  137MPD2    C5 2090   0.003   2.782   8.820 -0.1516  0.7304  0.5240
  137MPD2     H 2091   4.403   2.634   8.927 -0.6005  0.8627 -0.8404
  137MPD2    H1 2092   0.068   2.797   9.016  1.4497 -1.8493 -1.3305
  137MPD2    H2 2093   4.672   2.756   8.620 -1.6939  0.5398 -0.1567
  137MPD2    H3 2094   0.101   2.808   8.783 -1.3870  0.4001 -3.0300
  137MPD2     N 2095   4.556   2.703   9.124  0.4019  0.7915  0.1567
  137MPD2    H5 2096   4.468   2.658   9.147 -0.1621  1.9565  0.2737
  137MPD2    N1 2097   4.411   2.692   8.659  0.6719  0.3674  0.1910
  137MPD2    H7 2098   4.427   2.703   8.560  0.9022 -0.0276  0.1844
  138TCq2    C1 2099   4.279   2.663   8.690 -0.4651  0.0656 -0.3531
  138TCq2    O2 2100   4.217   2.672   8.795  0.5846  0.2612 -0.5638
  138TCq2    C2 2101   4.202   2.662   8.568 -0.1536  0.2741  0.5966
  138TCq2    C3 2102   4.264   2.626   8.452 -0.0019  0.4430 -0.4903
  138TCq2    C4 2103   4.203   2.647   8.331 -0.1403 -0.0958 -0.2362
  138TCq2    C5 2104   4.082   2.704   8.326  0.4296  0.4277  0.4357
  138TCq2    C6 2105   4.013   2.734   8.449  0.7292  0.5664  0.3844
  138TCq2    C7 2106   4.074   2.716   8.571  0.1486 -0.1023  0.6327
  138TCq2    C8 2107   3.880   2.794   8.443  0.0920 -0.8060  0.4476
  138TCq2    O4 2108   3.861   2.874   8.356 -0.2760 -0.3280 -0.3437
  138TCq2    C9 2109   4.267   2.594   8.213  0.3576 -0.1769 -0.2410
  138TCq2    O5 2110   4.210   2.607   8.102  0.5723  0.5808  0.0435
  138TCq2    O6 2111   4.365   2.512   8.232  0.6335 -0.7369  0.3301
  138TCq2    H2 2112   4.351   2.562   8.458 -0.1691  0.4271  1.5765
  138TCq2    H3 2113   4.030   2.717   8.232 -1.9917 -1.1240  1.5706
  138TCq2    H4 2114   4.032   2.760   8.661  0.6288 -2.2151  1.8929
  139TMC2    C1 2115   4.357   1.697  13.846 -0.3764  0.0073 -0.1274
  139TMC2    C2 2116   4.285   1.645  13.748 -0.0717  0.0293 -0.5022
  139TMC2    C3 2117   4.186   1.712  13.691  0.1482  0.5182 -0.1097
  139TMC2    C4 2118   4.358   1.831  13.873  0.1783  0.6516  0.0682
  139TMC2    C5 2119   4.262   1.907  13.808  0.4167  0.1613 -0.4541
  139TMC2    C6 2120   4.173   1.845  13.720  0.1413 -0.7607 -0.6345
  139TMC2     C 2121   4.493   1.650  13.830 -0.0508 -0.0334 -0.0843
  139TMC2     O 2122   4.512   1.590  13.726 -1.0281  0.3962  0.2568
  139TMC2     H 2123   4.300   1.540  13.723 -2.1596 -1.0864  2.9136
  139TMC2    H1 2124   4.440   1.874  13.927  1.1219  0.9632 -1.6100
  139TMC2    H2 2125   4.109   1.912  13.665  2.3873  1.2164 -0.8572
  139TMC2    C7 2126   4.225   2.038  13.853 -0.1109  0.7406  0.8299
  139TMC2    C8 2127   4.144   1.647  13.567 -0.0806  0.7972  0.6198
  139TMC2    O1 2128   4.163   2.113  13.776 -0.0353 -0.3950  0.1072
  139TMC2    O2 2129   4.218   1.569  13.506  0.6601 -0.3371 -0.3792
  139TMC2    O5 2130   4.057   1.734  13.500  0.5345 -0.1974 -0.2167
  139TMC2    H5 2131   4.005   1.779  13.571  0.2408  0.3354 -0.7679
  140MPD2     C 2132   0.068   1.711  14.042  0.2575 -0.1658  1.0636
  140MPD2    C1 2133   4.714   1.657  13.938  0.6210 -0.4502  0.0549
  140MPD2    C2 2134   0.052   1.587  13.840 -0.6818  0.3382 -0.1061
  140MPD2    C3 2135   0.189   1.564  13.835  0.2196  0.7293 -0.1258
  140MPD2    C4 2136   0.263   1.610  13.940 -0.7520 -0.3269 -0.6813
  140MPD2    C5 2137   0.208   1.685  14.043 -0.0128  0.2945  0.4886
  140MPD2     H 2138   4.713   1.537  13.767 -2.2510 -1.4670  2.4295
  140MPD2    H1 2139   0.371   1.599  13.947 -0.5363  0.9421 -2.1080
  140MPD2    H2 2140   0.022   1.770  14.120  0.0637 -0.3536  1.0888
  140MPD2    H3 2141   0.275   1.717  14.122  2.3929  0.0169 -1.4465
  140MPD2     N 2142   0.243   1.495  13.725  0.0616  0.5280 -0.0686
  140MPD2    H5 2143   0.186   1.459  13.649  0.5247  0.9355 -0.6104
  140MPD2    N1 2144   4.577   1.680  13.936 -0.2665  0.7954 -0.2305
  140MPD2    H7 2145   4.532   1.720  14.017 -1.1680  1.1361 -0.8991
  141TCq2    C1 2146   0.229   2.757  14.546 -0.1598 -0.2676 -0.8050
  141TCq2    O2 2147   0.270   2.797  14.440 -0.1267 -0.4021  0.0886
  141TCq2    C2 2148   0.219   2.840  14.657  0.4994 -0.1163  0.4476
  141TCq2    C3 2149   0.246   2.798  14.780  0.5452 -0.7087 -0.3955
  141TCq2    C4 2150   0.291   2.890  14.871  0.5839 -0.4761 -0.5055
  141TCq2    C5 2151   0.293   3.019  14.844 -0.0260 -0.1147 -0.6284
  141TCq2    C6 2152   0.270   3.062  14.714 -0.6904 -0.9433  0.1776
  141TCq2    C7 2153   0.240   2.967  14.618 -0.3129 -0.1004 -0.4806
  141TCq2    C8 2154   0.342   3.180  14.665  0.2611  0.1282  0.6443
  141TCq2    O4 2155   0.310   3.220  14.551 -0.2238 -0.2244 -0.2054
  141TCq2    C9 2156   0.316   2.839  15.009  0.6035  0.5268 -0.5656
  141TCq2    O5 2157   0.330   2.716  15.028 -0.0555  0.0526 -0.4940
  141TCq2    O6 2158   0.356   2.924  15.090  0.0488 -0.3916 -0.5824
  141TCq2    H2 2159   0.246   2.697  14.819 -0.2859 -1.1423 -1.5020
  141TCq2    H3 2160   0.320   3.087  14.924 -2.9625 -0.4418  0.6368
  141TCq2    H4 2161   0.214   3.002  14.518 -0.7496 -1.3204 -0.7882
  142MPD2     C 2162   2.220   1.064   9.792  0.7309  0.4210 -0.6099
  142MPD2    C1 2163   2.169   1.100   9.666 -0.0881  0.2038 -0.6258
  142MPD2    C2 2164   2.256   1.169   9.580 -0.6520 -0.3881  0.3919
  142MPD2    C3 2165   2.386   1.197   9.618  0.3179  0.3758 -0.2817
  142MPD2    C4 2166   2.429   1.167   9.745  0.0731 -0.6806  0.3375
  142MPD2    C5 2167   2.350   1.085   9.826  0.1720 -0.3004 -0.5505
  142MPD2     H 2168   2.229   1.200   9.480  2.2834  0.3433 -0.1806
  142MPD2    H1 2169   2.529   1.187   9.783 -1.1006  2.7802  1.5779
  142MPD2    H2 2170   2.178   0.996   9.865 -0.2056 -0.2435 -1.7592
  142MPD2    H3 2171   2.379   1.050   9.924  0.6716 -0.4741 -0.7569
  142MPD2     N 2172   2.484   1.257   9.537 -0.5641  0.2445 -0.2006
  142MPD2    H5 2173   2.570   1.281   9.584 -0.9446 -1.1828  1.2151
  142MPD2    N1 2174   2.041   1.060   9.631 -0.2216 -0.4119  0.2352
  142MPD2    H7 2175   1.992   1.003   9.699  0.4328  0.1237  1.1547
  143TCq2    C1 2176   2.472   1.294   9.407  0.1664  0.1909  0.8795
  143TCq2    O2 2177   2.379   1.279   9.329 -0.0539  0.0557  0.5078
  143TCq2    C2 2178   2.597   1.356   9.369  0.0843  0.7014 -0.7339
  143TCq2    C3 2179   2.713   1.331   9.434 -0.7033  0.0481 -0.0573
  143TCq2    C4 2180   2.830   1.357   9.371 -0.1265 -0.1284 -0.1769
  143TCq2    C5 2181   2.832   1.417   9.251  0.7767 -0.4333  0.7175
  143TCq2    C6 2182   2.715   1.433   9.185  0.2334  0.0937 -0.1043
  143TCq2    C7 2183   2.593   1.402   9.242  0.0002 -0.2085  0.3428
  143TCq2    C8 2184   2.718   1.528   9.070  0.2188  0.5872  0.6207
  143TCq2    O4 2185   2.818   1.598   9.065  0.2260  0.3231 -0.5360
  143TCq2    C9 2186   2.961   1.335   9.424  0.4854 -0.1128 -0.2038
  143TCq2    O5 2187   2.971   1.298   9.542 -0.0358 -0.0156  0.4594
  143TCq2    O6 2188   3.063   1.360   9.358  0.1915 -0.2972 -0.0750
  143TCq2    H2 2189   2.729   1.284   9.531 -1.2246 -1.8202 -0.8710
  143TCq2    H3 2190   2.929   1.456   9.223  0.2975  0.9512  0.9932
  143TCq2    H4 2191   2.500   1.450   9.215  0.1501 -0.6233 -0.9220
  144MPD2     C 2192   0.904   0.510   0.663  0.2368 -0.3579 -0.6930
  144MPD2    C1 2193   0.975   0.426   0.581  0.8470  0.4731  0.0523
  144MPD2    C2 2194   1.114   0.435   0.578 -0.3393  0.4420 -0.0677
  144MPD2    C3 2195   1.180   0.524   0.661  0.1841 -0.4252 -0.6025
  144MPD2    C4 2196   1.108   0.610   0.743  0.6155 -0.9062  0.1802
  144MPD2    C5 2197   0.974   0.602   0.741 -0.0241 -0.2598 -0.5325
  144MPD2     H 2198   1.171   0.361   0.524  0.7657  1.4997 -0.3427
  144MPD2    H1 2199   1.153   0.690   0.801  1.4968 -0.9152 -0.4950
  144MPD2    H2 2200   0.797   0.524   0.675  0.5500  1.9094 -0.5846
  144MPD2    H3 2201   0.932   0.681   0.802  0.0053  0.1570 -1.0494
  144MPD2     N 2202   1.321   0.540   0.673 -0.1199 -0.1188  0.2652
  144MPD2    H5 2203   1.350   0.620   0.728 -0.8596  0.1011  0.3278
  144MPD2    N1 2204   0.913   0.335   0.499 -0.0580  0.4303 -0.0339
  144MPD2    H7 2205   0.968   0.283   0.432  1.2080  1.9217 -0.1461
  145TCq2    C1 2206   1.412   0.472   0.598  0.1241  0.4550  0.2999
  145TCq2    O2 2207   1.400   0.403   0.497  0.0310  0.3896  0.6180
  145TCq2    C2 2208   1.547   0.491   0.636  0.7651  0.0200 -0.3903
  145TCq2    C3 2209   1.646   0.464   0.547  0.2559  0.9715 -0.0438
  145TCq2    C4 2210   1.767   0.522   0.559  0.4021 -0.2231  0.3101
  145TCq2    C5 2211   1.799   0.603   0.664  0.0602 -0.5602 -0.4163
  145TCq2    C6 2212   1.693   0.633   0.753  0.0483  0.1091  0.6622
  145TCq2    C7 2213   1.573   0.574   0.747 -0.0169  0.2177 -0.2252
  145TCq2    C8 2214   1.731   0.719   0.861  0.2306 -0.3634 -0.1646
  145TCq2    O4 2215   1.855   0.729   0.885 -0.5527  0.1116  0.5302
  145TCq2    C9 2216   1.877   0.491   0.465 -0.9794 -0.4192 -0.9492
  145TCq2    O5 2217   1.989   0.543   0.488 -0.0387 -0.0393 -0.1502
  145TCq2    O6 2218   1.855   0.400   0.378  0.3768 -0.0458 -0.6278
  145TCq2    H2 2219   1.629   0.409   0.455  0.7985 -1.6551  1.4175
  145TCq2    H3 2220   1.889   0.663   0.656 -0.6897  0.9859  3.0357
  145TCq2    H4 2221   1.496   0.592   0.821 -0.5330 -2.1594 -0.2144
  146TMC2    C1 2222   1.923   3.861  12.778 -0.0614  0.0905  0.2180
  146TMC2    C2 2223   1.851   3.910  12.667  0.1671  0.1653 -0.1891
  146TMC2    C3 2224   1.879   3.857  12.549  0.0648 -0.0211  0.4303
  146TMC2    C4 2225   2.042   3.800  12.763 -0.2777 -0.7452  0.6722
  146TMC2    C5 2226   2.088   3.772  12.637 -0.0229  0.6528 -0.0513
  146TMC2    C6 2227   2.007   3.802  12.526  0.0840 -0.3729  0.1871
  146TMC2     C 2228   1.895   3.929  12.900  0.4740  0.1466  0.1249
  146TMC2     O 2229   1.858   4.045  12.890 -0.3152  0.4683 -0.3102
  146TMC2     H 2230   1.760   3.966  12.688  0.3879  0.9013 -1.1753
  146TMC2    H1 2231   2.109   3.784  12.847 -1.6953  1.6752  2.2780
  146TMC2    H2 2232   2.033   3.769  12.426  2.2835  4.8214 -0.9220
  146TMC2    C7 2233   2.218   3.718  12.613  0.4577 -0.7238  0.6278
  146TMC2    C8 2234   1.774   3.815  12.466  0.7640 -0.8048  0.2239
  146TMC2    O1 2235   2.265   3.749  12.500 -0.3943 -0.3917 -0.7640
  146TMC2    O2 2236   1.767   3.705  12.412  0.7040 -0.1359  0.1289
  146TMC2    O5 2237   1.671   3.901  12.472  0.2904  0.0585  0.8325
  146TMC2    H5 2238   1.704   3.987  12.506  1.1216  0.5601 -1.2368
  147MPD2     C 2239   2.657   3.496  12.727  0.0384 -0.2395  1.0117
  147MPD2    C1 2240   2.581   3.483  12.839 -0.2003 -0.8151  0.1129
  147MPD2    C2 2241   2.460   3.546  12.840  0.3411  0.4905 -0.3813
  147MPD2    C3 2242   2.410   3.597  12.725  0.7962 -0.4911  0.2995
  147MPD2    C4 2243   2.481   3.588  12.610  0.0649 -0.6033 -0.1312
  147MPD2    C5 2244   2.617   3.555  12.614  0.6850 -0.4058  0.1242
  147MPD2     H 2245   2.402   3.545  12.932 -0.1081 -1.0512 -0.6934
  147MPD2    H1 2246   2.458   3.623  12.510  0.4219  1.0140  0.3541
  147MPD2    H2 2247   2.755   3.450  12.730 -0.0601 -0.4209  1.4067
  147MPD2    H3 2248   2.683   3.562  12.528  0.1788 -1.7932 -0.3730
  147MPD2     N 2249   2.275   3.653  12.722 -0.2633  0.0280  0.0671
  147MPD2    H5 2250   2.218   3.638  12.805  0.4322  0.5226  0.6275
  147MPD2    N1 2251   2.636   3.417  12.949  0.3563  0.4331 -0.3245
  147MPD2    H7 2252   2.736   3.399  12.943  0.0069 -1.5972 -0.2851
  148MPD2     C 2253   2.829   2.364   9.576  0.3475 -0.4422 -1.2519
  148MPD2    C1 2254   2.817   2.358   9.713  0.4224  0.5854 -0.5858
  148MPD2    C2 2255   2.686   2.357   9.772 -0.3149  0.7752 -0.5442
  148MPD2    C3 2256   2.577   2.380   9.693 -0.3523 -0.2738  0.3854
  148MPD2    C4 2257   2.583   2.388   9.562 -0.2681 -0.5944 -0.3650
  148MPD2    C5 2258   2.708   2.382   9.499  0.9547 -0.3912  0.0831
  148MPD2     H 2259   2.676   2.357   9.879  1.2900 -0.3577 -0.3946
  148MPD2    H1 2260   2.494   2.389   9.500  0.6194  2.0720 -1.6263
  148MPD2    H2 2261   2.924   2.356   9.524  1.3822 -0.4944  0.6348
  148MPD2    H3 2262   2.710   2.373   9.391  1.2647 -2.2027  0.2503
  148MPD2     N 2263   2.443   2.372   9.752 -0.3269 -0.2242  0.1978
  148MPD2    H5 2264   2.364   2.394   9.692  0.2364  1.4805  0.0917
  148MPD2    N1 2265   2.934   2.330   9.789  0.1759  0.0893 -0.4217
  148MPD2    H7 2266   3.020   2.316   9.736  0.0732 -0.5043 -0.4291
  149TCq2    C1 2267   2.941   2.325   9.922 -0.4611  0.3093 -0.4344
  149TCq2    O2 2268   2.855   2.327  10.008 -0.5885  0.1391  0.0118
  149TCq2    C2 2269   3.059   2.257   9.961  0.0016 -0.3577 -0.2659
  149TCq2    C3 2270   3.048   2.183  10.077  0.2180 -0.3476 -0.2309
  149TCq2    C4 2271   3.142   2.078  10.097  0.0691 -0.1234  0.4111
  149TCq2    C5 2272   3.244   2.062  10.012  0.2853  0.2016 -0.2142
  149TCq2    C6 2273   3.254   2.142   9.902  0.4473 -0.3477 -0.1748
  149TCq2    C7 2274   3.172   2.245   9.880 -0.0183  0.2026  0.0681
  149TCq2    C8 2275   3.361   2.115   9.815  0.0635 -0.4039 -0.2147
  149TCq2    O4 2276   3.470   2.083   9.863  0.7482 -0.0366  0.1963
  149TCq2    C9 2277   3.146   2.006  10.230 -0.2757  0.0421 -0.4377
  149TCq2    O5 2278   3.037   1.994  10.288 -0.7719  0.6791  0.4528
  149TCq2    O6 2279   3.263   1.975  10.272  0.2908  0.1100 -0.1152
  149TCq2    H2 2280   2.978   2.195  10.159  1.0612  0.1343  0.4151
  149TCq2    H3 2281   3.323   1.990  10.028  0.0187 -0.1888 -0.6383
  149TCq2    H4 2282   3.187   2.311   9.795 -0.9812  0.0450 -0.2305
  150MPD2     C 2283   3.714   2.286  12.331 -0.6329 -0.3111 -0.0228
  150MPD2    C1 2284   3.766   2.236  12.215 -0.2372  0.9391 -1.0753
  150MPD2    C2 2285   3.899   2.247  12.197 -0.2775 -0.0043 -0.1068
  150MPD2    C3 2286   3.980   2.313  12.284  0.0916  0.7070  0.4029
  150MPD2    C4 2287   3.928   2.378  12.394  0.4093  0.7609  0.1727
  150MPD2    C5 2288   3.797   2.362  12.423 -0.6222 -0.1574 -0.1585
  150MPD2     H 2289   3.942   2.195  12.112  0.7615  0.3483  0.2060
  150MPD2    H1 2290   3.985   2.429  12.471 -2.3361  1.1338  1.9594
  150MPD2    H2 2291   3.610   2.285  12.362 -1.0986  4.1510 -1.3234
  150MPD2    H3 2292   3.761   2.415  12.511  0.4829 -0.7399  0.6477
  150MPD2     N 2293   4.119   2.308  12.251 -0.2589  0.1017  1.3086
  150MPD2    H5 2294   4.141   2.273  12.158 -0.5894  2.8702  0.2115
  150MPD2    N1 2295   3.677   2.177  12.119  0.5392 -0.3348 -0.0834
  150MPD2    H7 2296   3.585   2.158  12.156  0.9317 -0.0975  1.0373
  151TCq2    C1 2297   4.226   2.345  12.336  0.6469  0.4408 -0.0575
  151TCq2    O2 2298   4.224   2.370  12.455 -0.1618  0.8051  0.1333
  151TCq2    C2 2299   4.358   2.310  12.278 -0.2853  0.3841  0.2657
  151TCq2    C3 2300   4.358   2.260  12.151 -0.0823  0.1576 -0.9327
  151TCq2    C4 2301   4.474   2.208  12.094  0.3958  0.4603  0.3858
  151TCq2    C5 2302   4.587   2.203  12.174 -0.4078 -0.2135  0.1013
  151TCq2    C6 2303   4.581   2.257  12.302 -0.2555 -0.1998  0.1479
  151TCq2    C7 2304   4.468   2.307  12.355 -0.3328 -0.0257  0.0885
  151TCq2    C8 2305   4.709   2.296  12.358 -0.4969 -0.2865 -0.4621
  151TCq2    O4 2306   4.718   2.408  12.413 -0.1166  0.7537 -0.5737
  151TCq2    C9 2307   4.483   2.162  11.955  0.0586 -0.0504 -0.9206
  151TCq2    O5 2308   4.374   2.140  11.899 -0.3508  0.2865  0.2736
  151TCq2    O6 2309   4.593   2.144  11.903 -0.3018 -0.3965 -0.1927
  151TCq2    H2 2310   4.280   2.271  12.077 -0.7141 -0.2926 -0.3321
  151TCq2    H3 2311   4.677   2.160  12.131  0.2619 -0.9922  2.2897
  151TCq2    H4 2312   4.480   2.339  12.458 -0.1065 -3.8539  1.2560
  152MPD2     C 2313   3.835   2.125  12.763  0.8420  0.9672 -0.9508
  152MPD2    C1 2314   3.845   2.066  12.636 -0.0995 -0.0361  0.9216
  152MPD2    C2 2315   3.726   2.032  12.585  0.3662  0.5213  0.0325
  152MPD2    C3 2316   3.602   2.033  12.650 -1.0298 -0.8180 -0.6980
  152MPD2    C4 2317   3.599   2.072  12.781  0.6781  0.2005 -0.2566
  152MPD2    C5 2318   3.716   2.121  12.829 -0.2385 -0.4422 -0.2156
  152MPD2     H 2319   3.733   1.996  12.483  1.0706  1.6882 -0.3241
  152MPD2    H1 2320   3.508   2.064  12.840  0.3900  0.5705 -0.6502
  152MPD2    H2 2321   3.925   2.161  12.810 -0.1578 -0.0639  1.8040
  152MPD2    H3 2322   3.717   2.173  12.924 -1.9004  2.0258 -1.5349
  152MPD2     N 2323   3.491   1.992  12.569  0.5057 -0.6611 -0.6858
  152MPD2    H5 2324   3.522   1.972  12.474  0.8728 -1.8394 -0.3251
  152MPD2    N1 2325   3.970   2.058  12.572 -0.0254 -0.1875  0.2348
  152MPD2    H7 2326   4.054   2.083  12.623  2.2387 -3.2730 -2.0481
  153TCq2    C1 2327   3.989   1.997  12.451  0.1591 -0.0421  0.4328
  153TCq2    O2 2328   3.913   1.938  12.375  0.9514  0.0523 -1.3931
  153TCq2    C2 2329   4.127   1.991  12.419 -0.3452 -0.1449 -0.5284
  153TCq2    C3 2330   4.164   1.957  12.293 -0.0918  0.5045  0.3299
  153TCq2    C4 2331   4.291   1.937  12.262  0.2350  0.6833  0.1272
  153TCq2    C5 2332   4.388   1.949  12.349 -0.5523 -0.8055 -0.4737
  153TCq2    C6 2333   4.356   1.983  12.479 -0.3400 -0.3514  0.6101
  153TCq2    C7 2334   4.222   2.005  12.519  0.6782  0.7124  0.8230
  153TCq2    C8 2335   4.472   2.022  12.557 -0.2854  0.5359 -0.9055
  153TCq2    O4 2336   4.580   1.988  12.514  0.5343  0.0484 -0.0164
  153TCq2    C9 2337   4.325   1.886  12.126  0.0676 -0.4149  0.3469
  153TCq2    O5 2338   4.431   1.824  12.106  0.0779 -0.6042 -0.2178
  153TCq2    O6 2339   4.232   1.876  12.040  0.3711  0.4827  0.6292
  153TCq2    H2 2340   4.084   1.947  12.221 -0.3103 -2.4985  0.9996
  153TCq2    H3 2341   4.489   1.930  12.313  0.7040  0.8580  2.2596
  153TCq2    H4 2342   4.202   2.029  12.622 -1.5892 -0.1842  0.6042
  154MPD2     C 2343   3.805   2.154   1.529  0.1714 -0.3443 -0.2753
  154MPD2    C1 2344   3.780   2.128   1.399  0.1901 -0.0598  0.7958
  154MPD2    C2 2345   3.884   2.135   1.303  0.8181  0.1439  0.0657
  154MPD2    C3 2346   4.011   2.169   1.343  0.0035 -0.8720 -0.0619
  154MPD2    C4 2347   4.038   2.194   1.477 -0.1620 -0.5482  0.3672
  154MPD2    C5 2348   3.933   2.181   1.568  0.2382 -0.8868  0.4467
  154MPD2     H 2349   3.874   2.096   1.203 -0.7183  0.1268  0.2166
  154MPD2    H1 2350   4.137   2.222   1.511  0.0899 -0.4605 -0.4151
  154MPD2    H2 2351   3.731   2.154   1.609 -0.3955  1.5646 -0.8064
  154MPD2    H3 2352   3.954   2.188   1.674 -1.1935  0.7251  0.6075
  154MPD2     N 2353   4.107   2.167   1.243 -0.1875 -0.6093  0.0170
  154MPD2    H5 2354   4.075   2.145   1.149  1.3823  0.0742 -0.6615
  154MPD2    N1 2355   3.649   2.079   1.364 -0.0427 -0.2535  0.0070
  154MPD2    H7 2356   3.586   2.075   1.444  0.6772 -1.4288  0.5197
  155TCq2    C1 2357   3.598   2.050   1.247 -0.2877 -0.6897  0.8051
  155TCq2    O2 2358   3.643   2.061   1.133  0.2989  0.1113  0.2134
  155TCq2    C2 2359   3.466   1.989   1.255  0.2282  0.4886  0.6233
  155TCq2    C3 2360   3.454   1.896   1.356 -0.9642  0.3730 -0.4441
  155TCq2    C4 2361   3.331   1.841   1.380 -0.7354  0.1329 -0.0867
  155TCq2    C5 2362   3.228   1.857   1.284  0.4673 -0.8204 -0.5002
  155TCq2    C6 2363   3.240   1.954   1.195  0.5468 -0.5912 -0.0048
  155TCq2    C7 2364   3.367   2.022   1.168 -0.0754 -0.2516 -0.3165
  155TCq2    C8 2365   3.132   2.017   1.120 -0.1923  0.5400  0.1747
  155TCq2    O4 2366   3.165   2.101   1.037 -0.0828  0.3886  0.3774
  155TCq2    C9 2367   3.322   1.729   1.477  0.8308 -0.0250  0.6466
  155TCq2    O5 2368   3.253   1.632   1.443  0.0614 -0.1974 -0.0700
  155TCq2    O6 2369   3.409   1.729   1.566 -0.2894  0.1806 -0.2670
  155TCq2    H2 2370   3.541   1.842   1.393 -1.3136 -1.6760 -2.6658
  155TCq2    H3 2371   3.138   1.799   1.294  0.1998  0.5650  5.1719
  155TCq2    H4 2372   3.393   2.088   1.086  2.3760 -1.6388 -0.6791
  156MPD2     C 2373   3.819   4.249  12.138  0.2397 -0.3003  0.3674
  156MPD2    C1 2374   3.953   4.239  12.163 -0.3539 -0.1982  0.4518
  156MPD2    C2 2375   3.998   4.262  12.284 -0.5422 -0.8814  1.1162
  156MPD2    C3 2376   3.905   4.300  12.378 -0.4537 -0.5514 -0.6108
  156MPD2    C4 2377   3.772   4.304  12.353  0.1270 -0.3813 -0.5785
  156MPD2    C5 2378   3.725   4.278  12.229 -0.0338 -0.3066  0.0876
  156MPD2     H 2379   4.099   4.265  12.324  0.3471  0.4565 -1.2254
  156MPD2    H1 2380   3.694   4.315  12.426  0.9444  0.2402  0.2045
  156MPD2    H2 2381   3.782   4.219  12.040  1.3157 -1.8558  0.4363
  156MPD2    H3 2382   3.621   4.296  12.203 -0.1324 -1.8909 -0.6424
  156MPD2     N 2383   3.958   4.325  12.505  0.1864 -0.0885  0.0962
  156MPD2    H5 2384   4.056   4.307  12.522  0.2257 -0.5237 -0.5731
  156MPD2    N1 2385   4.039   4.222  12.055 -0.2531 -0.0975  0.3693
  156MPD2    H7 2386   4.000   4.208  11.962 -0.6028  0.6957  0.3991
  157TCq2    C1 2387   4.177   4.213  12.064  0.3813 -0.4111 -0.8708
  157TCq2    O2 2388   4.252   4.187  12.153  0.1485  0.4876  0.0244
  157TCq2    C2 2389   4.254   4.233  11.939  0.0596 -0.0725 -0.3242
  157TCq2    C3 2390   4.361   4.150  11.913 -0.5984 -0.0928 -0.0619
  157TCq2    C4 2391   4.443   4.184  11.810 -0.1210 -0.5513  0.0803
  157TCq2    C5 2392   4.425   4.297  11.737 -0.7748 -0.1149  0.2295
  157TCq2    C6 2393   4.311   4.372  11.768  0.1987  0.3181 -0.1565
  157TCq2    C7 2394   4.222   4.337  11.866  0.9744 -0.1567 -0.7908
  157TCq2    C8 2395   4.302   4.506  11.715 -0.8433 -0.0610 -0.1024
  157TCq2    O4 2396   4.353   4.520  11.607  0.2476  0.0386 -0.2013
  157TCq2    C9 2397   4.536   4.086  11.770  0.3988  0.7576  0.1779
  157TCq2    O5 2398   4.595   4.098  11.660 -0.5859  0.1359  0.0488
  157TCq2    O6 2399   4.545   3.978  11.836 -0.6088  0.0665  0.2708
  157TCq2    H2 2400   4.375   4.053  11.959 -1.0770  0.9317  2.2549
  157TCq2    H3 2401   4.491   4.312  11.651  0.0053 -3.1391  0.3019
  157TCq2    H4 2402   4.132   4.394  11.889  2.8002  2.3129  0.3032
  158TMC2    C1 2403   4.692   3.027  13.288 -0.3710  0.2128  0.3576
  158TMC2    C2 2404   0.041   3.074  13.184 -0.4536  0.2066 -0.2855
  158TMC2    C3 2405   4.702   3.141  13.079 -0.1031  0.9182  0.4292
  158TMC2    C4 2406   4.557   3.050  13.300 -0.1937 -0.5477  0.2057
  158TMC2    C5 2407   4.494   3.110  13.187  0.3329 -0.1187 -0.8180
  158TMC2    C6 2408   4.564   3.143  13.073  0.0853  0.0274 -0.2668
  158TMC2     C 2409   0.041   2.962  13.393  0.2494 -0.5372 -0.3608
  158TMC2     O 2410   0.132   2.885  13.363 -0.6210  0.0599 -0.2032
  158TMC2     H 2411   0.149   3.076  13.181 -0.4887  0.8707 -1.2966
  158TMC2    H1 2412   4.500   2.984  13.364  0.2199  1.1249  2.2848
  158TMC2    H2 2413   4.518   3.211  13.002  2.4012  1.0301 -0.8259
  158TMC2    C7 2414   4.355   3.154  13.193  0.1212 -0.2398  0.4710
  158TMC2    C8 2415   0.045   3.160  12.945  0.4633  0.0626  0.5316
  158TMC2    O1 2416   4.299   3.171  13.087 -0.3607 -0.1023 -0.2349
  158TMC2    O2 2417   4.697   3.205  12.855 -0.0834 -0.1164  0.1519
  158TMC2    O5 2418   0.121   3.050  12.944  0.4303  0.2691 -0.6398
  158TMC2    H5 2419   0.191   3.049  13.014  0.7050  1.8388 -0.8979
  159MPD2     C 2420   0.137   2.850  13.871  0.2046  0.1377  0.2014
  159MPD2    C1 2421   0.004   2.892  13.865  0.1179 -0.5519  0.5636
  159MPD2    C2 2422   4.677   2.952  13.751 -0.0276  0.2008 -0.4111
  159MPD2    C3 2423   0.034   2.944  13.640  0.1341  0.0170  0.2382
  159MPD2    C4 2424   0.170   2.906  13.647 -0.0795 -0.1742  0.1057
  159MPD2    C5 2425   0.220   2.868  13.767 -0.0040 -1.0343  0.0064
  159MPD2     H 2426   4.576   2.980  13.723 -0.0408  1.1677  0.5825
  159MPD2    H1 2427   0.238   2.914  13.564 -0.4358 -0.2880 -0.1979
  159MPD2    H2 2428   0.175   2.805  13.962 -0.0890  0.8411  0.6741
  159MPD2    H3 2429   0.326   2.848  13.764  0.6481  2.7744 -2.4243
  159MPD2     N 2430   4.702   2.981  13.514  1.1187  0.5100  0.1102
  159MPD2    H5 2431   4.606   3.014  13.514  1.0972  0.4377 -1.4819
  159MPD2    N1 2432   4.647   2.884  13.980  0.0210 -0.1447 -0.4547
  159MPD2    H7 2433   4.684   2.853  14.069 -2.4296 -0.2781  0.5317
  160TMC2    C1 2434   3.988   0.613   1.449  0.6016 -0.2795  0.5827
  160TMC2    C2 2435   3.891   0.517   1.429  0.2618  0.4956 -0.4871
  160TMC2    C3 2436   3.900   0.447   1.314  0.1575  0.7179 -0.1540
  160TMC2    C4 2437   4.090   0.648   1.358 -0.8422 -0.4779 -0.2911
  160TMC2    C5 2438   4.088   0.570   1.238  0.3464 -0.9223  0.2504
  160TMC2    C6 2439   3.992   0.469   1.217 -0.4072 -0.3340  0.1478
  160TMC2     C 2440   3.990   0.682   1.575  0.2523  0.7439 -0.4119
  160TMC2     O 2441   3.917   0.638   1.661  0.4012 -0.4057 -0.3212
  160TMC2     H 2442   3.813   0.499   1.502  0.9758 -0.5870  0.0020
  160TMC2    H1 2443   4.172   0.715   1.382 -0.5221 -0.9224 -0.1557
  160TMC2    H2 2444   3.982   0.424   1.119 -2.4321  1.5182 -0.4873
  160TMC2    C7 2445   4.186   0.582   1.138 -0.3635 -0.5153 -0.2870
  160TMC2    C8 2446   3.796   0.347   1.282  0.3619 -0.0950 -0.0250
  160TMC2    O1 2447   4.184   0.501   1.049  0.2797 -0.0993 -0.1200
  160TMC2    O2 2448   3.679   0.362   1.314  0.1233  0.1315 -0.4031
  160TMC2    O5 2449   3.842   0.254   1.192  0.5378 -0.2797 -0.1471
  160TMC2    H5 2450   3.939   0.239   1.181  0.7242  2.1068 -1.7409
  161MPD2     C 2451   4.013   0.877   1.801 -0.0525  0.1909 -0.2659
  161MPD2    C1 2452   4.042   0.905   1.665  0.0853  0.1128 -0.6868
  161MPD2    C2 2453   4.053   1.035   1.620 -0.3699  0.4516  0.2586
  161MPD2    C3 2454   4.037   1.142   1.711  0.1344 -0.3367 -0.3373
  161MPD2    C4 2455   4.025   1.112   1.844  0.6185  0.3970 -0.1672
  161MPD2    C5 2456   4.005   0.983   1.889  0.6099 -0.3309 -0.0674
  161MPD2     H 2457   4.065   1.057   1.515  1.0746 -0.7358  0.1805
  161MPD2    H1 2458   4.018   1.186   1.923 -0.5446 -0.8058  0.8607
  161MPD2    H2 2459   4.004   0.776   1.842  1.8119  0.0244 -0.2872
  161MPD2    H3 2460   3.982   0.959   1.992  0.9492 -3.5778 -0.7441
  161MPD2     N 2461   4.012   1.272   1.676  0.5276 -0.5638  0.4939
  161MPD2    H5 2462   3.982   1.338   1.746 -2.1958  0.1891 -1.4080
  161MPD2    N1 2463   4.048   0.809   1.565 -0.3738 -0.0508 -0.0296
  161MPD2    H7 2464   4.094   0.839   1.480  0.5277 -2.7368 -0.5060
  162TMC2    C1 2465   2.047   2.987   1.425  0.2990 -0.4822  0.1068
  162TMC2    C2 2466   1.982   3.111   1.441  0.4834 -0.3965  0.6663
  162TMC2    C3 2467   1.874   3.120   1.528 -0.3071 -0.0446 -0.9418
  162TMC2    C4 2468   1.998   2.879   1.494 -0.4102  0.5584 -0.4093
  162TMC2    C5 2469   1.891   2.890   1.579  0.2942 -0.5381  0.2277
  162TMC2    C6 2470   1.832   3.012   1.598  0.1734  0.1018  0.0866
  162TMC2     C 2471   2.161   2.973   1.328  0.1633 -0.6599 -0.5580
  162TMC2     O 2472   2.173   2.860   1.280 -0.3455  0.2200 -0.0263
  162TMC2     H 2473   2.011   3.194   1.378  1.6975 -0.0538  1.6720
  162TMC2    H1 2474   2.045   2.784   1.468  1.0534  1.4908 -1.1756
  162TMC2    H2 2475   1.738   3.021   1.652  1.2577  0.6634  1.8546
  162TMC2    C7 2476   1.862   2.782   1.670  0.2610  0.4248  0.5101
  162TMC2    C8 2477   1.845   3.252   1.570 -0.7306 -0.6423  0.0483
  162TMC2    O1 2478   1.750   2.792   1.718  0.4653 -0.2020 -0.0999
  162TMC2    O2 2479   1.936   3.337   1.557 -0.0078 -0.3549 -0.1684
  162TMC2    O5 2480   1.763   3.254   1.680  0.0541 -0.3570 -0.1147
  162TMC2    H5 2481   1.705   3.175   1.677 -3.7468  2.3836  1.2642
  163MPD2     C 2482   2.447   3.227   0.977 -0.5629 -0.2364  0.5414
  163MPD2    C1 2483   2.429   3.095   0.994 -0.3060  0.3887  0.0861
  163MPD2    C2 2484   2.353   3.049   1.100  0.4932  0.3619  0.2155
  163MPD2    C3 2485   2.304   3.132   1.196 -0.7558  0.6027  0.2401
  163MPD2    C4 2486   2.331   3.266   1.182 -0.2702 -0.7222 -0.5554
  163MPD2    C5 2487   2.410   3.309   1.080  0.7262  0.4528 -0.3141
  163MPD2     H 2488   2.316   2.947   1.109 -1.8324  1.2181  0.5050
  163MPD2    H1 2489   2.299   3.337   1.258 -1.0061 -1.1860 -0.4250
  163MPD2    H2 2490   2.507   3.266   0.896 -0.5762  1.8979  1.5828
  163MPD2    H3 2491   2.428   3.413   1.057  0.6361  0.8004  1.2296
  163MPD2     N 2492   2.220   3.095   1.306 -0.2743  0.2224 -0.0245
  163MPD2    H5 2493   2.194   3.170   1.369  0.6649  0.4214  0.1263
  163MPD2    N1 2494   2.481   3.010   0.886 -0.4791  0.4759 -0.3343
  163MPD2    H7 2495   2.535   3.060   0.816 -1.2036  0.2818 -1.0239
  164TCq2    C1 2496   2.962   2.739  11.102  0.2758  0.1057 -0.3097
  164TCq2    O2 2497   2.931   2.665  11.194 -0.4340  0.1521 -0.1606
  164TCq2    C2 2498   2.951   2.879  11.133 -0.1388  0.4684  0.3069
  164TCq2    C3 2499   3.002   2.971  11.042  0.2105  0.0695  0.6330
  164TCq2    C4 2500   2.950   3.102  11.048  0.0007  0.3803 -0.3413
  164TCq2    C5 2501   2.866   3.141  11.147 -0.2596 -0.5719 -0.4570
  164TCq2    C6 2502   2.819   3.048  11.228 -0.9196  0.9285 -0.4009
  164TCq2    C7 2503   2.863   2.917  11.236  0.2940 -0.0421 -0.5812
  164TCq2    C8 2504   2.702   3.079  11.304 -0.2511  0.2708 -0.3205
  164TCq2    O4 2505   2.687   3.014  11.408 -0.0860  0.2108 -0.6450
  164TCq2    C9 2506   3.008   3.203  10.967 -0.5094  0.5766 -0.8551
  164TCq2    O5 2507   3.101   3.168  10.894  0.2013  0.5287 -0.0779
  164TCq2    O6 2508   2.977   3.323  10.983 -0.6985  0.0009  0.0556
  164TCq2    H2 2509   3.071   2.944  10.963 -0.9356  0.6857 -0.5781
  164TCq2    H3 2510   2.853   3.246  11.173 -2.9689 -1.7618  3.0127
  164TCq2    H4 2511   2.815   2.846  11.303 -0.5611  0.9570 -0.1432
  165MPD2     C 2512   3.655   0.338   2.320 -0.5548 -0.1043  0.1130
  165MPD2    C1 2513   3.775   0.274   2.290 -0.1669 -0.5928 -0.3519
  165MPD2    C2 2514   3.876   0.354   2.240 -0.0748  0.2196 -0.9776
  165MPD2    C3 2515   3.870   0.493   2.243 -0.4475 -0.0532 -1.1728
  165MPD2    C4 2516   3.754   0.548   2.282  0.7959  0.2732 -0.4668
  165MPD2    C5 2517   3.653   0.471   2.326  0.3289 -0.1329  0.2622
  165MPD2     H 2518   3.969   0.306   2.210 -1.1138 -0.2417 -3.4800
  165MPD2    H1 2519   3.750   0.655   2.295 -1.0437  0.0444  0.8280
  165MPD2    H2 2520   3.571   0.285   2.365  0.0416 -1.8232 -0.8119
  165MPD2    H3 2521   3.560   0.515   2.359  0.1209  0.8333 -1.5986
  165MPD2     N 2522   3.981   0.578   2.216 -0.4514  0.4353  0.2146
  165MPD2    H5 2523   3.958   0.676   2.205 -0.3347  0.5519  1.0624
  165MPD2    N1 2524   3.778   0.128   2.283  0.3410 -0.7052 -0.7102
  165MPD2    H7 2525   3.694   0.080   2.312 -0.6801 -1.4308 -4.7694
  166TCq2    C1 2526   4.108   0.534   2.191  0.9658  0.3772 -0.4165
  166TCq2    O2 2527   4.160   0.425   2.202 -0.3410  0.5094  0.0544
  166TCq2    C2 2528   4.185   0.634   2.125 -0.6793  0.2733  1.1006
  166TCq2    C3 2529   4.199   0.760   2.182 -0.0910 -0.3590  0.5573
  166TCq2    C4 2530   4.285   0.846   2.118 -0.2396 -0.3821 -0.0185
  166TCq2    C5 2531   4.371   0.809   2.018 -0.0735 -0.8700 -0.4990
  166TCq2    C6 2532   4.348   0.680   1.961 -0.1451 -0.8401  0.2849
  166TCq2    C7 2533   4.258   0.591   2.021  0.0830 -0.1538  0.5118
  166TCq2    C8 2534   4.380   0.669   1.821 -1.0052  0.3848  0.4307
  166TCq2    O4 2535   4.469   0.744   1.778 -0.0181 -0.3072 -0.2636
  166TCq2    C9 2536   4.300   0.973   2.178 -0.2991 -0.2145  0.3042
  166TCq2    O5 2537   4.381   1.058   2.130  1.2531  0.0968  0.3795
  166TCq2    O6 2538   4.233   0.987   2.286  0.1230  0.4214 -0.2485
  166TCq2    H2 2539   4.128   0.788   2.259 -3.0569  0.6775 -2.5023
  166TCq2    H3 2540   4.441   0.878   1.971 -1.2237  1.4791  1.2126
  166TCq2    H4 2541   4.234   0.494   1.979 -1.5553  1.0235 -1.3126
  167TMC2    C1 2542   1.869   2.956  12.621  0.1806  0.3890 -0.0469
  167TMC2    C2 2543   1.773   3.012  12.698 -0.0036  0.0432 -0.6622
  167TMC2    C3 2544   1.730   2.943  12.807 -0.4678  0.7280  0.5774
  167TMC2    C4 2545   1.945   2.847  12.652  0.0435 -0.6067 -0.2834
  167TMC2    C5 2546   1.892   2.782  12.759  0.5918  0.3625 -0.6506
  167TMC2    C6 2547   1.783   2.822  12.828  0.8680 -0.3042 -0.3111
  167TMC2     C 2548   1.895   3.025  12.499 -0.1652 -0.0662  0.4020
  167TMC2     O 2549   1.875   3.144  12.489 -0.1587  0.0774 -0.2144
  167TMC2     H 2550   1.706   3.088  12.660 -1.1151 -0.3829  0.4597
  167TMC2    H1 2551   2.035   2.818  12.599  0.9967 -1.2999  1.7281
  167TMC2    H2 2552   1.735   2.753  12.896  3.2942  0.0889  1.7779
  167TMC2    C7 2553   1.944   2.651  12.804 -0.2016 -0.3997 -0.0827
  167TMC2    C8 2554   1.597   2.980  12.853  0.0635  1.2828 -0.1185
  167TMC2    O1 2555   1.894   2.612  12.908  0.1654  0.1283 -0.0321
  167TMC2    O2 2556   1.527   3.060  12.792  0.2825 -0.0345 -0.4592
  167TMC2    O5 2557   1.575   2.934  12.975  0.2079  0.4495 -0.1662
  167TMC2    H5 2558   1.654   2.903  13.024 -0.7594 -0.1171  1.0337
  168MPD2     C 2559   2.053   3.111  12.266 -0.1671 -0.3848  0.0148
  168MPD2    C1 2560   2.015   2.981  12.294 -0.4574  0.4664  0.1023
  168MPD2    C2 2561   2.055   2.877  12.212 -0.2954  0.0323 -0.0888
  168MPD2    C3 2562   2.127   2.902  12.103  0.0790 -0.2419 -0.1399
  168MPD2    C4 2563   2.152   3.031  12.072 -1.0268 -0.9419 -0.1763
  168MPD2    C5 2564   2.110   3.137  12.149 -0.4456 -0.2021 -0.2549
  168MPD2     H 2565   2.031   2.778  12.250 -1.1552 -0.4453 -1.8877
  168MPD2    H1 2566   2.220   3.052  11.989 -0.1723 -1.4621  0.3833
  168MPD2    H2 2567   2.031   3.195  12.331 -2.2192 -0.9153 -0.0171
  168MPD2    H3 2568   2.140   3.240  12.128  1.1356 -0.2313  1.9167
  168MPD2     N 2569   2.150   2.793  12.016 -0.0076  0.7378 -0.1110
  168MPD2    H5 2570   2.121   2.703  12.051  2.0157  0.4226  0.7749
  168MPD2    N1 2571   1.950   2.943  12.411 -0.1647 -0.4171  0.2914
  168MPD2    H7 2572   1.929   2.846  12.431 -2.1788 -0.3588 -1.5071
  169MPD1     C 2573   4.460   1.430  10.201  0.1116  0.2708  0.0227
  169MPD1    C1 2574   4.558   1.336  10.203 -0.4116 -0.7374 -0.0284
  169MPD1    C2 2575   4.656   1.346  10.111 -0.2600  0.1483 -0.6628
  169MPD1    C3 2576   4.666   1.447  10.016 -0.2363 -0.1242  0.7929
  169MPD1    C4 2577   4.569   1.543  10.018  0.3079 -0.3063 -0.7276
  169MPD1    C5 2578   4.461   1.527  10.104 -0.0597  0.1923  0.0412
  169MPD1     H 2579   0.020   1.282  10.099  0.8374  1.3985  0.5356
  169MPD1    H1 2580   4.561   1.622   9.945 -0.3776  1.4895  1.2806
  169MPD1    H2 2581   4.385   1.441  10.278  1.0461 -1.1699  1.1446
  169MPD1    H3 2582   4.386   1.606  10.108 -0.0216  0.3507 -2.2136
  169MPD1     N 2583   0.048   1.433   9.922 -0.4285 -0.5996 -0.0559
  169MPD1    H5 2584   0.108   1.351   9.925 -1.1835 -1.1658 -0.5663
  169MPD1    N1 2585   4.544   1.219  10.270 -0.1981 -0.3589  0.0444
  169MPD1    H6 2586   4.492   1.239  10.355 -0.8199  0.6715 -0.5825
  169MPD1    H7 2587   4.633   1.182  10.303 -0.7008 -1.7955 -0.1866
  170MPD1     C 2588   2.748   4.647  13.242  0.4032 -0.5928  0.4119
  170MPD1    C1 2589   2.729   4.635  13.377  0.4055 -0.0681 -0.0695
  170MPD1    C2 2590   2.764   0.019  13.461  0.0903 -0.2712  0.7672
  170MPD1    C3 2591   2.816   0.136  13.405  0.3447 -0.1495 -0.8160
  170MPD1    C4 2592   2.807   0.154  13.268  0.3433  0.4276  0.3379
  170MPD1    C5 2593   2.773   0.048  13.192 -0.7637 -0.4752  0.6280
  170MPD1     H 2594   2.762   0.009  13.569  0.1827 -3.0830  0.4977
  170MPD1    H1 2595   2.837   0.248  13.224 -0.8677  0.7713  0.2545
  170MPD1    H2 2596   2.728   4.563  13.177 -1.4641  0.2841 -0.1505
  170MPD1    H3 2597   2.770   0.068  13.086 -0.9553  0.1074  0.7446
  170MPD1     N 2598   2.861   0.237  13.495  0.6534  0.3237 -0.3418
  170MPD1    H5 2599   2.873   0.202  13.589  1.2463  2.3731  0.3491
  170MPD1    N1 2600   2.719   4.507  13.430  0.0968 -0.0986 -0.1308
  170MPD1    H6 2601   2.680   4.437  13.367  1.6611 -1.4725  0.4362
  170MPD1    H7 2602   2.669   4.501  13.518  3.4470 -1.1193  1.6900
  171MPD1     C 2603   1.258   0.024  16.007  0.2460 -1.1602 -1.1695
  171MPD1    C1 2604   1.244   0.159  16.016 -0.1246  0.5489 -0.2587
  171MPD1    C2 2605   1.351   0.238  15.970  0.1694 -0.4512 -0.1134
  171MPD1    C3 2606   1.473   0.182  15.923  0.1521  0.8522 -0.3867
  171MPD1    C4 2607   1.479   0.043  15.916  0.8446 -0.1477  0.1164
  171MPD1    C5 2608   1.371   4.689  15.959  0.9472 -0.2655  0.0925
  171MPD1     H 2609   1.339   0.344  15.990  0.4395 -0.4099 -0.1741
  171MPD1    H1 2610   1.566   4.716  15.874  1.3251  0.1900  0.7277
  171MPD1    H2 2611   1.183   4.682  16.052 -0.0102  1.3524  2.1214
  171MPD1    H3 2612   1.377   4.581  15.972 -0.2423 -0.4627 -1.0821
  171MPD1     N 2613   1.585   0.250  15.870  0.0055 -0.3240 -0.1884
  171MPD1    H5 2614   1.661   0.199  15.827  0.8770 -0.3106  1.3432
  171MPD1    N1 2615   1.147   0.228  16.088  0.2252  0.4274  0.1488
  171MPD1    H6 2616   1.147   0.329  16.074  0.0771  0.3178 -0.6648
  171MPD1    H7 2617   1.052   0.196  16.068  0.4083  1.2982 -2.1011
  172MPD1     C 2618   0.554   0.635  17.399 -0.3054 -0.1681  0.0352
  172MPD1    C1 2619   0.481   0.573  17.501  1.0864  0.4062  0.4522
  172MPD1    C2 2620   0.541   0.557  17.625 -0.1650 -0.2971 -0.4068
  172MPD1    C3 2621   0.672   0.611  17.640 -0.7131 -0.0474 -0.3068
  172MPD1    C4 2622   0.743   0.661  17.535  0.3788  0.0436 -0.9449
  172MPD1    C5 2623   0.686   0.667  17.410 -0.1336 -0.6302 -0.6527
  172MPD1     H 2624   0.499   0.496   0.010  0.9028 -1.9762 -1.1492
  172MPD1    H1 2625   0.845   0.699  17.541  1.0639 -1.8788 -0.6486
  172MPD1    H2 2626   0.510   0.640  17.300  0.8793 -0.3609 -0.4975
  172MPD1    H3 2627   0.739   0.705  17.323  1.9717 -2.0651  0.0021
  172MPD1     N 2628   0.729   0.623   0.081  0.4131  0.5975  0.2975
  172MPD1    H5 2629   0.818   0.672   0.079 -0.3750  2.1241  2.4118
  172MPD1    N1 2630   0.355   0.518  17.477 -0.1930  0.0778 -0.0843
  172MPD1    H6 2631   0.303   0.588  17.426  0.5113 -0.1058 -1.0533
  172MPD1    H7 2632   0.306   0.497  17.564 -0.9580 -0.2628 -0.5939
  173MPD1     C 2633   3.231   4.374  14.240 -0.1770 -0.2297  0.6091
  173MPD1    C1 2634   3.303   4.361  14.357  0.1800 -0.4956  0.2515
  173MPD1    C2 2635   3.243   4.311  14.471  0.1990 -0.1645 -0.2329
  173MPD1    C3 2636   3.104   4.291  14.474 -0.0657 -0.0885  0.1377
  173MPD1    C4 2637   3.039   4.314  14.358  0.0580  0.4072 -0.3342
  173MPD1    C5 2638   3.097   4.352  14.243 -0.6296  0.5141 -0.2374
  173MPD1     H 2639   3.312   4.299  14.553 -1.7083 -0.4747  1.3275
  173MPD1    H1 2640   2.930   4.308  14.352  0.0751  1.6901 -1.9483
  173MPD1    H2 2641   3.274   4.407  14.146 -0.3519 -1.2813  0.1668
  173MPD1    H3 2642   3.043   4.368  14.150 -0.5969  0.4032 -0.2762
  173MPD1     N 2643   3.040   4.283  14.600  0.1683 -0.2127 -0.5419
  173MPD1    H5 2644   2.939   4.295  14.602  0.0841 -0.9418 -0.5006
  173MPD1    N1 2645   3.442   4.377  14.352  0.1528  0.1440  0.4510
  173MPD1    H6 2646   3.483   4.421  14.434 -0.8951 -0.9057  1.5235
  173MPD1    H7 2647   3.475   4.437  14.276  0.1008 -1.2826 -0.7033
  174MPD1     C 2648   3.062   3.946  15.645 -0.4827  0.3301  0.7129
  174MPD1    C1 2649   3.169   3.988  15.571  0.4394  0.1251 -0.1405
  174MPD1    C2 2650   3.162   4.044  15.444 -0.2477  0.8218  0.2239
  174MPD1    C3 2651   3.035   4.086  15.400 -0.3292  0.2263 -0.2870
  174MPD1    C4 2652   2.929   4.053  15.480  0.0194 -0.2116 -0.0131
  174MPD1    C5 2653   2.944   3.988  15.596  0.0337 -0.6188  0.3652
  174MPD1     H 2654   3.245   4.078  15.384 -1.3426  1.2708 -1.0019
  174MPD1    H1 2655   2.832   4.092  15.453 -0.2525 -1.0711 -0.2808
  174MPD1    H2 2656   3.075   3.903  15.744 -0.9887 -0.0697  0.6053
  174MPD1    H3 2657   2.856   3.973  15.656  1.8013  1.1894  3.4151
  174MPD1     N 2658   3.009   4.147  15.278 -0.9567 -0.1005 -0.5082
  174MPD1    H5 2659   2.911   4.157  15.254 -0.8599 -1.4694 -1.4639
  174MPD1    N1 2660   3.298   3.956  15.621 -0.3767 -0.5006 -0.0845
  174MPD1    H6 2661   3.290   3.937  15.720 -1.1285 -1.5407 -0.3487
  174MPD1    H7 2662   3.362   4.035  15.612  0.5664 -1.2352  0.1371
  175MPD1     C 2663   0.960   1.527  15.391 -0.4960 -1.0965  0.6716
  175MPD1    C1 2664   0.847   1.612  15.400  0.0393  0.5678  0.0442
  175MPD1    C2 2665   0.762   1.591  15.513 -0.5509 -0.0263  0.3526
  175MPD1    C3 2666   0.774   1.483  15.593 -0.7959 -0.0927  0.0939
  175MPD1    C4 2667   0.878   1.399  15.568 -0.7061  0.0981 -0.2658
  175MPD1    C5 2668   0.971   1.424  15.473  0.1930  0.3110 -0.4830
  175MPD1     H 2669   0.689   1.668  15.535 -0.4267 -0.4179  2.1443
  175MPD1    H1 2670   0.900   1.316  15.635  0.5560  0.5450 -0.1374
  175MPD1    H2 2671   1.043   1.543  15.323 -1.4413  2.2350  0.3165
  175MPD1    H3 2672   1.060   1.362  15.473  0.1145  0.2045 -1.3544
  175MPD1     N 2673   0.706   1.461  15.711  0.1198 -0.1200 -0.1146
  175MPD1    H5 2674   0.733   1.379  15.765  1.4031  0.4295  0.0780
  175MPD1    N1 2675   0.837   1.735  15.331  0.5563  0.3318 -0.1188
  175MPD1    H6 2676   0.857   1.724  15.232  2.9262  2.0650  0.1721
  175MPD1    H7 2677   0.741   1.769  15.336 -0.4254 -2.2019 -1.2897
  176MPD1     C 2678   2.647   2.999  17.095 -0.4064  0.0792 -0.2204
  176MPD1    C1 2679   2.653   3.141  17.102 -0.0132  0.5493  0.3102
  176MPD1    C2 2680   2.571   3.197  17.200  0.4967  0.0129  0.5876
  176MPD1    C3 2681   2.517   3.118  17.301 -0.0099  0.1358 -0.4080
  176MPD1    C4 2682   2.539   2.980  17.305 -0.1394 -0.5060  0.2013
  176MPD1    C5 2683   2.612   2.927  17.203  0.1225  0.3165 -0.4227
  176MPD1     H 2684   2.539   3.300  17.201 -1.1079 -0.4856  1.6751
  176MPD1    H1 2685   2.503   2.912  17.382  0.8937  0.4228  1.5171
  176MPD1    H2 2686   2.684   2.962  17.000 -1.2985  0.3118 -0.6608
  176MPD1    H3 2687   2.619   2.819  17.196 -0.9652  0.2279 -0.1718
  176MPD1     N 2688   2.446   3.193  17.390  0.1072  0.5637  0.1066
  176MPD1    H5 2689   2.442   3.294  17.380  1.8359  0.8345  2.0058
  176MPD1    N1 2690   2.691   3.212  16.992 -0.3843 -0.3701 -0.2097
  176MPD1    H6 2691   2.783   3.182  16.959  0.0547 -0.5752  1.1816
  176MPD1    H7 2692   2.715   3.308  17.017  0.0696 -0.7407  0.7904
  177MPD1     C 2693   1.058   3.786   8.405  0.5913  0.3284 -0.3672
  177MPD1    C1 2694   0.929   3.796   8.455  0.3986  0.5539  0.2435
  177MPD1    C2 2695   0.870   3.676   8.491  0.3813 -0.4223 -0.3836
  177MPD1    C3 2696   0.948   3.563   8.518  0.3098 -0.6717  0.0138
  177MPD1    C4 2697   1.077   3.568   8.495  0.3695 -0.1118 -0.9481
  177MPD1    C5 2698   1.128   3.676   8.429 -0.2408 -0.6641 -0.6578
  177MPD1     H 2699   0.765   3.668   8.515  0.5731 -0.8349  0.3209
  177MPD1    H1 2700   1.146   3.485   8.511 -1.6630 -1.8944 -1.4163
  177MPD1    H2 2701   1.103   3.865   8.345  3.0275  0.5733  1.7886
  177MPD1    H3 2702   1.230   3.674   8.394  0.1573  1.3070  0.3578
  177MPD1     N 2703   0.882   3.449   8.568  0.4841 -0.4750 -0.9898
  177MPD1    H5 2704   0.781   3.447   8.568  0.4235  1.8450  0.3096
  177MPD1    N1 2705   0.850   3.908   8.441 -0.0075  0.1424 -0.8391
  177MPD1    H6 2706   0.914   3.987   8.442  1.1941 -0.8180 -1.3552
  177MPD1    H7 2707   0.779   3.919   8.514  1.5529  0.9578  0.5457
  178MPD1     C 2708   3.099   4.052   0.808  0.0844  0.6900 -0.2611
  178MPD1    C1 2709   3.164   4.158   0.762 -0.2576 -0.1188  0.2351
  178MPD1    C2 2710   3.222   4.155   0.638  0.0676 -0.1739  0.0096
  178MPD1    C3 2711   3.202   4.052   0.552 -0.9503  0.0934  0.6639
  178MPD1    C4 2712   3.133   3.940   0.593  0.0386 -0.6446 -0.2575
  178MPD1    C5 2713   3.086   3.940   0.726  0.1265 -0.2780  0.2136
  178MPD1     H 2714   3.284   4.238   0.609  0.2051  0.3148  1.6997
  178MPD1    H1 2715   3.110   3.848   0.539 -0.3996  1.9784 -4.5442
  178MPD1    H2 2716   3.052   4.056   0.906 -3.0558 -1.0071 -1.7103
  178MPD1    H3 2717   3.031   3.849   0.751  1.0978 -0.7406  0.6758
  178MPD1     N 2718   3.256   4.051   0.429  0.7972 -0.0057  0.6728
  178MPD1    H5 2719   3.309   4.136   0.417  1.0220 -0.0010  1.6621
  178MPD1    N1 2720   3.197   4.269   0.843 -0.1354 -0.5118  0.0849
  178MPD1    H6 2721   3.116   4.296   0.899 -0.4010  0.2656 -0.6898
  178MPD1    H7 2722   3.223   4.343   0.779  1.0126 -1.4150 -0.4897
  179MPD1     C 2723   2.416   2.445  15.130 -0.5420  0.2782  0.2725
  179MPD1    C1 2724   2.544   2.399  15.161  0.4625 -0.0164  0.5874
  179MPD1    C2 2725   2.559   2.261  15.193  0.4252  0.0424  0.2494
  179MPD1    C3 2726   2.457   2.180  15.218 -0.3048 -0.7726  0.3587
  179MPD1    C4 2727   2.337   2.229  15.192 -0.0691  0.7994 -0.9018
  179MPD1    C5 2728   2.320   2.357  15.152  0.3727 -0.2010 -0.5154
  179MPD1     H 2729   2.661   2.231  15.212  0.1589 -2.3618 -2.1318
  179MPD1    H1 2730   2.247   2.171  15.204  0.7248 -0.4191 -0.7588
  179MPD1    H2 2731   2.405   2.544  15.086 -1.3266  0.6689  1.3406
  179MPD1    H3 2732   2.221   2.401  15.151  0.6057  0.3116 -0.7932
  179MPD1     N 2733   2.481   2.048  15.271 -0.7395  0.3588 -0.6793
  179MPD1    H5 2734   2.395   1.994  15.283  0.6492 -2.1574 -2.1548
  179MPD1    N1 2735   2.658   2.475  15.130  0.3420 -0.0188 -0.1833
  179MPD1    H6 2736   2.633   2.574  15.135 -2.5399 -0.8183  1.0405
  179MPD1    H7 2737   2.745   2.465  15.182  0.5492  2.0167 -0.1217
  180MPD1     C 2738   3.249   3.241  15.334 -0.0439  0.1040  0.0683
  180MPD1    C1 2739   3.298   3.283  15.211 -0.2701  0.7861 -0.1263
  180MPD1    C2 2740   3.202   3.323  15.113 -0.4881  0.0974 -0.0673
  180MPD1    C3 2741   3.066   3.313  15.139 -0.5249  0.4571 -0.3013
  180MPD1    C4 2742   3.021   3.266  15.265  0.5697 -0.2400  0.3128
  180MPD1    C5 2743   3.113   3.220  15.360 -0.7831  0.1373  0.1629
  180MPD1     H 2744   3.229   3.341  15.010 -2.3136 -0.2289 -0.6060
  180MPD1    H1 2745   2.916   3.251  15.286  0.2431 -1.7314 -2.2603
  180MPD1    H2 2746   3.317   3.213  15.413  1.7155 -2.6742 -2.3960
  180MPD1    H3 2747   3.092   3.186  15.461 -1.5788 -1.8346 -0.6525
  180MPD1     N 2748   2.974   3.364  15.041  0.0161 -0.1687  0.0205
  180MPD1    H5 2749   3.022   3.403  14.960 -1.3873  2.9303  0.6878
  180MPD1    N1 2750   3.436   3.263  15.179 -0.5856 -0.4742  0.2770
  180MPD1    H6 2751   3.456   3.313  15.093 -1.9934 -0.9049 -0.3115
  180MPD1    H7 2752   3.501   3.264  15.257 -2.1298 -1.9077  1.6078
  181MPD1     C 2753   3.894   4.521   9.844  0.3848 -0.7078 -0.6206
  181MPD1    C1 2754   3.876   4.651   9.806  0.2894 -0.2117  0.1666
  181MPD1    C2 2755   3.968   0.026   9.857  0.7314  0.0645 -0.3298
  181MPD1    C3 2756   4.067   4.715   9.950 -0.0215  1.2488 -0.1511
  181MPD1    C4 2757   4.077   4.580   9.986 -0.9047  0.1863  0.3405
  181MPD1    C5 2758   3.998   4.489   9.927  0.1070 -0.4448  0.8151
  181MPD1     H 2759   3.955   0.129   9.828  0.8444  0.2751  0.3789
  181MPD1    H1 2760   4.157   4.548  10.051  1.4879 -1.0210 -3.2236
  181MPD1    H2 2761   3.828   4.439   9.815 -1.1012  1.0770 -2.3045
  181MPD1    H3 2762   4.012   4.387   9.962 -0.3693 -0.4862  0.8873
  181MPD1     N 2763   4.156   0.080  10.011 -0.4434  0.4311 -0.0356
  181MPD1    H5 2764   4.214   0.033  10.079 -0.9156 -0.7511 -0.4415
  181MPD1    N1 2765   3.755   4.690   9.739 -0.0249 -0.3204  0.6668
  181MPD1    H6 2766   3.728   4.635   9.658  0.7707 -0.6590  0.6390
  181MPD1    H7 2767   3.769   0.060   9.699  1.4737 -0.1131  1.6958
  182MPD1     C 2768   1.312   4.593   1.247 -0.4858  0.1559 -0.3624
  182MPD1    C1 2769   1.299   4.534   1.124 -0.3039 -0.6623  0.3544
  182MPD1    C2 2770   1.181   4.540   1.052 -0.1836 -0.2206  0.0027
  182MPD1    C3 2771   1.076   4.610   1.098  0.1731 -0.7666  0.2662
  182MPD1    C4 2772   1.086   4.674   1.218  0.0401  0.5029 -0.6993
  182MPD1    C5 2773   1.205   4.667   1.290  0.1564 -0.2223  0.0070
  182MPD1     H 2774   1.177   4.483   0.960 -0.4115  2.0921 -1.4217
  182MPD1    H1 2775   1.005   0.007   1.265  0.8550  0.0314  1.2831
  182MPD1    H2 2776   1.401   4.584   1.307 -0.0539 -1.2457 -1.2171
  182MPD1    H3 2777   1.203   4.710   1.389 -0.9474  2.4633 -1.1772
  182MPD1     N 2778   0.947   4.618   1.033 -0.3095  0.0707  0.3086
  182MPD1    H5 2779   0.880   4.678   1.081 -1.2850 -1.6869  1.1593
  182MPD1    N1 2780   1.410   4.454   1.078  0.1147 -0.0363 -0.0004
  182MPD1    H6 2781   1.495   4.503   1.107 -0.0310  0.2011  0.0226
  182MPD1    H7 2782   1.423   4.441   0.978  1.1944 -2.0720  0.4057
  183MPD1     C 2783   1.251   0.446   9.194 -0.3751 -0.3166 -0.0926
  183MPD1    C1 2784   1.227   0.318   9.254  0.3649 -0.4338 -0.0339
  183MPD1    C2 2785   1.112   0.311   9.333 -0.2435 -0.5310  0.3689
  183MPD1    C3 2786   1.034   0.421   9.353 -0.4346 -0.2220  0.1037
  183MPD1    C4 2787   1.069   0.543   9.302 -0.1948  0.4857  0.5071
  183MPD1    C5 2788   1.181   0.558   9.224  0.4284 -0.4759  0.8911
  183MPD1     H 2789   1.087   0.219   9.384 -3.4264 -1.2894 -2.5720
  183MPD1    H1 2790   1.003   0.629   9.311 -0.5462  0.2742 -0.0830
  183MPD1    H2 2791   1.333   0.461   9.125  0.5946  1.6886  1.4858
  183MPD1    H3 2792   1.200   0.652   9.173 -1.2493 -0.4539  0.3104
  183MPD1     N 2793   0.921   0.391   9.428 -0.2835  0.0805  0.0802
  183MPD1    H5 2794   0.913   0.293   9.454  3.7834  0.2470  1.8416
  183MPD1    N1 2795   1.295   0.206   9.209 -0.3863  0.4617 -0.5488
  183MPD1    H6 2796   1.315   0.152   9.293  0.5744  1.2464 -0.2769
  183MPD1    H7 2797   1.384   0.229   9.163  0.4616  0.9231  1.3359
  184MPD1     C 2798   4.496   2.130   9.655 -0.8958  0.1092  0.4399
  184MPD1    C1 2799   4.542   2.212   9.746  0.4741 -0.0226 -0.1759
  184MPD1    C2 2800   4.638   2.307   9.711 -1.0459 -0.6836 -0.0277
  184MPD1    C3 2801   4.696   2.299   9.581 -0.0621  0.0264 -0.1503
  184MPD1    C4 2802   4.653   2.211   9.492  0.0118 -0.2522  0.3767
  184MPD1    C5 2803   4.558   2.125   9.529 -0.1183  0.3599 -0.2539
  184MPD1     H 2804   4.671   2.376   9.788  0.5090 -0.3294 -0.9971
  184MPD1    H1 2805   4.678   2.210   9.386 -2.8698 -0.1447 -0.3027
  184MPD1    H2 2806   4.421   2.053   9.670  0.6334 -1.5261 -0.3133
  184MPD1    H3 2807   4.514   2.054   9.461 -0.5800 -0.1817  0.6137
  184MPD1     N 2808   0.067   2.393   9.541  0.3845  0.0164  0.0292
  184MPD1    H5 2809   0.102   2.375   9.447  0.9666  0.4972  0.1523
  184MPD1    N1 2810   4.481   2.222   9.872 -0.3100 -0.0873  0.0848
  184MPD1    H6 2811   4.438   2.136   9.905 -1.9624  1.4158  1.8132
  184MPD1    H7 2812   4.530   2.265   9.950 -0.3462  0.4163 -0.1697
  185MPD1     C 2813   0.452   2.641   8.687 -0.0153 -0.3198 -0.0602
  185MPD1    C1 2814   0.454   2.526   8.758 -0.6209 -0.1124 -0.1039
  185MPD1    C2 2815   0.420   2.529   8.888 -0.0948 -0.0786 -0.2920
  185MPD1    C3 2816   0.394   2.651   8.955  0.2948  0.2534 -0.4440
  185MPD1    C4 2817   0.401   2.768   8.881  0.4676 -0.4250  0.5381
  185MPD1    C5 2818   0.425   2.761   8.746  0.6373 -0.6522  0.0031
  185MPD1     H 2819   0.437   2.439   8.946 -1.7571  0.6126  1.2740
  185MPD1    H1 2820   0.380   2.866   8.920  2.8572 -0.1911  1.2171
  185MPD1    H2 2821   0.477   2.643   8.582  0.5228 -0.4276  0.0644
  185MPD1    H3 2822   0.437   2.853   8.691  2.7967 -1.3766 -0.7695
  185MPD1     N 2823   0.362   2.662   9.090 -0.0614  0.2839  0.3766
  185MPD1    H5 2824   0.343   2.756   9.123  0.9624  0.6795 -0.1495
  185MPD1    N1 2825   0.467   2.403   8.696 -0.3551  0.2965 -0.1155
  185MPD1    H6 2826   0.498   2.335   8.765  3.6901  1.9900 -0.2221
  185MPD1    H7 2827   0.532   2.402   8.618 -1.8242  1.1802 -1.3346
  186MPD1     C 2828   3.014   2.106  15.855  0.5951 -1.2641  0.8183
  186MPD1    C1 2829   3.137   2.087  15.917  0.3776 -0.5536 -0.2949
  186MPD1    C2 2830   3.192   2.192  15.986  0.6203 -0.3217  0.0862
  186MPD1    C3 2831   3.115   2.301  16.014 -0.4392  0.0179  0.1976
  186MPD1    C4 2832   2.984   2.316  15.962  0.1281  0.3855  0.6845
  186MPD1    C5 2833   2.935   2.205  15.886 -0.3393  0.1410 -0.2432
  186MPD1     H 2834   3.295   2.185  16.020  0.7015 -2.0386 -0.5315
  186MPD1    H1 2835   2.919   2.401  15.980 -0.8559 -0.4928  1.2349
  186MPD1    H2 2836   2.973   2.027  15.794  0.1856  0.4485 -1.1152
  186MPD1    H3 2837   2.836   2.211  15.842 -1.0272 -1.8412  1.0394
  186MPD1     N 2838   3.156   2.403  16.102  0.7490 -0.4945  0.0180
  186MPD1    H5 2839   3.086   2.475  16.115  1.5897  0.2388  0.4588
  186MPD1    N1 2840   3.205   1.975  15.876 -0.3506  0.5004  0.3492
  186MPD1    H6 2841   3.150   1.895  15.844  1.2075  0.1129 -1.3505
  186MPD1    H7 2842   3.269   1.945  15.950  0.9124 -1.3437 -1.4581
  187MPD1     C 2843   2.413   0.113   0.701  0.2553 -0.6942 -0.1944
  187MPD1    C1 2844   2.365   4.707   0.660 -0.7924  0.4108  0.0316
  187MPD1    C2 2845   2.380   4.676   0.527 -1.0141  0.4688 -0.1437
  187MPD1    C3 2846   2.457   0.032   0.440  0.6015  0.1330  0.6726
  187MPD1    C4 2847   2.511   0.152   0.485 -0.2679  0.0794  0.0003
  187MPD1    C5 2848   2.483   0.186   0.617 -0.2902 -0.1000  0.3547
  187MPD1     H 2849   2.323   4.588   0.498 -1.5497  0.3891  1.1748
  187MPD1    H1 2850   2.567   0.220   0.421  2.1105  1.1222  3.1290
  187MPD1    H2 2851   2.403   0.137   0.806 -0.8495  0.5674 -0.5909
  187MPD1    H3 2852   2.525   0.281   0.648  2.5531 -1.0837 -0.5314
  187MPD1     N 2853   2.469   4.718   0.298 -0.4537  0.1484  0.4934
  187MPD1    H5 2854   2.527   0.055   0.241  0.6848  0.0305  1.5464
  187MPD1    N1 2855   2.282   4.629   0.748  0.1526  0.3557 -0.3950
  187MPD1    H6 2856   2.329   4.641   0.837  0.7487 -1.8195 -0.4157
  187MPD1    H7 2857   2.283   4.528   0.736 -0.4642  0.5269 -1.9001
  188MPD1     C 2858   1.611   4.344  10.023 -1.1753  0.0662  0.3061
  188MPD1    C1 2859   1.540   4.309   9.913  0.2450  0.0523  0.7195
  188MPD1    C2 2860   1.581   4.191   9.862  0.4714 -0.4614 -0.1857
  188MPD1    C3 2861   1.671   4.100   9.912 -0.2043 -0.0824 -1.0185
  188MPD1    C4 2862   1.733   4.137  10.027  0.4764 -0.3703 -0.3742
  188MPD1    C5 2863   1.700   4.260  10.081  0.4928 -0.3850  0.1116
  188MPD1     H 2864   1.523   4.170   9.773  0.7973  0.0065 -0.5128
  188MPD1    H1 2865   1.816   4.077  10.062  1.3639  1.6840  1.0167
  188MPD1    H2 2866   1.600   4.438  10.077 -1.7982 -0.4582  1.1096
  188MPD1    H3 2867   1.753   4.281  10.173  1.7502 -1.3928 -0.3771
  188MPD1     N 2868   1.702   3.976   9.854 -0.1481 -0.3091  0.2787
  188MPD1    H5 2869   1.766   3.919   9.908  0.0482  0.1717  0.5541
  188MPD1    N1 2870   1.426   4.375   9.868 -0.0588  0.4062 -0.3300
  188MPD1    H6 2871   1.401   4.361   9.771 -2.3575 -0.7104  0.4215
  188MPD1    H7 2872   1.458   4.472   9.870 -0.3862  0.5302 -1.5717
  189MPD1     C 2873   3.056   0.143   1.197 -0.0381 -0.4192 -0.2556
  189MPD1    C1 2874   2.949   0.099   1.118 -0.3988 -0.3153  0.5688
  189MPD1    C2 2875   2.973   0.073   0.984 -0.5748  0.3004  0.5526
  189MPD1    C3 2876   3.093   0.118   0.920 -0.0877  0.2308 -0.1487
  189MPD1    C4 2877   3.187   0.171   1.002  0.4208  0.5576  0.3023
  189MPD1    C5 2878   3.177   0.172   1.137  0.7704  0.2171  0.3001
  189MPD1     H 2879   2.893   0.027   0.927  1.0378 -0.5133 -1.0693
  189MPD1    H1 2880   3.287   0.203   0.975  1.1080 -0.1750  1.9538
  189MPD1    H2 2881   3.044   0.150   1.305  0.4675  0.1041 -0.2326
  189MPD1    H3 2882   3.256   0.221   1.193  1.9954 -1.3299 -0.0809
  189MPD1     N 2883   3.108   0.108   0.782  0.0452 -0.3716 -0.1054
  189MPD1    H5 2884   3.026   0.066   0.738  1.5064 -2.8443 -0.4419
  189MPD1    N1 2885   2.841   0.040   1.180 -0.0792  0.3877 -0.6160
  189MPD1    H6 2886   2.813   0.097   1.260  0.9542  1.0201 -0.7108
  189MPD1    H7 2887   2.764   0.040   1.113  0.1514 -2.2050 -0.8799
  190MPD1     C 2888   2.407   3.025  15.608 -0.3440  0.1854 -0.6556
  190MPD1    C1 2889   2.465   3.047  15.730 -0.0008 -0.1126 -0.6146
  190MPD1    C2 2890   2.576   3.131  15.736 -0.8175  0.2869  1.1342
  190MPD1    C3 2891   2.621   3.202  15.625 -0.7534  0.7505  0.7084
  190MPD1    C4 2892   2.564   3.171  15.501 -0.3068  0.3477  0.7789
  190MPD1    C5 2893   2.459   3.083  15.493 -0.4925 -0.0122  0.6925
  190MPD1     H 2894   2.612   3.153  15.836  2.2491 -0.2097  0.1420
  190MPD1    H1 2895   2.616   3.200  15.410 -1.0388  0.6482  0.4614
  190MPD1    H2 2896   2.337   2.944  15.591 -1.9439  0.9863  2.0916
  190MPD1    H3 2897   2.415   3.054  15.398  0.4294 -1.0636  0.6013
  190MPD1     N 2898   2.723   3.292  15.638  0.0966  0.5836 -0.0903
  190MPD1    H5 2899   2.750   3.341  15.553  0.9491 -0.1096 -0.2228
  190MPD1    N1 2900   2.438   2.961  15.833 -0.1033  0.0261 -0.0607
  190MPD1    H6 2901   2.446   3.004  15.925 -1.0750 -0.0133  0.0414
  190MPD1    H7 2902   2.345   2.919  15.836  0.7736 -1.6591  2.9808
  191MPD1     C 2903   1.770   1.269  12.513  0.8090  0.1467  0.5707
  191MPD1    C1 2904   1.875   1.330  12.447 -0.4514 -0.1696  0.0013
  191MPD1    C2 2905   1.987   1.256  12.407  0.0876 -0.3519 -0.1561
  191MPD1    C3 2906   1.984   1.118  12.422 -0.0672 -0.1561  0.0319
  191MPD1    C4 2907   1.880   1.048  12.473 -0.7149 -0.2407  0.7103
  191MPD1    C5 2908   1.769   1.126  12.516  0.2490 -0.2614 -0.1730
  191MPD1     H 2909   2.070   1.316  12.371 -1.9204  0.9597 -2.6643
  191MPD1    H1 2910   1.879   0.940  12.481  1.6551 -0.3530 -0.5180
  191MPD1    H2 2911   1.693   1.326  12.563 -0.2823  1.8896 -3.1086
  191MPD1    H3 2912   1.692   1.071  12.569  1.3458 -1.3566  0.2966
  191MPD1     N 2913   2.096   1.051  12.375  0.0351  0.1095  0.2041
  191MPD1    H5 2914   2.169   1.106  12.331  0.4449  0.1249  0.9134
  191MPD1    N1 2915   1.876   1.468  12.443  0.1259  0.2188 -0.2567
  191MPD1    H6 2916   1.781   1.502  12.427 -0.5349 -2.1609 -1.3581
  191MPD1    H7 2917   1.923   1.495  12.356  0.3863  2.4260  0.5700
  192MPD1     C 2918   2.922   1.206  11.845  0.4157  0.4625 -0.5531
  192MPD1    C1 2919   2.969   1.105  11.924  0.5404  0.6567  0.7140
  192MPD1    C2 2920   2.870   1.038  11.997 -0.2043  0.2547 -0.3956
  192MPD1    C3 2921   2.737   1.075  11.997 -0.7779  0.3144 -0.0927
  192MPD1    C4 2922   2.694   1.171  11.910 -0.0955  0.7729  0.0172
  192MPD1    C5 2923   2.784   1.235  11.829  0.4944  0.2085  0.3998
  192MPD1     H 2924   2.903   0.960  12.064 -1.5877 -0.6804 -0.8032
  192MPD1    H1 2925   2.591   1.203  11.904 -0.8728 -2.1935 -2.1347
  192MPD1    H2 2926   2.991   1.272  11.794  0.4254  0.6657 -0.2753
  192MPD1    H3 2927   2.756   1.322  11.771 -0.7242 -1.4520 -1.4906
  192MPD1     N 2928   2.647   1.008  12.091  0.6675  0.1388 -0.1628
  192MPD1    H5 2929   2.694   0.948  12.158  0.2869 -1.1523 -1.0430
  192MPD1    N1 2930   3.106   1.083  11.942  0.2428  0.3972  0.1568
  192MPD1    H6 2931   3.135   1.009  12.005 -0.6168 -0.4255 -0.4108
  192MPD1    H7 2932   3.178   1.131  11.887  1.7253  0.3454  2.0456
  193MPD1     C 2933   1.863   0.403  16.204  0.2650  0.2290 -0.2234
  193MPD1    C1 2934   1.829   0.537  16.198 -0.3027  0.8554 -0.6246
  193MPD1    C2 2935   1.888   0.628  16.282 -0.0024 -0.1906  0.0014
  193MPD1    C3 2936   1.990   0.594  16.371 -0.1369 -0.0460  0.0019
  193MPD1    C4 2937   2.038   0.469  16.360 -0.7060  0.2151  0.4838
  193MPD1    C5 2938   1.970   0.376  16.285 -0.1992  0.6438 -0.1271
  193MPD1     H 2939   1.847   0.728  16.279  0.4506  0.0476  2.1589
  193MPD1    H1 2940   2.106   0.424  16.432 -1.0155  1.8331  1.7913
  193MPD1    H2 2941   1.798   0.321  16.174 -0.2341  0.0866  1.2487
  193MPD1    H3 2942   2.004   0.273  16.282  0.3354  0.8086  0.1564
  193MPD1     N 2943   2.056   0.685  16.460  0.0847 -0.1148  0.0304
  193MPD1    H5 2944   2.131   0.639  16.512 -0.7429 -0.1684  1.1680
  193MPD1    N1 2945   1.701   0.569  16.157 -0.6568  0.4926  0.1136
  193MPD1    H6 2946   1.685   0.667  16.136  1.3048  0.8406  0.3085
  193MPD1    H7 2947   1.674   0.524  16.070  0.7432  4.0106 -2.1269
  194MPD1     C 2948   0.633   3.205  16.803  0.2286  0.5817 -0.1207
  194MPD1    C1 2949   0.511   3.162  16.759 -0.2128 -0.0861 -0.7416
  194MPD1    C2 2950   0.464   3.038  16.792 -0.2525 -0.1120 -0.4198
  194MPD1    C3 2951   0.539   2.952  16.875 -0.2359  0.1969 -0.4712
  194MPD1    C4 2952   0.663   2.997  16.916 -0.2580 -0.4878  0.1857
  194MPD1    C5 2953   0.709   3.122  16.883  0.7816 -0.8252  0.0417
  194MPD1     H 2954   0.365   3.006  16.762  0.2012 -2.6502  0.7207
  194MPD1    H1 2955   0.728   2.936  16.978 -0.0189  0.1349  0.5564
  194MPD1    H2 2956   0.668   3.303  16.770 -0.3971  1.6512  2.3854
  194MPD1    H3 2957   0.809   3.152  16.912  0.7052  0.5779 -1.1137
  194MPD1     N 2958   0.496   2.831  16.936 -0.6353 -0.2657 -0.3854
  194MPD1    H5 2959   0.562   2.781  16.995 -0.6525  3.2701  2.6234
  194MPD1    N1 2960   0.425   3.247  16.688  0.0889  0.2581  0.5366
  194MPD1    H6 2961   0.472   3.326  16.645  0.0087 -0.4148 -0.8007
  194MPD1    H7 2962   0.370   3.196  16.618  1.8379 -0.1072 -0.5881
  195MPD1     C 2963   1.629   4.574   0.861  0.2304 -0.5029 -0.0715
  195MPD1    C1 2964   1.686   4.469   0.927  0.4517 -0.0988 -0.3217
  195MPD1    C2 2965   1.652   4.340   0.890 -0.4886  0.4240  0.2181
  195MPD1    C3 2966   1.587   4.306   0.772  0.6768  0.1070 -0.4109
  195MPD1    C4 2967   1.560   4.413   0.691  0.1571  0.4804  0.2467
  195MPD1    C5 2968   1.575   4.544   0.738 -0.2172 -0.0213 -0.0362
  195MPD1     H 2969   1.678   4.265   0.963  2.9235  1.3960 -0.0101
  195MPD1    H1 2970   1.499   4.407   0.601  1.6313  0.0812 -0.7156
  195MPD1    H2 2971   1.642   4.679   0.885 -0.5762  0.4990 -3.9314
  195MPD1    H3 2972   1.543   4.632   0.683  4.3793  1.5867 -0.1182
  195MPD1     N 2973   1.550   4.177   0.729  0.6294 -0.3082 -0.7375
  195MPD1    H5 2974   1.512   4.180   0.635  0.5462  0.1686 -0.6894
  195MPD1    N1 2975   1.759   4.488   1.051 -0.2147 -0.4877 -0.5068
  195MPD1    H6 2976   1.824   4.565   1.040  0.2141 -0.6990  0.5846
  195MPD1    H7 2977   1.811   4.408   1.087  2.1816  1.3181  0.0290
  196MPD1     C 2978   2.310   0.204  17.547 -0.0757  0.4086  0.1460
  196MPD1    C1 2979   2.195   0.127  17.543 -0.1394 -0.1123 -0.0646
  196MPD1    C2 2980   2.128   0.108  17.660  0.1047  0.2538 -0.2852
  196MPD1    C3 2981   2.174   0.151   0.091  0.5568  0.6759  0.8183
  196MPD1    C4 2982   2.289   0.220   0.093  0.3297 -0.4016  0.6013
  196MPD1    C5 2983   2.355   0.249  17.669 -0.0038  0.7146 -0.9160
  196MPD1     H 2984   2.033   0.056  17.659  0.3796 -0.2878  1.1930
  196MPD1    H1 2985   2.329   0.257   0.187  1.7043  0.1053 -0.1918
  196MPD1    H2 2986   2.367   0.245  17.465  1.7178  0.4910  1.4249
  196MPD1    H3 2987   2.441   0.315  17.679  2.7603 -3.1892  0.6818
  196MPD1     N 2988   2.116   0.108   0.211 -0.2289  0.2163  0.2761
  196MPD1    H5 2989   2.152   0.148   0.297 -0.4156 -0.8882  0.8755
  196MPD1    N1 2990   2.134   0.109  17.422  0.5997 -0.1735  0.2030
  196MPD1    H6 2991   2.090   0.017  17.428  1.6494 -0.4345  3.6949
  196MPD1    H7 2992   2.208   0.097  17.354 -0.1432 -1.3902 -0.3972
  197MPD1     C 2993   1.234   2.057   0.400 -0.3038  0.2619 -0.1126
  197MPD1    C1 2994   1.281   1.940   0.336 -0.2586 -0.6754  0.3335
  197MPD1    C2 2995   1.257   1.936   0.196 -0.4825 -0.1837  0.1168
  197MPD1    C3 2996   1.206   2.043   0.133  0.1491  0.3379  0.0674
  197MPD1    C4 2997   1.170   2.157   0.201 -0.1273 -0.3973  0.0968
  197MPD1    C5 2998   1.184   2.161   0.335 -0.0474 -0.8601 -0.8661
  197MPD1     H 2999   1.284   1.848   0.139 -0.9375  0.6014 -1.3069
  197MPD1    H1 3000   1.117   2.236   0.148 -0.0452  0.4303  1.2558
  197MPD1    H2 3001   1.214   2.063   0.507 -0.6524 -0.0251 -0.1611
  197MPD1    H3 3002   1.150   2.252   0.384  1.7057  0.5787 -2.2662
  197MPD1     N 3003   1.196   2.052  17.687  0.0630  0.4033 -0.3835
  197MPD1    H5 3004   1.180   2.143  17.646  1.3090  1.8420  2.3449
  197MPD1    N1 3005   1.297   1.823   0.409 -0.0805  0.8037 -0.0639
  197MPD1    H6 3006   1.335   1.853   0.498  0.8061  2.3699 -0.9670
  197MPD1    H7 3007   1.360   1.755   0.367  1.2123  1.6675  0.4857
  198MPD1     C 3008   2.163   4.348  15.519  0.5210 -0.6637  0.1713
  198MPD1    C1 3009   2.242   4.434  15.454  0.2627 -0.0503 -0.6559
  198MPD1    C2 3010   2.339   4.489  15.531 -0.3682 -0.4849  0.0048
  198MPD1    C3 3011   2.362   4.455  15.663 -0.3373  0.0726  0.4300
  198MPD1    C4 3012   2.306   4.338  15.709 -0.3179 -0.3442  0.1935
  198MPD1    C5 3013   2.199   4.289  15.640 -0.2486  0.7501  0.3701
  198MPD1     H 3014   2.408   4.567  15.498  0.7239 -1.6170 -0.4071
  198MPD1    H1 3015   2.343   4.290  15.800  0.2322 -0.3318 -0.0238
  198MPD1    H2 3016   2.073   4.314  15.470 -0.7927  2.1824  0.6297
  198MPD1    H3 3017   2.147   4.198  15.669 -0.1816  1.1050  1.6075
  198MPD1     N 3018   2.469   4.529  15.722 -0.4175 -0.1220  0.5927
  198MPD1    H5 3019   2.498   4.615  15.676  1.2702 -1.7004 -1.2663
  198MPD1    N1 3020   2.196   4.489  15.329  0.3317 -0.2562  0.2866
  198MPD1    H6 3021   2.277   4.534  15.288 -0.6133  0.2504 -1.0276
  198MPD1    H7 3022   2.153   4.414  15.276 -0.6812  1.3545 -1.1869
  199MPD1     C 3023   4.367   4.473   9.791 -0.1559  0.5503 -0.9204
  199MPD1    C1 3024   4.481   4.545   9.816 -0.8850  0.0829  0.3963
  199MPD1    C2 3025   4.476   4.678   9.782  0.6132 -0.1902  0.3859
  199MPD1    C3 3026   4.372   0.017   9.728  0.7750 -0.3269 -0.6642
  199MPD1    C4 3027   4.260   4.668   9.696 -0.2011 -0.1264 -0.1587
  199MPD1    C5 3028   4.257   4.534   9.736 -0.6210  0.4316 -0.1053
  199MPD1     H 3029   4.571   0.003   9.799  1.0359 -1.2287  0.9515
  199MPD1    H1 3030   4.174   4.717   9.651  0.3325  0.5272 -0.4586
  199MPD1    H2 3031   4.360   4.366   9.805 -2.2258  0.7166 -0.6608
  199MPD1    H3 3032   4.167   4.474   9.744  1.0647 -1.9499  0.7842
  199MPD1     N 3033   4.360   0.158   9.702  0.4101 -0.4708  0.2141
  199MPD1    H5 3034   4.272   0.190   9.663 -0.1876  1.0033  2.8124
  199MPD1    N1 3035   4.595   4.482   9.867 -0.9797  0.5959  0.3768
  199MPD1    H6 3036   4.572   4.396   9.915 -0.7482 -0.1348 -0.8053
  199MPD1    H7 3037   4.625   4.548   9.938 -1.4901  0.0334  1.1150
  200MPD1     C 3038   2.940   1.104  15.209 -0.1038  0.3259 -0.9220
  200MPD1    C1 3039   2.957   1.153  15.083  0.9313 -0.5204 -0.5675
  200MPD1    C2 3040   3.062   1.113  15.005 -0.5476  0.2553  0.4935
  200MPD1    C3 3041   3.151   1.023  15.057 -0.1738 -0.7517  0.2595
  200MPD1    C4 3042   3.141   0.975  15.186 -0.0828  1.0871 -0.5738
  200MPD1    C5 3043   3.036   1.019  15.259 -0.5853 -0.5291 -0.2252
  200MPD1     H 3044   3.081   1.157  14.908  3.2211 -1.4359  0.4567
  200MPD1    H1 3045   3.212   0.905  15.231 -0.5958  0.9956  0.1008
  200MPD1    H2 3046   2.850   1.127  15.265  0.0387  2.4977 -1.6152
  200MPD1    H3 3047   3.012   0.982  15.358  1.0495 -0.7144  0.0966
  200MPD1     N 3048   3.256   0.983  14.975 -0.0349  0.7563  1.1558
  200MPD1    H5 3049   3.263   1.041  14.892  1.6993  2.5010  2.5205
  200MPD1    N1 3050   2.884   1.270  15.050  0.2088  0.2555  0.0656
  200MPD1    H6 3051   2.873   1.278  14.949 -1.6893  0.7045  0.3030
  200MPD1    H7 3052   2.798   1.279  15.104  1.3283  2.0101  1.5705
  201MPD1     C 3053   0.922   0.062  13.145 -0.3075 -0.1339 -1.1512
  201MPD1    C1 3054   1.019   0.042  13.053  0.0757  0.6005  0.3047
  201MPD1    C2 3055   1.123   4.681  13.085 -0.3426  0.0404 -0.3864
  201MPD1    C3 3056   1.124   4.599  13.193 -0.8750  0.0347 -0.0035
  201MPD1    C4 3057   1.017   4.609  13.275 -0.1451 -0.1489 -0.6146
  201MPD1    C5 3058   0.911   4.698  13.250  0.0833  0.3599 -0.3833
  201MPD1     H 3059   1.211   4.688  13.021 -0.3026 -0.7820 -0.4145
  201MPD1    H1 3060   1.005   4.545  13.362 -0.1051 -0.1346 -0.5988
  201MPD1    H2 3061   0.849   0.141  13.133  1.4877  1.7621  0.5754
  201MPD1    H3 3062   0.828   4.702  13.319 -1.4666 -0.8666 -2.1974
  201MPD1     N 3063   1.236   4.516  13.231  0.6444  0.5224  0.0708
  201MPD1    H5 3064   1.312   4.498  13.166  0.4051 -0.1492 -0.0273
  201MPD1    N1 3065   1.035   0.130  12.945  0.3591 -0.0585 -0.4360
  201MPD1    H6 3066   0.949   0.182  12.931 -0.5077 -1.4564 -0.2799
  201MPD1    H7 3067   1.064   0.086  12.858  0.5256 -0.1614 -0.3295
  202MPD1     C 3068   1.327   4.423   8.969 -0.6875  0.3883  0.4024
  202MPD1    C1 3069   1.295   4.287   8.977 -0.4542  0.9477 -0.3491
  202MPD1    C2 3070   1.316   4.228   9.104  0.0779  0.5949 -0.3930
  202MPD1    C3 3071   1.329   4.294   9.222 -0.8584 -0.3196 -0.3768
  202MPD1    C4 3072   1.348   4.435   9.209 -0.3399  0.2913 -0.2427
  202MPD1    C5 3073   1.339   4.501   9.085  0.4629 -0.1248  0.2495
  202MPD1     H 3074   1.311   4.120   9.102  0.6493  0.5570  0.8530
  202MPD1    H1 3075   1.352   4.488   9.303 -0.5505  1.5815 -0.9711
  202MPD1    H2 3076   1.331   4.476   8.875 -0.8971  2.9486  1.8440
  202MPD1    H3 3077   1.346   4.608   9.076  2.4341 -0.3135 -0.3888
  202MPD1     N 3078   1.326   4.236   9.354  0.6294  0.6310 -0.3959
  202MPD1    H5 3079   1.347   4.301   9.430 -1.4840  0.9240 -0.0531
  202MPD1    N1 3080   1.314   4.211   8.859  0.1569 -0.0407  0.1773
  202MPD1    H6 3081   1.261   4.124   8.861 -0.7462  0.4829 -2.3231
  202MPD1    H7 3082   1.289   4.269   8.780 -0.6805 -0.9581 -0.2305
  203MPD1     C 3083   0.134   0.774  12.491 -0.0997  0.6061  0.4255
  203MPD1    C1 3084   0.147   0.686  12.383  0.7115  0.3133  0.4505
  203MPD1    C2 3085   0.144   0.549  12.405 -0.1710  0.3566  0.2362
  203MPD1    C3 3086   0.147   0.496  12.531 -0.0729  0.0513  0.0294
  203MPD1    C4 3087   0.148   0.580  12.638  0.5531  0.3607 -0.0390
  203MPD1    C5 3088   0.138   0.720  12.617  0.0226 -0.4627  0.1184
  203MPD1     H 3089   0.129   0.478  12.324  0.8658 -0.8279  1.0768
  203MPD1    H1 3090   0.143   0.551  12.742 -1.8682  0.1528 -0.2210
  203MPD1    H2 3091   0.131   0.882  12.479  0.7774  0.3169 -2.3796
  203MPD1    H3 3092   0.134   0.779  12.707  1.9648 -0.7391  0.3838
  203MPD1     N 3093   0.153   0.354  12.534 -0.0903 -0.4268  0.1725
  203MPD1    H5 3094   0.146   0.312  12.442 -4.1269 -0.1209  0.3242
  203MPD1    N1 3095   0.114   0.739  12.263 -0.2179  0.1144  0.6327
  203MPD1    H6 3096   0.162   0.684  12.192 -0.7706 -2.0260  1.9155
  203MPD1    H7 3097   0.144   0.835  12.251  1.7703 -0.3134  2.3443
  204MPD1     C 3098   4.424   0.984   0.598  0.1669 -0.4750 -0.7578
  204MPD1    C1 3099   4.330   1.024   0.508 -0.2104  0.2429  0.2264
  204MPD1    C2 3100   4.321   0.948   0.389 -0.6918  0.1064  0.1795
  204MPD1    C3 3101   4.382   0.825   0.383  0.0157 -0.2180 -0.2562
  204MPD1    C4 3102   4.477   0.787   0.478  0.3725 -0.3715 -0.1894
  204MPD1    C5 3103   4.494   0.870   0.585  0.7308  0.1115  0.2572
  204MPD1     H 3104   4.259   0.982   0.306  0.1825 -0.4122 -0.6903
  204MPD1    H1 3105   4.540   0.698   0.478  1.3851  0.3548  1.9297
  204MPD1    H2 3106   4.454   1.040   0.686  0.1074  0.1690 -1.1515
  204MPD1    H3 3107   4.579   0.851   0.649 -0.2984 -2.6954  0.7642
  204MPD1     N 3108   4.351   0.747   0.268 -0.4884 -0.5294 -0.1023
  204MPD1    H5 3109   4.282   0.784   0.204 -0.2327  0.5218  0.2294
  204MPD1    N1 3110   4.265   1.151   0.531 -0.0489  0.7552  0.0340
  204MPD1    H6 3111   4.258   1.173   0.630  0.7560 -1.1206  0.5043
  204MPD1    H7 3112   4.166   1.149   0.508 -0.0342  1.3390 -0.0717
  205MPD1     C 3113   3.983   3.957  16.758  0.2163 -0.0534  0.3832
  205MPD1    C1 3114   3.945   3.980  16.878 -0.4850 -0.7318  0.2602
  205MPD1    C2 3115   4.029   4.042  16.970 -0.3096 -0.0936  1.1608
  205MPD1    C3 3116   4.160   4.071  16.932 -1.2106 -0.7745  0.7628
  205MPD1    C4 3117   4.203   4.051  16.803 -0.0433 -0.8462  0.5455
  205MPD1    C5 3118   4.109   4.002  16.722  0.1490 -0.5529  0.8505
  205MPD1     H 3119   3.994   4.058  17.071  0.8358  0.6845  1.4352
  205MPD1    H1 3120   4.293   4.089  16.755 -0.7766  0.2271  0.0343
  205MPD1    H2 3121   3.923   3.915  16.678  0.8357 -1.0739  0.4426
  205MPD1    H3 3122   4.144   3.979  16.622  1.4447  1.4762  0.8427
  205MPD1     N 3123   4.259   4.128  17.013  0.2711 -0.0059 -0.2005
  205MPD1    H5 3124   4.347   4.139  16.964  0.3842 -0.9691 -0.2272
  205MPD1    N1 3125   3.805   3.961  16.916  0.2017  0.1738 -0.5058
  205MPD1    H6 3126   3.797   3.934  17.014 -1.2760  0.3946 -0.5698
  205MPD1    H7 3127   3.751   3.899  16.855 -1.9722  2.3533 -0.7859
  206MPD1     C 3128   0.039   3.477  16.941 -0.4623  1.2727  0.5359
  206MPD1    C1 3129   0.111   3.383  16.868 -0.4169  0.2614  0.0145
  206MPD1    C2 3130   0.041   3.310  16.769 -0.4079  0.8587 -0.1769
  206MPD1    C3 3131   4.632   3.335  16.745  0.8230  0.0038  0.0851
  206MPD1    C4 3132   4.570   3.431  16.824  0.4318  0.3919  0.1113
  206MPD1    C5 3133   4.636   3.504  16.916 -0.0532 -1.0831  0.1815
  206MPD1     H 3134   0.103   3.239  16.715 -0.3893  0.1933  0.7199
  206MPD1    H1 3135   4.467   3.458  16.805  0.3890  0.4740  0.4703
  206MPD1    H2 3136   0.092   3.528  17.020  0.3881  0.5042  0.4683
  206MPD1    H3 3137   4.583   3.587  16.960  3.5746 -0.4936  3.4437
  206MPD1     N 3138   4.553   3.279  16.643  0.2489  0.2088  0.3807
  206MPD1    H5 3139   4.466   3.322  16.613 -0.4880 -0.7260  1.2230
  206MPD1    N1 3140   0.243   3.365  16.902  0.3467  0.1673  0.1771
  206MPD1    H6 3141   0.305   3.436  16.941  2.4722 -1.8359  0.4769
  206MPD1    H7 3142   0.301   3.309  16.839 -0.6325 -0.8503  0.1917
  207MPD1     C 3143   1.335   0.785   8.858  0.3569  0.0256 -0.7043
  207MPD1    C1 3144   1.367   0.918   8.891 -0.0304  0.3368  0.4376
  207MPD1    C2 3145   1.438   0.935   9.009 -0.2777 -0.8079  0.0922
  207MPD1    C3 3146   1.493   0.822   9.072 -0.7839  0.0593 -0.2218
  207MPD1    C4 3147   1.474   0.696   9.032  0.1769 -0.0317  0.4942
  207MPD1    C5 3148   1.388   0.678   8.919  0.4998 -0.2425 -0.0012
  207MPD1     H 3149   1.451   1.035   9.048 -0.7916 -0.8785  0.4402
  207MPD1    H1 3150   1.504   0.614   9.095  0.4590  1.5323  2.3878
  207MPD1    H2 3151   1.272   0.766   8.772 -1.6668  1.7561  0.3825
  207MPD1    H3 3152   1.354   0.579   8.892 -0.9239  0.8917 -2.3100
  207MPD1     N 3153   1.558   0.830   9.197  0.2637 -0.0910  0.4208
  207MPD1    H5 3154   1.601   0.747   9.235  2.2944 -0.4576 -2.6280
  207MPD1    N1 3155   1.287   1.024   8.830  0.4313 -0.3693 -0.4348
  207MPD1    H6 3156   1.264   1.008   8.733 -0.4404 -0.7641 -0.1606
  207MPD1    H7 3157   1.334   1.112   8.855 -0.2511 -0.4776  1.2576
  208MPD1     C 3158   1.376   0.356  17.505  0.4250  0.1195 -0.4487
  208MPD1    C1 3159   1.305   0.338  17.624  0.4333 -0.3942  0.1806
  208MPD1    C2 3160   1.191   0.257  17.616 -0.5376 -0.0167 -0.1493
  208MPD1    C3 3161   1.167   0.189  17.498  0.3051  0.8003  0.2339
  208MPD1    C4 3162   1.237   0.204  17.384 -0.2028 -0.5348 -0.1072
  208MPD1    C5 3163   1.336   0.305  17.385  0.5305 -0.0191 -0.2267
  208MPD1     H 3164   1.141   0.237   0.016  0.3161  0.5079  0.4250
  208MPD1    H1 3165   1.220   0.153  17.290  0.0420  0.7186 -0.8279
  208MPD1    H2 3166   1.466   0.416  17.507  1.0780 -0.8344 -1.0563
  208MPD1    H3 3167   1.409   0.316  17.306  0.6143 -0.1712 -0.1720
  208MPD1     N 3168   1.070   0.089  17.516  0.4262 -0.8522 -0.0600
  208MPD1    H5 3169   1.005   0.085  17.593  0.4130  0.7347  0.0271
  208MPD1    N1 3170   1.338   0.413   0.042  0.1526 -0.5783 -0.8176
  208MPD1    H6 3171   1.315   0.365   0.129  1.7806 -0.3194 -0.2350
  208MPD1    H7 3172   1.440   0.410   0.036  0.1055  0.0700 -1.7731
  209MPD1     C 3173   2.137   0.367  10.970 -0.4622  0.6397  0.4996
  209MPD1    C1 3174   2.018   0.308  10.994 -0.4658 -0.0654 -0.2482
  209MPD1    C2 3175   1.929   0.302  10.885 -0.2852 -0.3286 -0.1835
  209MPD1    C3 3176   1.953   0.365  10.766  0.4252  0.3912 -1.1165
  209MPD1    C4 3177   2.071   0.444  10.757  0.0120  0.5102 -0.0070
  209MPD1    C5 3178   2.168   0.427  10.851 -0.3158  0.2465  0.7643
  209MPD1     H 3179   1.842   0.238  10.897 -0.3159  0.0686  1.6956
  209MPD1    H1 3180   2.099   0.498  10.667 -0.2867  1.4607  0.4726
  209MPD1    H2 3181   2.218   0.370  11.043  2.1234  1.5182 -2.3989
  209MPD1    H3 3182   2.256   0.489  10.840 -0.3396  0.5141  2.0450
  209MPD1     N 3183   1.845   0.373  10.672  0.2185  0.8786 -0.1884
  209MPD1    H5 3184   1.754   0.335  10.696  0.0151  0.6223 -1.3940
  209MPD1    N1 3185   2.001   0.235  11.111 -0.2731  0.7253  0.0122
  209MPD1    H6 3186   1.906   0.211  11.137 -1.5671  1.5259 -3.8681
  209MPD1    H7 3187   2.055   0.283  11.183 -0.1138  0.8178 -0.1661
  210MPD1     C 3188   0.989   0.481  10.831  0.2224 -0.0372 -0.0574
  210MPD1    C1 3189   0.990   0.403  10.715 -0.2600  0.2767 -0.2126
  210MPD1    C2 3190   1.106   0.392  10.637 -0.2897 -1.4348 -0.2485
  210MPD1    C3 3191   1.216   0.469  10.668  0.5108 -0.1267 -0.2581
  210MPD1    C4 3192   1.214   0.556  10.779 -0.5196  0.3252  0.6219
  210MPD1    C5 3193   1.107   0.554  10.867 -0.5680  1.0204 -0.0215
  210MPD1     H 3194   1.104   0.322  10.554 -1.7666 -0.5171 -0.9834
  210MPD1    H1 3195   1.304   0.605  10.814  0.4612 -2.1979  1.6472
  210MPD1    H2 3196   0.916   0.490  10.911  0.0953  0.3660 -0.2221
  210MPD1    H3 3197   1.112   0.605  10.962  0.9096  0.4932  0.1976
  210MPD1     N 3198   1.334   0.462  10.600  0.1687 -0.2165 -0.3283
  210MPD1    H5 3199   1.406   0.523  10.639 -1.0028 -0.3146  1.9602
  210MPD1    N1 3200   0.887   0.308  10.700  0.2502 -0.1820 -0.3905
  210MPD1    H6 3201   0.872   0.272  10.606  1.9497  0.0776 -0.7660
  210MPD1    H7 3202   0.795   0.334  10.735  0.3139 -1.7406  0.9436
  211MPD1     C 3203   0.588   4.527  16.033  0.7035 -0.5464 -0.5636
  211MPD1    C1 3204   0.482   4.461  16.084 -0.4708 -0.1655  0.1690
  211MPD1    C2 3205   0.355   4.528  16.086  0.0128  0.0129 -0.1648
  211MPD1    C3 3206   0.345   4.665  16.046  0.4696 -0.2149 -0.1177
  211MPD1    C4 3207   0.464   0.002  15.992  0.7541  0.4526 -0.3553
  211MPD1    C5 3208   0.582   4.656  15.984 -0.2878  0.2497 -0.1191
  211MPD1     H 3209   0.263   4.477  16.111 -0.6890  1.0016 -0.7226
  211MPD1    H1 3210   0.459   0.102  15.949  0.5191  0.3347 -0.6015
  211MPD1    H2 3211   0.686   4.484  16.012  1.6287  0.5000  1.6146
  211MPD1    H3 3212   0.671   4.708  15.950  0.6587  0.4947  2.6504
  211MPD1     N 3213   0.222   0.009  16.051  0.3076  0.2396  0.3376
  211MPD1    H5 3214   0.140   4.676  16.072 -0.6133  1.0038 -1.2136
  211MPD1    N1 3215   0.488   4.323  16.109 -0.3414  0.0345 -0.0405
  211MPD1    H6 3216   0.424   4.303  16.185 -0.2305  0.4966  0.1754
  211MPD1    H7 3217   0.582   4.294  16.136 -0.3237 -0.3412 -0.5130
  212MPD1     C 3218   4.149   3.109  16.487 -0.7780 -0.4611  0.2349
  212MPD1    C1 3219   4.146   3.162  16.614  0.4270  0.6657 -0.3171
  212MPD1    C2 3220   4.084   3.087  16.713 -0.0878  0.9388  0.0556
  212MPD1    C3 3221   4.019   2.969  16.682  0.1276  0.8503 -0.2328
  212MPD1    C4 3222   4.040   2.912  16.557  0.5425  0.2450 -0.1009
  212MPD1    C5 3223   4.104   2.980  16.461 -0.0778 -1.6267 -0.3583
  212MPD1     H 3224   4.073   3.134  16.810  1.6479  0.5258  0.4434
  212MPD1    H1 3225   4.004   2.816  16.523 -1.3852  0.0854  2.3625
  212MPD1    H2 3226   4.186   3.166  16.403  1.2673 -1.0669  0.7223
  212MPD1    H3 3227   4.125   2.941  16.362 -0.9615  0.8857 -1.5348
  212MPD1     N 3228   3.949   2.890  16.782 -0.7972  0.2126 -0.0906
  212MPD1    H5 3229   3.922   2.797  16.753  0.6410 -0.3910  0.4761
  212MPD1    N1 3230   4.181   3.295  16.625  0.1146 -0.3851  0.0881
  212MPD1    H6 3231   4.103   3.359  16.611  0.2439  0.1611  1.8028
  212MPD1    H7 3232   4.220   3.307  16.719  1.0683  1.3105 -0.5302
  213MPD1     C 3233   2.592   3.192  16.257  0.3978 -0.0429 -0.6831
  213MPD1    C1 3234   2.473   3.192  16.184  0.3365  0.5141 -0.0815
  213MPD1    C2 3235   2.467   3.287  16.085 -0.1158  0.8586 -0.6664
  213MPD1    C3 3236   2.547   3.399  16.080 -0.3226  0.0514 -0.9484
  213MPD1    C4 3237   2.649   3.408  16.168  0.2974  0.4459 -0.3202
  213MPD1    C5 3238   2.674   3.306  16.255  0.6293 -0.3470 -0.0569
  213MPD1     H 3239   2.384   3.278  16.016  0.1435 -2.9647 -0.4671
  213MPD1    H1 3240   2.716   3.494  16.165  1.5365 -0.5685 -1.6435
  213MPD1    H2 3241   2.606   3.129  16.345  1.8974 -1.2769 -1.8008
  213MPD1    H3 3242   2.747   3.315  16.334  0.6841 -0.5094 -0.0894
  213MPD1     N 3243   2.523   3.498  15.978  0.6235 -0.1093  0.2512
  213MPD1    H5 3244   2.445   3.477  15.917  0.4446  1.9502 -0.2434
  213MPD1    N1 3245   2.412   3.068  16.172 -0.0031 -0.2270 -0.0682
  213MPD1    H6 3246   2.323   3.094  16.131 -0.8226 -3.5294 -0.3293
  213MPD1    H7 3247   2.391   3.018  16.258  0.8062  0.4397  0.5241
  214MPD1     C 3248   1.815   3.608  15.552  0.7903 -0.8090 -0.4903
  214MPD1    C1 3249   1.859   3.733  15.518 -0.3428  0.6873  0.2515
  214MPD1    C2 3250   1.990   3.772  15.555  0.6874 -0.3288 -0.0783
  214MPD1    C3 3251   2.061   3.691  15.641 -0.4302 -0.3586 -0.2477
  214MPD1    C4 3252   2.009   3.571  15.684  0.0811 -0.0189 -0.2434
  214MPD1    C5 3253   1.884   3.532  15.638  0.2220 -0.2522 -0.6784
  214MPD1     H 3254   2.037   3.864  15.523  2.3767 -0.9053  0.8002
  214MPD1    H1 3255   2.060   3.506  15.754 -1.1243  0.7565  1.3637
  214MPD1    H2 3256   1.727   3.561  15.508 -0.2433  1.6399 -1.0142
  214MPD1    H3 3257   1.846   3.431  15.651  0.4975 -0.5382 -2.1108
  214MPD1     N 3258   2.192   3.728  15.695 -0.4418 -0.0290  0.4729
  214MPD1    H5 3259   2.253   3.655  15.728 -0.2719 -0.0231  0.1713
  214MPD1    N1 3260   1.786   3.808  15.422 -0.2565 -0.0013 -0.1893
  214MPD1    H6 3261   1.686   3.793  15.410  0.0730 -0.6645 -2.0409
  214MPD1    H7 3262   1.803   3.908  15.424 -0.4200 -0.0056  1.3558
  215MPD1     C 3263   1.093   0.153  11.215 -0.2502 -0.0618  0.0783
  215MPD1    C1 3264   1.073   0.208  11.093 -0.7034  0.2029  0.1393
  215MPD1    C2 3265   1.182   0.274  11.041  0.4239 -0.3937  0.1955
  215MPD1    C3 3266   1.298   0.295  11.114  0.3745  0.1843  0.1932
  215MPD1    C4 3267   1.314   0.232  11.234  0.0545 -0.0851 -0.4471
  215MPD1    C5 3268   1.207   0.166  11.290  0.1963 -0.3177  0.8458
  215MPD1     H 3269   1.179   0.304  10.937 -1.6146 -3.0299 -0.5084
  215MPD1    H1 3270   1.402   0.240  11.297  0.4677 -2.3177 -0.7322
  215MPD1    H2 3271   1.009   0.098  11.257 -0.7042 -0.1748 -0.9836
  215MPD1    H3 3272   1.215   0.122  11.389  0.2118 -1.0261  0.5212
  215MPD1     N 3273   1.405   0.360  11.054  0.6967 -0.2580  0.6656
  215MPD1    H5 3274   1.388   0.407  10.966  1.1479 -1.3799 -0.0307
  215MPD1    N1 3275   0.963   0.179  11.013 -0.7595  0.0456  0.6858
  215MPD1    H6 3276   0.940   0.252  10.946  0.7173  0.5711  0.7381
  215MPD1    H7 3277   0.884   0.147  11.069 -0.6538  0.0845  0.8578
  216MPD1     C 3278   4.458   2.897  16.766  0.2948 -1.0985 -1.1457
  216MPD1    C1 3279   4.516   2.843  16.875 -0.3078 -0.4561  0.1836
  216MPD1    C2 3280   4.452   2.743  16.940  0.0353  0.5889 -0.5562
  216MPD1    C3 3281   4.333   2.684  16.895 -0.7668 -0.3013 -0.4489
  216MPD1    C4 3282   4.274   2.736  16.781  0.3140 -0.5885  0.8482
  216MPD1    C5 3283   4.341   2.836  16.708  1.3903  0.1554 -0.5525
  216MPD1     H 3284   4.483   2.697  17.033 -2.7908  0.2212  0.2020
  216MPD1    H1 3285   4.185   2.690  16.741  0.3503  0.1630 -0.0885
  216MPD1    H2 3286   4.502   2.984  16.718 -0.5778  0.2192  0.4813
  216MPD1    H3 3287   4.310   2.861  16.607 -1.0262  0.8479  0.3513
  216MPD1     N 3288   4.287   2.569  16.963 -0.6635  0.0791  0.2160
  216MPD1    H5 3289   4.341   2.526  17.039  0.2337 -0.6435 -0.8316
  216MPD1    N1 3290   4.643   2.880  16.912 -0.3054 -0.2986 -0.5659
  216MPD1    H6 3291   4.674   2.843  17.001  0.4930 -0.1436 -0.7789
  216MPD1    H7 3292   4.652   2.980  16.896  2.5376 -0.4083  0.3916
  217MPD1     C 3293   4.445   0.110   8.986 -0.8451 -0.3923  1.3312
  217MPD1    C1 3294   4.340   0.020   9.010 -0.4198 -0.1579 -0.2297
  217MPD1    C2 3295   4.377   4.609   9.030 -0.1222 -0.3206  0.4392
  217MPD1    C3 3296   4.508   4.570   9.051 -0.4158  0.5201  0.5504
  217MPD1    C4 3297   4.605   4.674   9.048  0.1098 -0.3793 -0.0310
  217MPD1    C5 3298   4.573   0.078   9.014  0.7707 -1.2890 -0.6577
  217MPD1     H 3299   4.297   4.537   9.042 -0.3800  0.0928  1.2190
  217MPD1    H1 3300   4.708   4.650   9.072 -0.3965 -1.0526  1.4480
  217MPD1    H2 3301   4.422   0.214   8.962  0.9076 -0.8557 -2.4602
  217MPD1    H3 3302   4.655   0.150   9.009 -1.5059  1.2425 -1.4764
  217MPD1     N 3303   4.547   4.439   9.069  0.7357  0.5214 -0.1449
  217MPD1    H5 3304   4.643   4.423   9.098  0.8903  1.2852 -0.2195
  217MPD1    N1 3305   4.208   0.049   8.967  0.4245  0.8678  0.4287
  217MPD1    H6 3306   4.183   0.146   8.986 -1.1040  0.2610  1.5811
  217MPD1    H7 3307   4.133   4.714   9.004  0.3141  0.4215 -0.5036
  218MPD1     C 3308   1.374   0.818  12.788  0.3940  1.0638 -0.8291
  218MPD1    C1 3309   1.498   0.867  12.742  0.4336 -0.4106 -0.7280
  218MPD1    C2 3310   1.586   0.780  12.676  0.0712 -0.0836  0.3003
  218MPD1    C3 3311   1.560   0.648  12.654  0.1263  0.6024  0.6548
  218MPD1    C4 3312   1.430   0.601  12.694 -0.2240  0.3399 -0.3900
  218MPD1    C5 3313   1.346   0.676  12.774  0.4511  0.4563  0.0564
  218MPD1     H 3314   1.682   0.824  12.650 -0.1171  0.7586  1.0339
  218MPD1    H1 3315   1.380   0.507  12.675  2.2651 -0.7386 -1.5462
  218MPD1    H2 3316   1.296   0.884  12.825  0.8463  0.2575  1.5455
  218MPD1    H3 3317   1.254   0.626  12.802 -1.4288  2.5096 -2.3611
  218MPD1     N 3318   1.653   0.559  12.592  0.7331 -0.3866 -0.1026
  218MPD1    H5 3319   1.736   0.608  12.561 -0.1923  1.2833  0.0635
  218MPD1    N1 3320   1.526   1.004  12.755  1.0302 -0.3465  0.2913
  218MPD1    H6 3321   1.622   1.038  12.746  0.8324 -0.3812 -1.9383
  218MPD1    H7 3322   1.474   1.053  12.828  0.9882 -0.3994  0.2966
  219MPD1     C 3323   2.182   0.748  11.930  0.3235 -0.0864 -0.3410
  219MPD1    C1 3324   2.236   0.627  11.968  0.7504 -0.4726  0.6576
  219MPD1    C2 3325   2.163   0.550  12.056  0.3286  0.2584  0.5001
  219MPD1    C3 3326   2.052   0.597  12.122  0.0254 -0.4359  0.0376
  219MPD1    C4 3327   2.007   0.725  12.088 -0.5991 -0.6405 -0.2241
  219MPD1    C5 3328   2.082   0.802  12.002  0.3519  0.2099  0.2357
  219MPD1     H 3329   2.202   0.452  12.078 -1.3725 -0.5523 -0.1695
  219MPD1    H1 3330   1.925   0.771  12.141 -0.7145 -1.1030  0.0039
  219MPD1    H2 3331   2.229   0.814  11.859 -2.0412  1.8594 -0.1197
  219MPD1    H3 3332   2.065   0.905  11.976 -1.3323  0.1091  0.9616
  219MPD1     N 3333   1.984   0.527  12.224 -0.8387  0.8281  0.0246
  219MPD1    H5 3334   1.891   0.566  12.234 -0.5733  1.0881  1.4365
  219MPD1    N1 3335   2.341   0.567  11.893  0.2713  0.8655  0.2230
  219MPD1    H6 3336   2.418   0.632  11.879 -0.1430  0.9577 -1.5231
  219MPD1    H7 3337   2.385   0.487  11.938 -0.8822  0.9204  1.4461
  220MPD1     C 3338   1.053   1.068   9.348 -0.1315  0.1781  0.2849
  220MPD1    C1 3339   1.192   1.072   9.354 -0.0848  0.0344 -1.0719
  220MPD1    C2 3340   1.254   1.010   9.464 -0.0767  0.2572  0.2307
  220MPD1    C3 3341   1.180   0.934   9.560  0.8971 -0.3873 -0.8298
  220MPD1    C4 3342   1.040   0.935   9.552  0.0563 -0.1600  0.6803
  220MPD1    C5 3343   0.987   0.998   9.446 -0.0808 -0.2042  0.3206
  220MPD1     H 3344   1.362   1.002   9.459 -0.0703 -0.4010  1.4399
  220MPD1    H1 3345   0.978   0.874   9.616  1.0189 -0.8849  0.9298
  220MPD1    H2 3346   1.000   1.126   9.273 -2.5452 -1.0998  1.0312
  220MPD1    H3 3347   0.881   0.982   9.430  0.0409  1.3469 -2.0068
  220MPD1     N 3348   1.236   0.853   9.663  0.5139 -0.0318 -0.5126
  220MPD1    H5 3349   1.167   0.810   9.724  1.1191  1.3737  1.1762
  220MPD1    N1 3350   1.265   1.141   9.254  0.2419 -0.1347 -0.4261
  220MPD1    H6 3351   1.360   1.106   9.241 -0.0754 -0.6725 -1.3142
  220MPD1    H7 3352   1.225   1.135   9.161  1.1256  1.1854 -0.8964
  221MPD1     C 3353   3.422   4.314  16.542  0.3896  0.4408  0.0126
  221MPD1    C1 3354   3.481   4.427  16.576 -0.7101 -0.4465  0.3558
  221MPD1    C2 3355   3.620   4.435  16.569 -0.7708 -0.2134  0.3378
  221MPD1    C3 3356   3.708   4.326  16.547  0.0123  0.2376 -0.0425
  221MPD1    C4 3357   3.643   4.208  16.522 -0.0381  0.4403  0.2163
  221MPD1    C5 3358   3.502   4.203  16.513  0.4370 -0.6092  0.2677
  221MPD1     H 3359   3.652   4.538  16.584 -3.8711  0.6851  0.7290
  221MPD1    H1 3360   3.703   4.119  16.510 -1.2606 -0.2301 -0.9467
  221MPD1    H2 3361   3.314   4.304  16.537  0.2856  0.0303  3.2877
  221MPD1    H3 3362   3.460   4.108  16.484  0.9705  0.1083 -2.8483
  221MPD1     N 3363   3.845   4.336  16.550 -0.1138 -0.2410  0.9265
  221MPD1    H5 3364   3.901   4.256  16.522 -0.7799 -0.4959  0.3289
  221MPD1    N1 3365   3.414   4.552  16.593  0.5926  0.1724  0.0954
  221MPD1    H6 3366   3.458   4.609  16.665 -0.0944  1.1376 -0.2516
  221MPD1    H7 3367   3.314   4.546  16.608  0.5578  0.4963 -0.0069
  222MPD1     C 3368   3.418   3.515  16.964  0.9534 -0.0688  0.5222
  222MPD1    C1 3369   3.542   3.447  16.975 -0.3776  0.1071  0.7458
  222MPD1    C2 3370   3.584   3.405  17.100  0.1655  0.0526  0.4510
  222MPD1    C3 3371   3.511   3.438  17.212  0.6032 -0.0107  0.4561
  222MPD1    C4 3372   3.397   3.518  17.198 -0.0006  0.0468  0.0034
  222MPD1    C5 3373   3.351   3.543  17.074  0.3552 -0.4159  0.0981
  222MPD1     H 3374   3.663   3.331  17.111  0.1341 -0.1764 -0.8803
  222MPD1    H1 3375   3.342   3.553  17.284  1.0221  0.7694  0.3639
  222MPD1    H2 3376   3.389   3.553  16.867 -0.3504  0.6439  1.1857
  222MPD1    H3 3377   3.259   3.597  17.056  1.0377  0.2194 -1.4673
  222MPD1     N 3378   3.553   3.402  17.341  0.2829  0.5370 -0.5230
  222MPD1    H5 3379   3.492   3.433  17.416 -1.4659  1.4598 -2.3498
  222MPD1    N1 3380   3.613   3.391  16.865 -0.1500 -0.1141 -0.9142
  222MPD1    H6 3381   3.710   3.365  16.882 -0.5000 -0.6892  0.2303
  222MPD1    H7 3382   3.604   3.440  16.776  2.0939  0.1620 -1.0054
  223MPD1     C 3383   3.919   2.540  17.667 -1.2000 -0.2774 -0.4634
  223MPD1    C1 3384   3.935   2.619  17.553 -1.5436 -0.2294 -0.1356
  223MPD1    C2 3385   3.869   2.739  17.542 -0.5844 -0.4073  0.3370
  223MPD1    C3 3386   3.812   2.793  17.653  0.3338  0.1628  0.6554
  223MPD1    C4 3387   3.806   2.718   0.074 -0.2477  0.1518  0.3975
  223MPD1    C5 3388   3.859   2.592   0.082  0.4299 -0.6880  0.8169
  223MPD1     H 3389   3.882   2.795  17.451  2.8471  0.8545  1.6203
  223MPD1    H1 3390   3.742   2.747   0.157  0.1125  0.2633  0.6344
  223MPD1    H2 3391   3.955   2.438  17.681 -0.1684  0.7048  4.2608
  223MPD1    H3 3392   3.849   2.530   0.170  1.5801 -0.3532  1.1928
  223MPD1     N 3393   3.768   2.925  17.641  0.9050  0.2589  0.2531
  223MPD1    H5 3394   3.794   2.969  17.554  3.7778  1.0928  1.5581
  223MPD1    N1 3395   3.990   2.554  17.437  0.2038  0.1718 -0.0277
  223MPD1    H6 3396   4.029   2.623  17.373 -1.1632  0.2258 -0.8007
  223MPD1    H7 3397   4.053   2.477  17.457  0.7986  1.2775  2.3234
  224MPD1     C 3398   0.327   0.326   8.982  1.0727 -0.0367  0.7261
  224MPD1    C1 3399   0.455   0.312   9.034  0.0941 -0.5016 -0.5759
  224MPD1    C2 3400   0.475   0.228   9.143  0.3515 -0.1398  0.0074
  224MPD1    C3 3401   0.368   0.163   9.205  0.4474 -1.6068  0.6409
  224MPD1    C4 3402   0.239   0.187   9.157  0.0086  0.6077  0.0049
  224MPD1    C5 3403   0.225   0.278   9.056  0.1938  0.2034 -0.3833
  224MPD1     H 3404   0.575   0.203   9.176  0.5915 -1.1427 -1.4606
  224MPD1    H1 3405   0.152   0.138   9.199 -0.5893  0.7268 -1.1051
  224MPD1    H2 3406   0.313   0.396   8.900  0.7563 -1.7144 -0.6645
  224MPD1    H3 3407   0.126   0.314   9.032 -0.3420  0.6413  2.5065
  224MPD1     N 3408   0.380   0.066   9.307 -0.4574  0.1642 -0.0752
  224MPD1    H5 3409   0.292   0.033   9.346 -1.0114 -1.1915 -2.4896
  224MPD1    N1 3410   0.562   0.351   8.948 -0.4443  0.1564 -0.0499
  224MPD1    H6 3411   0.550   0.440   8.900  1.2749 -0.0954 -0.9201
  224MPD1    H7 3412   0.645   0.369   9.004  0.2722  0.9463 -1.3911
  225MPD1     C 3413   2.264   1.576  12.275  0.3390  0.0050  0.3610
  225MPD1    C1 3414   2.256   1.482  12.177  1.0498  0.1575  0.1300
  225MPD1    C2 3415   2.127   1.462  12.127 -0.1535 -0.0668 -0.4244
  225MPD1    C3 3416   2.022   1.553  12.152 -0.3955 -0.1419  0.3296
  225MPD1    C4 3417   2.044   1.662  12.232  0.0507 -1.0204 -0.2204
  225MPD1    C5 3418   2.164   1.670  12.296  0.0838  0.3946 -0.1350
  225MPD1     H 3419   2.119   1.378  12.059  2.0296 -0.5037 -0.1265
  225MPD1    H1 3420   1.973   1.744  12.240  0.0905 -0.8273 -1.8462
  225MPD1    H2 3421   2.351   1.586  12.339  0.5948 -2.0356  0.3330
  225MPD1    H3 3422   2.182   1.757  12.358  1.4199  0.1416 -0.1636
  225MPD1     N 3423   1.892   1.528  12.098 -0.4018 -0.0966  0.3435
  225MPD1    H5 3424   1.827   1.605  12.112 -1.3367 -0.6744 -0.8103
  225MPD1    N1 3425   2.353   1.385  12.163  0.7178  0.1721  0.0285
  225MPD1    H6 3426   2.361   1.350  12.068  1.9326  1.5630 -0.3728
  225MPD1    H7 3427   2.449   1.413  12.180  0.8080  1.4360 -2.6917
  226MPD1     C 3428   4.608   4.003   9.447  0.1850  0.0569 -0.0660
  226MPD1    C1 3429   4.471   4.020   9.454  0.4964 -0.0727  0.4051
  226MPD1    C2 3430   4.421   4.149   9.465  0.1201  0.3113  0.3448
  226MPD1    C3 3431   4.495   4.260   9.427 -0.0908 -0.5637  0.0078
  226MPD1    C4 3432   4.629   4.237   9.407  0.0469 -0.0341 -0.3120
  226MPD1    C5 3433   4.681   4.116   9.422 -0.4962 -0.3211  0.1626
  226MPD1     H 3434   4.320   4.163   9.501  0.5243  2.5507  0.6387
  226MPD1    H1 3435   4.691   4.319   9.372 -2.8527  1.6220 -1.5570
  226MPD1    H2 3436   4.658   3.907   9.448  2.4426  1.2486  1.3051
  226MPD1    H3 3437   0.066   4.116   9.415 -0.4608 -1.2670  0.8037
  226MPD1     N 3438   4.438   4.389   9.418 -0.3555  0.4429  0.2476
  226MPD1    H5 3439   4.338   4.401   9.430 -0.2180  0.5192  1.3252
  226MPD1    N1 3440   4.387   3.916   9.486  0.3599 -0.4235 -0.2197
  226MPD1    H6 3441   4.294   3.927   9.446  1.6720 -0.2924 -3.2057
  226MPD1    H7 3442   4.421   3.831   9.441 -0.0869 -0.0427 -1.2761
  227MPD1     C 3443   3.603   4.553   9.458 -0.2352  0.4423  0.3170
  227MPD1    C1 3444   3.697   4.459   9.493 -0.9207 -0.3345  0.0445
  227MPD1    C2 3445   3.830   4.482   9.451  0.0135 -0.8432  0.1205
  227MPD1    C3 3446   3.870   4.606   9.397  0.0350 -0.4381 -0.2842
  227MPD1    C4 3447   3.767   4.697   9.357 -0.0121 -0.4534  0.6473
  227MPD1    C5 3448   3.634   4.663   9.380 -0.1811 -0.8566  0.1471
  227MPD1     H 3449   3.904   4.408   9.479  1.4250  0.7631  0.6460
  227MPD1    H1 3450   3.798   0.065   9.307 -2.8723  1.3206  2.0837
  227MPD1    H2 3451   3.497   4.551   9.480 -0.2201 -2.5064  0.0937
  227MPD1    H3 3452   3.544   4.719   9.356  1.0922  0.8723 -0.5690
  227MPD1     N 3453   4.014   4.625   9.383 -0.0599  0.1031 -0.2033
  227MPD1    H5 3454   4.061   4.537   9.397 -1.1159 -0.2215  1.3089
  227MPD1    N1 3455   3.655   4.332   9.532  0.1969 -0.5810  0.9744
  227MPD1    H6 3456   3.715   4.291   9.604  0.1202 -3.5007 -0.5967
  227MPD1    H7 3457   3.567   4.344   9.581 -0.0211  0.7780  0.2268
  228MPD1     C 3458   3.418   3.590  13.305 -0.0964 -0.5855  0.9727
  228MPD1    C1 3459   3.344   3.646  13.203 -0.1650 -0.0524 -0.3437
  228MPD1    C2 3460   3.218   3.585  13.192  0.5648  0.3652  1.1961
  228MPD1    C3 3461   3.186   3.463  13.248 -0.5358  0.4818 -0.2211
  228MPD1    C4 3462   3.280   3.391  13.326 -0.5026  0.6962 -0.0765
  228MPD1    C5 3463   3.395   3.461  13.357  0.0377  0.0424  0.5365
  228MPD1     H 3464   3.147   3.637  13.129  1.3112 -0.2657 -0.1402
  228MPD1    H1 3465   3.264   3.293  13.369 -1.7754  0.6905 -0.5526
  228MPD1    H2 3466   3.514   3.638  13.319  0.0055 -0.7201  0.7361
  228MPD1    H3 3467   3.473   3.416  13.417 -0.9808 -1.6786  0.5688
  228MPD1     N 3468   3.054   3.424  13.232  0.2123 -0.0744  0.0983
  228MPD1    H5 3469   2.989   3.492  13.191  1.6677 -0.3091 -2.6281
  228MPD1    N1 3470   3.376   3.771  13.157 -0.2690  0.5993  0.2136
  228MPD1    H6 3471   3.477   3.775  13.163 -0.2363  0.7581 -0.3653
  228MPD1    H7 3472   3.322   3.797  13.074  2.0385  1.8386 -0.8824
  229MPD1     C 3473   2.455   2.645  14.620  0.0424 -0.7264 -0.3491
  229MPD1    C1 3474   2.493   2.535  14.554 -0.1791 -0.4112  0.7804
  229MPD1    C2 3475   2.580   2.450  14.624  0.4411  0.6408  0.1820
  229MPD1    C3 3476   2.635   2.491  14.747 -0.3775 -0.1587  0.1368
  229MPD1    C4 3477   2.599   2.605  14.809 -0.0251 -0.6535 -0.6880
  229MPD1    C5 3478   2.507   2.684  14.743  0.3508  0.3446  0.6392
  229MPD1     H 3479   2.601   2.354  14.578 -0.5482  0.6042 -0.1961
  229MPD1    H1 3480   2.649   2.644  14.898  0.8070  1.3778 -2.0301
  229MPD1    H2 3481   2.387   2.714  14.572 -1.6124 -1.5261  0.8054
  229MPD1    H3 3482   2.469   2.776  14.787  0.4223  0.4081  0.5702
  229MPD1     N 3483   2.722   2.411  14.822  0.1013 -0.2771 -0.0219
  229MPD1    H5 3484   2.745   2.447  14.914 -1.8363  1.0250 -0.0594
  229MPD1    N1 3485   2.418   2.500  14.444  0.5841 -0.6208  0.1739
  229MPD1    H6 3486   2.459   2.421  14.394 -0.5337 -1.2231  0.1998
  229MPD1    H7 3487   2.400   2.575  14.377  0.5075 -1.1158 -0.3619
  230MPD1     C 3488   3.195   2.432  15.679 -0.2041  0.0397  0.4657
  230MPD1    C1 3489   3.283   2.364  15.599  0.3502  0.9413 -0.2130
  230MPD1    C2 3490   3.239   2.305  15.482 -0.0328 -0.2268  0.3008
  230MPD1    C3 3491   3.109   2.323  15.434  0.2125 -0.0548 -0.6939
  230MPD1    C4 3492   3.031   2.403  15.510  0.0916 -0.4292  0.1607
  230MPD1    C5 3493   3.069   2.455  15.633 -0.1511 -0.1765 -0.0329
  230MPD1     H 3494   3.297   2.235  15.425  1.0115  1.2404 -0.4411
  230MPD1    H1 3495   2.930   2.427  15.476  0.4098  0.6715 -0.0092
  230MPD1    H2 3496   3.224   2.461  15.779 -1.2618 -0.6881  0.9859
  230MPD1    H3 3497   3.015   2.521  15.699  2.5180  1.6125  0.3826
  230MPD1     N 3498   3.077   2.279  15.307 -0.4798  0.2597 -0.0731
  230MPD1    H5 3499   3.144   2.221  15.259  1.4533  1.6519  0.9124
  230MPD1    N1 3500   3.409   2.320  15.651 -0.1369 -0.6768  0.2182
  230MPD1    H6 3501   3.440   2.387  15.721  1.7134 -2.0230  0.6930
  230MPD1    H7 3502   3.485   2.304  15.585  0.5856  0.2490  0.8305
  231MPD1     C 3503   1.757   4.146  15.572 -0.5984 -0.3309 -0.1525
  231MPD1    C1 3504   1.668   4.178  15.471  0.5712 -0.3887 -0.3486
  231MPD1    C2 3505   1.699   4.155  15.345  0.3417  0.1702  0.6508
  231MPD1    C3 3506   1.835   4.139  15.315 -0.0082  0.1948  0.2180
  231MPD1    C4 3507   1.934   4.125  15.409 -0.2967  0.1587 -0.4227
  231MPD1    C5 3508   1.889   4.118  15.537  0.2597 -1.3083 -0.1489
  231MPD1     H 3509   1.631   4.159  15.261  0.5652  1.8994  0.5474
  231MPD1    H1 3510   2.040   4.107  15.396 -0.2565 -1.3639  1.9336
  231MPD1    H2 3511   1.728   4.145  15.676 -0.9004 -1.6855 -0.2524
  231MPD1    H3 3512   1.956   4.100  15.620 -0.6332 -0.5042  0.7396
  231MPD1     N 3513   1.867   4.124  15.175 -1.0566  0.0451 -0.3296
  231MPD1    H5 3514   1.791   4.102  15.111 -0.8456 -0.7652 -0.3026
  231MPD1    N1 3515   1.536   4.193  15.506 -0.6500  0.5147 -0.1484
  231MPD1    H6 3516   1.522   4.221  15.603  2.5181  1.8665 -0.0605
  231MPD1    H7 3517   1.484   4.257  15.447  0.9868 -0.5111 -2.6927
  232MPD1     C 3518   3.675   1.301  17.442  0.4832 -0.2105  0.0361
  232MPD1    C1 3519   3.695   1.396  17.537 -0.0294 -0.3119  0.3151
  232MPD1    C2 3520   3.587   1.471  17.584 -0.2096  0.5422  0.7044
  232MPD1    C3 3521   3.460   1.437  17.545 -0.0805 -0.5256 -0.1156
  232MPD1    C4 3522   3.443   1.332  17.458  0.1281 -0.1710 -0.0831
  232MPD1    C5 3523   3.552   1.258  17.410 -0.4282 -0.4420 -0.3491
  232MPD1     H 3524   3.601   1.554  17.653  0.1690 -0.8490  2.3249
  232MPD1    H1 3525   3.343   1.312  17.421  0.9079 -2.2265 -1.0490
  232MPD1    H2 3526   3.757   1.264  17.381  1.0346 -1.1075  1.3073
  232MPD1    H3 3527   3.526   1.176  17.344  0.7006  0.0079 -1.3458
  232MPD1     N 3528   3.356   1.513  17.599 -0.1911  0.0077  0.3813
  232MPD1    H5 3529   3.388   1.574  17.673  0.4834 -1.1010  0.9977
  232MPD1    N1 3530   3.823   1.441  17.563 -0.2527 -0.7208 -0.4183
  232MPD1    H6 3531   3.839   1.476  17.658 -0.5633  0.0253 -0.6449
  232MPD1    H7 3532   3.901   1.383  17.534 -1.6088 -2.8658  0.2002
  233MPD1     C 3533   4.246   0.058   1.961  0.3928 -0.2798 -0.5238
  233MPD1    C1 3534   4.312   4.705   1.861 -0.6953 -0.8206 -0.4118
  233MPD1    C2 3535   4.402   0.049   1.772  0.4113 -1.0423  0.2427
  233MPD1    C3 3536   4.439   0.180   1.799 -0.1290 -0.6039 -0.3739
  233MPD1    C4 3537   4.364   0.255   1.884  0.0459 -0.7615 -0.9538
  233MPD1    C5 3538   4.267   0.194   1.960  0.2741  0.2357  0.3089
  233MPD1     H 3539   4.467   4.720   1.702  0.2025  0.4414 -1.0443
  233MPD1    H1 3540   4.380   0.360   1.906 -0.1352 -1.1060  0.7790
  233MPD1    H2 3541   4.190   0.004   2.036  1.2636 -1.7530 -0.9346
  233MPD1    H3 3542   4.221   0.256   2.037 -1.3095  0.1083 -0.5308
  233MPD1     N 3543   4.541   0.236   1.728 -0.5672  0.6448  0.5511
  233MPD1    H5 3544   4.582   0.175   1.658 -0.2650  1.2899  0.1673
  233MPD1    N1 3545   4.298   4.567   1.865 -0.1163  0.5372 -0.0017
  233MPD1    H6 3546   4.319   4.512   1.782  1.7620  1.5624 -0.2191
  233MPD1    H7 3547   4.201   4.539   1.880 -0.1444  0.0739 -1.0504
  234MPD1     C 3548   1.134   3.091   9.397  0.4976 -0.4928 -0.1141
  234MPD1    C1 3549   1.219   3.201   9.430 -0.1645 -0.5817  0.7403
  234MPD1    C2 3550   1.181   3.326   9.396  0.0436  0.5240  0.5359
  234MPD1    C3 3551   1.051   3.353   9.354  0.5122  0.2269 -0.6498
  234MPD1    C4 3552   0.960   3.245   9.347 -0.0806 -0.1567 -0.7942
  234MPD1    C5 3553   0.999   3.116   9.374  0.2818  0.3830 -0.3292
  234MPD1     H 3554   1.258   3.401   9.411  0.8041 -0.5548  2.0159
  234MPD1    H1 3555   0.860   3.259   9.307 -0.4086 -0.2972 -0.0061
  234MPD1    H2 3556   1.165   2.987   9.388  1.2126 -0.3925  1.2503
  234MPD1    H3 3557   0.931   3.036   9.350 -1.2158  1.5271  0.1100
  234MPD1     N 3558   1.012   3.492   9.350  0.6553  0.5584  0.1832
  234MPD1    H5 3559   1.081   3.556   9.387  1.4098 -0.6141  0.8298
  234MPD1    N1 3560   1.358   3.179   9.457  0.7178  0.2493 -0.3089
  234MPD1    H6 3561   1.418   3.254   9.493  1.0270 -0.2628  0.2590
  234MPD1    H7 3562   1.373   3.091   9.508 -3.6144 -1.2166 -1.6145
  235MPD1     C 3563   3.514   1.709  10.260  0.0963  0.0039  0.0555
  235MPD1    C1 3564   3.387   1.659  10.261 -0.3004 -0.0612 -0.6469
  235MPD1    C2 3565   3.313   1.664  10.142  0.0319  0.1055 -0.1828
  235MPD1    C3 3566   3.373   1.706  10.021 -0.1642 -0.3090 -0.7015
  235MPD1    C4 3567   3.499   1.773  10.025  0.1838 -0.0064  0.6429
  235MPD1    C5 3568   3.569   1.764  10.146 -0.2240 -0.8376  0.5729
  235MPD1     H 3569   3.208   1.637  10.143 -0.1039  0.7997  2.4688
  235MPD1    H1 3570   3.558   1.804   9.939 -1.9490 -3.3851 -2.0513
  235MPD1    H2 3571   3.564   1.731  10.354  1.7287 -1.7421 -0.4137
  235MPD1    H3 3572   3.663   1.818  10.150  0.2504 -1.5925 -0.2879
  235MPD1     N 3573   3.288   1.696   9.907 -0.0783 -0.4904  0.6721
  235MPD1    H5 3574   3.204   1.640   9.911 -1.4872  1.5915  0.4027
  235MPD1    N1 3575   3.329   1.617  10.383 -0.6191  0.1397 -0.1072
  235MPD1    H6 3576   3.399   1.570  10.441 -2.5665 -2.6732 -0.0208
  235MPD1    H7 3577   3.240   1.568  10.382 -0.5300 -0.0102 -0.6309
  236MPD1     C 3578   1.758   1.974   9.346 -0.3488 -0.4579  0.1811
  236MPD1    C1 3579   1.812   2.103   9.329 -0.2214  0.9106  0.4623
  236MPD1    C2 3580   1.863   2.174   9.436  0.2269  0.3883 -0.3058
  236MPD1    C3 3581   1.874   2.105   9.555  0.3152 -0.4511  0.5452
  236MPD1    C4 3582   1.833   1.974   9.564  0.0431  0.2850 -0.4096
  236MPD1    C5 3583   1.762   1.917   9.466  0.2007  0.3492 -0.0040
  236MPD1     H 3584   1.912   2.270   9.419 -0.5179  1.0291  1.1995
  236MPD1    H1 3585   1.832   1.924   9.661 -0.2288 -1.0602 -1.1005
  236MPD1    H2 3586   1.703   1.924   9.268 -0.3444  0.3482 -0.3413
  236MPD1    H3 3587   1.723   1.818   9.484  1.3771  0.1442  1.4898
  236MPD1     N 3588   1.935   2.147   9.673 -0.6869  0.2976  0.0241
  236MPD1    H5 3589   1.945   2.082   9.750  0.3081  0.3100 -0.0931
  236MPD1    N1 3590   1.822   2.157   9.205  0.4348 -0.0128 -0.4513
  236MPD1    H6 3591   1.734   2.141   9.156  0.0738 -0.7684  0.4609
  236MPD1    H7 3592   1.849   2.255   9.199 -3.5236  1.1227 -0.0229
  237MPD1     C 3593   2.427   0.540  15.131 -0.2071 -0.3805 -0.0063
  237MPD1    C1 3594   2.342   0.599  15.227  0.1945  0.1427 -0.0791
  237MPD1    C2 3595   2.206   0.596  15.208 -0.6468  0.3354  0.4016
  237MPD1    C3 3596   2.150   0.521  15.103  0.3960  0.5930  0.2769
  237MPD1    C4 3597   2.235   0.460  15.018 -0.1700  0.8538  0.0903
  237MPD1    C5 3598   2.369   0.471  15.028 -0.1442  0.3695  0.9608
  237MPD1     H 3599   2.145   0.653  15.277 -1.9006  0.3662 -0.7358
  237MPD1    H1 3600   2.191   0.390  14.947  3.4972  0.6261 -1.9197
  237MPD1    H2 3601   2.534   0.545  15.144  0.0268 -0.3210 -1.9622
  237MPD1    H3 3602   2.431   0.428  14.950 -0.1216  1.6881  0.2564
  237MPD1     N 3603   2.015   0.494  15.094 -0.3879  0.4838  0.0047
  237MPD1    H5 3604   1.983   0.447  15.009  3.6629 -2.9213  0.3692
  237MPD1    N1 3605   2.394   0.677  15.331 -0.2825 -0.4049  0.1009
  237MPD1    H6 3606   2.335   0.679  15.414 -0.2594 -0.2990  0.1151
  237MPD1    H7 3607   2.492   0.651  15.339  0.1295  1.4132  0.9197
  238MPD1     C 3608   3.675   3.580  14.784 -0.3205 -0.6545 -0.7254
  238MPD1    C1 3609   3.586   3.491  14.825  0.3078  0.7835 -0.2606
  238MPD1    C2 3610   3.450   3.526  14.809  0.8765  0.1616  0.3247
  238MPD1    C3 3611   3.410   3.637  14.741  0.2765 -0.2705 -0.4216
  238MPD1    C4 3612   3.508   3.723  14.703  0.1284  0.3108  0.7308
  238MPD1    C5 3613   3.643   3.688  14.716 -0.0839 -0.2415 -0.0750
  238MPD1     H 3614   3.377   3.462  14.857  0.0984  2.0701  1.6670
  238MPD1    H1 3615   3.487   3.822  14.667 -2.0370  0.3280  2.0590
  238MPD1    H2 3616   3.779   3.556  14.804 -0.0910 -0.6321 -1.9069
  238MPD1    H3 3617   3.717   3.761  14.687  0.7471 -0.4201  1.5955
  238MPD1     N 3618   3.273   3.673  14.738  0.0053  0.3728 -0.9096
  238MPD1    H5 3619   3.258   3.762  14.691 -1.1206 -0.3260 -1.8920
  238MPD1    N1 3620   3.625   3.381  14.903 -0.1904  0.4403  0.5238
  238MPD1    H6 3621   3.554   3.310  14.884  1.9770 -1.7306  0.5110
  238MPD1    H7 3622   3.718   3.342  14.887  0.1218  1.7883 -1.0042
  239MPD1     C 3623   3.486   4.360  14.834 -0.4702  0.6327  0.4134
  239MPD1    C1 3624   3.579   4.405  14.743 -0.6496  0.1682 -0.0025
  239MPD1    C2 3625   3.536   4.501  14.655  0.3299  0.6433 -0.0429
  239MPD1    C3 3626   3.414   4.561  14.654 -0.4356 -0.4888  0.6056
  239MPD1    C4 3627   3.324   4.512  14.745 -0.1051 -0.1312 -0.1615
  239MPD1    C5 3628   3.358   4.411  14.836 -0.3172 -0.6096  0.7744
  239MPD1     H 3629   3.608   4.540  14.584  1.6912 -1.3182  0.2873
  239MPD1    H1 3630   3.223   4.550  14.745 -0.5858 -1.4233  2.5064
  239MPD1    H2 3631   3.502   4.281  14.907  1.0496 -0.1059 -0.7314
  239MPD1    H3 3632   3.289   4.369  14.908  1.2786 -3.8707  0.4323
  239MPD1     N 3633   3.385   4.672  14.575  0.3317  0.6197 -1.0185
  239MPD1    H5 3634   3.290   4.706  14.568 -0.2824 -0.7902  0.4456
  239MPD1    N1 3635   3.703   4.350  14.728  0.1058 -0.0421 -0.1036
  239MPD1    H6 3636   3.764   4.424  14.691 -1.9488  0.6037 -2.2039
  239MPD1    H7 3637   3.738   4.323  14.820 -1.1921 -1.9253 -0.1679
  240MPD1     C 3638   2.723   0.006  14.244  0.5949 -0.5847  0.0288
  240MPD1    C1 3639   2.604   4.666  14.202 -0.0769 -0.5788  0.2299
  240MPD1    C2 3640   2.571   4.546  14.261  0.3213  0.2166  0.2996
  240MPD1    C3 3641   2.649   4.487  14.357  0.2542 -0.0063  0.0706
  240MPD1    C4 3642   2.758   4.554  14.405 -0.3841  0.0002 -0.6159
  240MPD1    C5 3643   2.801   4.669  14.344 -0.3565 -0.2500 -0.7613
  240MPD1     H 3644   2.484   4.488  14.233  0.7862 -0.1660 -0.3591
  240MPD1    H1 3645   2.815   4.512  14.487 -2.1414 -1.7264 -0.2865
  240MPD1    H2 3646   2.740   0.105  14.206  0.8971 -0.3540  0.7569
  240MPD1    H3 3647   2.880   0.006  14.386 -0.3833  0.1747 -1.3148
  240MPD1     N 3648   2.598   4.367  14.423 -0.1800 -0.0788 -0.0451
  240MPD1    H5 3649   2.505   4.337  14.396 -0.1602  1.8140 -2.1680
  240MPD1    N1 3650   2.543   4.709  14.087 -0.0744  0.1035  0.0830
  240MPD1    H6 3651   2.540   0.088  14.084  1.3245  0.2265  2.8366
  240MPD1    H7 3652   2.445   4.682  14.080 -0.6404  2.4255 -1.0914
  241MPD1     C 3653   2.234   3.818  15.278  0.4180  0.2380  0.1913
  241MPD1    C1 3654   2.290   3.941  15.278  0.3289 -0.0302  0.5745
  241MPD1    C2 3655   2.348   3.984  15.163 -0.3926 -0.0925  0.2124
  241MPD1    C3 3656   2.355   3.907  15.047 -0.1394 -0.1646 -0.2311
  241MPD1    C4 3657   2.303   3.778  15.054  0.2145 -0.0063 -0.1502
  241MPD1    C5 3658   2.238   3.738  15.166  0.0472  0.3422 -0.1451
  241MPD1     H 3659   2.410   4.073  15.170 -1.7049  0.6215  2.6001
  241MPD1    H1 3660   2.312   3.710  14.970 -0.6150  0.9563 -1.0157
  241MPD1    H2 3661   2.183   3.770  15.361 -1.8195 -1.1500 -1.9634
  241MPD1    H3 3662   2.206   3.635  15.177  1.8960  0.1595  3.4817
  241MPD1     N 3663   2.405   3.952  14.927 -0.3675  0.1996  0.0375
  241MPD1    H5 3664   2.403   3.889  14.847 -1.0712  1.7515 -1.1777
  241MPD1    N1 3665   2.316   4.012  15.399 -0.0520  0.2984 -0.3989
  241MPD1    H6 3666   2.291   4.110  15.390 -1.0372 -0.1129 -2.0607
  241MPD1    H7 3667   2.259   3.987  15.480  0.8506 -0.3929  0.0294
  242MPD1     C 3668   2.340   2.091  15.679  0.7107  0.6942  0.9307
  242MPD1    C1 3669   2.273   2.118  15.564  0.1045  0.2713  0.1974
  242MPD1    C2 3670   2.262   2.251  15.526  0.5068 -0.8032 -0.7486
  242MPD1    C3 3671   2.308   2.357  15.600 -0.1377 -0.0560 -0.1115
  242MPD1    C4 3672   2.373   2.330  15.713  0.0550 -0.0494  0.1881
  242MPD1    C5 3673   2.393   2.198  15.749 -0.6417 -0.2314 -0.5432
  242MPD1     H 3674   2.206   2.274  15.436  2.7135 -0.8068 -2.1258
  242MPD1    H1 3675   2.404   2.414  15.774  1.3591 -0.3634 -0.0470
  242MPD1    H2 3676   2.345   1.990  15.717  0.7298  1.1410  2.1195
  242MPD1    H3 3677   2.458   2.186  15.835  1.7940  3.0889 -1.9169
  242MPD1     N 3678   2.294   2.495  15.565  0.2271  0.3610 -0.2020
  242MPD1    H5 3679   2.338   2.563  15.625 -0.6755 -1.5338  2.6047
  242MPD1    N1 3680   2.223   2.013  15.481 -0.4809  0.2364  0.4321
  242MPD1    H6 3681   2.151   2.040  15.415 -0.7660  0.4227  0.8236
  242MPD1    H7 3682   2.203   1.936  15.545 -0.6622  0.5045  0.7001
  243MPD1     C 3683   3.909   0.782  17.518 -0.0380  0.9300 -0.3299
  243MPD1    C1 3684   3.996   0.696  17.464 -0.6133 -0.3583  0.4378
  243MPD1    C2 3685   4.054   0.720  17.334  0.3168 -0.2273 -1.0084
  243MPD1    C3 3686   4.026   0.842  17.269  0.1221  0.1085  0.0868
  243MPD1    C4 3687   3.937   0.927  17.321 -0.1856  0.3550  0.1845
  243MPD1    C5 3688   3.878   0.899  17.446 -0.0460 -0.1513 -0.0194
  243MPD1     H 3689   4.118   0.647  17.285  2.7983  1.3474 -0.1284
  243MPD1    H1 3690   3.900   1.021  17.280  1.9925  0.7164 -0.9650
  243MPD1    H2 3691   3.860   0.774  17.614  2.2601  0.1474  0.7697
  243MPD1    H3 3692   3.801   0.961  17.491 -1.0515 -1.5026  0.1070
  243MPD1     N 3693   4.086   0.850  17.150  0.1578 -0.0243 -0.0961
  243MPD1    H5 3694   4.160   0.782  17.139  0.7121  0.3443  1.3675
  243MPD1    N1 3695   4.008   0.577  17.539  0.1116 -0.1519 -0.2827
  243MPD1    H6 3696   3.913   0.540  17.541  0.1690 -0.2972 -0.2365
  243MPD1    H7 3697   4.075   0.514  17.495  0.6820  1.9334 -2.4015
  244MPD1     C 3698   0.087   0.581  16.543 -0.3338 -0.3261 -0.2878
  244MPD1    C1 3699   0.011   0.632  16.440 -0.2376 -0.2775  0.1853
  244MPD1    C2 3700   4.603   0.671  16.478  0.8189  0.4657  0.3010
  244MPD1    C3 3701   4.549   0.658  16.602  0.3446  0.1840 -0.6504
  244MPD1    C4 3702   4.629   0.598  16.697 -0.0562 -0.1309  0.6745
  244MPD1    C5 3703   0.031   0.560  16.664 -0.2535 -0.4317 -0.6004
  244MPD1     H 3704   4.548   0.720  16.399 -0.3397 -0.3064  0.6356
  244MPD1    H1 3705   4.607   0.588  16.802 -1.4634 -0.6366  0.3372
  244MPD1    H2 3706   0.191   0.556  16.525  0.5248  1.9608  1.4550
  244MPD1    H3 3707   0.091   0.506  16.735  0.8560  0.1192 -1.1194
  244MPD1     N 3708   4.431   0.723  16.638  0.7321  0.3544  0.0066
  244MPD1    H5 3709   4.378   0.774  16.569  1.3180  1.5647  0.4445
  244MPD1    N1 3710   0.061   0.645  16.310 -0.0231  0.7806 -0.6369
  244MPD1    H6 3711   4.711   0.657  16.239 -0.5055 -1.2896 -0.4828
  244MPD1    H7 3712   0.124   0.570  16.283  2.0336  2.0600  0.6522
  245MPD1     C 3713   1.149   1.890  13.036 -0.6319  0.1665 -0.0710
  245MPD1    C1 3714   1.069   1.997  13.075 -0.3555  0.6738  0.0654
  245MPD1    C2 3715   1.094   2.058  13.193 -0.1465  0.3924 -0.5670
  245MPD1    C3 3716   1.197   2.017  13.271  0.1393  0.3426  0.2265
  245MPD1    C4 3717   1.264   1.901  13.239  0.6306 -0.0985 -0.1788
  245MPD1    C5 3718   1.243   1.843  13.117 -0.3956 -0.3725 -0.9123
  245MPD1     H 3719   1.044   2.148  13.227  1.3085  0.5795  1.0271
  245MPD1    H1 3720   1.339   1.853  13.300 -0.3701 -1.1661  0.2093
  245MPD1    H2 3721   1.141   1.836  12.942 -1.2804  1.9158 -1.0260
  245MPD1    H3 3722   1.297   1.752  13.095  0.9301  0.0488  0.6138
  245MPD1     N 3723   1.226   2.089  13.393 -0.5463  0.3161 -0.2981
  245MPD1    H5 3724   1.157   2.163  13.402 -1.8805 -1.0852  0.9936
  245MPD1    N1 3725   0.961   2.027  12.997  0.3580 -0.0593  0.1315
  245MPD1    H6 3726   0.965   1.990  12.902 -0.7656 -0.1793  0.1350
  245MPD1    H7 3727   0.944   2.127  13.007  1.1614  0.0872  0.0936
  246MPD1     C 3728   0.476   4.015   8.487 -0.4328  0.4109 -0.1194
  246MPD1    C1 3729   0.561   4.097   8.559  0.2237 -0.6705  0.2436
  246MPD1    C2 3730   0.655   4.041   8.645 -0.2302  0.0343  0.2166
  246MPD1    C3 3731   0.641   3.906   8.673  0.0249 -0.5966 -1.1598
  246MPD1    C4 3732   0.535   3.835   8.628 -0.0070 -0.1190  0.6631
  246MPD1    C5 3733   0.454   3.888   8.527  0.0883 -0.4409  0.0791
  246MPD1     H 3734   0.740   4.094   8.688  1.5758 -0.3382 -2.8740
  246MPD1    H1 3735   0.526   3.728   8.647  0.4739  0.0649  1.9456
  246MPD1    H2 3736   0.430   4.047   8.394 -1.3879  4.1770  1.6394
  246MPD1    H3 3737   0.393   3.823   8.465  0.9681 -0.3456 -0.8884
  246MPD1     N 3738   0.740   3.857   8.759  0.2297  0.3570  0.0230
  246MPD1    H5 3739   0.819   3.917   8.779 -0.5625  0.6118  2.3979
  246MPD1    N1 3740   0.572   4.233   8.521 -0.2394  0.4359  0.7059
  246MPD1    H6 3741   0.610   4.297   8.590 -0.4201 -0.0656  1.2729
  246MPD1    H7 3742   0.489   4.269   8.475  0.4051 -0.2028 -0.9509
  247MPD1     C 3743   1.024   2.295  17.147  0.3700 -0.0419  0.1741
  247MPD1    C1 3744   1.033   2.383  17.047 -0.4802  0.8798  0.1502
  247MPD1    C2 3745   0.978   2.343  16.915 -0.1624 -0.6749 -0.5985
  247MPD1    C3 3746   0.930   2.216  16.891 -0.5628  0.0649  0.0937
  247MPD1    C4 3747   0.933   2.137  17.003  0.1636  0.2787 -0.2029
  247MPD1    C5 3748   0.976   2.175  17.129  0.3092  0.5923 -0.0440
  247MPD1     H 3749   0.973   2.419  16.838 -1.2426 -0.3940 -0.2559
  247MPD1    H1 3750   0.900   2.034  16.997 -0.3674  0.5955 -2.3734
  247MPD1    H2 3751   1.070   2.315  17.244  0.2044 -0.4182  0.3279
  247MPD1    H3 3752   0.969   2.108  17.214 -0.7967 -1.2247 -1.5759
  247MPD1     N 3753   0.895   2.164  16.763  0.3427 -0.4446 -0.5351
  247MPD1    H5 3754   0.865   2.067  16.760  2.5317 -1.1081 -1.0980
  247MPD1    N1 3755   1.064   2.520  17.065 -0.1844  0.6439  0.4095
  247MPD1    H6 3756   1.104   2.572  16.987 -0.6111  0.2141 -0.0976
  247MPD1    H7 3757   1.123   2.528  17.147  1.2245 -0.9849 -0.4450
  248MPD1     C 3758   2.665   2.227   1.126 -0.0211 -0.4441 -0.0650
  248MPD1    C1 3759   2.667   2.133   1.224 -0.4404  0.1364 -0.1327
  248MPD1    C2 3760   2.773   2.050   1.231 -0.0679 -0.0679 -1.1240
  248MPD1    C3 3761   2.891   2.080   1.159 -0.3369 -0.4005 -0.2464
  248MPD1    C4 3762   2.888   2.180   1.071  0.5640  0.5181 -0.4609
  248MPD1    C5 3763   2.778   2.262   1.067  0.5375 -0.3487  0.0725
  248MPD1     H 3764   2.783   1.968   1.301  0.3915  0.5304 -0.4750
  248MPD1    H1 3765   2.976   2.223   1.025  0.3913  0.6146 -0.6969
  248MPD1    H2 3766   2.575   2.286   1.115  1.4930  2.1119  1.3408
  248MPD1    H3 3767   2.777   2.353   1.007  1.2082  0.1941  0.8874
  248MPD1     N 3768   3.005   1.997   1.178  0.1730 -0.2983  0.5329
  248MPD1    H5 3769   3.004   1.926   1.251 -0.3033  0.8544  1.6566
  248MPD1    N1 3770   2.547   2.105   1.293  0.4723 -0.2295 -0.3024
  248MPD1    H6 3771   2.487   2.187   1.293 -0.8164 -1.1757 -0.3466
  248MPD1    H7 3772   2.557   2.068   1.387  0.4605 -0.4843 -0.3993
  249MPD1     C 3773   2.065   3.999   9.854  0.3150 -0.2090 -0.3027
  249MPD1    C1 3774   2.046   3.968   9.988  0.1687 -0.1497 -0.2601
  249MPD1    C2 3775   2.079   4.069  10.077 -0.0940 -1.1591 -0.2828
  249MPD1    C3 3776   2.136   4.195  10.042  0.2396  0.5107  0.5183
  249MPD1    C4 3777   2.163   4.218   9.903  0.0099  0.2157  0.2015
  249MPD1    C5 3778   2.131   4.118   9.817  0.5534  0.2626  0.4820
  249MPD1     H 3779   2.062   4.037  10.179  1.6885  2.1848  1.0800
  249MPD1    H1 3780   2.197   4.317   9.874  0.3974  0.1069  0.2981
  249MPD1    H2 3781   2.023   3.930   9.782 -2.2300  0.5770  0.4248
  249MPD1    H3 3782   2.148   4.146   9.714 -0.7101 -2.1914 -0.4088
  249MPD1     N 3783   2.182   4.280  10.147 -0.0105  0.2145 -0.1244
  249MPD1    H5 3784   2.163   4.244  10.240  2.5493 -3.0764 -0.8918
  249MPD1    N1 3785   1.991   3.845  10.031 -0.7773  0.0308  0.2218
  249MPD1    H6 3786   1.988   3.830  10.132  0.2234  0.1207  0.2646
  249MPD1    H7 3787   2.014   3.764   9.974  1.0741  2.6498 -2.7210
  250MPD2     C 3788   4.687   1.124  12.744 -1.4374  0.6587  0.1910
  250MPD2    C1 3789   4.582   1.186  12.684 -1.2829 -0.5226 -0.2171
  250MPD2    C2 3790   4.482   1.104  12.635  0.2855 -0.1622  0.1601
  250MPD2    C3 3791   4.498   0.966  12.637  0.6829 -0.5216  0.1659
  250MPD2    C4 3792   4.603   0.912  12.704  0.4329 -0.1452  0.3295
  250MPD2    C5 3793   4.697   0.988  12.763  0.3881  0.7446 -0.0086
  250MPD2     H 3794   4.397   1.152  12.587 -0.8893 -1.3213  1.0399
  250MPD2    H1 3795   4.609   0.804  12.708 -0.0283  0.0222  4.9980
  250MPD2    H2 3796   0.053   1.179  12.775 -0.8915  0.1590 -0.4854
  250MPD2    H3 3797   0.050   0.926  12.810  1.2752  0.8794 -1.2578
  250MPD2     N 3798   4.405   0.881  12.577  0.4137  0.1821  0.7363
  250MPD2    H5 3799   4.405   0.780  12.590  1.1190  0.1823  0.7180
  250MPD2    N1 3800   4.587   1.328  12.678  0.3002  0.4050  0.5976
  250MPD2    H7 3801   4.655   1.368  12.741  0.2471  0.6646  0.4886
  251TMC3    C1 3802   4.491   1.531  12.716  0.0071  0.0202  0.1562
  251TMC3    C2 3803   4.383   1.608  12.713 -0.0843 -0.5012 -0.2812
  251TMC3    C3 3804   4.387   1.739  12.759  0.4592 -0.0831  0.6596
  251TMC3    C4 3805   4.606   1.577  12.771  0.3566 -0.6283 -0.0918
  251TMC3    C5 3806   4.600   1.702  12.831 -0.2115  0.1405  0.0158
  251TMC3    C6 3807   4.499   1.790  12.821 -0.0792  0.1281 -0.3705
  251TMC3     C 3808   4.487   1.408  12.635 -0.6984  0.0653 -0.0911
  251TMC3     O 3809   4.393   1.388  12.560 -0.0619 -0.2482 -0.8266
  251TMC3     H 3810   4.294   1.564  12.670  0.5863 -1.6827 -0.4587
  251TMC3    H1 3811   4.701   1.529  12.749  0.5334  0.1140 -0.9586
  251TMC3    H2 3812   4.504   1.891  12.860  3.0821  0.1205 -0.7340
  251TMC3    C7 3813   4.687   1.711  12.944 -1.1777 -0.5372 -0.5341
  251TMC3    C8 3814   4.259   1.805  12.782  0.0206 -0.1282 -0.2709
  251TMC3    O1 3815   0.033   1.609  12.957 -0.0335  0.5783  0.2221
  251TMC3    O2 3816   4.253   1.891  12.866 -0.2019 -0.3788  0.0089
  252TMC3    C1 3817   0.179   1.470   9.742  0.2084  0.0291  0.4992
  252TMC3    C2 3818   0.261   1.572   9.695 -0.5308  0.2259 -0.3553
  252TMC3    C3 3819   0.345   1.538   9.594  0.0216 -0.0756  0.8639
  252TMC3    C4 3820   0.166   1.349   9.674 -0.0652  0.4229 -0.2179
  252TMC3    C5 3821   0.262   1.315   9.583 -0.2724 -0.1215  0.6604
  252TMC3    C6 3822   0.354   1.412   9.537  0.7065 -0.0241  0.1395
  252TMC3     C 3823   0.072   1.519   9.820 -0.5113 -0.0094  0.8867
  252TMC3     O 3824   0.009   1.610   9.773 -0.0548  0.1091  0.1717
  252TMC3     H 3825   0.269   1.664   9.750  2.9816  0.0630 -0.6439
  252TMC3    H1 3826   0.080   1.288   9.699  0.2947  0.6608  1.6141
  252TMC3    H2 3827   0.430   1.384   9.464  0.3381  0.2764 -0.3620
  252TMC3    C7 3828   0.310   1.178   9.574 -0.2117  0.0374 -0.2245
  252TMC3    C8 3829   0.434   1.649   9.546 -0.6743  0.4956  0.1518
  252TMC3    O1 3830   0.428   1.169   9.598  0.3106 -0.2165  0.3840
  252TMC3    O2 3831   0.462   1.638   9.428  0.3892 -0.8161  0.0795
  253MPD2     C 3832   0.768   0.562  15.431  0.3514  1.3167  0.5722
  253MPD2    C1 3833   0.658   0.629  15.377 -0.5029 -0.4641  0.1006
  253MPD2    C2 3834   0.575   0.703  15.462 -0.3864 -0.3093 -0.3731
  253MPD2    C3 3835   0.620   0.734  15.589  0.1034  0.3864 -0.3422
  253MPD2    C4 3836   0.732   0.673  15.631  0.0339  0.3745 -0.5703
  253MPD2    C5 3837   0.805   0.585  15.557  0.3384 -0.5299 -0.0533
  253MPD2     H 3838   0.489   0.758  15.427  0.6867  1.4520 -0.2394
  253MPD2    H1 3839   0.770   0.693  15.731  1.8669 -0.5382 -1.0860
  253MPD2    H2 3840   0.829   0.500  15.366  2.0534  0.6490  2.7979
  253MPD2    H3 3841   0.894   0.550  15.608  1.0092 -3.0469 -2.9751
  253MPD2     N 3842   0.551   0.807  15.684  0.3197 -0.1961  0.0734
  253MPD2    H5 3843   0.596   0.831  15.772 -0.2947  1.3555 -0.0373
  253MPD2    N1 3844   0.605   0.615  15.242  0.2406  0.6321 -0.7429
  253MPD2    H7 3845   0.527   0.677  15.224 -2.6442 -2.5682  0.5661
  254TMC3    C1 3846   0.397   0.955  15.782 -0.5434 -0.1063 -0.0938
  254TMC3    C2 3847   0.267   0.998  15.805  0.1317 -0.6824  0.4901
  254TMC3    C3 3848   0.244   1.080  15.907 -0.0203 -0.5164 -0.4261
  254TMC3    C4 3849   0.504   0.986  15.860  0.1647 -0.2965  0.0133
  254TMC3    C5 3850   0.479   1.078  15.957 -0.6649 -0.1850 -0.5895
  254TMC3    C6 3851   0.350   1.121  15.985  0.7219 -0.6802 -0.4866
  254TMC3     C 3852   0.425   0.867  15.668  0.3964  0.0465  0.7987
  254TMC3     O 3853   0.346   0.863  15.575  0.3877  0.1266  0.5449
  254TMC3     H 3854   0.183   0.939  15.770  2.0372 -3.6799  0.9928
  254TMC3    H1 3855   0.603   0.945  15.851 -0.2797 -1.7530  1.6775
  254TMC3    H2 3856   0.331   1.173  16.078  0.7564  0.9299 -1.3816
  254TMC3    C7 3857   0.554   1.060  16.073 -0.1702  0.1430 -0.0771
  254TMC3    C8 3858   0.132   1.049  15.992  0.6277 -0.1391 -0.6415
  254TMC3    O1 3859   0.505   1.059  16.183  0.1845  1.3091 -0.7106
  254TMC3    O2 3860   0.104   0.937  16.023 -0.3571 -0.7005  0.3665
  255MPD2     C 3861   3.942   2.117   9.527  0.3258  0.4157  0.1468
  255MPD2    C1 3862   3.979   2.204   9.632  0.6724  0.0276 -0.5741
  255MPD2    C2 3863   4.088   2.285   9.611 -0.5892 -0.0942 -0.4398
  255MPD2    C3 3864   4.167   2.271   9.501  0.3892  0.5502 -0.0407
  255MPD2    C4 3865   4.133   2.187   9.394  0.4443  0.6774  0.2984
  255MPD2    C5 3866   4.017   2.113   9.411 -0.5215  0.3025 -0.0644
  255MPD2     H 3867   4.110   2.357   9.689 -2.9002 -1.7185  1.7115
  255MPD2    H1 3868   4.198   2.179   9.308 -0.6075 -1.1792 -0.3002
  255MPD2    H2 3869   3.856   2.051   9.531  0.9952 -0.4483  0.1261
  255MPD2    H3 3870   3.987   2.052   9.328 -1.3358 -0.0650  0.4949
  255MPD2     N 3871   4.275   2.361   9.494 -0.2696 -0.3599  0.3609
  255MPD2    H5 3872   4.294   2.417   9.577 -2.4488 -0.0086  0.6418
  255MPD2    N1 3873   3.895   2.211   9.752 -0.0060 -0.0352 -0.5491
  255MPD2    H7 3874   3.804   2.169   9.745  0.6017 -1.5817  0.7805
  256TMC3    C1 3875   3.820   2.334   9.942 -0.1884 -0.6198  0.1205
  256TMC3    C2 3876   3.864   2.438  10.020  0.4015  0.0485  1.1018
  256TMC3    C3 3877   3.789   2.556  10.008 -0.0242  0.2209 -0.3061
  256TMC3    C4 3878   3.707   2.326   9.869  0.0017 -0.0928  0.7902
  256TMC3    C5 3879   3.628   2.435   9.885 -0.1336 -1.0355  0.8679
  256TMC3    C6 3880   3.671   2.555   9.934 -0.3354  0.6877 -0.2652
  256TMC3     C 3881   3.929   2.280   9.864  0.5233 -0.2156  0.5239
  256TMC3     O 3882   4.045   2.299   9.899 -0.4068  0.3719  0.3855
  256TMC3     H 3883   3.963   2.439  10.064  1.3753  0.5622 -1.1236
  256TMC3    H1 3884   3.666   2.240   9.817  2.6831 -0.0497 -1.3769
  256TMC3    H2 3885   3.614   2.647   9.934 -0.6928  0.4717  0.4999
  256TMC3    C7 3886   3.519   2.441   9.791 -0.2711  1.0262  0.3977
  256TMC3    C8 3887   3.854   2.670  10.016  0.0822  0.5825  0.0808
  256TMC3    O1 3888   3.529   2.376   9.691 -0.0365 -0.3932  0.1457
  256TMC3    O2 3889   3.935   2.680  10.103 -0.4579  0.5303  0.2834
  257MPD2     C 3890   3.139   1.140  13.290 -0.2919 -0.4839 -0.3010
  257MPD2    C1 3891   3.176   1.026  13.230  0.2619 -0.6136  0.7864
  257MPD2    C2 3892   3.166   0.914  13.300  0.0990  0.3367  0.4874
  257MPD2    C3 3893   3.133   0.916  13.431 -0.1218  0.0963 -0.1414
  257MPD2    C4 3894   3.098   1.033  13.493 -0.3919  0.2681  0.1814
  257MPD2    C5 3895   3.101   1.143  13.417  0.8218  0.2132 -0.6076
  257MPD2     H 3896   3.199   0.820  13.258 -1.3125  0.3111 -0.5576
  257MPD2    H1 3897   3.066   1.043  13.596 -0.0579 -1.6290  0.4639
  257MPD2    H2 3898   3.148   1.231  13.233 -2.7335  1.1230  1.8751
  257MPD2    H3 3899   3.078   1.239  13.461 -1.8542 -0.2670 -1.0053
  257MPD2     N 3900   3.122   0.788  13.495 -0.3146  0.6320  0.3439
  257MPD2    H5 3901   3.119   0.709  13.431 -1.5107  0.3735  0.7214
  257MPD2    N1 3902   3.206   1.018  13.092  0.0403 -0.3360 -0.1336
  257MPD2    H7 3903   3.209   1.109  13.046 -0.5342 -0.1949  0.1122
  258TMC3    C1 3904   3.071   0.631  13.654 -0.1633 -0.1346  0.2545
  258TMC3    C2 3905   2.986   0.576  13.563 -0.1214  0.2379 -0.1704
  258TMC3    C3 3906   2.965   0.438  13.565  0.4333 -0.2041 -0.1310
  258TMC3    C4 3907   3.124   0.552  13.750 -1.0379 -0.0577 -0.1414
  258TMC3    C5 3908   3.113   0.421  13.753 -0.1028 -0.0161  0.1781
  258TMC3    C6 3909   3.034   0.355  13.661  0.2487  0.2608 -0.2683
  258TMC3     C 3910   3.116   0.764  13.627  0.4557 -0.5626  0.1128
  258TMC3     O 3911   3.160   0.825  13.724 -0.6884 -0.3713  0.7420
  258TMC3     H 3912   2.927   0.636  13.495  2.2823  0.9751 -1.6030
  258TMC3    H1 3913   3.171   0.604  13.833  0.3582 -1.1244 -0.2706
  258TMC3    H2 3914   3.024   0.247  13.657 -1.9052  0.4749 -0.6674
  258TMC3    C7 3915   3.165   0.346  13.872  0.5763 -0.1997  0.3320
  258TMC3    C8 3916   2.880   0.373  13.464  0.5925  1.0138 -0.6151
  258TMC3    O1 3917   3.220   0.412  13.960  0.2829  0.1907 -0.1622
  258TMC3    O2 3918   2.825   0.442  13.377 -0.5498 -0.3242 -0.1600
  259MPD2     C 3919   1.764   2.229   0.853  0.2683 -0.1492 -0.1649
  259MPD2    C1 3920   1.835   2.113   0.857  0.2278  0.5602 -0.1536
  259MPD2    C2 3921   1.951   2.098   0.779  0.2049 -0.0081 -0.3635
  259MPD2    C3 3922   1.985   2.203   0.687 -0.6203 -0.2854  0.3058
  259MPD2    C4 3923   1.905   2.319   0.686  0.1260  0.4126 -0.0937
  259MPD2    C5 3924   1.797   2.333   0.768  0.2092  0.1391  0.0567
  259MPD2     H 3925   2.003   2.003   0.783 -1.9445 -1.1707 -0.0725
  259MPD2    H1 3926   1.929   2.398   0.615  0.4432 -1.2395 -1.8291
  259MPD2    H2 3927   1.677   2.243   0.917  0.3808 -0.7531  0.1182
  259MPD2    H3 3928   1.723   2.412   0.756 -1.9226 -1.6044  1.6794
  259MPD2     N 3929   2.098   2.192   0.604  0.6635  0.2200 -0.1996
  259MPD2    H5 3930   2.154   2.108   0.616  0.1556 -0.3906 -2.1087
  259MPD2    N1 3931   1.801   2.018   0.955  0.7991  0.1663 -0.0041
  259MPD2    H7 3932   1.709   2.013   0.998 -0.2246 -2.6892 -2.5394
  260TMC3    C1 3933   2.251   2.236   0.432 -0.6966  0.4070 -0.1817
  260TMC3    C2 3934   2.291   2.326   0.340  0.2890 -0.2040 -0.1848
  260TMC3    C3 3935   2.420   2.322   0.314 -0.1709  0.0054 -0.5847
  260TMC3    C4 3936   2.337   2.153   0.503  0.5277  0.1302 -0.1430
  260TMC3    C5 3937   2.471   2.161   0.477  0.4904  0.7314 -0.0874
  260TMC3    C6 3938   2.516   2.249   0.381  0.2424  0.1653 -0.1835
  260TMC3     C 3939   2.130   2.279   0.499  0.0661  0.7671  0.3467
  260TMC3     O 3940   2.076   2.383   0.455 -0.2943  0.1929  0.0971
  260TMC3     H 3941   2.215   2.376   0.282 -0.6022  0.8991  1.9659
  260TMC3    H1 3942   2.306   2.069   0.564  0.7046  0.3619  0.2685
  260TMC3    H2 3943   2.621   2.259   0.359  0.4677 -0.1243  0.7804
  260TMC3    C7 3944   2.543   2.036   0.458  0.6534 -0.6622 -0.4405
  260TMC3    C8 3945   2.450   2.327   0.172  0.3123 -0.5649 -0.1899
  260TMC3    O1 3946   2.623   2.036   0.365 -0.5665 -0.5082 -0.2478
  260TMC3    O2 3947   2.387   2.398   0.094  0.5237 -0.5526 -0.5482
  261MPD2     C 3948   4.359   0.680  11.847  0.5274  0.6189 -0.1070
  261MPD2    C1 3949   4.279   0.770  11.914  0.1355  0.1189 -0.7488
  261MPD2    C2 3950   4.255   0.890  11.849  0.0759 -0.1030 -0.7794
  261MPD2    C3 3951   4.297   0.914  11.718 -0.6869 -0.8192  0.2676
  261MPD2    C4 3952   4.369   0.824  11.652 -0.2007 -0.1769  0.3665
  261MPD2    C5 3953   4.388   0.708  11.712 -0.5655  0.5531  0.7506
  261MPD2     H 3954   4.183   0.955  11.898  2.3772 -0.8665  3.6389
  261MPD2    H1 3955   4.382   0.840  11.545 -0.0177  1.4196  0.6341
  261MPD2    H2 3956   4.384   0.581  11.882  0.4547  1.1548  1.4753
  261MPD2    H3 3957   4.436   0.632  11.651  0.6827  0.0450  2.3705
  261MPD2     N 3958   4.241   1.026  11.654  0.0510 -0.8089 -0.0017
  261MPD2    H5 3959   4.167   1.069  11.710 -0.5860 -0.0645 -1.4362
  261MPD2    N1 3960   4.229   0.761  12.047  0.4931 -0.4864  0.2931
  261MPD2    H7 3961   4.177   0.842  12.078 -1.1981 -1.6792  0.5794
  262TMC3    C1 3962   4.150   1.149  11.475  0.0670  0.0744 -0.2081
  262TMC3    C2 3963   4.095   1.238  11.554  1.2627  0.1345 -0.3365
  262TMC3    C3 3964   4.007   1.328  11.488  1.0397  0.4758 -0.2705
  262TMC3    C4 3965   4.121   1.125  11.350 -0.6419 -0.1041 -0.3741
  262TMC3    C5 3966   4.033   1.214  11.290 -0.2297 -0.7018 -0.0802
  262TMC3    C6 3967   3.982   1.321  11.355  0.0157  0.1902  0.2632
  262TMC3     C 3968   4.263   1.073  11.525  0.6180 -0.4461 -0.2401
  262TMC3     O 3969   4.348   1.046  11.443 -0.5202 -0.2652  0.2564
  262TMC3     H 3970   4.117   1.262  11.657 -1.1557  2.1338 -0.2860
  262TMC3    H1 3971   4.163   1.039  11.299 -2.8199 -1.5578  0.2940
  262TMC3    H2 3972   3.919   1.393  11.303 -1.3561  0.1213  1.8177
  262TMC3    C7 3973   4.006   1.185  11.155 -0.2051 -0.3125  0.0918
  262TMC3    C8 3974   3.910   1.403  11.563  0.5436 -1.0325  0.4136
  262TMC3    O1 3975   3.984   1.270  11.073  0.3687  0.7031  0.1805
  262TMC3    O2 3976   3.842   1.482  11.494 -0.0182  0.1186  0.1131
  263MPD2     C 3977   4.628   0.174  11.602 -0.3835 -0.3907 -0.1755
  263MPD2    C1 3978   4.690   0.114  11.489  0.4344  0.3749  0.0228
  263MPD2    C2 3979   4.699   0.182  11.370 -0.4452  0.1487  0.2057
  263MPD2    C3 3980   4.641   0.305  11.355  0.0797 -0.3786  0.3574
  263MPD2    C4 3981   4.578   0.360  11.463 -0.0134  0.1765  0.4574
  263MPD2    C5 3982   4.568   0.295  11.585 -0.2471 -0.3249 -1.2542
  263MPD2     H 3983   0.020   0.140  11.280 -0.3886 -0.8841  0.7135
  263MPD2    H1 3984   4.539   0.461  11.469 -2.4140 -0.7090 -0.3613
  263MPD2    H2 3985   4.608   0.116  11.691  0.1462  0.1353  0.2866
  263MPD2    H3 3986   4.505   0.331  11.665  0.7853 -1.1329 -0.0840
  263MPD2     N 3987   4.653   0.371  11.226 -0.4406  0.0970 -0.5708
  263MPD2    H5 3988   4.682   0.317  11.145 -0.1414  0.0832 -0.4520
  263MPD2    N1 3989   0.034   4.714  11.512 -0.0730 -0.3679  0.1102
  263MPD2    H7 3990   0.014   4.682  11.607 -1.8144  2.4165  0.6636
  264TMC3    C1 3991   4.663   0.566  11.078 -0.5777  0.3658 -0.3157
  264TMC3    C2 3992   4.649   0.698  11.063  0.1585  0.6475  0.3948
  264TMC3    C3 3993   4.656   0.754  10.936 -0.2982 -1.3676 -0.1266
  264TMC3    C4 3994   4.684   0.483  10.968  0.3926  0.4635 -0.3000
  264TMC3    C5 3995   4.669   0.535  10.843  0.0952 -0.7081  0.1175
  264TMC3    C6 3996   4.669   0.671  10.826 -0.3881  0.5207 -0.1007
  264TMC3     C 3997   4.632   0.510  11.214  0.3806 -0.3605  0.2450
  264TMC3     O 3998   4.579   0.591  11.290 -0.1211 -0.0803  0.5460
  264TMC3     H 3999   4.639   0.751  11.157  0.3692  1.3075  0.0472
  264TMC3    H1 4000   4.705   0.378  10.979 -0.6374  0.1889 -0.9717
  264TMC3    H2 4001   4.666   0.716  10.728 -0.3371  0.6768 -0.0304
  264TMC3    C7 4002   4.690   0.459  10.713  0.4320 -0.1924 -0.4126
  264TMC3    C8 4003   4.701   0.892  10.931  0.2690  0.1159  0.2368
  264TMC3    O1 4004   0.002   0.529  10.616  0.3308  0.0711  0.0023
  264TMC3    O2 4005   0.037   0.925  10.828 -0.1703 -0.2845  0.1195
  265MPD2     C 4006   1.897   0.155  15.198 -0.2188  0.1681  0.1464
  265MPD2    C1 4007   1.976   0.158  15.312 -0.7112 -0.5305  0.1996
  265MPD2    C2 4008   2.107   0.127  15.294 -0.2180  0.0034 -0.2947
  265MPD2    C3 4009   2.172   0.121  15.170 -0.9840  0.9045  0.9710
  265MPD2    C4 4010   2.087   0.117  15.059 -0.2399 -0.3268 -0.1230
  265MPD2    C5 4011   1.952   0.134  15.076  0.2152 -0.5684 -0.5744
  265MPD2     H 4012   2.175   0.116  15.378 -0.1976  0.6197 -0.2343
  265MPD2    H1 4013   2.136   0.110  14.963 -0.1070  0.2650 -0.0976
  265MPD2    H2 4014   1.792   0.183  15.209 -0.3660 -0.5641  0.6443
  265MPD2    H3 4015   1.889   0.136  14.988  1.1758 -1.4165 -1.2864
  265MPD2     N 4016   2.314   0.110  15.145  0.1185 -0.8103 -0.1438
  265MPD2    H5 4017   2.331   0.102  15.046  0.8970  1.6909 -0.2091
  265MPD2    N1 4018   1.931   0.194  15.437  0.1515 -0.2175  0.2295
  265MPD2    H7 4019   1.995   0.192  15.515 -1.3094 -0.8652  1.4073
  266TMC3    C1 4020   1.817   0.299  15.613  0.2065 -0.0421  0.8171
  266TMC3    C2 4021   1.936   0.338  15.677 -0.4605  0.3061  0.1034
  266TMC3    C3 4022   1.926   0.432  15.772  0.0478 -0.3133 -0.1856
  266TMC3    C4 4023   1.697   0.333  15.667  0.3155  0.1063  0.6699
  266TMC3    C5 4024   1.690   0.416  15.769  0.1907  0.2980  0.2922
  266TMC3    C6 4025   1.803   0.468  15.827 -0.9612  0.2621  0.2055
  266TMC3     C 4026   1.809   0.247  15.477  0.1175 -0.2320  0.6871
  266TMC3     O 4027   1.711   0.265  15.409  0.0227 -0.3676 -0.1316
  266TMC3     H 4028   2.035   0.302  15.651  0.2005  1.9577  0.3428
  266TMC3    H1 4029   1.604   0.309  15.618  0.8967 -1.1174  0.1516
  266TMC3    H2 4030   1.793   0.555  15.891 -1.0816  0.6961 -0.4041
  266TMC3    C7 4031   1.591   0.387  15.862  0.0060  0.1894 -0.4569
  266TMC3    C8 4032   2.033   0.459  15.862 -0.0109 -0.1597 -0.2590
  266TMC3    O1 4033   1.556   0.474  15.945  0.2780 -0.3580 -0.0790
  266TMC3    O2 4034   2.103   0.365  15.875 -0.2056  0.5408  0.4789
  267MPD2     C 4035   4.041   2.123   0.136 -0.5750  0.1595 -0.6911
  267MPD2    C1 4036   4.157   2.179   0.088 -0.6763 -0.1354 -0.2010
  267MPD2    C2 4037   4.163   2.219  17.648  1.0200  0.2685 -0.0815
  267MPD2    C3 4038   4.053   2.200  17.561  0.6257  0.0511  0.0633
  267MPD2    C4 4039   3.940   2.144  17.620 -0.4042 -0.2821  0.3277
  267MPD2    C5 4040   3.935   2.103   0.061 -0.0659 -0.5534  0.4051
  267MPD2     H 4041   4.254   2.257  17.602  0.7160  2.1014  0.8487
  267MPD2    H1 4042   3.848   2.129  17.564 -0.6095 -3.4750  1.5663
  267MPD2    H2 4043   4.044   2.090   0.239 -1.8687  1.5830 -0.1991
  267MPD2    H3 4044   3.850   2.051   0.104 -0.6761 -1.2921 -1.6712
  267MPD2     N 4045   4.071   2.193  17.419 -0.0498 -0.4073  0.4415
  267MPD2    H5 4046   3.989   2.160  17.369  0.1163 -0.5033  0.2281
  267MPD2    N1 4047   4.280   2.172   0.169  0.0276  0.1972 -0.3899
  267MPD2    H7 4048   4.274   2.131   0.261 -0.4468 -2.2596 -1.5151
  268TMC3    C1 4049   4.513   2.173   0.229  0.7610  0.6869  0.5291
  268TMC3    C2 4050   4.638   2.216   0.195 -0.4565 -0.2464  1.1476
  268TMC3    C3 4051   0.022   2.174   0.268 -1.0237  0.2067  0.8889
  268TMC3    C4 4052   4.496   2.082   0.331 -0.2020  0.5443  0.2764
  268TMC3    C5 4053   4.607   2.039   0.395 -0.0634  0.1761 -0.4820
  268TMC3    C6 4054   0.010   2.089   0.370 -0.1663  0.4192 -0.3864
  268TMC3     C 4055   4.405   2.218   0.141  0.4539 -0.0096 -0.7672
  268TMC3     O 4056   4.432   2.267   0.033  0.0526 -0.3798  0.0574
  268TMC3     H 4057   4.642   2.301   0.129 -0.5786 -1.2498 -0.1614
  268TMC3    H1 4058   4.399   2.036   0.347 -0.0253 -0.5797 -1.9689
  268TMC3    H2 4059   0.097   2.050   0.421  1.7639  0.4154 -3.6552
  268TMC3    C7 4060   4.589   1.953   0.509  0.7757  0.1043 -0.1050
  268TMC3    C8 4061   0.159   2.230   0.227  0.1732  0.3040 -0.2290
  268TMC3    O1 4062   4.694   1.933   0.572  0.3052 -0.4996 -0.5886
  268TMC3    O2 4063   0.242   2.227   0.317  0.2222  1.1126  0.3901
  269MPD2     C 4064   4.664   0.947  15.612 -0.3983 -0.4391  0.1113
  269MPD2    C1 4065   4.531   0.944  15.646 -0.4954 -0.3716 -0.7494
  269MPD2    C2 4066   4.463   1.065  15.680 -0.4882  0.3602 -0.0208
  269MPD2    C3 4067   4.529   1.189  15.668  0.7190  0.5850  0.2391
  269MPD2    C4 4068   4.660   1.190  15.625  0.2770  0.2287 -0.3578
  269MPD2    C5 4069   4.721   1.070  15.590 -0.7380 -0.4017 -0.4434
  269MPD2     H 4070   4.357   1.058  15.703 -0.0934 -1.0321  1.3166
  269MPD2    H1 4071   0.004   1.276  15.616  0.3996  0.1382 -0.2998
  269MPD2    H2 4072   0.002   0.861  15.586  2.1728  0.9543  1.5697
  269MPD2    H3 4073   0.105   1.074  15.568 -0.8803 -0.4558 -1.1353
  269MPD2     N 4074   4.456   1.307  15.705  0.1434 -0.0822  0.1298
  269MPD2    H5 4075   4.355   1.302  15.716  0.5008 -2.0088  2.5032
  269MPD2    N1 4076   4.467   0.818  15.666  0.0009 -0.1385  0.2080
  269MPD2    H7 4077   4.525   0.736  15.653 -2.2156 -1.5249 -0.9573
  270TMC3    C1 4078   4.303   0.650  15.699 -0.1316  1.0799  0.3109
  270TMC3    C2 4079   4.193   0.604  15.638  0.7622 -0.2075  0.5931
  270TMC3    C3 4080   4.186   0.467  15.640  0.0032 -0.0857  0.2326
  270TMC3    C4 4081   4.408   0.579  15.751  0.3356  0.3706 -0.0171
  270TMC3    C5 4082   4.407   0.445  15.734  0.8302  0.1870 -0.6643
  270TMC3    C6 4083   4.296   0.390  15.681 -0.5481  0.2016 -0.6990
  270TMC3     C 4084   4.334   0.795  15.679  0.4370  0.2322  0.0660
  270TMC3     O 4085   4.232   0.858  15.657  0.0539  0.0640  0.5815
  270TMC3     H 4086   4.114   0.658  15.587  1.9416  0.3806 -0.6125
  270TMC3    H1 4087   4.492   0.626  15.802  0.2939 -2.1416  2.3644
  270TMC3    H2 4088   4.297   0.285  15.654 -1.6747 -0.0703  0.3136
  270TMC3    C7 4089   4.537   0.383  15.718 -0.5619  0.4131 -0.2550
  270TMC3    C8 4090   4.108   0.397  15.544  0.1203  0.0001 -0.5618
  270TMC3    O1 4091   4.628   0.462  15.690  0.4067 -0.2144 -0.0079
  270TMC3    O2 4092   4.007   0.331  15.570  0.2356 -0.2284 -0.0441
  271MPD2     C 4093   3.793   0.867  14.079 -0.0065  0.2676 -0.1072
  271MPD2    C1 4094   3.726   0.750  14.135 -0.6522 -0.5362  0.2875
  271MPD2    C2 4095   3.591   0.744  14.130  0.1292 -0.2640  0.0299
  271MPD2    C3 4096   3.521   0.861  14.089 -0.0108  0.1540 -0.1989
  271MPD2    C4 4097   3.588   0.971  14.035  0.0671 -0.5591 -0.9772
  271MPD2    C5 4098   3.729   0.979  14.038 -0.1842  0.1925  0.2340
  271MPD2     H 4099   3.534   0.664  14.175 -0.9890 -0.1103 -1.1026
  271MPD2    H1 4100   3.534   1.054  13.991  0.8068  0.2686 -0.3293
  271MPD2    H2 4101   3.901   0.874  14.084 -0.0484  0.1681  0.9098
  271MPD2    H3 4102   3.791   1.065  14.016 -0.5134 -0.0929 -1.8483
  271MPD2     N 4103   3.382   0.866  14.084  0.2991  0.0784 -0.3237
  271MPD2    H5 4104   3.335   0.948  14.047  0.3216  0.3103  0.1586
  271MPD2    N1 4105   3.792   0.641  14.188 -0.3459 -0.3086 -0.2751
  271MPD2    H7 4106   3.737   0.574  14.240 -0.9086  0.8074  0.5665
  272TMC3    C1 4107   3.959   0.495  14.243 -0.1278  0.2416  0.1242
  272TMC3    C2 4108   4.082   0.450  14.228 -0.1335  0.6962  0.5150
  272TMC3    C3 4109   4.145   0.368  14.320  0.9530  0.2090  1.0211
  272TMC3    C4 4110   3.877   0.441  14.339 -0.1209  0.2514 -0.1155
  272TMC3    C5 4111   3.935   0.359  14.426 -0.2958 -0.3252  0.5284
  272TMC3    C6 4112   4.068   0.325  14.428  0.0756 -0.2505 -0.1721
  272TMC3     C 4113   3.922   0.613  14.171 -0.0505 -0.2683 -0.2308
  272TMC3     O 4114   4.002   0.663  14.093  0.5009 -1.1456  0.2382
  272TMC3     H 4115   4.129   0.482  14.136 -0.1140 -0.4861  0.1158
  272TMC3    H1 4116   3.782   0.482  14.370 -0.6618 -1.2573  0.2419
  272TMC3    H2 4117   4.117   0.268  14.506 -0.3593  2.2034  1.9225
  272TMC3    C7 4118   3.870   0.355  14.549  0.1214 -0.6690  1.1206
  272TMC3    C8 4119   4.291   0.358  14.304 -0.2101 -1.1114  0.2072
  272TMC3    O1 4120   3.757   0.307  14.556  0.1250 -0.5398  0.0410
  272TMC3    O2 4121   4.349   0.405  14.208  0.3171  1.0330  0.4273
  273MPD2     C 4122   0.836   3.469  11.851  0.1886  0.2913 -0.0753
  273MPD2    C1 4123   0.785   3.592  11.797  0.4852  0.2350 -0.3330
  273MPD2    C2 4124   0.761   3.601  11.659 -0.0575  0.2041  0.1480
  273MPD2    C3 4125   0.799   3.499  11.571 -0.3286 -0.5796 -0.3142
  273MPD2    C4 4126   0.836   3.383  11.628 -0.3957 -0.1038  0.1876
  273MPD2    C5 4127   0.853   3.365  11.763 -0.0498  0.0172  0.2942
  273MPD2     H 4128   0.714   3.693  11.624 -2.5507  0.3300  3.7844
  273MPD2    H1 4129   0.867   3.304  11.561 -0.1699 -0.4740  0.7260
  273MPD2    H2 4130   0.847   3.446  11.956  0.9000  2.1123  0.2462
  273MPD2    H3 4131   0.883   3.269  11.804 -0.3903  0.0694  0.6644
  273MPD2     N 4132   0.791   3.519  11.424 -0.1474 -0.2317 -0.0501
  273MPD2    H5 4133   0.814   3.440  11.365  1.1573  0.2158 -0.1531
  273MPD2    N1 4134   0.761   3.705  11.871  0.6103  0.8869 -0.8394
  273MPD2    H7 4135   0.719   3.782  11.821  0.0334  0.9334 -0.2862
  274TMC3    C1 4136   0.806   3.642  11.219 -0.5851  0.5359 -0.1308
  274TMC3    C2 4137   0.695   3.580  11.160 -0.2513 -0.1635  0.5403
  274TMC3    C3 4138   0.626   3.652  11.070 -0.5384  0.5704 -0.0756
  274TMC3    C4 4139   0.844   3.763  11.179 -0.8206  0.2139  0.3303
  274TMC3    C5 4140   0.768   3.835  11.091  0.2443  0.3167 -0.0180
  274TMC3    C6 4141   0.657   3.780  11.032 -0.3492  0.0604 -0.2121
  274TMC3     C 4142   0.805   3.643  11.366  0.4183 -0.3545  0.5512
  274TMC3     O 4143   0.815   3.751  11.418 -0.6693  0.0703 -0.1311
  274TMC3     H 4144   0.662   3.487  11.205  2.8913 -1.6300 -0.1640
  274TMC3    H1 4145   0.942   3.793  11.213  0.4468 -0.7489 -2.4373
  274TMC3    H2 4146   0.572   3.838  10.999  2.0620  2.4780 -2.1655
  274TMC3    C7 4147   0.776   3.979  11.109 -0.1522  1.0645  0.2684
  274TMC3    C8 4148   0.510   3.589  11.025  0.5235  0.7384 -0.2104
  274TMC3    O1 4149   0.674   4.044  11.076  0.3944 -0.2784  0.4713
  274TMC3    O2 4150   0.484   3.478  11.068 -0.3184 -0.0001 -0.0933
  275MPD2     C 4151   0.427   1.837  14.413 -0.5979  0.1026 -0.1593
  275MPD2    C1 4152   0.415   1.705  14.459  0.8086  0.2201 -0.1053
  275MPD2    C2 4153   0.290   1.651  14.447  0.1717 -0.1573 -1.1784
  275MPD2    C3 4154   0.179   1.723  14.400  0.3232 -0.2776  0.9066
  275MPD2    C4 4155   0.200   1.863  14.370 -0.7880  0.1459  0.0254
  275MPD2    C5 4156   0.321   1.917  14.375 -0.0728 -0.7683  0.1315
  275MPD2     H 4157   0.278   1.548  14.478 -0.4083 -0.3272 -1.9629
  275MPD2    H1 4158   0.124   1.925  14.324  0.7023  0.6316 -1.7836
  275MPD2    H2 4159   0.523   1.886  14.405 -0.2795 -0.8635 -2.1432
  275MPD2    H3 4160   0.345   2.017  14.341  0.6680 -1.2339 -0.7359
  275MPD2     N 4161   0.050   1.669  14.377  0.2889 -0.4987 -0.3640
  275MPD2    H5 4162   4.702   1.737  14.352 -0.1590 -0.5306  0.8247
  275MPD2    N1 4163   0.514   1.634  14.536 -0.5025 -0.0926  0.0354
  275MPD2    H7 4164   0.485   1.552  14.588  0.8229 -0.8770 -0.4487
  276TMC3    C1 4165   0.702   1.615  14.677 -0.0544 -0.7280  0.1320
  276TMC3    C2 4166   0.639   1.512  14.751 -0.2735 -0.3223 -0.3328
  276TMC3    C3 4167   0.655   1.512  14.889 -1.1946  0.0139  0.3871
  276TMC3    C4 4168   0.793   1.705  14.734 -0.0594  0.2147  0.1184
  276TMC3    C5 4169   0.801   1.702  14.872  0.0469  0.3377  0.1512
  276TMC3    C6 4170   0.730   1.611  14.951 -0.4808  0.3896  0.5109
  276TMC3     C 4171   0.634   1.679  14.565 -1.1156 -0.5351  0.7661
  276TMC3     O 4172   0.684   1.773  14.503 -0.5142  0.5172 -0.1124
  276TMC3     H 4173   0.566   1.446  14.704 -1.9194  1.0575  0.2988
  276TMC3    H1 4174   0.838   1.788  14.681  0.2036 -0.8658 -1.3464
  276TMC3    H2 4175   0.741   1.610  15.059 -0.2502  1.4802  0.4943
  276TMC3    C7 4176   0.894   1.780  14.944  0.2690 -0.2955  0.3590
  276TMC3    C8 4177   0.571   1.426  14.969  0.3354 -0.2642 -0.5185
  276TMC3    O1 4178   0.890   1.765  15.066 -0.3092 -0.1993 -0.3140
  276TMC3    O2 4179   0.528   1.460  15.074  0.4847  0.5141 -0.2727
  277MPD2     C 4180   2.545   0.460  12.957 -0.0584  0.2073  0.0593
  277MPD2    C1 4181   2.417   0.515  12.951 -0.0970  0.2222  0.1901
  277MPD2    C2 4182   2.330   0.482  13.057 -0.5580 -0.1031  0.2312
  277MPD2    C3 4183   2.362   0.409  13.169  0.2041  0.3028  0.5449
  277MPD2    C4 4184   2.495   0.366  13.178 -0.4628 -1.0298  0.1975
  277MPD2    C5 4185   2.583   0.391  13.071  0.0733  0.1845 -0.2073
  277MPD2     H 4186   2.233   0.529  13.052 -0.8332 -0.7004 -0.1062
  277MPD2    H1 4187   2.543   0.313  13.260  2.2581 -0.1049 -0.8176
  277MPD2    H2 4188   2.615   0.476  12.875  0.3414  0.5425  0.4674
  277MPD2    H3 4189   2.685   0.356  13.069 -0.3315 -0.9970  0.5729
  277MPD2     N 4190   2.256   0.378  13.259 -0.2942  0.2840 -0.3972
  277MPD2    H5 4191   2.169   0.428  13.247 -1.1416 -0.1333  4.1428
  277MPD2    N1 4192   2.388   0.615  12.846 -0.5681 -0.1493 -0.1585
  277MPD2    H7 4193   2.461   0.643  12.781 -0.7322 -0.2199 -0.3709
  278TMC3    C1 4194   2.178   0.326  13.477 -0.3935 -1.0005  0.1011
  278TMC3    C2 4195   2.187   0.229  13.569  0.2260  0.1951  0.0215
  278TMC3    C3 4196   2.077   0.188  13.639  0.1609  0.4049  0.5857
  278TMC3    C4 4197   2.067   0.402  13.462  0.1368  1.1516 -1.2469
  278TMC3    C5 4198   1.958   0.360  13.540  0.3998 -0.0262 -0.4226
  278TMC3    C6 4199   1.959   0.249  13.623  1.0918 -0.5275 -0.3350
  278TMC3     C 4200   2.284   0.324  13.385  0.1318  0.3952  0.2272
  278TMC3     O 4201   2.375   0.251  13.416 -0.0590  0.8705  0.0408
  278TMC3     H 4202   2.277   0.177  13.599  0.4005  0.5117  0.0431
  278TMC3    H1 4203   2.064   0.486  13.392  1.2496  2.4367  0.2473
  278TMC3    H2 4204   1.874   0.219  13.683  3.2239 -2.5806  1.6512
  278TMC3    C7 4205   1.835   0.427  13.514  0.4927  0.6890 -0.7706
  278TMC3    C8 4206   2.084   0.045  13.674 -0.2769 -0.3877 -0.1369
  278TMC3    O1 4207   1.832   0.475  13.402 -0.2207  0.1595  0.0733
  278TMC3    O2 4208   2.196   0.009  13.704 -0.7221 -0.0418 -0.0978
  279MPD2     C 4209   1.442   0.785   0.458 -0.3746  0.1811  0.4177
  279MPD2    C1 4210   1.360   0.772   0.345  0.1201 -0.0476 -0.2768
  279MPD2    C2 4211   1.413   0.757   0.216  0.4352 -0.1761 -0.2913
  279MPD2    C3 4212   1.552   0.792   0.197 -0.7398 -0.6661  0.9381
  279MPD2    C4 4213   1.625   0.827   0.310 -0.2338  0.9303 -0.3015
  279MPD2    C5 4214   1.574   0.826   0.434  0.3624  0.1987 -0.1419
  279MPD2     H 4215   1.337   0.757   0.138  0.3752 -0.0873 -0.2337
  279MPD2    H1 4216   1.730   0.851   0.296  0.5245 -0.1556  3.5043
  279MPD2    H2 4217   1.411   0.795   0.561 -1.7012  1.3614 -0.1011
  279MPD2    H3 4218   1.645   0.854   0.511  0.1724 -0.3290  0.2230
  279MPD2     N 4219   1.598   0.808   0.067  0.8340 -0.2032  0.0535
  279MPD2    H5 4220   1.687   0.856   0.058  0.1903  1.7224  4.2137
  279MPD2    N1 4221   1.221   0.759   0.369 -0.3332  0.2484  0.4662
  279MPD2    H7 4222   1.179   0.787   0.457 -3.2338 -0.3746 -0.7147
  280TMC3    C1 4223   0.992   0.725   0.308 -0.1020  0.4183  0.0629
  280TMC3    C2 4224   0.902   0.627   0.264 -0.1895  0.2244 -0.6761
  280TMC3    C3 4225   0.775   0.636   0.303 -0.2767  0.0156  0.1179
  280TMC3    C4 4226   0.946   0.833   0.380 -0.4054 -0.2953 -0.5425
  280TMC3    C5 4227   0.816   0.833   0.421 -0.7763 -0.0428  0.6343
  280TMC3    C6 4228   0.728   0.734   0.384 -0.0534 -0.8302 -0.6813
  280TMC3     C 4229   1.134   0.705   0.280  0.2966  0.2416 -0.6674
  280TMC3     O 4230   1.154   0.633   0.184 -0.0378  0.0084  0.3087
  280TMC3     H 4231   0.931   0.543   0.203  1.7810  2.1949 -2.4436
  280TMC3    H1 4232   1.004   0.924   0.390 -1.0384 -0.1067  1.3912
  280TMC3    H2 4233   0.623   0.740   0.410 -0.0576 -0.4133 -0.7892
  280TMC3    C7 4234   0.775   0.974   0.412 -0.5544  0.4814  0.0556
  280TMC3    C8 4235   0.681   0.598   0.202 -0.2995 -0.5483  0.2892
  280TMC3    O1 4236   0.846   1.062   0.462 -0.3388  0.0156  0.0483
  280TMC3    O2 4237   0.569   0.568   0.236 -0.0018 -0.8471 -0.4247
  281TMC3    C1 4238   0.388   1.440  13.558 -0.2153 -0.4860 -0.0990
  281TMC3    C2 4239   0.439   1.518  13.460  0.7883  0.2262 -0.0606
  281TMC3    C3 4240   0.425   1.488  13.330  0.0403 -1.0984 -0.5036
  281TMC3    C4 4241   0.322   1.320  13.536 -0.0770 -0.6415  0.2664
  281TMC3    C5 4242   0.310   1.293  13.403 -0.1526 -0.8600  0.1070
  281TMC3    C6 4243   0.370   1.370  13.302  0.0328 -0.1195 -0.6245
  281TMC3     C 4244   0.370   1.510  13.687  0.4378  1.2832 -0.1727
  281TMC3     O 4245   0.472   1.571  13.731 -0.2836 -0.0863 -0.2129
  281TMC3     H 4246   0.492   1.608  13.486  1.4172 -1.3756  4.2315
  281TMC3    H1 4247   0.288   1.254  13.615  0.6893  1.0601  2.0135
  281TMC3    H2 4248   0.358   1.341  13.198  1.4067 -1.5843 -0.3708
  281TMC3    C7 4249   0.213   1.190  13.360 -0.0026 -0.4496 -0.8176
  281TMC3    C8 4250   0.372   1.592  13.239  0.7995  0.2380 -0.3390
  281TMC3    O1 4251   0.181   1.192  13.245  0.0288  0.6776  0.4314
  281TMC3    O2 4252   0.369   1.561  13.121  0.3952  0.3223  0.2280
  282MPD2     C 4253   1.889   2.301  15.104  0.4981 -0.2461 -0.0286
  282MPD2    C1 4254   1.799   2.324  15.202  0.0288  0.0251 -0.0411
  282MPD2    C2 4255   1.673   2.373  15.175 -0.1245 -0.2126  0.2212
  282MPD2    C3 4256   1.645   2.412  15.042  0.8554  0.0925  0.4585
  282MPD2    C4 4257   1.736   2.390  14.941  1.0093 -0.6546  0.1195
  282MPD2    C5 4258   1.857   2.332  14.970 -0.0310  0.0818  0.0250
  282MPD2     H 4259   1.602   2.388  15.255  0.8823 -1.4399  1.3375
  282MPD2    H1 4260   1.729   2.425  14.839  1.1641 -0.2428  0.2482
  282MPD2    H2 4261   1.981   2.247  15.122  1.2581  0.7822 -0.7458
  282MPD2    H3 4262   1.928   2.321  14.889  1.1327 -2.3585  1.3588
  282MPD2     N 4263   1.524   2.475  15.010 -0.1719  0.0324  0.0715
  282MPD2    H5 4264   1.456   2.495  15.083  0.7556 -0.4829  1.0801
  282MPD2    N1 4265   1.826   2.280  15.336 -0.2838 -0.1778  0.0582
  282MPD2    H7 4266   1.760   2.310  15.407 -0.6631  0.2713 -0.4900
  283TMC3    C1 4267   1.942   2.211  15.514  0.1836  0.1301  0.3791
  283TMC3    C2 4268   1.938   2.338  15.571  0.2276  0.0617 -0.8757
  283TMC3    C3 4269   1.929   2.350  15.710 -0.3806  0.2609 -0.2586
  283TMC3    C4 4270   1.933   2.096  15.595  0.0688 -0.3451  0.5085
  283TMC3    C5 4271   1.928   2.119  15.730  0.5299 -0.2905 -0.1536
  283TMC3    C6 4272   1.941   2.239  15.789 -0.3674 -0.8760  0.7407
  283TMC3     C 4273   1.935   2.199  15.374 -0.1846  0.1977 -0.3260
  283TMC3     O 4274   2.008   2.116  15.315  0.0369  0.3664  0.0757
  283TMC3     H 4275   1.953   2.422  15.505  0.0774  0.2891 -0.6186
  283TMC3    H1 4276   1.931   1.998  15.549  1.8737  0.3914 -1.1478
  283TMC3    H2 4277   1.927   2.253  15.896 -0.1543 -1.2317  0.8150
  283TMC3    C7 4278   1.828   2.045  15.801  0.5389  0.5469 -0.3683
  283TMC3    C8 4279   1.982   2.470  15.780 -0.6762  0.3643  0.0984
  283TMC3    O1 4280   1.825   2.061  15.925 -0.3818  0.0213 -0.5166
  283TMC3    O2 4281   2.055   2.456  15.878  0.7894 -0.8826 -0.5292
  284MPD2     C 4282   0.641   1.647  12.034 -0.3782 -0.7532  0.7418
  284MPD2    C1 4283   0.709   1.552  11.958 -0.0183 -0.7629  0.2863
  284MPD2    C2 4284   0.649   1.435  11.919 -0.4325 -0.1314 -0.3343
  284MPD2    C3 4285   0.517   1.409  11.957  0.5403 -0.2697 -0.4133
  284MPD2    C4 4286   0.456   1.496  12.030  0.2152  1.0817 -0.1032
  284MPD2    C5 4287   0.514   1.615  12.069 -0.2114  0.2693  0.2109
  284MPD2     H 4288   0.718   1.377  11.860  0.4120  1.4664 -0.9061
  284MPD2    H1 4289   0.354   1.478  12.061  0.0434  0.2884 -1.1233
  284MPD2    H2 4290   0.682   1.748  12.039  0.2458 -0.9308 -1.0023
  284MPD2    H3 4291   0.448   1.691  12.110 -1.7601 -0.3999 -1.0257
  284MPD2     N 4292   0.440   1.297  11.905 -0.1536 -0.0190 -0.1709
  284MPD2    H5 4293   0.350   1.283  11.951  0.1491  2.5099  1.2059
  284MPD2    N1 4294   0.842   1.566  11.913 -0.2657  0.3497  0.1880
  284MPD2    H7 4295   0.878   1.486  11.864  0.1498  0.2983  0.5772
  285TMC3    C1 4296   1.025   1.676  11.829  0.1460 -0.3962  0.4490
  285TMC3    C2 4297   1.010   1.609  11.711  0.0398 -0.2136 -0.3760
  285TMC3    C3 4298   1.102   1.638  11.611  0.0126 -0.1054  0.5151
  285TMC3    C4 4299   1.124   1.760  11.853  0.0662 -0.2765  0.3363
  285TMC3    C5 4300   1.209   1.785  11.753 -0.0328 -0.4868 -0.2131
  285TMC3    C6 4301   1.200   1.722  11.626  0.0284 -0.0094 -0.0035
  285TMC3     C 4302   0.923   1.673  11.925  0.6694 -0.0691  0.1480
  285TMC3     O 4303   0.914   1.775  11.994 -0.4330 -0.0577 -0.0202
  285TMC3     H 4304   0.917   1.561  11.685 -0.8113  1.2190  0.0027
  285TMC3    H1 4305   1.142   1.809  11.948 -0.4640  0.6772 -0.0551
  285TMC3    H2 4306   1.266   1.741  11.543  0.3415  0.3250  0.3215
  285TMC3    C7 4307   1.290   1.913  11.737  0.1219 -0.0704  0.2089
  285TMC3    C8 4308   1.044   1.616  11.481 -1.0111 -0.5349  0.9137
  285TMC3    O1 4309   1.376   1.916  11.650  0.2500  0.0427 -0.1383
  285TMC3    O2 4310   0.950   1.538  11.472  0.1473 -0.5377 -0.4711
  286MPD2     C 4311   0.550   0.552   1.551  0.4963 -0.0246 -0.0912
  286MPD2    C1 4312   0.549   0.543   1.415 -0.6121 -0.1468 -0.1421
  286MPD2    C2 4313   0.654   0.493   1.346 -0.2708 -0.5663 -0.4968
  286MPD2    C3 4314   0.768   0.445   1.417 -0.1372  0.2819  0.1944
  286MPD2    C4 4315   0.763   0.441   1.553 -0.1265 -0.3360  0.0201
  286MPD2    C5 4316   0.658   0.501   1.622  0.3149  0.2053  1.0004
  286MPD2     H 4317   0.647   0.492   1.238 -0.5931 -1.2925 -0.4744
  286MPD2    H1 4318   0.848   0.417   1.616 -1.3593  0.3444  1.9612
  286MPD2    H2 4319   0.467   0.587   1.611  1.1228 -0.7178  1.1686
  286MPD2    H3 4320   0.668   0.518   1.729  1.2271  2.0425  0.6317
  286MPD2     N 4321   0.888   0.401   1.361 -0.0050  0.0394  0.5202
  286MPD2    H5 4322   0.961   0.367   1.423 -0.9350 -3.7066 -0.4283
  286MPD2    N1 4323   0.442   0.584   1.335 -0.1199  0.1885  0.5074
  286MPD2    H7 4324   0.449   0.561   1.236  0.7144  1.1801  0.3303
  287TMC3    C1 4325   1.039   0.362   1.175 -0.6468  0.3780 -0.0908
  287TMC3    C2 4326   1.041   0.332   1.041 -0.0952 -0.1779  0.1101
  287TMC3    C3 4327   1.151   0.274   0.988  0.0230  0.4429  0.0050
  287TMC3    C4 4328   1.140   0.327   1.262  0.4524  0.7454 -1.3894
  287TMC3    C5 4329   1.243   0.261   1.203  0.0677  0.8133  0.2974
  287TMC3    C6 4330   1.253   0.231   1.066  0.3417  0.2054 -0.4227
  287TMC3     C 4331   0.907   0.399   1.223 -0.0536 -1.2279 -0.5644
  287TMC3     O 4332   0.815   0.403   1.141 -0.1762  0.2415  0.0809
  287TMC3     H 4333   0.967   0.370   0.971 -0.4121  1.5416  1.3852
  287TMC3    H1 4334   1.124   0.349   1.367  0.6854 -1.5559 -0.8628
  287TMC3    H2 4335   1.318   0.156   1.023 -1.3570 -0.9769 -0.9319
  287TMC3    C7 4336   1.359   0.246   1.284 -1.2647 -0.2362 -0.0514
  287TMC3    C8 4337   1.128   0.193   0.862  1.0607  0.2245 -0.1742
  287TMC3    O1 4338   1.356   0.292   1.399  0.3162 -0.1287  0.0406
  287TMC3    O2 4339   1.009   0.169   0.840 -0.1401  0.6539  0.0327
  288TMC3    C1 4340   3.037   4.232  15.064 -0.5755  0.4438 -0.6152
  288TMC3    C2 4341   2.941   4.336  15.076 -0.4083 -0.6380 -0.4748
  288TMC3    C3 4342   2.897   4.401  14.962 -1.0560  0.2333 -0.3930
  288TMC3    C4 4343   3.072   4.188  14.942  0.7111  0.0343  0.0283
  288TMC3    C5 4344   3.027   4.250  14.833 -0.2808  0.2597 -0.1884
  288TMC3    C6 4345   2.937   4.356  14.839 -0.2846 -0.4007 -0.6370
  288TMC3     C 4346   3.099   4.166  15.178  1.0636 -0.4260  0.4961
  288TMC3     O 4347   3.215   4.132  15.169 -0.2987  0.2433  0.4181
  288TMC3     H 4348   2.898   4.359  15.172 -0.4112 -0.4388 -0.5235
  288TMC3    H1 4349   3.160   4.124  14.935 -0.7494 -1.9349 -0.3677
  288TMC3    H2 4350   2.889   4.392  14.749  0.9742  0.2812 -1.0326
  288TMC3    C7 4351   3.101   4.230  14.717  0.2848 -0.3295  0.3330
  288TMC3    C8 4352   2.761   4.459  14.971  0.4970 -0.6401  0.5116
  288TMC3    O1 4353   3.207   4.170  14.725 -0.2209  0.1597 -0.0184
  288TMC3    O2 4354   2.685   4.431  15.062  0.2086  0.3459  0.4427
  289MPD2     C 4355   2.239   3.641  14.389 -0.2796 -0.0662 -0.2929
  289MPD2    C1 4356   2.207   3.771  14.390  0.8013  0.8519  0.7021
  289MPD2    C2 4357   2.087   3.815  14.333  0.0482 -0.3497  0.3186
  289MPD2    C3 4358   2.004   3.723  14.274 -0.9739 -0.3138 -0.5515
  289MPD2    C4 4359   2.047   3.594  14.268  0.2524 -0.3057  0.4971
  289MPD2    C5 4360   2.156   3.554  14.333  0.1867  0.4320 -0.2582
  289MPD2     H 4361   2.049   3.914  14.353  1.3679  0.0239  0.9471
  289MPD2    H1 4362   2.000   3.515  14.211  1.1403 -1.0323  0.7747
  289MPD2    H2 4363   2.339   3.606  14.414 -1.0216 -0.2955  2.2822
  289MPD2    H3 4364   2.190   3.452  14.316  1.7500  0.6605  1.5450
  289MPD2     N 4365   1.876   3.741  14.211  0.0280 -0.0492 -0.3079
  289MPD2    H5 4366   1.825   3.654  14.204 -0.2013  0.1136 -0.6657
  289MPD2    N1 4367   2.299   3.860  14.451 -0.1970 -0.1757  0.2076
  289MPD2    H7 4368   2.370   3.807  14.501  1.0123  0.2192 -1.0764
  290TMC3    C1 4369   1.672   3.847  14.156 -0.4049 -0.3637  0.4665
  290TMC3    C2 4370   1.620   3.935  14.070 -0.0694 -0.2156  0.2261
  290TMC3    C3 4371   1.492   3.935  14.034 -0.3205  0.4571  0.7807
  290TMC3    C4 4372   1.597   3.740  14.185  0.0836  0.9010  0.3294
  290TMC3    C5 4373   1.471   3.731  14.133 -0.5094  0.9220  0.6897
  290TMC3    C6 4374   1.410   3.828  14.060  0.6604 -0.3070  0.0355
  290TMC3     C 4375   1.811   3.866  14.190 -0.6714  0.3120 -0.4964
  290TMC3     O 4376   1.847   3.986  14.214  0.1808 -0.2069 -0.3058
  290TMC3     H 4377   1.687   4.015  14.041  0.9175 -1.6142 -1.3756
  290TMC3    H1 4378   1.644   3.683  14.264  0.2670 -2.5507 -2.2450
  290TMC3    H2 4379   1.313   3.818  14.013  0.8136 -0.8280 -0.1694
  290TMC3    C7 4380   1.379   3.646  14.210  0.3274  0.2639 -0.9605
  290TMC3    C8 4381   1.425   4.056  13.992 -0.2810  0.8022  0.4821
  290TMC3    O1 4382   1.286   3.700  14.265  0.2724 -0.1465 -0.0814
  290TMC3    O2 4383   1.320   4.038  13.934 -0.0043 -0.1618 -0.6730
  291MPD2     C 4384   1.007   3.962   0.136  0.2857  0.1732  0.0883
  291MPD2    C1 4385   1.054   3.836   0.163  0.7275 -0.1205  0.0833
  291MPD2    C2 4386   1.171   3.831   0.241 -0.5609 -0.6728  0.0238
  291MPD2    C3 4387   1.221   3.938   0.312  0.1924  0.3967  0.1356
  291MPD2    C4 4388   1.159   4.058   0.291 -0.3384 -1.1221 -0.3333
  291MPD2    C5 4389   1.055   4.074   0.202 -0.1506 -0.4510  0.4561
  291MPD2     H 4390   1.216   3.734   0.258  0.7561 -0.0234  0.2655
  291MPD2    H1 4391   1.183   4.153   0.339  0.8807 -1.0879 -1.0085
  291MPD2    H2 4392   0.943   3.977   0.050 -0.6302 -0.1459  0.7168
  291MPD2    H3 4393   1.019   4.173   0.176  1.3023 -0.3428 -1.1815
  291MPD2     N 4394   1.323   3.928   0.406  0.1216 -0.4936 -0.0812
  291MPD2    H5 4395   1.349   4.014   0.453 -2.2645  0.1967  0.0009
  291MPD2    N1 4396   1.011   3.720   0.101  0.0086 -0.2689 -0.6242
  291MPD2    H7 4397   1.050   3.632   0.134 -0.2847  0.3640  1.3988
  292TMC3    C1 4398   0.884   3.586  17.647  0.2402  0.3874  0.6823
  292TMC3    C2 4399   0.761   3.556  17.592  0.5542 -0.2407  0.3159
  292TMC3    C3 4400   0.744   3.434  17.536 -0.7810  0.2729  0.3563
  292TMC3    C4 4401   0.987   3.496  17.638 -0.1437 -0.5293 -0.0825
  292TMC3    C5 4402   0.965   3.375  17.589  0.0590  0.2993 -0.5988
  292TMC3    C6 4403   0.840   3.335  17.542 -0.4160  0.2527 -0.5149
  292TMC3     C 4404   0.909   3.714   0.008  0.3226 -0.4960 -0.6674
  292TMC3     O 4405   0.833   3.801  17.660  0.0293  0.2882  0.0546
  292TMC3     H 4406   0.678   3.626  17.604 -0.1666 -0.8663 -1.0008
  292TMC3    H1 4407   1.089   3.526  17.656 -0.5802  1.9516 -1.6981
  292TMC3    H2 4408   0.832   3.234  17.502  1.1571 -0.1621  0.2247
  292TMC3    C7 4409   1.080   3.284  17.586  0.2793 -0.4923  0.2607
  292TMC3    C8 4410   0.609   3.389  17.509  0.0582  0.0091 -0.4625
  292TMC3    O1 4411   1.070   3.184  17.518  0.3901 -0.3190 -0.2285
  292TMC3    O2 4412   0.520   3.468  17.473 -0.1291 -0.2455 -0.0655
  293MPD2     C 4413   3.604   0.818  12.660 -0.1344  0.1159  0.1955
  293MPD2    C1 4414   3.517   0.729  12.715 -0.2993 -0.2729  0.1718
  293MPD2    C2 4415   3.489   0.734  12.848  0.1944 -0.4164  0.3419
  293MPD2    C3 4416   3.552   0.830  12.920  0.6683 -0.4375 -0.0717
  293MPD2    C4 4417   3.650   0.914  12.874 -0.4669 -0.4513 -0.0986
  293MPD2    C5 4418   3.667   0.920  12.734  0.4243 -0.6943  0.1848
  293MPD2     H 4419   3.417   0.671  12.900 -1.0603 -0.5336 -1.5143
  293MPD2    H1 4420   3.698   0.988  12.936  0.8512 -0.6334 -0.9098
  293MPD2    H2 4421   3.638   0.809  12.557 -0.6387 -0.5688  0.0902
  293MPD2    H3 4422   3.736   0.990  12.688  0.3966 -0.5409  0.3746
  293MPD2     N 4423   3.522   0.829  13.058 -0.0303 -0.1740  0.4681
  293MPD2    H5 4424   3.477   0.748  13.100  0.3659  0.1042  1.4161
  293MPD2    N1 4425   3.469   0.625  12.627 -0.7139  0.4318 -0.1100
  293MPD2    H7 4426   3.514   0.614  12.537 -0.8798  0.7774 -0.2349
  294TMC3    C1 4427   3.324   0.443  12.554 -0.6618 -0.3724  0.3948
  294TMC3    C2 4428   3.208   0.373  12.562  0.3567  0.1995  0.1222
  294TMC3    C3 4429   3.196   0.260  12.487 -0.2848  0.2403  0.9350
  294TMC3    C4 4430   3.419   0.407  12.461  0.0702  0.2470  0.6354
  294TMC3    C5 4431   3.397   0.300  12.377  0.0550 -0.1511 -0.4575
  294TMC3    C6 4432   3.283   0.228  12.381 -0.6513 -0.4180  0.7783
  294TMC3     C 4433   3.360   0.548  12.661  0.0315  0.1781  0.2453
  294TMC3     O 4434   3.279   0.561  12.749 -0.3887  0.3012  0.6607
  294TMC3     H 4435   3.132   0.409  12.631  0.3172  0.5519 -0.1035
  294TMC3    H1 4436   3.523   0.437  12.464  0.3565 -0.7712  0.9310
  294TMC3    H2 4437   3.254   0.154  12.307 -0.3002  1.0843 -0.8472
  294TMC3    C7 4438   3.478   0.287  12.259 -0.1043  0.2825 -0.2685
  294TMC3    C8 4439   3.074   0.182  12.516 -0.5737  0.3664 -0.1006
  294TMC3    O1 4440   3.451   0.188  12.192 -0.1783  0.4148 -0.1152
  294TMC3    O2 4441   3.015   0.207  12.620  0.2355 -0.8607 -0.1609
  295MPD2     C 4442   3.755   3.994   1.320 -0.0584 -0.0878 -0.4260
  295MPD2    C1 4443   3.634   3.986   1.248  0.0016  0.0618  0.2061
  295MPD2    C2 4444   3.517   3.978   1.312  0.0719  0.6844  0.0727
  295MPD2    C3 4445   3.513   3.967   1.448  0.5256  0.8028  0.8663
  295MPD2    C4 4446   3.628   3.964   1.517 -0.2443 -0.4683 -0.5756
  295MPD2    C5 4447   3.753   3.972   1.455 -0.0218  0.4027  0.0131
  295MPD2     H 4448   3.432   3.979   1.245  0.6920  2.5419 -0.6840
  295MPD2    H1 4449   3.632   3.946   1.624 -1.0453 -0.7267 -0.5899
  295MPD2    H2 4450   3.851   3.994   1.271  0.2405 -0.9102  0.1605
  295MPD2    H3 4451   3.845   3.975   1.514  1.0751 -2.3720 -1.5062
  295MPD2     N 4452   3.386   3.954   1.517  0.2680 -0.3972  0.7065
  295MPD2    H5 4453   3.392   3.934   1.617 -0.7812 -0.0764  0.8332
  295MPD2    N1 4454   3.625   3.978   1.110 -0.0216 -0.3037  0.0567
  295MPD2    H7 4455   3.532   3.980   1.069 -1.2090 -2.0953  2.6541
  296TMC3    C1 4456   3.158   3.958   1.558  0.0051 -0.3134 -0.6062
  296TMC3    C2 4457   3.173   4.049   1.663  0.2346 -0.7908 -0.9725
  296TMC3    C3 4458   3.049   4.086   1.714  0.2319 -0.6699  0.0719
  296TMC3    C4 4459   3.042   3.906   1.515  0.0370 -0.6660 -0.6805
  296TMC3    C5 4460   2.930   3.954   1.565  0.2183  0.3693  0.2217
  296TMC3    C6 4461   2.927   4.040   1.672  0.1056  0.1181 -0.3240
  296TMC3     C 4462   3.264   3.954   1.462 -0.1411  0.0972 -0.2242
  296TMC3     O 4463   3.235   3.923   1.347  0.0635  0.3572 -0.1282
  296TMC3     H 4464   3.270   4.091   1.690 -0.6107  0.9184 -0.5800
  296TMC3    H1 4465   3.030   3.836   1.432  2.9075 -0.2197 -1.4697
  296TMC3    H2 4466   2.833   4.064   1.720  0.3156  0.4701 -0.0908
  296TMC3    C7 4467   2.810   3.875   1.540 -0.8412  0.5960 -0.1939
  296TMC3    C8 4468   3.038   4.208   1.793 -0.3259  0.1932  0.3545
  296TMC3    O1 4469   2.709   3.943   1.519  0.1632  0.1224 -0.3120
  296TMC3    O2 4470   2.933   4.272   1.788 -0.2399  0.4516  0.0130
  297MPD2     C 4471   0.954   1.400  16.393  0.0826 -0.4251  0.3177
  297MPD2    C1 4472   0.962   1.451  16.268 -0.0783  0.3347 -0.2248
  297MPD2    C2 4473   1.078   1.525  16.243  0.3871  0.4782  0.9280
  297MPD2    C3 4474   1.184   1.544  16.330 -0.6783  0.1638 -0.0985
  297MPD2    C4 4475   1.173   1.492  16.454  0.1126 -0.1749 -0.0166
  297MPD2    C5 4476   1.057   1.424  16.482 -0.5680  0.0241 -0.1710
  297MPD2     H 4477   1.086   1.570  16.144 -0.1321 -1.3145  0.0685
  297MPD2    H1 4478   1.240   1.510  16.537  0.4935 -0.9339 -0.1595
  297MPD2    H2 4479   0.867   1.352  16.437 -0.9624  1.0258 -0.1736
  297MPD2    H3 4480   1.029   1.381  16.577  0.6789 -1.1627 -0.3327
  297MPD2     N 4481   1.280   1.647  16.297  0.1654 -0.5592  0.0123
  297MPD2    H5 4482   1.289   1.665  16.198 -1.0158  2.6160  0.4800
  297MPD2    N1 4483   0.852   1.448  16.174  0.4061  0.4026 -0.0013
  297MPD2    H7 4484   0.856   1.508  16.092 -0.0277  2.9049  1.8069
  298TMC3    C1 4485   0.625   1.428  16.098 -0.3925  0.2040  0.5439
  298TMC3    C2 4486   0.656   1.451  15.970 -0.0280  0.1269 -0.5061
  298TMC3    C3 4487   0.557   1.484  15.883 -1.1263  0.4771  0.1053
  298TMC3    C4 4488   0.489   1.430  16.139 -0.3550  0.5090 -0.2854
  298TMC3    C5 4489   0.396   1.480  16.051 -0.6438  0.2935  0.2201
  298TMC3    C6 4490   0.425   1.496  15.914 -0.1161  0.4050 -0.3400
  298TMC3     C 4491   0.724   1.397  16.201 -1.1729 -0.1504  0.9392
  298TMC3     O 4492   0.684   1.355  16.307  0.2628 -0.4602  0.0785
  298TMC3     H 4493   0.761   1.458  15.945  0.0761 -1.8333 -0.6195
  298TMC3    H1 4494   0.462   1.413  16.242  0.9449 -0.0637 -0.0346
  298TMC3    H2 4495   0.360   1.547  15.843 -1.0304  0.8609  0.8134
  298TMC3    C7 4496   0.275   1.530  16.118  0.4569  0.0681  0.0477
  298TMC3    C8 4497   0.597   1.532  15.749 -0.0063 -0.6619 -0.3575
  298TMC3    O1 4498   0.278   1.552  16.236 -0.1145  0.1255  1.3639
  298TMC3    O2 4499   0.512   1.593  15.682 -0.4160 -0.7171 -0.0532
  299MPD2     C 4500   2.059   1.325   9.983  0.2608 -0.3945  0.4393
  299MPD2    C1 4501   1.974   1.275  10.082 -0.4004 -0.2095  0.2578
  299MPD2    C2 4502   1.842   1.234  10.053  0.4821 -0.2423 -0.1059
  299MPD2    C3 4503   1.796   1.257   9.923  0.6436 -0.1550 -0.2396
  299MPD2    C4 4504   1.879   1.321   9.833 -0.5116 -0.1452 -0.1642
  299MPD2    C5 4505   2.005   1.344   9.862 -0.0886  0.6474  0.0460
  299MPD2     H 4506   1.781   1.202  10.136 -1.0487  0.0656 -1.1145
  299MPD2    H1 4507   1.839   1.338   9.733  1.2566 -0.0255 -0.8510
  299MPD2    H2 4508   2.164   1.335  10.011  1.0121  0.3076 -2.5726
  299MPD2    H3 4509   2.068   1.390   9.786  1.5981 -2.1006 -0.2138
  299MPD2     N 4510   1.662   1.246   9.885 -0.3063  0.1469 -0.2781
  299MPD2    H5 4511   1.630   1.282   9.795 -0.0493  1.8101  0.2807
  299MPD2    N1 4512   2.036   1.260  10.211 -0.4307  0.5209 -0.2325
  299MPD2    H7 4513   2.137   1.274  10.215 -0.1238 -1.6483 -0.4705
  300TMC3    C1 4514   1.429   1.205   9.923  0.1694  0.2993  0.1367
  300TMC3    C2 4515   1.383   1.327   9.882 -0.1847  0.1320 -0.1147
  300TMC3    C3 4516   1.251   1.357   9.895 -0.0574  0.0029 -0.0318
  300TMC3    C4 4517   1.337   1.117   9.966  0.2240 -0.1098  0.1844
  300TMC3    C5 4518   1.198   1.147   9.969 -0.6055  0.2160 -0.1242
  300TMC3    C6 4519   1.155   1.271   9.932  0.1686 -0.2609 -0.3944
  300TMC3     C 4520   1.563   1.189   9.964  0.8902  0.5495  0.6462
  300TMC3     O 4521   1.576   1.108  10.054 -0.0756  0.7206  0.2228
  300TMC3     H 4522   1.456   1.397   9.844 -3.2168  3.1384 -0.4245
  300TMC3    H1 4523   1.363   1.021  10.009  1.7882  0.1951 -0.0779
  300TMC3    H2 4524   1.050   1.296   9.942  0.5569  1.3395 -0.3668
  300TMC3    C7 4525   1.112   1.059  10.046 -0.3018 -0.6502  0.5999
  300TMC3    C8 4526   1.225   1.498   9.914  0.6012  0.4732 -0.1518
  300TMC3    O1 4527   1.131   0.942  10.036  0.4548 -0.1360 -0.3672
  300TMC3    O2 4528   1.319   1.553   9.974  0.4372  0.8962  0.4323
  301MPD2     C 4529   3.119   1.420   1.955 -0.4113  0.7499  0.0344
  301MPD2    C1 4530   3.108   1.507   1.850 -1.0861  0.2939 -0.0702
  301MPD2    C2 4531   3.222   1.530   1.777  0.1645  0.3208  0.5166
  301MPD2    C3 4532   3.337   1.463   1.801 -0.8402 -0.4276  0.7484
  301MPD2    C4 4533   3.348   1.383   1.912 -0.4040  0.7370  0.0602
  301MPD2    C5 4534   3.232   1.350   1.979  0.0172  0.0489 -0.4706
  301MPD2     H 4535   3.209   1.607   1.702 -0.0533 -0.6361 -0.4232
  301MPD2    H1 4536   3.442   1.337   1.941  0.5994  1.7868 -1.5431
  301MPD2    H2 4537   3.025   1.382   1.992  0.1917 -0.1086  0.6740
  301MPD2    H3 4538   3.242   1.273   2.055  0.9487  0.2570 -0.3813
  301MPD2     N 4539   3.454   1.491   1.715 -0.1688 -0.3706 -0.0751
  301MPD2    H5 4540   3.441   1.566   1.647 -0.0155 -0.8097 -0.5838
  301MPD2    N1 4541   2.982   1.567   1.809 -0.0624 -0.0798 -0.3738
  301MPD2    H7 4542   2.990   1.633   1.732  2.6974 -0.3125 -0.2960
  302TMC3    C1 4543   3.684   1.476   1.627  0.2877  0.2582 -0.3574
  302TMC3    C2 4544   3.809   1.433   1.652 -0.7810  0.9771  0.7913
  302TMC3    C3 4545   3.901   1.433   1.547  0.0569  0.5654  1.1017
  302TMC3    C4 4546   3.646   1.524   1.503  0.1984  0.7333  0.0719
  302TMC3    C5 4547   3.742   1.509   1.402 -0.7634 -0.4371 -1.1767
  302TMC3    C6 4548   3.864   1.470   1.424 -1.0614 -0.2612  0.2209
  302TMC3     C 4549   3.576   1.420   1.714 -0.0010 -0.8946 -0.4223
  302TMC3     O 4550   3.617   1.332   1.790  1.1091  0.2349 -0.3162
  302TMC3     H 4551   3.831   1.390   1.749 -0.1168 -0.0668  0.1770
  302TMC3    H1 4552   3.544   1.552   1.477  0.5807  2.6189  0.6343
  302TMC3    H2 4553   3.925   1.472   1.335 -1.0129  2.7595  0.3056
  302TMC3    C7 4554   3.719   1.569   1.269 -0.1911  0.0363 -0.9924
  302TMC3    C8 4555   3.993   1.317   1.549  0.4195  0.1655  0.6060
  302TMC3    O1 4556   3.819   1.600   1.204  0.1074  0.0201 -0.5823
  302TMC3    O2 4557   4.016   1.267   1.442  0.8620  0.1030  0.2246
  303MPD2     C 4558   4.070   4.637  10.374  0.0793  0.0038 -0.2906
  303MPD2    C1 4559   3.946   4.579  10.347  0.0674 -0.6772  0.8835
  303MPD2    C2 4560   3.835   4.644  10.309 -0.2228 -0.3265 -0.0466
  303MPD2    C3 4561   3.856   0.056  10.292  0.4358 -0.6040 -0.4740
  303MPD2    C4 4562   3.975   0.119  10.307  0.1062 -0.2259  0.0974
  303MPD2    C5 4563   4.085   0.046  10.343 -0.2660 -0.8356 -0.0475
  303MPD2     H 4564   3.734   4.608  10.290  0.2284 -1.3615 -0.5062
  303MPD2    H1 4565   3.983   0.224  10.281  0.2406 -0.7466 -1.9969
  303MPD2    H2 4566   4.146   4.574  10.418 -0.2518 -0.7878 -0.8503
  303MPD2    H3 4567   4.176   0.099  10.369 -0.3118 -0.8913  0.2315
  303MPD2     N 4568   3.746   0.144  10.275 -0.5312 -0.1669 -0.4376
  303MPD2    H5 4569   3.773   0.241  10.272  0.3463 -0.4317 -0.9784
  303MPD2    N1 4570   3.926   4.445  10.373 -0.1295 -0.3304  0.3268
  303MPD2    H7 4571   4.011   4.391  10.388 -0.9633 -1.1883  2.0825
  304TMC3    C1 4572   3.826   4.241  10.419 -0.7121  0.1022  0.1888
  304TMC3    C2 4573   3.926   4.218  10.507 -0.5945  0.2987 -0.6517
  304TMC3    C3 4574   3.902   4.143  10.619  0.3961  0.4387  0.6037
  304TMC3    C4 4575   3.708   4.182  10.407  0.8316  0.5704 -0.0978
  304TMC3    C5 4576   3.685   4.111  10.522 -0.3925 -0.1617 -0.9147
  304TMC3    C6 4577   3.781   4.076  10.617 -0.2556 -0.3313 -0.5528
  304TMC3     C 4578   3.804   4.378  10.391  0.6105  0.0538  0.3494
  304TMC3     O 4579   3.691   4.419  10.414 -0.0410 -0.5446 -0.0123
  304TMC3     H 4580   4.019   4.274  10.514  0.4929 -1.5106 -0.7482
  304TMC3    H1 4581   3.629   4.229  10.350  0.1629  0.7275  0.9631
  304TMC3    H2 4582   3.746   4.015  10.700 -0.4240 -1.5166 -1.4890
  304TMC3    C7 4583   3.566   4.126  10.594 -0.5796 -0.6734 -0.1894
  304TMC3    C8 4584   3.931   4.212  10.744  0.0486 -0.2492  0.8186
  304TMC3    O1 4585   3.583   4.178  10.706  0.1744 -0.0133 -0.3683
  304TMC3    O2 4586   4.013   4.301  10.731  0.2041  0.1448 -0.3638
  305MPD2     C 4587   1.776   2.114  14.023 -0.3827  0.6425  0.0934
  305MPD2    C1 4588   1.889   2.184  13.987  0.3268  0.0675 -0.2548
  305MPD2    C2 4589   1.921   2.199  13.861 -0.1583  0.4251  0.7556
  305MPD2    C3 4590   1.852   2.126  13.766 -0.1362 -0.4802  0.7144
  305MPD2    C4 4591   1.749   2.042  13.804  0.3040 -0.9022  0.6569
  305MPD2    C5 4592   1.712   2.039  13.933  0.2880 -0.1499 -1.4052
  305MPD2     H 4593   2.006   2.265  13.843 -1.1477  1.6908  0.7747
  305MPD2    H1 4594   1.688   1.982  13.737  0.4086 -0.3713  0.0782
  305MPD2    H2 4595   1.749   2.120  14.129  0.3220 -0.9301  0.3451
  305MPD2    H3 4596   1.629   1.975  13.961  0.6370 -0.5748 -1.3478
  305MPD2     N 4597   1.886   2.124  13.625  0.0204 -0.2625  0.4342
  305MPD2    H5 4598   1.846   2.049  13.569  0.4037  1.3778 -2.0169
  305MPD2    N1 4599   1.946   2.256  14.097  0.1550 -0.8333  0.6071
  305MPD2    H7 4600   1.903   2.255  14.189 -0.4847 -0.3064  0.3134
  306TMC3    C1 4601   2.113   2.316  14.237 -0.1605  0.1170 -0.5471
  306TMC3    C2 4602   2.222   2.256  14.295  0.1553  0.0555  0.5412
  306TMC3    C3 4603   2.229   2.238  14.429  0.0181 -0.2945 -0.2611
  306TMC3    C4 4604   2.031   2.390  14.318  0.2697  0.5181 -0.0048
  306TMC3    C5 4605   2.046   2.385  14.456  0.8521 -1.0578  0.5103
  306TMC3    C6 4606   2.140   2.300  14.513  0.7965  0.3010  0.4818
  306TMC3     C 4607   2.083   2.272  14.106 -0.1301  0.6253 -0.5803
  306TMC3     O 4608   2.164   2.241  14.019  0.2411  0.1377  0.2661
  306TMC3     H 4609   2.287   2.194  14.234 -1.0552  0.0542 -0.7620
  306TMC3    H1 4610   1.959   2.457  14.272 -0.9651 -0.5194  0.4250
  306TMC3    H2 4611   2.151   2.290  14.621 -2.6577  2.4268  1.0565
  306TMC3    C7 4612   1.953   2.459  14.544  0.3307  0.4067  0.3857
  306TMC3    C8 4613   2.331   2.154  14.486 -0.3706 -0.3451 -0.2146
  306TMC3    O1 4614   1.834   2.460  14.514 -0.4231 -0.5173 -0.3673
  306TMC3    O2 4615   2.405   2.104  14.399 -0.8863  0.0226  0.5885
  307MPD2     C 4616   3.616   4.630   1.660 -0.2164 -0.0511 -0.7718
  307MPD2    C1 4617   3.682   4.718   1.577  0.1600  0.0648  0.1160
  307MPD2    C2 4618   3.619   0.121   1.562 -0.1734  0.1915 -0.4991
  307MPD2    C3 4619   3.501   0.155   1.619 -0.4503  0.5321  0.2474
  307MPD2    C4 4620   3.437   0.066   1.693 -0.3790 -1.0873  0.3295
  307MPD2    C5 4621   3.493   4.669   1.717  0.5002 -0.6554 -0.2857
  307MPD2     H 4622   3.651   0.184   1.480  0.7966  0.7727  0.3254
  307MPD2    H1 4623   3.337   0.076   1.735 -0.7797  0.7245 -1.0774
  307MPD2    H2 4624   3.653   4.533   1.691  0.6775  0.2957 -0.7361
  307MPD2    H3 4625   3.422   4.608   1.770 -1.8038  0.5173 -2.0071
  307MPD2     N 4626   3.458   0.288   1.587 -0.2949 -0.1178  0.2685
  307MPD2    H5 4627   3.524   0.349   1.538  1.2824  0.6936  3.4187
  307MPD2    N1 4628   3.809   4.700   1.523  0.4146 -0.0676 -0.1937
  307MPD2    H7 4629   3.857   0.057   1.482  0.7299 -0.0186  0.2624
  308TMC3    C1 4630   3.210   0.546   1.344  0.3326  0.8597  0.6057
  308TMC3    C2 4631   3.331   0.606   1.300 -0.0988 -0.3385 -0.3730
  308TMC3    C3 4632   3.429   0.613   1.394 -0.4361 -0.0478 -0.2979
  308TMC3    C4 4633   3.206   0.460   1.448 -0.9805  0.4782 -0.6569
  308TMC3    C5 4634   3.313   0.463   1.530 -0.0812  0.5184 -0.7574
  308TMC3    C6 4635   3.419   0.546   1.507 -0.1510 -0.5736  0.3731
  308TMC3     C 4636   3.114   0.502   1.236  0.0848 -0.0483  0.6301
  308TMC3     O 4637   3.014   0.448   1.275  0.5402 -0.4701 -0.3062
  308TMC3     H 4638   3.345   0.655   1.204 -0.3869  2.0914  0.8056
  308TMC3    H1 4639   3.126   0.390   1.472 -1.0338  0.2859 -1.4005
  308TMC3    H2 4640   3.511   0.555   1.564 -0.1750  1.8363  0.0504
  308TMC3    C7 4641   3.336   0.334   1.600 -0.2706  0.3213  0.5712
  308TMC3    C8 4642   3.557   0.688   1.377 -0.5968  0.1069  0.1664
  308TMC3    O1 4643   3.238   0.268   1.629  0.1493 -0.4588 -0.3141
  308TMC3    O2 4644   3.609   0.723   1.484  0.0470 -0.2795  0.7389
  309MPD2     C 4645   3.686   0.883  16.996 -0.3075  0.2011  0.4164
  309MPD2    C1 4646   3.616   0.908  16.881  0.2191  0.1723  0.2015
  309MPD2    C2 4647   3.483   0.944  16.889 -0.0872 -0.1087 -0.0314
  309MPD2    C3 4648   3.424   0.959  17.014  0.2321 -0.4247  0.0906
  309MPD2    C4 4649   3.503   0.949  17.130  0.6394 -0.0169 -0.3088
  309MPD2    C5 4650   3.630   0.903  17.116  0.2848  0.2727 -0.3014
  309MPD2     H 4651   3.422   0.953  16.800  0.6333 -1.7084 -0.6889
  309MPD2    H1 4652   3.463   0.976  17.227 -0.2588 -2.6015  0.0467
  309MPD2    H2 4653   3.788   0.847  17.000 -0.0400  0.6815 -2.0217
  309MPD2    H3 4654   3.697   0.893  17.200  1.3045  0.2783 -1.1053
  309MPD2     N 4655   3.285   0.990  17.038 -0.0576 -0.7261 -0.1406
  309MPD2    H5 4656   3.257   1.011  17.133  1.9516 -0.6374  0.4290
  309MPD2    N1 4657   3.675   0.905  16.757  0.5215 -0.4221 -0.6461
  309MPD2    H7 4658   3.641   0.973  16.690 -2.3815 -1.3154 -0.0840
  310TMC3    C1 4659   3.843   0.881  16.602  1.2954 -0.1740 -0.5273
  310TMC3    C2 4660   3.757   0.950  16.519 -0.4208 -0.9412 -0.3442
  310TMC3    C3 4661   3.816   1.002  16.409 -0.0948 -0.9489 -0.0027
  310TMC3    C4 4662   3.979   0.855  16.575  0.0044 -0.8141  0.3084
  310TMC3    C5 4663   4.029   0.904  16.457  0.1772 -0.1839 -0.3856
  310TMC3    C6 4664   3.948   0.981  16.374 -0.3417  0.8405 -0.2526
  310TMC3     C 4665   3.790   0.834  16.730  0.1679 -0.1566  0.3009
  310TMC3     O 4666   3.861   0.761  16.800  0.4152  0.1987  0.2024
  310TMC3     H 4667   3.650   0.940  16.523 -0.3133 -0.7422  3.0750
  310TMC3    H1 4668   4.043   0.785  16.627  0.0542 -1.4109 -0.5613
  310TMC3    H2 4669   3.969   1.010  16.272 -1.7662 -0.4195 -0.9055
  310TMC3    C7 4670   4.151   0.851  16.396 -0.0945 -0.4861 -0.3575
  310TMC3    C8 4671   3.727   1.076  16.319 -0.2476  0.4716  0.4427
  310TMC3    O1 4672   4.205   0.758  16.455  0.2268 -0.0832  0.0747
  310TMC3    O2 4673   3.605   1.067  16.326 -0.9958 -0.2570 -0.1987
  311MPD2     C 4674   1.205   1.840  12.652 -0.0162 -0.2439  0.0658
  311MPD2    C1 4675   1.189   1.976  12.675  0.0013  0.2672 -0.2616
  311MPD2    C2 4676   1.060   2.025  12.673 -0.0553 -0.0391  0.0107
  311MPD2    C3 4677   0.949   1.946  12.670  0.7690  0.2533  0.6452
  311MPD2    C4 4678   0.965   1.813  12.657  0.2828 -0.6365 -0.3686
  311MPD2    C5 4679   1.088   1.763  12.637 -0.1781  0.2690  0.3061
  311MPD2     H 4680   1.044   2.132  12.668  3.5896  0.5515  0.9432
  311MPD2    H1 4681   0.877   1.749  12.651 -0.0468 -0.3126  0.9434
  311MPD2    H2 4682   1.306   1.800  12.652  1.0613  2.4698  0.3828
  311MPD2    H3 4683   1.096   1.658  12.612  0.8488  0.7775 -1.5284
  311MPD2     N 4684   0.825   2.005  12.696  0.4511 -0.2443  0.4866
  311MPD2    H5 4685   0.827   2.105  12.715  3.7740  0.0220 -1.2210
  311MPD2    N1 4686   1.293   2.074  12.682 -0.3900 -0.0163  0.2942
  311MPD2    H7 4687   1.260   2.170  12.677 -1.0714 -0.3649 -1.7726
  312TMC3    C1 4688   0.605   2.028  12.772 -0.0855  0.1230  0.0488
  312TMC3    C2 4689   0.474   2.002  12.744  0.3042 -0.1028  0.6382
  312TMC3    C3 4690   0.381   2.062  12.823 -0.0121 -0.4737  0.6358
  312TMC3    C4 4691   0.639   2.072  12.893 -0.3840  0.1976  0.0502
  312TMC3    C5 4692   0.542   2.119  12.979 -0.9081 -0.3812 -0.5197
  312TMC3    C6 4693   0.414   2.120  12.943  0.3901  0.1857 -0.4891
  312TMC3     C 4694   0.700   1.940  12.708  0.4278  0.0202  0.2298
  312TMC3     O 4695   0.653   1.833  12.670  0.0584  0.1142 -0.2762
  312TMC3     H 4696   0.443   1.967  12.646  2.7361  1.6240 -0.7232
  312TMC3    H1 4697   0.742   2.061  12.924 -1.0690  3.3094  3.4999
  312TMC3    H2 4698   0.335   2.158  13.007  1.3337  1.4459 -0.0692
  312TMC3    C7 4699   0.586   2.177  13.108  0.4774 -0.2635  0.8424
  312TMC3    C8 4700   0.243   2.070  12.774  0.1032  0.0782 -0.0902
  312TMC3    O1 4701   0.533   2.131  13.211 -0.2962  0.1467  0.1893
  312TMC3    O2 4702   0.214   1.994  12.683  0.1026  0.0309 -0.1806
  313MPD2     C 4703   0.676   1.669  10.498 -0.0722  0.8206 -0.2234
  313MPD2    C1 4704   0.556   1.598  10.525 -0.1290 -0.5907  0.3132
  313MPD2    C2 4705   0.527   1.504  10.429  0.4187  0.9212 -0.8446
  313MPD2    C3 4706   0.606   1.472  10.320 -0.2006 -1.0099 -0.2201
  313MPD2    C4 4707   0.728   1.541  10.305  0.0789  0.8267 -0.2634
  313MPD2    C5 4708   0.763   1.637  10.394  0.2563  0.2767 -0.0950
  313MPD2     H 4709   0.431   1.455  10.437  0.5928  0.8533  0.8143
  313MPD2    H1 4710   0.800   1.527  10.225 -0.5857 -0.3102 -0.6640
  313MPD2    H2 4711   0.705   1.744  10.571 -1.8166  0.9817  0.3055
  313MPD2    H3 4712   0.853   1.695  10.383 -1.2226  2.4303 -0.8015
  313MPD2     N 4713   0.560   1.371  10.226  0.1870  0.0859 -0.3083
  313MPD2    H5 4714   0.470   1.332  10.252  1.0023 -2.9190 -2.0350
  313MPD2    N1 4715   0.480   1.619  10.637 -0.2428 -0.1078 -0.5679
  313MPD2    H7 4716   0.389   1.576  10.649  0.5084 -1.8991 -1.2129
  314TMC3    C1 4717   0.431   1.712  10.859 -0.6428  0.3517  0.7583
  314TMC3    C2 4718   0.493   1.799  10.944  0.3749  0.0796 -0.3990
  314TMC3    C3 4719   0.420   1.917  10.975 -0.3771 -0.4891  0.4693
  314TMC3    C4 4720   0.298   1.719  10.822 -0.4480 -0.5655  0.0771
  314TMC3    C5 4721   0.231   1.831  10.871  0.8217 -0.0975  0.4732
  314TMC3    C6 4722   0.290   1.930  10.941  0.5568  0.5417 -0.2110
  314TMC3     C 4723   0.525   1.670  10.750  0.1967  0.0952 -0.2876
  314TMC3     O 4724   0.646   1.684  10.779  0.6646 -0.0213  0.5968
  314TMC3     H 4725   0.599   1.800  10.965  0.5360  0.4310 -1.2583
  314TMC3    H1 4726   0.252   1.647  10.756  0.9709  1.2873 -2.8945
  314TMC3    H2 4727   0.247   2.029  10.952  0.4488  0.2196  2.2846
  314TMC3    C7 4728   0.154   1.891  10.775 -0.2954  0.3470 -0.2545
  314TMC3    C8 4729   0.491   2.038  11.006  0.3921  0.6060 -0.3751
  314TMC3    O1 4730   0.032   1.869  10.771 -0.0478  0.0365 -0.0190
  314TMC3    O2 4731   0.470   2.134  10.934 -0.6013  0.1039  0.0388
  315MPD2     C 4732   0.115   0.374   0.172 -0.2904 -0.1073 -0.2927
  315MPD2    C1 4733   0.231   0.451   0.179  0.6697 -0.1186 -0.0561
  315MPD2    C2 4734   0.229   0.581   0.125  0.1108  0.2281  0.1370
  315MPD2    C3 4735   0.114   0.625   0.061  0.2462 -0.0491  0.1297
  315MPD2    C4 4736   4.722   0.555   0.073  0.1978 -0.5926  0.0564
  315MPD2    C5 4737   0.000   0.431   0.127 -0.0887  0.1403 -0.2688
  315MPD2     H 4738   0.311   0.651   0.132 -0.6083  1.2398 -1.4997
  315MPD2    H1 4739   4.626   0.591   0.036  0.7441  2.5456  1.7850
  315MPD2    H2 4740   0.103   0.270   0.200 -0.9712 -0.1773 -0.8393
  315MPD2    H3 4741   4.626   0.384   0.126  1.4726 -3.0017 -1.9360
  315MPD2     N 4742   0.122   0.752  17.692  0.5523 -0.5429  0.1325
  315MPD2    H5 4743   0.209   0.803   0.011  1.5049 -2.1593  0.1093
  315MPD2    N1 4744   0.350   0.393   0.237  0.2982 -0.0989 -0.2315
  315MPD2    H7 4745   0.433   0.451   0.227  1.1668 -1.0259  1.6990
  316TMC3    C1 4746   0.069   0.917  17.536  0.7143  0.2018 -0.0042
  316TMC3    C2 4747   0.123   1.013  17.624 -0.5458  0.6836  0.0777
  316TMC3    C3 4748   0.167   1.129  17.566  0.4916  0.4821 -0.2191
  316TMC3    C4 4749   0.051   0.946  17.404 -0.3042 -0.0613 -0.2518
  316TMC3    C5 4750   0.096   1.065  17.355  0.5537  0.4864 -0.7299
  316TMC3    C6 4751   0.152   1.158  17.438  0.1852  0.0543  0.3330
  316TMC3     C 4752   0.033   0.790  17.597  0.2504  0.7350  0.2999
  316TMC3     O 4753   4.675   0.720  17.539 -0.1044  1.0342  0.2839
  316TMC3     H 4754   0.138   0.991   0.036  1.6221 -0.6549 -0.5085
  316TMC3    H1 4755   4.717   0.869  17.354 -1.3649  0.6624 -0.1593
  316TMC3    H2 4756   0.206   1.234  17.382 -1.2724 -2.5134 -4.5894
  316TMC3    C7 4757   0.119   1.065  17.211 -0.1514 -0.3264  0.3512
  316TMC3    C8 4758   0.255   1.207  17.644  0.6083 -0.1069  0.2252
  316TMC3    O1 4759   0.158   0.963  17.152 -0.6984  0.1396 -0.1680
  316TMC3    O2 4760   0.271   1.323  17.611  0.7004  0.0341  0.4971
  317MPD2     C 4761   1.919   4.019  13.186 -1.2385  0.2967 -0.4076
  317MPD2    C1 4762   1.944   3.895  13.144 -0.2291 -0.3220  0.0539
  317MPD2    C2 4763   1.986   3.802  13.234  1.1824  0.3084  0.1719
  317MPD2    C3 4764   2.035   3.837  13.359 -0.9731  0.1810 -0.4801
  317MPD2    C4 4765   2.015   3.967  13.395 -0.1938  0.4488  0.4284
  317MPD2    C5 4766   1.955   4.057  13.306  0.2091 -0.2518 -0.3901
  317MPD2     H 4767   2.006   3.702  13.197  2.0349  0.9307 -1.0613
  317MPD2    H1 4768   2.039   3.998  13.496  1.9568  0.5036 -0.0850
  317MPD2    H2 4769   1.887   4.093  13.113 -0.2816  0.3428 -0.7775
  317MPD2    H3 4770   1.960   4.164  13.323  1.9817 -0.2372 -0.9320
  317MPD2     N 4771   2.104   3.733  13.437  0.0328 -1.2731 -0.1710
  317MPD2    H5 4772   2.094   3.637  13.404  0.9689 -1.5130  0.2391
  317MPD2    N1 4773   1.927   3.854  13.010 -1.4809 -0.0702 -0.1513
  317MPD2    H7 4774   1.931   3.754  12.994  2.3694 -0.0676  0.7574
  318TMC3    C1 4775   2.269   3.640  13.577 -0.7589  0.2631 -0.4762
  318TMC3    C2 4776   2.193   3.525  13.576 -0.4586  0.4966 -0.6330
  318TMC3    C3 4777   2.250   3.410  13.621  0.1068  0.1023 -0.1731
  318TMC3    C4 4778   2.400   3.640  13.622 -0.2606 -0.5308  0.5875
  318TMC3    C5 4779   2.453   3.518  13.658 -0.0535 -0.3346 -0.3721
  318TMC3    C6 4780   2.382   3.401  13.673 -0.1971 -0.2440  0.0030
  318TMC3     C 4781   2.212   3.766  13.518  0.7998  0.6497 -0.1691
  318TMC3     O 4782   2.281   3.867  13.536  0.5144 -0.3755 -0.1848
  318TMC3     H 4783   2.085   3.529  13.570 -0.8003 -3.7853  2.7411
  318TMC3    H1 4784   2.453   3.734  13.631 -1.4302  0.1210  0.6999
  318TMC3    H2 4785   2.430   3.311  13.708 -2.0486 -0.8048  1.0854
  318TMC3    C7 4786   2.597   3.510  13.671  0.4744 -0.3656  0.5094
  318TMC3    C8 4787   2.175   3.283  13.634 -0.6620  1.0653  0.4769
  318TMC3    O1 4788   2.642   3.414  13.728  0.3743  0.6454 -0.1358
  318TMC3    O2 4789   2.208   3.201  13.715  0.7597 -0.7589  0.0465
  319MPD2     C 4790   3.339   0.494  16.294  0.5615 -0.7937  0.3951
  319MPD2    C1 4791   3.230   0.492  16.385 -0.7253  0.5360  0.5326
  319MPD2    C2 4792   3.099   0.473  16.342  0.2217 -0.0514  0.1680
  319MPD2    C3 4793   3.067   0.437  16.208  0.5911  0.3436  0.4241
  319MPD2    C4 4794   3.178   0.435  16.119 -0.0295 -0.4036  0.1686
  319MPD2    C5 4795   3.310   0.467  16.165 -0.0816 -0.1390 -0.1096
  319MPD2     H 4796   3.018   0.473  16.414  0.1667 -1.7103  0.1007
  319MPD2    H1 4797   3.173   0.418  16.012 -0.2859  1.5593 -0.1228
  319MPD2    H2 4798   3.438   0.521  16.327  0.8592 -0.5419 -0.7183
  319MPD2    H3 4799   3.389   0.455  16.092 -0.4480  1.6497 -0.8127
  319MPD2     N 4800   2.938   0.424  16.157 -0.0531 -0.0380 -0.1166
  319MPD2    H5 4801   2.922   0.407  16.058  2.3000  1.0334 -0.6839
  319MPD2    N1 4802   3.242   0.513  16.524 -0.2598  0.3209  0.1844
  319MPD2    H7 4803   3.163   0.493  16.584  1.2910 -0.6028  1.9232
  320TMC3    C1 4804   2.715   0.371  16.162 -0.4369  0.8185 -0.6070
  320TMC3    C2 4805   2.705   0.406  16.027  0.1880  0.1140 -0.5761
  320TMC3    C3 4806   2.605   0.358  15.949  0.0209  0.3592 -0.3255
  320TMC3    C4 4807   2.616   0.298  16.220  0.1267  1.0688 -0.4983
  320TMC3    C5 4808   2.521   0.249  16.134  0.2819  0.2289 -0.3054
  320TMC3    C6 4809   2.518   0.269  15.998 -0.3988 -0.0767 -0.7008
  320TMC3     C 4810   2.830   0.413  16.234  0.0269  0.1673 -0.4408
  320TMC3     O 4811   2.807   0.448  16.352  0.0169  0.5103  0.6529
  320TMC3     H 4812   2.773   0.483  15.992  0.3715  0.7917  1.2554
  320TMC3    H1 4813   2.625   0.269  16.324 -1.0665 -0.2918 -0.7779
  320TMC3    H2 4814   2.452   0.211  15.935 -1.0238  0.3648 -0.4489
  320TMC3    C7 4815   2.453   0.133  16.186 -0.1678 -0.4026 -0.5069
  320TMC3    C8 4816   2.574   0.449  15.834  0.3757 -0.1048  0.4002
  320TMC3    O1 4817   2.445   0.039  16.112 -0.3260 -0.6211  0.1041
  320TMC3    O2 4818   2.629   0.555  15.836  0.3909 -0.3344 -0.5929
  321TMC3    C1 4819   3.316   0.532  16.738 -0.9375  0.0985 -0.4173
  321TMC3    C2 4820   3.201   0.468  16.775  0.3640  0.2456  0.0763
  321TMC3    C3 4821   3.155   0.483  16.904 -0.1243 -0.2303 -0.8905
  321TMC3    C4 4822   3.391   0.603  16.831 -0.9156  0.5298  0.2940
  321TMC3    C5 4823   3.345   0.615  16.955  0.2307  1.0276 -0.2833
  321TMC3    C6 4824   3.218   0.565  16.991 -0.1004 -0.4215 -0.0913
  321TMC3     C 4825   3.352   0.547  16.599  0.3937 -0.6121 -0.3702
  321TMC3     O 4826   3.453   0.610  16.564 -0.0255  0.6181 -0.4817
  321TMC3     H 4827   3.169   0.388  16.711  0.6616  0.3119 -0.1540
  321TMC3    H1 4828   3.481   0.653  16.796 -0.7865 -0.2225 -0.4317
  321TMC3    H2 4829   3.168   0.603  17.080  0.4720  0.2661 -0.0629
  321TMC3    C7 4830   3.442   0.603  17.060  0.1287 -0.1487 -1.0070
  321TMC3    C8 4831   3.086   0.368  16.962 -0.4325  0.4944  0.2580
  321TMC3    O1 4832   3.391   0.596  17.169  0.5341 -0.1353  0.2052
  321TMC3    O2 4833   3.027   0.290  16.889  0.0884  0.0942 -0.1077
  322MPD2     C 4834   1.927   1.563  13.413  0.2703  0.3661 -0.5830
  322MPD2    C1 4835   1.980   1.516  13.537 -0.0421 -0.6429  0.2781
  322MPD2    C2 4836   1.987   1.385  13.557 -0.0074  0.1598 -0.4189
  322MPD2    C3 4837   1.937   1.296  13.467  1.0853 -0.1744 -0.5239
  322MPD2    C4 4838   1.890   1.340  13.345  0.3099 -0.2670  0.4840
  322MPD2    C5 4839   1.887   1.473  13.316 -0.2962  1.1983  0.0136
  322MPD2     H 4840   2.040   1.345  13.643 -1.7957  1.3190  1.2084
  322MPD2    H1 4841   1.857   1.266  13.272 -2.5663 -1.1203  2.6218
  322MPD2    H2 4842   1.923   1.669  13.391 -1.3153 -0.0798 -2.4396
  322MPD2    H3 4843   1.841   1.510  13.225 -1.3579 -3.1870 -1.2625
  322MPD2     N 4844   1.947   1.162  13.508  0.1002  0.2344  0.2440
  322MPD2    H5 4845   1.955   1.137  13.606 -0.0132  0.2456  0.2555
  322MPD2    N1 4846   2.037   1.597  13.638 -0.2931 -0.0181 -0.5675
  322MPD2    H7 4847   2.078   1.552  13.719  0.2640 -1.1099 -1.4518
  323TMC3    C1 4848   2.082   1.783  13.755  0.7156 -0.6791  0.4469
  323TMC3    C2 4849   2.176   1.878  13.755  0.4913 -0.4063  0.1006
  323TMC3    C3 4850   2.205   1.941  13.866 -0.1539 -0.0126  0.0603
  323TMC3    C4 4851   2.029   1.737  13.869  0.2413 -0.3039  0.0793
  323TMC3    C5 4852   2.076   1.802  13.982  0.2052 -0.5588  0.4806
  323TMC3    C6 4853   2.138   1.916  13.985 -0.1186 -0.2905  0.6700
  323TMC3     C 4854   2.035   1.736  13.630 -0.2213 -0.5586 -0.2745
  323TMC3     O 4855   2.035   1.816  13.537 -0.3239  0.3965 -0.1079
  323TMC3     H 4856   2.206   1.918  13.659  2.4816  1.1487  1.3557
  323TMC3    H1 4857   1.962   1.651  13.867 -1.1211  0.8010 -1.5385
  323TMC3    H2 4858   2.165   1.981  14.068  0.1357 -0.0696  0.4121
  323TMC3    C7 4859   2.105   1.711  14.099 -0.5820 -0.0960  0.4584
  323TMC3    C8 4860   2.345   1.965  13.886 -0.1363  0.2730  0.1840
  323TMC3    O1 4861   2.032   1.615  14.111 -0.1956 -0.1229 -0.6058
  323TMC3    O2 4862   2.376   1.935  14.002 -0.0638  0.2079 -0.1401
  324MPD2     C 4863   3.544   2.803  14.659  0.1397  0.2549  0.1624
  324MPD2    C1 4864   3.617   2.886  14.578  0.1332  0.5421 -0.3311
  324MPD2    C2 4865   3.560   2.946  14.468 -1.1410  0.5606  0.8952
  324MPD2    C3 4866   3.427   2.924  14.444 -0.5856  1.0424  0.2063
  324MPD2    C4 4867   3.357   2.837  14.521 -0.4694  0.1862 -0.1144
  324MPD2    C5 4868   3.417   2.782  14.621 -0.6997  0.6444  0.3932
  324MPD2     H 4869   3.621   2.998  14.395 -1.3760  0.5761  0.7109
  324MPD2    H1 4870   3.251   2.821  14.504 -0.1913 -0.0692 -1.6043
  324MPD2    H2 4871   3.582   2.757  14.749 -1.5396 -1.5457 -0.0319
  324MPD2    H3 4872   3.366   2.704  14.676  0.5231 -2.0009 -2.1544
  324MPD2     N 4873   3.352   2.979  14.338  0.3538 -0.0634  0.4110
  324MPD2    H5 4874   3.259   2.942  14.321  0.7612 -1.5292  1.3022
  324MPD2    N1 4875   3.757   2.912  14.591 -0.2001  0.2977  0.4449
  324MPD2    H7 4876   3.800   2.982  14.532  0.1678  0.5609  1.0278
  325TMC3    C1 4877   3.305   3.081  14.144 -0.8264 -0.0358 -0.2783
  325TMC3    C2 4878   3.248   2.968  14.098 -0.1051 -0.2697 -0.2288
  325TMC3    C3 4879   3.164   2.994  13.993  0.2194  0.0835 -0.3441
  325TMC3    C4 4880   3.303   3.211  14.097 -0.4341  0.0301  0.0275
  325TMC3    C5 4881   3.219   3.232  13.991 -0.3869  0.7322  0.0806
  325TMC3    C6 4882   3.149   3.123  13.945  0.2116  0.3237 -0.0544
  325TMC3     C 4883   3.403   3.067  14.247  0.0577 -0.0127 -0.6934
  325TMC3     O 4884   3.509   3.130  14.242 -1.0757  0.0845 -0.0940
  325TMC3     H 4885   3.267   2.866  14.131 -0.3171  0.8307  3.2767
  325TMC3    H1 4886   3.362   3.294  14.133  1.3099 -1.3319  0.2842
  325TMC3    H2 4887   3.077   3.142  13.866  0.5768  0.2088 -0.4184
  325TMC3    C7 4888   3.121   3.343  14.005 -0.3399  0.2419 -0.1675
  325TMC3    C8 4889   3.064   2.898  13.952  1.0917 -0.1222 -0.1725
  325TMC3    O1 4890   3.039   3.352  13.915 -0.5522 -0.2433 -0.1345
  325TMC3    O2 4891   3.006   2.913  13.845 -0.6874  0.1397  0.2172
  326MPD2     C 4892   0.255   3.728  11.289  0.1699  0.1578 -0.0373
  326MPD2    C1 4893   0.167   3.778  11.194  0.5281 -0.0286 -0.6503
  326MPD2    C2 4894   0.200   3.894  11.125  0.7894 -0.1744 -0.4339
  326MPD2    C3 4895   0.328   3.949  11.140  0.0922 -0.6025 -0.5197
  326MPD2    C4 4896   0.417   3.902  11.233 -0.3200 -0.9658 -0.4693
  326MPD2    C5 4897   0.366   3.802  11.313 -0.1888  0.1839 -0.6906
  326MPD2     H 4898   0.124   3.943  11.065  0.8274 -0.8992 -1.0833
  326MPD2    H1 4899   0.510   3.953  11.257 -0.9305  0.2704 -0.7265
  326MPD2    H2 4900   0.228   3.649  11.358  0.5995  0.4295  0.4346
  326MPD2    H3 4901   0.436   3.772  11.391 -1.9117 -2.2211 -0.0656
  326MPD2     N 4902   0.378   4.052  11.053 -0.0035 -0.1276 -0.6485
  326MPD2    H5 4903   0.466   4.096  11.078 -0.5659  0.3504  0.5131
  326MPD2    N1 4904   0.033   3.729  11.173 -0.6186  0.3868 -0.1949
  326MPD2    H7 4905   4.699   3.780  11.106 -1.7817  2.1843  2.1852
  327TMC3    C1 4906   4.582   3.593  11.167 -0.1818 -0.3642 -1.0000
  327TMC3    C2 4907   4.508   3.708  11.138  0.1604  0.0885  0.3565
  327TMC3    C3 4908   4.434   3.712  11.019  0.2018 -0.1289  0.2766
  327TMC3    C4 4909   4.577   3.492  11.071  0.1438 -0.0353  0.6218
  327TMC3    C5 4910   4.525   3.521  10.946 -0.7209  0.2253 -0.8476
  327TMC3    C6 4911   4.444   3.619  10.920 -0.0236  0.1816  0.1388
  327TMC3     C 4912   4.713   3.609  11.222  0.5831 -0.8148 -0.0059
  327TMC3     O 4913   0.053   3.509  11.258 -0.2432  0.0513 -0.2117
  327TMC3     H 4914   4.502   3.788  11.211 -1.0021 -1.6486  2.1676
  327TMC3    H1 4915   4.630   3.399  11.087 -1.4606 -1.1012 -0.3097
  327TMC3    H2 4916   4.398   3.640  10.824 -2.4904 -0.4535  1.1897
  327TMC3    C7 4917   4.618   3.495  10.834 -0.4171 -0.3182  0.6984
  327TMC3    C8 4918   4.367   3.831  10.987 -0.5061 -0.2489 -0.6881
  327TMC3    O1 4919   4.577   3.503  10.718 -0.4203  0.8332  0.1259
  327TMC3    O2 4920   4.319   3.838  10.874  0.5839 -0.6239 -0.5155
  328MPD2     C 4921   2.249   3.933   0.059  0.2051  0.9728 -0.0679
  328MPD2    C1 4922   2.254   3.852  17.642 -0.5095 -0.2994  0.0146
  328MPD2    C2 4923   2.238   3.921  17.518 -0.2716  0.6627  0.3495
  328MPD2    C3 4924   2.255   4.060  17.510  0.0197  0.1854  0.9500
  328MPD2    C4 4925   2.274   4.135  17.628  0.0598  0.1567 -0.0871
  328MPD2    C5 4926   2.250   4.075   0.057  0.5613  0.0486  0.6417
  328MPD2     H 4927   2.206   3.868  17.428  1.0232 -4.4651  2.8812
  328MPD2    H1 4928   2.263   4.242  17.616  2.6766  0.3569 -0.7786
  328MPD2    H2 4929   2.261   3.886   0.156 -1.4211 -1.0214 -0.8516
  328MPD2    H3 4930   2.248   4.133   0.148  1.1342  1.7234 -0.4205
  328MPD2     N 4931   2.254   4.136  17.389  0.7047  0.4845 -0.3204
  328MPD2    H5 4932   2.263   4.237  17.394 -1.2878  0.6226  0.5031
  328MPD2    N1 4933   2.253   3.709  17.666  0.1166  0.7653 -0.0999
  328MPD2    H7 4934   2.258   3.694   0.073  0.8704 -1.8043 -0.5219
  329TMC3    C1 4935   2.291   3.480  17.625  0.2477 -0.3509 -0.1875
  329TMC3    C2 4936   2.232   3.453   0.056 -0.5214 -0.2617 -0.5700
  329TMC3    C3 4937   2.200   3.318   0.071  1.0018 -0.0312  0.2255
  329TMC3    C4 4938   2.336   3.388  17.535  0.0132  0.0624 -1.0304
  329TMC3    C5 4939   2.316   3.256  17.571 -0.3515 -0.0052  0.2536
  329TMC3    C6 4940   2.252   3.218  17.684  0.0926 -0.4913 -0.0804
  329TMC3     C 4941   2.287   3.616  17.572  0.3160  0.4926  0.2439
  329TMC3     O 4942   2.308   3.638  17.455  0.7282 -0.1570  0.2546
  329TMC3     H 4943   2.181   3.526   0.117 -0.6930 -0.3264 -0.6360
  329TMC3    H1 4944   2.393   3.426  17.451  2.5858 -0.8354  0.3090
  329TMC3    H2 4945   2.249   3.114   0.021  0.1176 -0.0150  1.5707
  329TMC3    C7 4946   2.382   3.143  17.500  0.6101 -0.1287  0.4081
  329TMC3    C8 4947   2.157   3.272   0.203 -0.0741  0.0942  0.2661
  329TMC3    O1 4948   2.383   3.027  17.540  0.1423 -0.0466  0.0549
  329TMC3    O2 4949   2.186   3.162   0.249 -0.5217  0.0975  0.2449
  330TMC3    C1 4950   0.626   3.220   8.763 -0.5080 -0.5419  0.8739
  330TMC3    C2 4951   0.649   3.086   8.758  0.0225  0.1007 -0.8241
  330TMC3    C3 4952   0.765   3.040   8.707 -0.5443  0.5319 -0.3516
  330TMC3    C4 4953   0.726   3.308   8.716  0.4239 -0.0706  0.5748
  330TMC3    C5 4954   0.839   3.254   8.674  0.7299 -0.1862  0.4787
  330TMC3    C6 4955   0.859   3.118   8.656 -0.3627  0.0332  0.0913
  330TMC3     C 4956   0.552   3.265   8.878 -0.0420 -0.3899  0.3145
  330TMC3     O 4957   0.611   3.344   8.951  0.1110  0.0322 -0.5279
  330TMC3     H 4958   0.582   3.023   8.816  0.0999  0.6923 -0.0912
  330TMC3    H1 4959   0.709   3.414   8.733  1.0475  0.2397 -0.7738
  330TMC3    H2 4960   0.940   3.075   8.599 -0.2113 -1.0482  1.1191
  330TMC3    C7 4961   0.937   3.335   8.609 -0.0758 -0.1759 -0.1887
  330TMC3    C8 4962   0.782   2.897   8.707  0.1650 -0.4918  0.2735
  330TMC3    O1 4963   1.047   3.292   8.575 -0.0729  0.3546  0.4940
  330TMC3    O2 4964   0.852   2.853   8.617  0.0177  0.1412  0.1018
  331MPD2     C 4965   2.577   2.494  12.575 -0.2218  0.2069 -0.2968
  331MPD2    C1 4966   2.688   2.548  12.506 -0.0747  0.0501  0.5853
  331MPD2    C2 4967   2.791   2.462  12.457  0.1475  0.4668 -0.1148
  331MPD2    C3 4968   2.782   2.328  12.478 -0.3971  0.1460  0.6095
  331MPD2    C4 4969   2.684   2.285  12.562 -0.0978 -0.0368 -0.8163
  331MPD2    C5 4970   2.581   2.362  12.604  0.0827  0.1424  1.1192
  331MPD2     H 4971   2.870   2.502  12.395  0.3840  0.8754  0.4524
  331MPD2    H1 4972   2.678   2.181  12.594 -0.5208 -0.1771 -1.3585
  331MPD2    H2 4973   2.497   2.559  12.609  0.0808 -0.4502  1.6822
  331MPD2    H3 4974   2.509   2.307  12.663 -1.0081 -0.2789 -0.6224
  331MPD2     N 4975   2.897   2.248  12.440  0.1564  0.5941  0.8934
  331MPD2    H5 4976   2.958   2.290  12.370  0.0122 -0.8378 -0.0911
  331MPD2    N1 4977   2.700   2.687  12.476 -1.4744 -0.3145  0.2330
  331MPD2    H7 4978   2.618   2.741  12.500 -0.9122 -0.6795  2.9430
  332TMC3    C1 4979   3.048   2.076  12.426  1.1547  0.6096  0.8759
  332TMC3    C2 4980   3.087   2.120  12.306 -0.3060 -0.3145 -0.0556
  332TMC3    C3 4981   3.222   2.108  12.277 -0.2225  0.4480 -0.1210
  332TMC3    C4 4982   3.129   2.023  12.519 -0.0811  0.2522 -0.0370
  332TMC3    C5 4983   3.264   2.015  12.487 -0.4355 -0.0093  0.4301
  332TMC3    C6 4984   3.314   2.065  12.372 -0.3810 -0.2107 -0.1578
  332TMC3     C 4985   2.925   2.125  12.482 -0.0419  0.2579  0.7145
  332TMC3     O 4986   2.869   2.059  12.568 -0.6405 -0.2548 -0.4728
  332TMC3     H 4987   3.016   2.160  12.234 -0.2995  0.0677  0.1513
  332TMC3    H1 4988   3.091   2.008  12.619 -0.3757  1.4499  0.0321
  332TMC3    H2 4989   3.419   2.090  12.363 -0.3112  0.2014  1.6949
  332TMC3    C7 4990   3.357   2.007  12.602 -0.1956  0.1163 -0.2784
  332TMC3    C8 4991   3.280   2.179  12.165  0.1914  0.5465  0.6233
  332TMC3    O1 4992   3.315   2.050  12.712  0.4369 -0.2132 -0.2930
  332TMC3    O2 4993   3.396   2.220  12.178 -0.2562 -0.0733  0.4785
  333MPD2     C 4994   3.396   2.585  11.043  0.2030  1.0091 -0.1746
  333MPD2    C1 4995   3.454   2.478  10.982 -0.0323  0.4716  0.7348
  333MPD2    C2 4996   3.429   2.349  11.042 -0.2002 -0.0464  0.6850
  333MPD2    C3 4997   3.358   2.335  11.160  0.0062  0.0911  1.1627
  333MPD2    C4 4998   3.301   2.449  11.221 -0.3635 -0.4541 -0.2538
  333MPD2    C5 4999   3.325   2.573  11.160  0.7638 -0.0975  0.2971
  333MPD2     H 5000   3.477   2.259  11.005  0.5854  0.7577 -0.2272
  333MPD2    H1 5001   3.248   2.452  11.316 -0.9013 -1.7976 -0.5074
  333MPD2    H2 5002   3.404   2.679  10.991 -0.5540  0.6875 -0.8860
  333MPD2    H3 5003   3.275   2.663  11.194  0.5096  0.0311 -0.4264
  333MPD2     N 5004   3.342   2.204  11.215  0.0994  0.2492 -0.1265
  333MPD2    H5 5005   3.392   2.125  11.176 -2.4718 -1.9014  0.8958
  333MPD2    N1 5006   3.529   2.500  10.864 -0.1180 -0.6635  0.3990
  333MPD2    H7 5007   3.524   2.596  10.834  4.2327  0.0050  1.8391
  334TMC3    C1 5008   3.650   2.456  10.666 -0.0347 -0.2877  0.3679
  334TMC3    C2 5009   3.694   2.368  10.573  0.4630  0.0873  0.1850
  334TMC3    C3 5010   3.759   2.417  10.469  0.7090 -0.7583  0.1450
  334TMC3    C4 5011   3.656   2.592  10.656  0.3309  0.7336 -0.3506
  334TMC3    C5 5012   3.731   2.636  10.547  0.8022  0.2946 -0.2196
  334TMC3    C6 5013   3.782   2.552  10.450  0.2291 -0.2596  0.0237
  334TMC3     C 5014   3.587   2.403  10.785 -0.2042  0.1068 -0.9578
  334TMC3     O 5015   3.594   2.280  10.798 -0.3728  0.3240  0.0401
  334TMC3     H 5016   3.696   2.259  10.575 -0.7945  0.0783  0.9641
  334TMC3    H1 5017   3.619   2.668  10.724 -0.8937 -1.2686  1.2260
  334TMC3    H2 5018   3.841   2.580  10.363  0.0632  1.3026  0.4239
  334TMC3    C7 5019   3.777   2.781  10.548 -0.1349  0.4111  0.5512
  334TMC3    C8 5020   3.854   2.328  10.400 -0.3309  0.6669  0.1890
  334TMC3    O1 5021   3.741   2.856  10.637 -0.3272  0.2138  0.6075
  334TMC3    O2 5022   3.814   2.217  10.374 -0.0253 -0.2931 -0.4570
  335TMC3    C1 5023   3.312   3.999   0.214 -0.1086 -0.3052 -0.6151
  335TMC3    C2 5024   3.256   3.945   0.100  0.0735  0.2776  0.2256
  335TMC3    C3 5025   3.296   4.001  17.671  0.2487  0.1916  0.2721
  335TMC3    C4 5026   3.416   4.079   0.214 -0.2783  0.7194 -0.1430
  335TMC3    C5 5027   3.455   4.127   0.093 -0.8250 -1.0085 -0.6065
  335TMC3    C6 5028   3.390   4.091  17.673  0.2214 -0.2434  0.3694
  335TMC3     C 5029   3.257   3.952   0.337  0.3619 -0.3661 -0.5885
  335TMC3     O 5030   3.213   3.839   0.342 -0.0974 -0.3333 -0.2431
  335TMC3     H 5031   3.171   3.878   0.110  0.2476  0.0760  0.3689
  335TMC3    H1 5032   3.467   4.079   0.309  0.7504  0.1416 -0.6967
  335TMC3    H2 5033   3.410   4.135  17.576 -0.9189  3.0428  1.5980
  335TMC3    C7 5034   3.587   4.198   0.080 -0.3846 -0.1962  0.5718
  335TMC3    C8 5035   3.235   3.957  17.542 -0.6982  0.1554 -0.4472
  335TMC3    O1 5036   3.636   4.211  17.660  0.1897  0.2062  0.2317
  335TMC3    O2 5037   3.259   4.028  17.447 -0.6470 -0.1673  0.0917
  336MPD2     C 5038   2.849   1.595  15.936  0.2961  0.1877 -0.1991
  336MPD2    C1 5039   2.801   1.512  15.843 -0.6692  0.2994 -0.8463
  336MPD2    C2 5040   2.809   1.375  15.865  0.1904 -0.5385 -0.1181
  336MPD2    C3 5041   2.883   1.326  15.968  1.3692  0.5810 -0.2465
  336MPD2    C4 5042   2.945   1.415  16.049  0.5652  0.0521  0.1195
  336MPD2    C5 5043   2.911   1.547  16.047 -0.1341 -0.4186  0.1315
  336MPD2     H 5044   2.764   1.299  15.803  2.0021 -1.0751 -0.7925
  336MPD2    H1 5045   3.005   1.391  16.136  1.1321  1.2188  0.0509
  336MPD2    H2 5046   2.835   1.702  15.930 -1.6128 -0.0868 -0.6337
  336MPD2    H3 5047   2.948   1.616  16.122 -2.5262  1.3396 -0.3214
  336MPD2     N 5048   2.912   1.193  15.985  0.0481  0.2360 -0.1816
  336MPD2    H5 5049   2.963   1.183  16.072 -2.6742  0.8960  1.4815
  336MPD2    N1 5050   2.733   1.562  15.728  0.4044  0.4339 -0.3386
  336MPD2    H7 5051   2.690   1.489  15.672 -0.9543 -0.1077  1.4113
  337TMC3    C1 5052   2.635   1.719  15.581 -0.2491  0.7653  0.5133
  337TMC3    C2 5053   2.518   1.641  15.566 -0.0666  0.8703 -0.5321
  337TMC3    C3 5054   2.431   1.679  15.461  0.0945  0.2669 -0.0925
  337TMC3    C4 5055   2.654   1.827  15.494  0.1995  0.3276 -0.8806
  337TMC3    C5 5056   2.573   1.855  15.390  0.3379  0.0761  0.3959
  337TMC3    C6 5057   2.456   1.789  15.380 -0.5727  0.1918 -0.1438
  337TMC3     C 5058   2.732   1.691  15.689 -0.3047  0.5650  0.1413
  337TMC3     O 5059   2.802   1.786  15.718 -0.5561 -0.3150  0.3513
  337TMC3     H 5060   2.498   1.564  15.640 -0.7265  0.1838 -1.4154
  337TMC3    H1 5061   2.748   1.881  15.504 -0.1903  0.5171  1.5599
  337TMC3    H2 5062   2.387   1.803  15.298  0.6772  0.6601 -1.1208
  337TMC3    C7 5063   2.598   1.978  15.306  0.1955 -0.3708  0.0613
  337TMC3    C8 5064   2.305   1.609  15.463 -0.5218 -0.2481  0.0707
  337TMC3    O1 5065   2.715   2.015  15.296 -0.4825 -0.0040 -0.1295
  337TMC3    O2 5066   2.287   1.514  15.535 -0.0108  0.1182 -0.4660
  338MPD2     C 5067   3.817   0.912   0.271  0.2242 -0.8082 -0.0354
  338MPD2    C1 5068   3.733   0.899   0.375 -0.1645  0.2254  0.7326
  338MPD2    C2 5069   3.746   0.972   0.491 -0.5788  0.3474 -0.3170
  338MPD2    C3 5070   3.848   1.062   0.501 -0.2472 -0.2360  0.3900
  338MPD2    C4 5071   3.930   1.088   0.391 -0.7120  0.2371 -0.2906
  338MPD2    C5 5072   3.912   1.007   0.276 -0.1036 -0.1463  0.2911
  338MPD2     H 5073   3.678   0.968   0.575  1.2376  0.0490  1.1349
  338MPD2    H1 5074   4.005   1.165   0.377 -0.6321  0.1143 -0.5393
  338MPD2    H2 5075   3.825   0.840   0.191 -0.1681  1.0761 -1.8027
  338MPD2    H3 5076   3.980   1.019   0.193  1.0268  3.5712  1.7628
  338MPD2     N 5077   3.839   1.139   0.616  0.2469 -0.7643  0.6924
  338MPD2    H5 5078   3.764   1.115   0.679  1.2729  0.2504  2.2862
  338MPD2    N1 5079   3.630   0.813   0.344 -0.0158 -0.3541 -0.3265
  338MPD2    H7 5080   3.627   0.769   0.253  0.6788 -0.7478 -0.1639
  339TMC3    C1 5081   3.842   1.352   0.720  0.3557  0.1735 -0.3330
  339TMC3    C2 5082   3.833   1.311   0.853 -0.2782 -0.2070  0.4282
  339TMC3    C3 5083   3.711   1.325   0.924 -0.4435 -0.1706 -0.6687
  339TMC3    C4 5084   3.735   1.421   0.656  0.1249  0.9023 -0.3520
  339TMC3    C5 5085   3.618   1.422   0.728  0.0447  0.0759 -0.0779
  339TMC3    C6 5086   3.601   1.381   0.863  0.2856 -0.0096 -0.0326
  339TMC3     C 5087   3.907   1.259   0.624  0.7767 -0.2336  0.4084
  339TMC3     O 5088   4.000   1.311   0.565  0.1770  0.1461 -0.1937
  339TMC3     H 5089   3.914   1.273   0.913  2.2484 -0.8526 -3.4595
  339TMC3    H1 5090   3.741   1.434   0.548  1.0176 -1.6512 -0.6025
  339TMC3    H2 5091   3.511   1.405   0.919 -0.8986 -0.0350 -1.9408
  339TMC3    C7 5092   3.502   1.478   0.663 -0.6237 -0.0150  0.0988
  339TMC3    C8 5093   3.708   1.265   1.053  0.0199 -0.3786  0.2104
  339TMC3    O1 5094   3.516   1.542   0.564  0.1211  0.0822  0.9209
  339TMC3    O2 5095   3.814   1.261   1.120  0.3262  0.6759  0.7442
  340MPD2     C 5096   3.093   2.621   9.576  0.0521  0.6733  0.1611
  340MPD2    C1 5097   3.197   2.549   9.519  0.0614 -0.1954  0.2342
  340MPD2    C2 5098   3.297   2.506   9.604  0.5154  0.0364  0.4647
  340MPD2    C3 5099   3.307   2.550   9.739 -0.1938  0.2821 -0.0241
  340MPD2    C4 5100   3.201   2.623   9.784 -0.4495  0.2974 -0.0135
  340MPD2    C5 5101   3.095   2.652   9.703 -0.5504 -0.5431  0.0230
  340MPD2     H 5102   3.368   2.438   9.560  2.5030  3.2991 -1.3775
  340MPD2    H1 5103   3.197   2.648   9.889 -0.6024 -2.2801  0.5966
  340MPD2    H2 5104   3.017   2.659   9.509  1.6481  1.1855 -1.3662
  340MPD2    H3 5105   3.019   2.719   9.740  0.0951 -0.5362  1.3444
  340MPD2     N 5106   3.418   2.525   9.830  0.2895  0.1762  0.7799
  340MPD2    H5 5107   3.416   2.563   9.924 -0.8934  1.6592  0.1508
  340MPD2    N1 5108   3.182   2.518   9.385 -0.3099 -0.1152 -0.9870
  340MPD2    H7 5109   3.103   2.565   9.342 -1.1167 -0.8668 -0.3164
  341TMC3    C1 5110   3.256   2.482   9.171 -0.2714  0.8649  0.4393
  341TMC3    C2 5111   3.125   2.464   9.131 -0.2743 -0.0622  0.4507
  341TMC3    C3 5112   3.092   2.489   9.001  0.5683 -0.6518 -0.3357
  341TMC3    C4 5113   3.355   2.510   9.081  0.2817  0.0619 -0.1727
  341TMC3    C5 5114   3.316   2.535   8.952  0.8893  0.2059  0.0376
  341TMC3    C6 5115   3.184   2.531   8.907 -0.1402  0.0136 -0.1760
  341TMC3     C 5116   3.293   2.492   9.310 -0.5634  0.1119 -0.3774
  341TMC3     O 5117   3.408   2.489   9.341  0.2808 -0.2804 -0.1701
  341TMC3     H 5118   3.057   2.425   9.206 -1.0166  1.6371  0.6728
  341TMC3    H1 5119   3.460   2.512   9.108 -0.1754  2.2690  1.4854
  341TMC3    H2 5120   3.166   2.532   8.800 -2.1766 -1.1198  0.1542
  341TMC3    C7 5121   3.415   2.582   8.860 -0.7889 -0.5927  0.1571
  341TMC3    C8 5122   2.972   2.426   8.959  0.4118 -0.4433  0.1178
  341TMC3    O1 5123   3.529   2.541   8.879 -0.2356  0.4588 -0.4622
  341TMC3    O2 5124   2.904   2.351   9.033  0.0166  0.0629  0.5440
  342MPD2     C 5125   1.592   1.991  17.624  0.3226  0.2174  0.9553
  342MPD2    C1 5126   1.630   2.028  17.493  0.3204  0.0435  0.0693
  342MPD2    C2 5127   1.650   2.163  17.457 -0.3814 -0.6060 -0.7055
  342MPD2    C3 5128   1.645   2.265  17.552  0.0119  0.4293 -0.1634
  342MPD2    C4 5129   1.613   2.229  17.682  0.0668  0.6862 -0.4812
  342MPD2    C5 5130   1.594   2.099   0.023  0.6745  0.8986 -0.1835
  342MPD2     H 5131   1.670   2.188  17.353  2.0743  1.0866  0.1435
  342MPD2    H1 5132   1.589   2.305   0.062 -0.8273  3.3789 -3.5599
  342MPD2    H2 5133   1.551   1.896  17.657  0.9294 -0.1231  0.7343
  342MPD2    H3 5134   1.559   2.081   0.124  1.6222 -1.8678 -0.3634
  342MPD2     N 5135   1.638   2.403  17.527  0.2172  0.4658  0.2758
  342MPD2    H5 5136   1.599   2.460  17.601  2.0824 -0.3875  1.9257
  342MPD2    N1 5137   1.613   1.938  17.382  0.2923 -0.4772  0.2037
  342MPD2    H7 5138   1.632   1.983  17.293 -0.0782 -1.7201 -0.5051
  343TMC3    C1 5139   1.570   1.737  17.268 -0.3431 -0.2558 -0.4282
  343TMC3    C2 5140   1.620   1.787  17.149  0.3351 -0.2764  0.0423
  343TMC3    C3 5141   1.610   1.710  17.040 -0.2710  0.3719 -0.3449
  343TMC3    C4 5142   1.508   1.613  17.265  0.3492 -0.4893  0.6042
  343TMC3    C5 5143   1.479   1.551  17.142  0.3864  0.3411  0.0543
  343TMC3    C6 5144   1.540   1.592  17.027  0.6771  0.1837  0.7349
  343TMC3     C 5145   1.597   1.799  17.391 -0.4937  0.4010 -0.2936
  343TMC3     O 5146   1.590   1.733  17.491  0.0848  0.0697 -0.5253
  343TMC3     H 5147   1.693   1.868  17.152 -0.1528  0.2205 -1.2817
  343TMC3    H1 5148   1.464   1.573  17.355 -1.9680  0.3544 -0.1254
  343TMC3    H2 5149   1.514   1.543  16.934 -1.4429 -0.9990  1.9516
  343TMC3    C7 5150   1.422   1.423  17.136  0.4704 -0.0321 -0.6497
  343TMC3    C8 5151   1.716   1.727  16.946 -0.2895  0.1099  0.2017
  343TMC3    O1 5152   1.375   1.383  17.031  0.2561 -0.2202 -0.1271
  343TMC3    O2 5153   1.766   1.838  16.947  0.5097  0.3299 -0.3454
  344MPD2     C 5154   2.625   1.535  10.436  0.4453  0.5241  0.2958
  344MPD2    C1 5155   2.500   1.558  10.384 -0.4222  0.5435  0.8507
  344MPD2    C2 5156   2.483   1.638  10.272  0.5168  0.9892  0.1451
  344MPD2    C3 5157   2.593   1.714  10.231 -0.2892 -0.0579  0.2088
  344MPD2    C4 5158   2.716   1.693  10.289  0.3999  0.1619 -0.6719
  344MPD2    C5 5159   2.734   1.590  10.377 -0.1637 -0.1042 -0.5186
  344MPD2     H 5160   2.388   1.647  10.221  0.9661 -1.2493 -1.0836
  344MPD2    H1 5161   2.802   1.750  10.256 -1.4373  3.2483 -0.1272
  344MPD2    H2 5162   2.632   1.459  10.514 -0.7128 -0.3761 -0.4699
  344MPD2    H3 5163   2.833   1.571  10.418 -0.7144  1.6455  1.6485
  344MPD2     N 5164   2.602   1.803  10.120 -0.2415 -0.0374  0.2660
  344MPD2    H5 5165   2.696   1.838  10.106 -0.7682  1.3029  0.1471
  344MPD2    N1 5166   2.389   1.479  10.428 -0.0956  0.2156  0.4217
  344MPD2    H7 5167   2.301   1.507  10.385  0.1395 -0.3718 -0.4432
  345TMC3    C1 5168   2.535   1.901   9.918 -0.5916  0.5516 -0.8282
  345TMC3    C2 5169   2.668   1.893   9.879  0.3539 -0.5153  0.1877
  345TMC3    C3 5170   2.696   1.951   9.765  0.2263 -0.5018  0.0389
  345TMC3    C4 5171   2.434   1.951   9.836 -0.1268  0.2050  0.0183
  345TMC3    C5 5172   2.476   2.005   9.716  0.4233 -0.0198  0.4264
  345TMC3    C6 5173   2.611   2.020   9.688 -0.0472 -0.1051 -0.2079
  345TMC3     C 5174   2.500   1.831  10.040 -0.1779  0.0484 -0.6495
  345TMC3     O 5175   2.379   1.819  10.066 -0.3920 -0.3209  0.2296
  345TMC3     H 5176   2.748   1.846   9.935  0.2391 -1.3607 -0.3581
  345TMC3    H1 5177   2.331   1.943   9.869 -0.9683  3.3568 -1.8363
  345TMC3    H2 5178   2.638   2.087   9.607  1.3157  0.1728  0.4730
  345TMC3    C7 5179   2.375   2.067   9.631  0.4759 -0.2242 -0.1004
  345TMC3    C8 5180   2.840   1.943   9.726 -0.5550  0.5129 -0.3121
  345TMC3    O1 5181   2.262   2.093   9.668  0.0224 -0.2223  0.0602
  345TMC3    O2 5182   2.921   1.941   9.818  0.4598  0.4293  0.3681
  346MPD2     C 5183   1.993   3.297  14.617 -0.1428  0.0394  0.3920
  346MPD2    C1 5184   2.102   3.270  14.534  0.0906  0.0737 -0.7572
  346MPD2    C2 5185   2.226   3.318  14.565 -0.2963  0.2487  0.2271
  346MPD2    C3 5186   2.248   3.383  14.684 -0.0414  0.1989 -0.5515
  346MPD2    C4 5187   2.148   3.397  14.771 -0.2456 -0.1880  0.5568
  346MPD2    C5 5188   2.021   3.358  14.738  0.2440 -0.6474 -0.3649
  346MPD2     H 5189   2.305   3.298  14.493 -2.6017 -2.0512 -1.6614
  346MPD2    H1 5190   2.170   3.441  14.868  1.5725  0.7790 -0.2869
  346MPD2    H2 5191   1.892   3.266  14.594  0.5070 -1.0408 -1.0111
  346MPD2    H3 5192   1.951   3.350  14.820 -1.8563 -0.9004 -2.1839
  346MPD2     N 5193   2.379   3.429  14.700 -0.3209 -0.3332  0.0140
  346MPD2    H5 5194   2.445   3.393  14.633 -0.0465 -0.0723  0.1440
  346MPD2    N1 5195   2.084   3.198  14.417  0.0987  0.0059 -0.2467
  346MPD2    H7 5196   2.173   3.175  14.375  1.1988  0.8504  1.6377
  347TMC3    C1 5197   2.590   3.478  14.811 -0.0282 -0.1883 -0.0494
  347TMC3    C2 5198   2.660   3.510  14.695  0.2158 -0.1582 -0.0493
  347TMC3    C3 5199   2.796   3.483  14.701 -0.1801  0.0926  0.2534
  347TMC3    C4 5200   2.651   3.439  14.928  0.1057 -0.1860  0.3788
  347TMC3    C5 5201   2.786   3.433  14.932 -0.6102 -0.7439  0.3918
  347TMC3    C6 5202   2.856   3.447  14.819 -0.4482 -0.6289 -0.2576
  347TMC3     C 5203   2.437   3.472  14.813  0.2330  0.3382  0.6293
  347TMC3     O 5204   2.392   3.478  14.928 -0.5624 -0.0687  0.9267
  347TMC3     H 5205   2.613   3.537  14.602  0.7785  1.5891  0.1749
  347TMC3    H1 5206   2.582   3.419  15.008 -0.5760  0.4505 -0.0459
  347TMC3    H2 5207   2.964   3.446  14.828 -0.5648 -1.2929  1.0149
  347TMC3    C7 5208   2.840   3.381  15.053 -0.0557  0.0264 -0.5075
  347TMC3    C8 5209   2.876   3.498  14.582 -0.2541  0.4189  0.4462
  347TMC3    O1 5210   2.759   3.362  15.142  0.9030 -0.4642 -0.2457
  347TMC3    O2 5211   2.994   3.465  14.588 -0.5841  0.1826  0.4034
  348MPD2     C 5212   0.924   2.791  12.050 -0.0405 -0.1704  0.3581
  348MPD2    C1 5213   1.058   2.810  12.013  0.0131 -0.3051 -0.1289
  348MPD2    C2 5214   1.085   2.871  11.890 -0.4092 -0.2948 -0.1342
  348MPD2    C3 5215   0.985   2.882  11.792 -0.3346  0.0028 -0.8322
  348MPD2    C4 5216   0.861   2.849  11.819  0.0145  0.0151 -0.0563
  348MPD2    C5 5217   0.828   2.805  11.950  0.5227  0.0086  0.0071
  348MPD2     H 5218   1.190   2.886  11.869 -0.1905 -1.1377  0.3802
  348MPD2    H1 5219   0.775   2.836  11.753  1.5765  0.6507 -2.2086
  348MPD2    H2 5220   0.898   2.741  12.143  0.0406  0.2438  0.6013
  348MPD2    H3 5221   0.727   2.779  11.979  0.4349 -0.8203 -1.0465
  348MPD2     N 5222   1.026   2.920  11.662 -0.1518  0.1419  0.1699
  348MPD2    H5 5223   1.126   2.938  11.649 -0.6627  1.3846 -2.1148
  348MPD2    N1 5224   1.167   2.777  12.095  0.2849 -0.4233 -0.0332
  348MPD2    H7 5225   1.259   2.797  12.055 -0.0724  1.7807  0.2254
  349TMC3    C1 5226   1.296   2.654  12.247  0.5612  0.0322  0.3698
  349TMC3    C2 5227   1.304   2.528  12.301  0.3374  0.4705 -0.1669
  349TMC3    C3 5228   1.424   2.487  12.353  0.4460  0.0721 -0.4057
  349TMC3    C4 5229   1.414   2.736  12.231  0.3434  0.1132 -0.5516
  349TMC3    C5 5230   1.531   2.679  12.267 -0.5897 -0.4853  1.1835
  349TMC3    C6 5231   1.537   2.559  12.324  0.5773 -0.2489 -0.2825
  349TMC3     C 5232   1.162   2.703  12.211  0.0085  0.5449  0.3649
  349TMC3     O 5233   1.072   2.635  12.263 -0.1471 -0.3176  0.1073
  349TMC3     H 5234   1.213   2.471  12.316  0.4261 -0.2614 -2.4596
  349TMC3    H1 5235   1.420   2.835  12.187 -1.1584  0.7502  0.6867
  349TMC3    H2 5236   1.632   2.518  12.353  0.6815  1.8500  2.3815
  349TMC3    C7 5237   1.641   2.697  12.163 -0.3221 -0.7165 -0.7414
  349TMC3    C8 5238   1.444   2.338  12.343 -0.4883 -0.6992  0.1710
  349TMC3    O1 5239   1.688   2.589  12.132 -0.2135 -0.0072  0.0852
  349TMC3    O2 5240   1.353   2.273  12.388 -0.4705 -0.2958  0.6709
  350MPD2     C 5241   4.513   0.872   9.867 -0.1676 -0.0004 -0.0187
  350MPD2    C1 5242   4.599   0.776   9.916  0.0806  0.2233 -0.0419
  350MPD2    C2 5243   0.003   0.819   9.942 -0.9955 -0.0830  0.0669
  350MPD2    C3 5244   0.048   0.945   9.914  0.1528  0.1055 -0.1147
  350MPD2    C4 5245   4.681   1.040   9.864 -0.2708  0.7198  0.3352
  350MPD2    C5 5246   4.552   1.003   9.850 -0.1468 -0.1799  0.4023
  350MPD2     H 5247   0.073   0.746   9.980  0.0945  1.3064  0.7121
  350MPD2    H1 5248   4.705   1.145   9.856 -0.6509  0.8591  1.0251
  350MPD2    H2 5249   4.409   0.857   9.841 -0.6882  2.8527  0.3800
  350MPD2    H3 5250   4.480   1.072   9.808  0.6935  1.3296  1.4364
  350MPD2     N 5251   0.187   0.976   9.948  0.4230  0.2949  0.4996
  350MPD2    H5 5252   0.256   0.908   9.977 -1.3933 -1.9124 -0.3776
  350MPD2    N1 5253   4.564   0.648   9.960 -0.1174 -0.1532 -0.4495
  350MPD2    H7 5254   4.644   0.606  10.005 -0.7021 -2.4501 -1.5641
  351TMC3    C1 5255   4.438   0.457  10.005  0.0904  0.2109  0.3150
  351TMC3    C2 5256   4.550   0.385  10.040 -0.9980 -0.1175  1.1392
  351TMC3    C3 5257   4.527   0.253  10.071  0.0919 -0.1652 -0.3571
  351TMC3    C4 5258   4.313   0.402  10.005 -0.0583 -0.3761  0.2138
  351TMC3    C5 5259   4.304   0.271  10.028  0.0083  0.0058 -0.4205
  351TMC3    C6 5260   4.408   0.190  10.057  0.0480  0.6451  0.3513
  351TMC3     C 5261   4.439   0.596   9.962  0.0182 -0.9141  0.1587
  351TMC3     O 5262   4.338   0.641   9.907  0.1411  0.1112 -0.4309
  351TMC3     H 5263   4.647   0.434  10.035 -1.2655 -0.0198 -3.1743
  351TMC3    H1 5264   4.227   0.465   9.985  0.1523  0.1119  0.8554
  351TMC3    H2 5265   4.404   0.082  10.051  1.6134  0.5323  1.1342
  351TMC3    C7 5266   4.178   0.210   9.978  0.2642 -0.3349  0.4557
  351TMC3    C8 5267   4.643   0.176  10.052  0.0527 -0.2729 -0.0829
  351TMC3    O1 5268   4.130   0.280   9.888 -0.5174 -0.1733 -0.4900
  351TMC3    O2 5269   0.024   0.220  10.013 -0.0239  0.2413 -0.6336
  352MPD2     C 5270   3.090   2.274   1.429  0.1693  1.1095  0.7508
  352MPD2    C1 5271   2.950   2.282   1.430 -0.0222  0.0252 -0.3302
  352MPD2    C2 5272   2.881   2.184   1.495  0.4624 -0.0560  0.3311
  352MPD2    C3 5273   2.938   2.066   1.544  0.1537  0.4567  0.8906
  352MPD2    C4 5274   3.072   2.051   1.517  0.6132  0.4138  0.0665
  352MPD2    C5 5275   3.147   2.156   1.467 -0.3674 -0.1883 -0.8406
  352MPD2     H 5276   2.773   2.196   1.500  0.3919 -0.5233 -0.2038
  352MPD2    H1 5277   3.119   1.956   1.540 -1.1870 -0.3428  0.6422
  352MPD2    H2 5278   3.160   2.342   1.381  1.1812 -3.0895 -3.7161
  352MPD2    H3 5279   3.254   2.142   1.461 -0.3311 -0.7638  1.3339
  352MPD2     N 5280   2.862   1.962   1.602 -0.7320  0.4260  0.5790
  352MPD2    H5 5281   2.912   1.874   1.596  1.6818  2.0668 -3.3557
  352MPD2    N1 5282   2.881   2.400   1.392  0.6963 -0.4426  0.0981
  352MPD2    H7 5283   2.781   2.399   1.405  0.6148 -0.3590 -0.5060
  353TMC3    C1 5284   2.699   1.824   1.700  0.3337  1.3896 -1.0014
  353TMC3    C2 5285   2.790   1.749   1.764  0.3523 -0.1540 -0.5723
  353TMC3    C3 5286   2.753   1.621   1.795  0.0485  0.3338 -0.5497
  353TMC3    C4 5287   2.590   1.768   1.640 -1.3640 -0.1913  0.3499
  353TMC3    C5 5288   2.552   1.638   1.682 -0.1187 -0.2107 -0.5415
  353TMC3    C6 5289   2.630   1.568   1.765 -0.4320  0.1179 -0.2537
  353TMC3     C 5290   2.734   1.950   1.632  1.0765  0.2539  0.1142
  353TMC3     O 5291   2.645   2.018   1.579  0.0119 -0.1711 -0.8577
  353TMC3     H 5292   2.872   1.805   1.807  0.2092  1.0079 -1.8246
  353TMC3    H1 5293   2.514   1.829   1.593 -3.9061 -1.8065  2.3340
  353TMC3    H2 5294   2.601   1.473   1.809  0.5767 -0.5537 -1.0392
  353TMC3    C7 5295   2.473   1.565   1.586  0.4329  0.2297  0.5720
  353TMC3    C8 5296   2.858   1.543   1.864 -0.1584 -0.5345  0.1909
  353TMC3    O1 5297   2.440   1.629   1.483  0.0839  0.5143  0.2194
  353TMC3    O2 5298   2.821   1.460   1.944  0.0200  0.3726 -0.4920
  354TMC3    C1 5299   0.557   4.029  13.579  0.0787  0.3330  0.2901
  354TMC3    C2 5300   0.538   4.161  13.555 -0.9116  0.6109  0.1444
  354TMC3    C3 5301   0.534   4.195  13.422 -0.5439 -0.0047 -0.5665
  354TMC3    C4 5302   0.592   3.931  13.481  0.3717  0.4322  0.5532
  354TMC3    C5 5303   0.606   3.982  13.355 -0.3589  0.5425  0.0343
  354TMC3    C6 5304   0.571   4.112  13.323  0.2052 -0.8023  0.3495
  354TMC3     C 5305   0.535   3.984  13.720  0.1230 -0.0380  0.2750
  354TMC3     O 5306   0.477   4.064  13.791  0.5943 -0.4514  0.6752
  354TMC3     H 5307   0.515   4.238  13.628  0.0450 -0.5114  1.6184
  354TMC3    H1 5308   0.625   3.829  13.496  1.5935  0.7229 -0.0972
  354TMC3    H2 5309   0.581   4.154  13.224 -0.8401 -0.2617  0.4664
  354TMC3    C7 5310   0.651   3.887  13.253  0.9769 -0.6152 -0.1948
  354TMC3    C8 5311   0.530   4.337  13.400 -0.5995  0.0367  0.4392
  354TMC3    O1 5312   0.684   3.776  13.289 -0.7917  0.8052 -0.0436
  354TMC3    O2 5313   0.563   4.406  13.492  0.3947 -0.2592  0.0649
  355MPD2     C 5314   0.562   0.173  11.915 -0.5309 -0.4623 -0.1457
  355MPD2    C1 5315   0.567   0.175  11.776 -0.4260  0.2107  0.9324
  355MPD2    C2 5316   0.678   0.225  11.710  0.4949 -0.2282  0.5339
  355MPD2    C3 5317   0.786   0.258  11.786 -0.1623  0.2288  0.0632
  355MPD2    C4 5318   0.790   0.244  11.924  0.3602 -0.2589 -0.0841
  355MPD2    C5 5319   0.672   0.204  11.985 -0.1738 -0.6977  0.2443
  355MPD2     H 5320   0.684   0.244  11.603 -0.8216  1.1904  0.7224
  355MPD2    H1 5321   0.873   0.269  11.990 -0.4050  3.5943 -0.5686
  355MPD2    H2 5322   0.489   0.125  11.979 -0.8328 -1.1441 -0.9870
  355MPD2    H3 5323   0.663   0.209  12.092 -0.7389  3.7139 -0.0427
  355MPD2     N 5324   0.891   0.334  11.730  0.1702 -0.5458  0.0930
  355MPD2    H5 5325   0.948   0.387  11.796  1.1077 -2.9893  1.2347
  355MPD2    N1 5326   0.445   0.145  11.712 -0.2045  0.1519  0.0687
  355MPD2    H7 5327   0.360   0.139  11.768 -0.0400 -0.9286  0.2166
  356TMC3    C1 5328   0.966   0.477  11.575  0.7172  0.1936  0.0558
  356TMC3    C2 5329   1.062   0.486  11.474  0.7977 -0.2161 -0.9133
  356TMC3    C3 5330   1.134   0.601  11.474  0.4128  0.1634 -0.0447
  356TMC3    C4 5331   0.943   0.572  11.669  0.7694  0.6615  0.5756
  356TMC3    C5 5332   1.021   0.685  11.673  0.4948 -0.3775 -0.2346
  356TMC3    C6 5333   1.116   0.700  11.575  0.7073  0.4037  0.1861
  356TMC3     C 5334   0.910   0.350  11.599  0.1771  0.4149  0.9111
  356TMC3     O 5335   0.871   0.291  11.501 -0.2167 -0.2279  0.1590
  356TMC3     H 5336   1.083   0.402  11.409  3.1249 -1.9859  2.1220
  356TMC3    H1 5337   0.857   0.562  11.734  0.8767  0.3640  0.6720
  356TMC3    H2 5338   1.188   0.778  11.597  1.9960  0.0680 -2.8367
  356TMC3    C7 5339   1.013   0.761  11.795  0.8005  0.0663 -0.3472
  356TMC3    C8 5340   1.209   0.627  11.352  0.5132 -0.7795 -0.3686
  356TMC3    O1 5341   0.952   0.704  11.884 -0.0665 -0.0925  0.1435
  356TMC3    O2 5342   1.166   0.579  11.243  0.2902 -0.2596 -0.1845
  357MPD2     C 5343   0.100   4.658   0.970 -0.0608 -1.4919  0.0991
  357MPD2    C1 5344   0.217   4.718   1.014  0.1896  0.1538 -0.9491
  357MPD2    C2 5345   0.216   0.074   1.122 -0.4922  0.3966 -0.0364
  357MPD2    C3 5346   0.095   0.097   1.188  0.2209  0.1065  0.1545
  357MPD2    C4 5347   4.705   0.025   1.144  0.9676 -0.3869 -0.4310
  357MPD2    C5 5348   4.698   4.670   1.031 -0.2632  0.1926 -0.3643
  357MPD2     H 5349   0.308   0.116   1.160  0.4906 -3.0078  1.3891
  357MPD2    H1 5350   4.613   0.026   1.202  2.0772  0.1324  1.3122
  357MPD2    H2 5351   0.107   4.601   0.878 -2.6223  0.5903 -1.3808
  357MPD2    H3 5352   4.612   4.608   1.005  1.0278 -1.7998  0.0715
  357MPD2     N 5353   0.088   0.178   1.302  0.0684  0.1009  0.1310
  357MPD2    H5 5354   0.001   0.175   1.354 -1.0635  1.1172 -1.7327
  357MPD2    N1 5355   0.338   4.687   0.944  0.3695 -0.4111  0.2625
  357MPD2    H7 5356   0.326   4.649   0.851 -0.3203  0.5724 -0.0570
  358TMC3    C1 5357   0.561   4.644   0.904  0.3654 -0.1675  0.1051
  358TMC3    C2 5358   0.533   4.656   0.769 -0.4357 -0.1331 -0.3694
  358TMC3    C3 5359   0.639   4.622   0.687  0.0474 -0.0226  0.3332
  358TMC3    C4 5360   0.684   4.615   0.957  0.0649  0.3394  1.1223
  358TMC3    C5 5361   0.777   4.576   0.869  0.0840  0.2979 -0.3312
  358TMC3    C6 5362   0.760   4.586   0.738 -0.3201  0.4793  0.2102
  358TMC3     C 5363   0.465   4.692   0.995  0.4934 -0.1777 -0.5027
  358TMC3     O 5364   0.496   4.712   1.110  0.2132  0.3145  0.6133
  358TMC3     H 5365   0.445   4.708   0.733 -1.9495 -2.5479 -0.1479
  358TMC3    H1 5366   0.717   4.617   1.061  0.7980  0.3440  0.8910
  358TMC3    H2 5367   0.842   4.581   0.666  0.5625  1.8433  1.1228
  358TMC3    C7 5368   0.916   4.551   0.909  0.8960 -0.0991 -0.0372
  358TMC3    C8 5369   0.634   4.625   0.538  0.8598 -0.7128  0.5707
  358TMC3    O1 5370   0.992   4.487   0.839  0.7942 -0.4969  0.3662
  358TMC3    O2 5371   0.739   4.616   0.474 -0.2750 -0.2995 -0.2332
  359MPD2     C 5372   0.271   4.209  11.860 -0.1517  0.6471  0.4926
  359MPD2    C1 5373   0.325   4.159  11.980  0.0087 -0.6121 -0.1138
  359MPD2    C2 5374   0.234   4.139  12.087 -0.2881  0.1690 -1.0265
  359MPD2    C3 5375   0.096   4.177  12.076  0.0874  0.4073  0.4521
  359MPD2    C4 5376   0.054   4.236  11.962  0.0393  0.0288  0.1657
  359MPD2    C5 5377   0.141   4.250  11.853 -1.1087  0.1699 -0.3308
  359MPD2     H 5378   0.273   4.111  12.184  0.2236  1.2475 -0.9099
  359MPD2    H1 5379   4.669   4.247  11.953  0.0117  0.0124  0.4837
  359MPD2    H2 5380   0.340   4.218  11.776  1.9858 -3.6779  1.7676
  359MPD2    H3 5381   0.102   4.300  11.765  0.5803  0.0940 -1.1219
  359MPD2     N 5382   4.718   4.137  12.173  0.5541 -0.2051 -0.3479
  359MPD2    H5 5383   4.623   4.168  12.155  0.3749 -0.5057  0.0820
  359MPD2    N1 5384   0.454   4.113  12.000  0.7757 -0.2280  0.1271
  359MPD2    H7 5385   0.463   4.085  12.097  0.2025  0.0333  0.2570
  360TMC3    C1 5386   0.679   4.075  11.979 -0.1374 -0.3997 -0.3994
  360TMC3    C2 5387   0.795   4.151  11.964 -0.4601 -0.7834  0.8928
  360TMC3    C3 5388   0.910   4.076  11.974 -0.3538 -0.1779  0.0175
  360TMC3    C4 5389   0.670   3.941  12.009 -0.2419  0.4816  0.2335
  360TMC3    C5 5390   0.797   3.875  12.017 -0.7820 -0.4930  0.1923
  360TMC3    C6 5391   0.914   3.940  11.992  0.6933  0.6515  0.2385
  360TMC3     C 5392   0.561   4.125  11.916  0.4085  0.4920  0.4805
  360TMC3     O 5393   0.577   4.185  11.807  0.1368  0.5884 -0.6777
  360TMC3     H 5394   0.797   4.249  11.918  0.0096 -0.6040  1.2925
  360TMC3    H1 5395   0.571   3.900  11.997 -0.2650  0.6881 -0.3198
  360TMC3    H2 5396   1.005   3.881  11.989 -1.1337 -2.1385 -0.3652
  360TMC3    C7 5397   0.799   3.732  11.996 -0.0821 -0.5006 -0.5208
  360TMC3    C8 5398   1.031   4.139  11.916  0.4393 -0.1374 -0.3042
  360TMC3    O1 5399   0.872   3.664  12.066 -0.9595  0.3609 -0.0254
  360TMC3    O2 5400   1.040   4.263  11.926 -0.5808 -0.5838 -0.0353
  361MPD2     C 5401   2.400   2.699  16.687  0.0241 -0.0429  0.0237
  361MPD2    C1 5402   2.412   2.703  16.826  0.1191 -0.1821  0.5815
  361MPD2    C2 5403   2.468   2.596  16.887  0.6234 -0.9030 -0.0067
  361MPD2    C3 5404   2.520   2.484  16.815  0.4650  0.0174 -0.0466
  361MPD2    C4 5405   2.494   2.485  16.680 -0.9856  0.2762 -0.2721
  361MPD2    C5 5406   2.428   2.586  16.619  0.6097 -0.3310  0.1864
  361MPD2     H 5407   2.485   2.593  16.994  1.6988 -2.0993 -0.2192
  361MPD2    H1 5408   2.520   2.405  16.611 -0.3312 -0.7590  1.1679
  361MPD2    H2 5409   2.364   2.787  16.634  1.3253  0.5599  0.1465
  361MPD2    H3 5410   2.414   2.596  16.512  1.1199 -0.5745  0.0972
  361MPD2     N 5411   2.584   2.372  16.875  0.5810 -0.1427  0.5269
  361MPD2    H5 5412   2.616   2.299  16.813  1.0948 -0.5190  1.2356
  361MPD2    N1 5413   2.354   2.816  16.899  0.3119 -0.3199 -0.0418
  361MPD2    H7 5414   2.311   2.887  16.842 -1.3250  0.4963  2.2211
  362TMC3    C1 5415   2.264   2.935  17.079 -0.3446  0.2682  0.0732
  362TMC3    C2 5416   2.184   2.928  17.189  0.1533 -0.5421 -0.0172
  362TMC3    C3 5417   2.138   3.042  17.249  1.1330 -0.6804 -0.5236
  362TMC3    C4 5418   2.288   3.058  17.018  0.3994 -0.0401 -0.1952
  362TMC3    C5 5419   2.234   3.170  17.070 -0.2941  0.1398 -0.8071
  362TMC3    C6 5420   2.152   3.158  17.184  0.2629 -0.2835  0.5083
  362TMC3     C 5421   2.323   2.813  17.038 -0.1502 -0.2061 -0.6278
  362TMC3     O 5422   2.344   2.721  17.118  0.2459  0.5177  0.2903
  362TMC3     H 5423   2.183   2.835  17.244 -0.5530  0.8217  2.3189
  362TMC3    H1 5424   2.356   3.069  16.934 -0.2293  2.5613 -0.3387
  362TMC3    H2 5425   2.115   3.250  17.227  1.1630  0.0135  0.6427
  362TMC3    C7 5426   2.213   3.289  16.982 -0.3092 -0.4857  0.4034
  362TMC3    C8 5427   2.063   3.031  17.373 -0.2585  0.6732  0.3132
  362TMC3    O1 5428   2.095   3.326  16.978 -0.6107 -0.5390 -0.2248
  362TMC3    O2 5429   2.059   2.920  17.429 -0.3182  0.0066 -0.0670
  363TMC3    C1 5430   0.716   0.401   9.545 -0.4847  0.6711 -0.3787
  363TMC3    C2 5431   0.755   0.285   9.607  0.4273  0.4703  1.4013
  363TMC3    C3 5432   0.661   0.203   9.663  0.2887 -0.0712 -0.3286
  363TMC3    C4 5433   0.587   0.437   9.534  0.1639  0.1650  0.3572
  363TMC3    C5 5434   0.500   0.354   9.597 -0.4174 -0.3705  0.3295
  363TMC3    C6 5435   0.530   0.235   9.657 -0.5404  0.6883 -0.3784
  363TMC3     C 5436   0.812   0.470   9.454  0.2881  0.7089  0.6338
  363TMC3     O 5437   0.793   0.586   9.425  0.0031  0.1003  0.7492
  363TMC3     H 5438   0.861   0.263   9.618  0.5655  0.1583 -0.4870
  363TMC3    H1 5439   0.562   0.541   9.516 -2.1877 -0.2673  1.1386
  363TMC3    H2 5440   0.465   0.159   9.699 -0.9631  1.3311  0.1181
  363TMC3    C7 5441   0.360   0.369   9.563 -0.1353 -0.3931 -0.0863
  363TMC3    C8 5442   0.690   0.079   9.731 -0.3018 -0.0233  0.2764
  363TMC3    O1 5443   0.277   0.313   9.637  0.1104 -0.1924  0.2558
  363TMC3    O2 5444   0.616   0.034   9.819 -0.2500 -0.5399  0.1437
  364MPD2     C 5445   4.322   4.331  10.998 -0.1768 -0.1363 -0.5767
  364MPD2    C1 5446   4.351   4.251  10.888  0.6309  0.0569 -0.2247
  364MPD2    C2 5447   4.378   4.116  10.921  0.0792 -0.0301  0.0586
  364MPD2    C3 5448   4.337   4.063  11.045 -0.1523 -0.4684 -0.5308
  364MPD2    C4 5449   4.281   4.140  11.141 -0.2103 -0.1719  0.4691
  364MPD2    C5 5450   4.281   4.277  11.116 -0.4261 -0.6941 -0.4963
  364MPD2     H 5451   4.408   4.054  10.838  0.4930 -1.0375  0.9673
  364MPD2    H1 5452   4.241   4.104  11.235  3.8152  0.2694  2.3606
  364MPD2    H2 5453   4.316   4.439  10.996 -0.7796 -0.1379  2.1270
  364MPD2    H3 5454   4.252   4.347  11.194 -0.0682 -1.3465  0.2306
  364MPD2     N 5455   4.349   3.927  11.078 -0.2131  0.4736 -0.1325
  364MPD2    H5 5456   4.360   3.906  11.177 -0.4430 -0.0530 -0.2198
  364MPD2    N1 5457   4.375   4.307  10.764  0.5924 -0.4146 -0.0990
  364MPD2    H7 5458   4.357   4.407  10.753  1.0414 -0.5048 -1.6136
  365TMC3    C1 5459   4.427   4.322  10.526  0.6153 -0.2421  0.0159
  365TMC3    C2 5460   4.436   4.255  10.408 -0.3077  0.5577  0.0837
  365TMC3    C3 5461   4.418   4.329  10.298  0.4707  0.0272  0.2342
  365TMC3    C4 5462   4.422   4.463  10.533  0.7015  0.5062 -0.2368
  365TMC3    C5 5463   4.425   4.531  10.416  0.1494 -0.7566 -0.3165
  365TMC3    C6 5464   4.419   4.468  10.294  0.2780  0.4774 -0.1270
  365TMC3     C 5465   4.423   4.238  10.653  0.4499 -0.4896  0.1152
  365TMC3     O 5466   4.460   4.123  10.646  0.0042 -0.0098 -0.3010
  365TMC3     H 5467   4.419   4.148  10.414 -0.6709  0.5858 -0.4373
  365TMC3    H1 5468   4.456   4.522  10.618  2.1911  1.1613 -1.2905
  365TMC3    H2 5469   4.413   4.525  10.203  0.3373  0.5460 -0.0877
  365TMC3    C7 5470   4.412   4.675  10.419  0.2182 -0.5271 -0.3550
  365TMC3    C8 5471   4.451   4.269  10.174  0.1288 -0.2484 -0.1321
  365TMC3    O1 5472   4.420   0.009  10.310 -0.8029 -0.0737 -0.6505
  365TMC3    O2 5473   4.424   4.333  10.070 -0.6504 -0.2054  0.8020
  366MPD2     C 5474   2.279   0.939  14.815 -0.5372  0.2994 -0.8649
  366MPD2    C1 5475   2.394   1.005  14.850  0.7257 -0.1986  0.2042
  366MPD2    C2 5476   2.510   0.927  14.858 -0.2707  1.1679 -0.9993
  366MPD2    C3 5477   2.509   0.792  14.844  0.0345 -0.4068  0.0667
  366MPD2    C4 5478   2.391   0.731  14.799 -0.3361 -0.1627  0.0050
  366MPD2    C5 5479   2.285   0.809  14.781  0.0775  0.1756 -0.0059
  366MPD2     H 5480   2.607   0.971  14.878 -0.6471  0.0042  3.3032
  366MPD2    H1 5481   2.384   0.626  14.770  0.5122  0.4195 -2.3186
  366MPD2    H2 5482   2.185   0.992  14.806  0.1264  1.6999  0.3081
  366MPD2    H3 5483   2.195   0.750  14.764  0.8321 -0.7738 -0.6422
  366MPD2     N 5484   2.629   0.724  14.872 -0.0400  0.4289  0.1054
  366MPD2    H5 5485   2.704   0.780  14.912  1.1477 -0.8498 -0.3374
  366MPD2    N1 5486   2.388   1.137  14.883  0.1822  0.6245  1.3135
  366MPD2    H7 5487   2.478   1.174  14.913  0.8411 -0.8057  1.1151
  367TMC3    C1 5488   2.334   1.362  14.918 -0.6129 -0.3780 -0.1142
  367TMC3    C2 5489   2.427   1.354  15.021  0.4074  0.4084  0.6516
  367TMC3    C3 5490   2.491   1.464  15.061  0.0565  0.6583  0.8097
  367TMC3    C4 5491   2.315   1.470  14.832  0.1440 -0.1561 -0.6004
  367TMC3    C5 5492   2.387   1.584  14.876 -0.2574  0.6411 -0.2191
  367TMC3    C6 5493   2.466   1.580  14.983  0.1786 -0.4474  0.4424
  367TMC3     C 5494   2.287   1.230  14.875  0.7193 -0.0006 -0.5204
  367TMC3     O 5495   2.179   1.228  14.822  0.2308  0.2010 -0.2778
  367TMC3     H 5496   2.447   1.270  15.085  1.3054  0.1253  0.0124
  367TMC3    H1 5497   2.230   1.470  14.764 -0.3742  0.5552  0.0461
  367TMC3    H2 5498   2.518   1.671  15.009  0.1150 -1.0471  2.6493
  367TMC3    C7 5499   2.300   1.701  14.863 -0.2853  0.6806  0.0654
  367TMC3    C8 5500   2.601   1.461  15.161  0.4339  0.4815  0.4987
  367TMC3    O1 5501   2.301   1.779  14.956 -0.2294  0.2829  0.8742
  367TMC3    O2 5502   2.601   1.362  15.233 -0.5638 -0.0028 -0.5255
  368MPD2     C 5503   3.683   2.729  12.789 -0.6260 -0.1491 -0.0491
  368MPD2    C1 5504   3.674   2.869  12.766  0.2587 -0.1820 -0.0952
  368MPD2    C2 5505   3.758   2.929  12.678 -0.0231  0.6019 -0.3808
  368MPD2    C3 5506   3.851   2.857  12.608  0.4224 -0.6323 -0.7837
  368MPD2    C4 5507   3.855   2.718  12.622  0.4321  0.4952 -0.7324
  368MPD2    C5 5508   3.778   2.652  12.717 -0.1238  0.1964  0.4787
  368MPD2     H 5509   3.745   3.034  12.653 -0.2243  0.7537  0.3526
  368MPD2    H1 5510   3.917   2.656  12.557 -1.1950  0.4234 -2.2210
  368MPD2    H2 5511   3.614   2.671  12.848 -0.7712  0.0354 -0.0376
  368MPD2    H3 5512   3.784   2.545  12.731 -1.4841  0.0413 -0.1145
  368MPD2     N 5513   3.933   2.915  12.505 -0.2487 -0.2926 -0.2714
  368MPD2    H5 5514   3.983   2.847  12.449 -2.4290 -0.2164 -2.2989
  368MPD2    N1 5515   3.570   2.944  12.814 -0.2839  0.2996 -0.2292
  368MPD2    H7 5516   3.563   3.039  12.778  0.9636  1.1861  1.8759
  369TMC3    C1 5517   3.359   2.995  12.891  0.3143 -0.9458 -0.0078
  369TMC3    C2 5518   3.383   3.127  12.874 -0.3001  0.1848  0.6694
  369TMC3    C3 5519   3.294   3.224  12.918 -0.0944  0.6174 -0.1201
  369TMC3    C4 5520   3.249   2.962  12.965  0.0415  0.5315 -1.2201
  369TMC3    C5 5521   3.162   3.059  12.996 -1.2217 -0.3443 -0.1738
  369TMC3    C6 5522   3.182   3.192  12.983  0.0780  0.1767 -0.1737
  369TMC3     C 5523   3.463   2.889  12.873 -0.3490 -0.1371  0.4862
  369TMC3     O 5524   3.437   2.776  12.914 -0.4392 -0.4638  0.6944
  369TMC3     H 5525   3.462   3.162  12.808 -2.2371 -1.1655 -2.3444
  369TMC3    H1 5526   3.216   2.859  12.972  0.3786  0.3222 -2.8255
  369TMC3    H2 5527   3.119   3.270  13.025 -0.1488  1.2368 -2.5290
  369TMC3    C7 5528   3.057   3.013  13.085 -0.2049 -0.1390 -0.1808
  369TMC3    C8 5529   3.313   3.359  12.869 -0.1443  0.0306  0.4873
  369TMC3    O1 5530   3.097   2.920  13.153 -0.0469 -0.1387 -0.7845
  369TMC3    O2 5531   3.214   3.421  12.837  0.4488  0.1662  0.4756
  370TMC3    C1 5532   3.493   3.447  16.417 -0.2026 -0.2995  0.2051
  370TMC3    C2 5533   3.444   3.364  16.514 -0.6091 -0.2443  0.5249
  370TMC3    C3 5534   3.395   3.244  16.470 -0.2147  0.0781 -0.0764
  370TMC3    C4 5535   3.496   3.418  16.280  0.0936 -0.3383  0.0161
  370TMC3    C5 5536   3.456   3.290  16.245 -0.3221 -0.2319  0.6671
  370TMC3    C6 5537   3.401   3.205  16.342 -0.0817 -0.1615 -0.6079
  370TMC3     C 5538   3.577   3.558  16.464  0.5073 -0.4234  0.0729
  370TMC3     O 5539   3.631   3.537  16.574  0.4059  0.1510 -0.1467
  370TMC3     H 5540   3.444   3.393  16.619 -1.0689 -1.1708  0.7761
  370TMC3    H1 5541   3.535   3.489  16.208  0.3486  0.3043  0.7866
  370TMC3    H2 5542   3.371   3.104  16.315 -0.6670  0.6393 -2.9877
  370TMC3    C7 5543   3.501   3.244  16.115  0.2040  0.6982 -0.8488
  370TMC3    C8 5544   3.348   3.139  16.565  0.1709  0.5615 -0.4947
  370TMC3    O1 5545   3.547   3.321  16.030  0.0946 -0.0765  0.1088
  370TMC3    O2 5546   3.339   3.022  16.530 -0.4605  0.4036 -0.3450
  371TMC3    C1 5547   4.423   1.542  15.692 -0.0701 -0.2013 -0.5151
  371TMC3    C2 5548   4.289   1.525  15.692 -0.0213 -0.1610  0.0253
  371TMC3    C3 5549   4.214   1.637  15.678  0.3318 -0.1701  0.3916
  371TMC3    C4 5550   4.485   1.666  15.677  0.2122 -0.0255 -0.7005
  371TMC3    C5 5551   4.403   1.775  15.668  0.0412 -0.4614 -0.3698
  371TMC3    C6 5552   4.266   1.762  15.676 -0.4929 -1.0420 -0.3246
  371TMC3     C 5553   4.517   1.431  15.701 -0.6113 -0.5088 -0.5613
  371TMC3     O 5554   4.638   1.452  15.716  0.4688  0.1762 -0.0672
  371TMC3     H 5555   4.234   1.432  15.695  0.6597 -0.5749 -0.3997
  371TMC3    H1 5556   4.594   1.665  15.676  0.2057 -0.0021 -1.9127
  371TMC3    H2 5557   4.205   1.846  15.648  0.4366  0.2312  1.5004
  371TMC3    C7 5558   4.450   1.913  15.672 -0.0923  0.0330  0.5584
  371TMC3    C8 5559   4.074   1.618  15.713  0.2823 -0.3890  0.4574
  371TMC3    O1 5560   4.361   1.994  15.645  0.3395  0.4154 -0.4987
  371TMC3    O2 5561   4.020   1.511  15.687 -0.5184  0.0965  0.3120
  372MPD2     C 5562   4.075   3.142  13.258 -0.2123  0.3891  0.3319
  372MPD2    C1 5563   4.173   3.115  13.352 -0.1851 -0.0721 -0.3497
  372MPD2    C2 5564   4.139   3.061  13.473  0.3760 -0.2390 -0.8037
  372MPD2    C3 5565   4.005   3.030  13.510 -0.4812 -0.4924  0.2523
  372MPD2    C4 5566   3.908   3.058  13.420 -0.0674  0.2563  0.6295
  372MPD2    C5 5567   3.940   3.127  13.304 -0.3151 -0.4769  0.7308
  372MPD2     H 5568   4.222   3.036  13.539  0.5123  0.3969 -0.7361
  372MPD2    H1 5569   3.803   3.042  13.443 -0.1408 -0.7581 -0.4320
  372MPD2    H2 5570   4.098   3.194  13.166 -3.2576 -3.1363 -2.3946
  372MPD2    H3 5571   3.859   3.166  13.244 -0.2030 -0.8074  0.3604
  372MPD2     N 5572   3.987   2.963  13.631  0.2881 -0.3255 -0.0318
  372MPD2    H5 5573   4.072   2.956  13.686 -0.8994 -1.2327  1.7070
  372MPD2    N1 5574   4.306   3.130  13.319 -0.6100  0.7399 -0.3011
  372MPD2    H7 5575   4.378   3.119  13.389 -1.0353  0.7302  0.1293
  373TMC3    C1 5576   3.861   2.843  13.814 -0.4127  0.2828  0.1193
  373TMC3    C2 5577   3.752   2.846  13.889 -0.2669 -0.1969 -0.6787
  373TMC3    C3 5578   3.737   2.751  13.984 -0.3692 -0.2286 -0.2339
  373TMC3    C4 5579   3.940   2.736  13.814  0.2466  0.3734 -0.4677
  373TMC3    C5 5580   3.924   2.643  13.913  0.4971  0.5672 -0.0738
  373TMC3    C6 5581   3.819   2.652  14.006  0.1670 -0.3893 -0.0663
  373TMC3     C 5582   3.862   2.934  13.698 -0.3829 -0.0751  0.0258
  373TMC3     O 5583   3.750   2.938  13.645 -0.3412  0.0189 -0.1081
  373TMC3     H 5584   3.696   2.939  13.884 -2.3931 -1.5007 -1.1610
  373TMC3    H1 5585   4.016   2.739  13.737  1.6603  1.6658  0.9683
  373TMC3    H2 5586   3.810   2.578  14.085 -0.3308  2.5608  2.6244
  373TMC3    C7 5587   4.027   2.539  13.921 -0.8903  0.0382 -0.1583
  373TMC3    C8 5588   3.616   2.786  14.068  0.3580 -0.0437 -0.3601
  373TMC3    O1 5589   4.097   2.498  13.829 -0.7245 -0.7226  0.1866
  373TMC3    O2 5590   3.528   2.847  14.006  0.6336 -0.0801 -0.0113
  374TMC3    C1 5591   0.210   2.568   9.522  0.9523  0.3579  0.7173
  374TMC3    C2 5592   0.238   2.690   9.562 -0.0166  0.0202 -0.6659
  374TMC3    C3 5593   0.307   2.767   9.468  0.0827 -0.1912 -0.1219
  374TMC3    C4 5594   0.250   2.523   9.395 -0.1544  0.4765 -0.0165
  374TMC3    C5 5595   0.308   2.613   9.307 -0.4313  0.6562 -0.2658
  374TMC3    C6 5596   0.357   2.730   9.348  0.8428  0.2803  0.3209
  374TMC3     C 5597   0.128   2.492   9.613  0.2099  0.9654  0.0563
  374TMC3     O 5598   0.117   2.536   9.728  0.5680 -0.3354  1.1131
  374TMC3     H 5599   0.192   2.739   9.646 -0.7907  1.0656 -1.7025
  374TMC3    H1 5600   0.229   2.422   9.362 -1.1419 -0.4309  3.3625
  374TMC3    H2 5601   0.413   2.801   9.288  2.1484 -0.1008  1.0868
  374TMC3    C7 5602   0.362   2.560   9.178  0.4039  0.0706  0.4007
  374TMC3    C8 5603   0.327   2.908   9.496  0.5856 -0.2781  0.1886
  374TMC3    O1 5604   0.389   2.442   9.173  0.5568 -0.0827  0.3284
  374TMC3    O2 5605   0.329   2.982   9.396 -0.5456  0.4292 -0.0973
  375MPD2     C 5606   0.178   4.083  17.341  0.6569  0.2793 -0.4393
  375MPD2    C1 5607   0.069   4.014  17.284 -0.0914 -0.0897 -0.5489
  375MPD2    C2 5608   0.094   3.938  17.169 -0.1410  0.0739  0.0867
  375MPD2    C3 5609   0.225   3.922  17.122 -0.1030 -0.3897  0.1429
  375MPD2    C4 5610   0.330   3.983  17.181  0.3731  0.1879  0.1898
  375MPD2    C5 5611   0.304   4.071  17.289  0.6061  0.7509  0.0302
  375MPD2     H 5612   0.010   3.886  17.126 -0.8093 -0.7376  2.3851
  375MPD2    H1 5613   0.429   3.966  17.140  0.5712 -0.1546  0.8235
  375MPD2    H2 5614   0.167   4.144  17.429 -2.0924 -0.2534 -0.4082
  375MPD2    H3 5615   0.390   4.125  17.326  2.5295 -1.3551 -1.3414
  375MPD2     N 5616   0.251   3.855  17.001  0.6982  0.9460 -0.0046
  375MPD2    H5 5617   0.349   3.841  16.977  1.2112  3.5067  0.6309
  375MPD2    N1 5618   4.667   4.003  17.346 -0.2685  0.2801  0.0272
  375MPD2    H7 5619   4.607   3.946  17.288  1.5189 -0.8954 -0.6567
  376TMC3    C1 5620   0.195   3.755  16.789 -0.1842 -0.1369  0.4798
  376TMC3    C2 5621   0.316   3.693  16.777  0.0555  0.2301  0.4270
  376TMC3    C3 5622   0.342   3.630  16.657  0.1416 -0.4934  0.5705
  376TMC3    C4 5623   0.101   3.741  16.696 -0.2162  0.1807  0.4465
  376TMC3    C5 5624   0.125   3.666  16.583 -0.5420  0.0750 -0.7344
  376TMC3    C6 5625   0.249   3.618  16.560 -0.4549 -0.3495 -0.5599
  376TMC3     C 5626   0.148   3.811  16.919  0.1788  0.1419 -0.8148
  376TMC3     O 5627   0.025   3.823  16.917 -0.4580 -0.4493 -0.1364
  376TMC3     H 5628   0.390   3.706  16.856  0.3046  1.2360  0.0321
  376TMC3    H1 5629   0.008   3.798  16.699 -0.3041  0.0482  0.2061
  376TMC3    H2 5630   0.267   3.550  16.477  2.0518 -1.2787  0.7276
  376TMC3    C7 5631   0.020   3.656  16.477 -0.2260 -0.5597 -0.5751
  376TMC3    C8 5632   0.480   3.585  16.627  0.6455  0.5294  0.0090
  376TMC3    O1 5633   4.650   3.735  16.471 -0.1292 -0.5997 -0.2224
  376TMC3    O2 5634   0.493   3.570  16.507  0.1133 -0.4772 -0.6403
  377MPD2     C 5635   2.191   3.547  12.201  0.3752  0.5545  0.5181
  377MPD2    C1 5636   2.283   3.489  12.287 -0.1679 -0.4219 -0.3895
  377MPD2    C2 5637   2.241   3.422  12.404 -0.0007  1.0597  0.6593
  377MPD2    C3 5638   2.105   3.417  12.431 -0.2528 -0.1822  0.5935
  377MPD2    C4 5639   2.018   3.475  12.342 -0.5228 -0.0169  0.7231
  377MPD2    C5 5640   2.059   3.542  12.232 -1.1483 -0.7677 -0.5692
  377MPD2     H 5641   2.321   3.392  12.470 -0.2613 -0.7669  0.1365
  377MPD2    H1 5642   1.912   3.477  12.362 -0.5448  1.0615  0.5047
  377MPD2    H2 5643   2.220   3.595  12.108  1.7163  1.6853  1.5059
  377MPD2    H3 5644   1.987   3.577  12.159 -0.4553 -0.8803 -1.3159
  377MPD2     N 5645   2.059   3.366  12.552 -0.5767 -0.0680  0.4172
  377MPD2    H5 5646   1.959   3.374  12.567 -0.9016  3.5412 -3.5441
  377MPD2    N1 5647   2.424   3.507  12.261 -0.5495  0.1437 -0.2630
  377MPD2    H7 5648   2.445   3.566  12.182  1.4372  2.4458  1.9814
  378TMC3    C1 5649   2.770   3.573  12.075 -0.3707 -0.7006  0.2372
  378TMC3    C2 5650   2.651   3.536  12.130 -0.0308 -0.1507 -0.1580
  378TMC3    C3 5651   2.659   3.465  12.249 -0.0329 -0.2232  0.2208
  378TMC3    C4 5652   2.887   3.532  12.134 -0.9929 -0.2192 -0.2452
  378TMC3    C5 5653   2.891   3.457  12.250  0.2775 -0.0463 -0.1788
  378TMC3    C6 5654   2.772   3.431  12.312 -0.2299 -0.2710  0.1362
  378TMC3     C 5655   2.771   3.616  11.940  0.0426 -0.3421  0.0450
  378TMC3     O 5656   2.685   3.691  11.895 -0.0075 -0.2547  0.6185
  378TMC3     H 5657   2.560   3.553  12.074  0.6736  1.7139 -0.7434
  378TMC3    H1 5658   2.980   3.575  12.098 -0.8800  1.7190  2.3011
  378TMC3    H2 5659   2.774   3.370  12.402 -1.6429  0.3545  0.5872
  378TMC3    C7 5660   3.014   3.443  12.327 -1.0499  0.5682 -0.5822
  378TMC3    C8 5661   2.530   3.433  12.314  0.1232  0.4255  0.0835
  378TMC3    O1 5662   3.014   3.452  12.449  0.1437  0.1193  0.7724
  378TMC3    O2 5663   2.540   3.343  12.402  0.0817  0.5778  0.1320
  379MPD2     C 5664   3.652   1.406  15.924 -0.2127 -0.0079 -0.4302
  379MPD2    C1 5665   3.571   1.300  15.972 -0.7194  0.0260  0.1005
  379MPD2    C2 5666   3.618   1.218  16.079  0.2446 -0.2224  0.1560
  379MPD2    C3 5667   3.749   1.232  16.124 -0.4087  0.4121 -0.4637
  379MPD2    C4 5668   3.830   1.324  16.059  0.4381  0.5381 -0.5918
  379MPD2    C5 5669   3.781   1.411  15.964 -0.2361  0.4795  0.6921
  379MPD2     H 5670   3.550   1.146  16.122  0.4503 -1.4323 -1.5391
  379MPD2    H1 5671   3.934   1.331  16.088  0.7702 -2.4784 -1.0782
  379MPD2    H2 5672   3.626   1.451  15.829 -0.5214 -0.2211 -0.4471
  379MPD2    H3 5673   3.846   1.474  15.903  2.7275 -2.7285  0.5065
  379MPD2     N 5674   3.801   1.153  16.228 -0.1251 -0.2430  0.8860
  379MPD2    H5 5675   3.896   1.172  16.255  0.2875 -1.4280  0.2641
  379MPD2    N1 5676   3.435   1.290  15.925  0.3533  0.8380 -0.4626
  379MPD2    H7 5677   3.409   1.363  15.858  3.6221  2.3771 -0.0331
  380TMC3    C1 5678   3.241   1.180  15.830  0.7020 -0.0347 -0.1158
  380TMC3    C2 5679   3.253   1.079  15.741 -0.3718  0.4620  0.3752
  380TMC3    C3 5680   3.230   1.107  15.608 -0.3003  0.2670 -0.7768
  380TMC3    C4 5681   3.170   1.298  15.795 -0.5015 -0.1135 -0.5763
  380TMC3    C5 5682   3.131   1.312  15.670  0.0598 -0.1386  0.1138
  380TMC3    C6 5683   3.153   1.216  15.573 -0.3239  0.2349 -0.1631
  380TMC3     C 5684   3.358   1.177  15.923  0.0616 -0.2664  0.0287
  380TMC3     O 5685   3.389   1.067  15.974 -0.0202  0.3842 -0.4053
  380TMC3     H 5686   3.293   0.981  15.763  0.8977  0.7658 -0.5780
  380TMC3    H1 5687   3.155   1.386  15.857 -1.6018  0.3735 -1.5419
  380TMC3    H2 5688   3.138   1.239  15.469 -1.5095  0.1626 -0.0061
  380TMC3    C7 5689   3.059   1.432  15.628  0.3741  0.3479 -0.3430
  380TMC3    C8 5690   3.361   1.129  15.547  0.2931  0.1295  0.4662
  380TMC3    O1 5691   3.107   1.526  15.687 -0.4423 -0.1718 -0.5350
  380TMC3    O2 5692   3.363   1.184  15.438  0.1193 -0.0614 -0.2356
  381TMC3    C1 5693   3.282   2.507  16.270 -0.0826  0.0420  0.7471
  381TMC3    C2 5694   3.405   2.556  16.305  0.0761 -0.3742 -0.1983
  381TMC3    C3 5695   3.414   2.648  16.405  0.0441  0.6749 -0.3012
  381TMC3    C4 5696   3.163   2.539  16.335  0.1075  0.2331  0.2502
  381TMC3    C5 5697   3.177   2.635  16.433  0.5097  0.5183  0.7999
  381TMC3    C6 5698   3.294   2.696  16.465 -0.3587  0.1753  0.5021
  381TMC3     C 5699   3.276   2.417  16.159 -0.0034 -1.2976  1.0748
  381TMC3     O 5700   3.383   2.374  16.120 -0.0635  0.3491 -0.4718
  381TMC3     H 5701   3.489   2.524  16.244  0.9305  0.6041  0.4537
  381TMC3    H1 5702   3.076   2.477  16.318  1.5160 -1.5120 -0.5428
  381TMC3    H2 5703   3.301   2.776  16.539  3.1252 -0.8239  1.2276
  381TMC3    C7 5704   3.079   2.608  16.545  0.4425  1.0711 -0.1574
  381TMC3    C8 5705   3.529   2.731  16.392 -0.5402 -0.2761 -0.2083
  381TMC3    O1 5706   3.046   2.490  16.539 -0.0336  0.2005 -0.2097
  381TMC3    O2 5707   3.592   2.723  16.290  0.2197  0.0553 -0.0650
  382MPD2     C 5708   2.757   0.225  17.066 -0.1715  0.2509 -0.3252
  382MPD2    C1 5709   2.725   0.285  17.189  0.2919  0.0997  0.3704
  382MPD2    C2 5710   2.669   0.210  17.287 -0.6616  0.2652 -0.3627
  382MPD2    C3 5711   2.659   0.070  17.275 -0.5264  0.0364 -0.7145
  382MPD2    C4 5712   2.684   0.016  17.155  0.2341  0.4036  0.3897
  382MPD2    C5 5713   2.747   0.089  17.054  0.0547  0.0015  0.1540
  382MPD2     H 5714   2.644   0.259  17.380 -1.1586  0.2620 -0.4945
  382MPD2    H1 5715   2.668   4.633  17.138  0.6507  0.3962  0.0230
  382MPD2    H2 5716   2.796   0.274  16.978  3.1514 -0.7275  0.6073
  382MPD2    H3 5717   2.764   0.032  16.964  1.7049 -0.9077  1.0385
  382MPD2     N 5718   2.607   4.714  17.378 -0.3622 -0.0656  0.2784
  382MPD2    H5 5719   2.574   4.621  17.353 -1.6922  1.3268 -3.1049
  382MPD2    N1 5720   2.740   0.421  17.211  0.3958 -0.5925 -0.9564
  382MPD2    H7 5721   2.724   0.454  17.306  1.5678 -0.0475 -0.9482
  383TMC3    C1 5722   2.496   4.657  17.582 -0.3394  0.0037  0.2085
  383TMC3    C2 5723   2.405   4.589  17.513  0.8050 -0.0676 -0.3703
  383TMC3    C3 5724   2.293   4.556  17.582  0.2551 -0.2765  0.0533
  383TMC3    C4 5725   2.498   4.674   0.028 -0.0279  0.0324 -0.6474
  383TMC3    C5 5726   2.388   4.623   0.094 -0.1381 -0.7612 -0.8140
  383TMC3    C6 5727   2.288   4.565   0.025  0.4674 -0.7119  0.0479
  383TMC3     C 5728   2.592   0.026  17.516 -0.7689  0.3754  0.3909
  383TMC3     O 5729   2.641   0.111  17.592 -0.0737 -0.1864 -0.2152
  383TMC3     H 5730   2.414   4.575  17.406  0.1951 -1.5368 -0.2202
  383TMC3    H1 5731   2.581   4.719   0.083 -0.5389 -1.2287  1.1722
  383TMC3    H2 5732   2.209   4.510   0.075 -1.3853  2.1707  0.2308
  383TMC3    C7 5733   2.398   4.615   0.243 -0.2006  0.4862 -0.2535
  383TMC3    C8 5734   2.183   4.499  17.512 -0.0462  0.6977  0.1808
  383TMC3    O1 5735   2.312   4.535   0.292  0.0521 -0.3864 -0.5760
  383TMC3    O2 5736   2.200   4.448  17.401 -0.4158 -0.3029  0.0577
  384MPD2     C 5737   3.889   1.916  11.768  0.4010  0.0675  0.0001
  384MPD2    C1 5738   3.970   1.814  11.817  0.3836  0.0459 -0.2606
  384MPD2    C2 5739   4.063   1.755  11.730 -0.5673  0.0812 -0.4362
  384MPD2    C3 5740   4.081   1.798  11.600 -0.0053 -0.1592  0.2812
  384MPD2    C4 5741   4.006   1.907  11.558  0.9293  0.3175 -0.1051
  384MPD2    C5 5742   3.907   1.959  11.638  0.5447  0.6515  0.7246
  384MPD2     H 5743   4.125   1.674  11.767  0.8121  2.1794  1.8582
  384MPD2    H1 5744   4.011   1.938  11.454  0.0754  0.0981 -0.2145
  384MPD2    H2 5745   3.816   1.965  11.832  0.6167  0.1903  0.1521
  384MPD2    H3 5746   3.859   2.046  11.595 -2.0975 -1.1568 -0.0259
  384MPD2     N 5747   4.176   1.733  11.519 -0.1324  0.0124  0.0164
  384MPD2    H5 5748   4.230   1.661  11.566  1.0093  1.4899  1.0002
  384MPD2    N1 5749   3.959   1.764  11.953 -1.1899 -0.0325 -0.4451
  384MPD2    H7 5750   4.033   1.696  11.973 -0.6698  0.8521  0.5706
  385TMC3    C1 5751   4.335   1.695  11.379 -0.1654 -0.5132  1.1646
  385TMC3    C2 5752   4.317   1.613  11.274 -0.3411  0.1938 -0.5274
  385TMC3    C3 5753   4.365   1.483  11.286 -0.5768  1.0802 -0.1983
  385TMC3    C4 5754   4.400   1.658  11.493 -0.4847 -0.4122  0.0603
  385TMC3    C5 5755   4.430   1.521  11.503  0.8062  0.0330 -0.4441
  385TMC3    C6 5756   4.421   1.436  11.404 -0.0354  0.6309 -0.6638
  385TMC3     C 5757   4.228   1.782  11.407  0.0021  1.0735 -0.4256
  385TMC3     O 5758   4.179   1.843  11.309  0.1670  0.1079 -0.5797
  385TMC3     H 5759   4.268   1.645  11.182  0.1721  0.0006 -0.8696
  385TMC3    H1 5760   4.426   1.724  11.575 -1.9886  1.1362 -0.7293
  385TMC3    H2 5761   4.454   1.335  11.424 -1.1033  0.2943 -0.6053
  385TMC3    C7 5762   4.383   1.483  11.635 -0.1353 -0.2910 -0.4124
  385TMC3    C8 5763   4.366   1.405  11.163  0.2107 -0.1768 -0.1870
  385TMC3    O1 5764   4.305   1.562  11.692  0.1906  0.5572  0.4218
  385TMC3    O2 5765   4.334   1.471  11.061  0.0213  0.6218  0.6926
  386TMC3    C1 5766   4.220   3.518  11.838  0.0504  0.2739 -0.0769
  386TMC3    C2 5767   4.255   3.492  11.708  0.3139 -0.8865  0.5567
  386TMC3    C3 5768   4.158   3.513  11.615 -0.0065  0.0937  0.2377
  386TMC3    C4 5769   4.102   3.582  11.870 -0.7584  0.1783  0.4885
  386TMC3    C5 5770   4.017   3.629  11.770 -0.1568  0.4898  0.3353
  386TMC3    C6 5771   4.042   3.588  11.640 -0.0248  0.3089 -0.3769
  386TMC3     C 5772   4.312   3.484  11.941 -0.0279 -0.8650 -0.3738
  386TMC3     O 5773   4.275   3.528  12.048  0.5203  0.8240  0.1111
  386TMC3     H 5774   4.345   3.438  11.683  0.8244 -0.2080  0.9190
  386TMC3    H1 5775   4.084   3.601  11.975 -0.2971  1.0878  0.4070
  386TMC3    H2 5776   3.974   3.608  11.558  0.7007 -0.3344 -1.1393
  386TMC3    C7 5777   3.901   3.700  11.814 -0.0689  0.3181 -0.5972
  386TMC3    C8 5778   4.166   3.454  11.484 -0.3667 -0.5009 -0.7485
  386TMC3    O1 5779   3.893   3.719  11.931 -0.3782 -0.4994 -0.2069
  386TMC3    O2 5780   4.087   3.497  11.395 -0.6064  0.2479  0.5754
  387MPD2     C 5781   1.508   3.343   9.228 -0.5229  0.3927  0.2872
  387MPD2    C1 5782   1.618   3.341   9.309  0.7002 -0.6247 -0.0521
  387MPD2    C2 5783   1.706   3.235   9.315  0.6819  0.7575  0.1562
  387MPD2    C3 5784   1.682   3.123   9.235  0.2908 -0.6047  0.7620
  387MPD2    C4 5785   1.583   3.125   9.140 -0.4369  0.6404 -0.3738
  387MPD2    C5 5786   1.499   3.235   9.140 -0.8212  0.3591 -0.5698
  387MPD2     H 5787   1.781   3.227   9.393  0.6901  1.0975  0.1817
  387MPD2    H1 5788   1.567   3.043   9.072 -1.8723  0.4784  0.1725
  387MPD2    H2 5789   1.440   3.425   9.207  2.8303  2.6910 -1.5708
  387MPD2    H3 5790   1.416   3.238   9.069 -0.1060 -1.8683 -1.4858
  387MPD2     N 5791   1.764   3.015   9.269 -0.2837 -0.5329  0.4965
  387MPD2    H5 5792   1.833   3.032   9.342 -0.6309  2.8579  0.0477
  387MPD2    N1 5793   1.651   3.439   9.406 -0.4295  0.1290 -1.2533
  387MPD2    H7 5794   1.738   3.414   9.453 -0.7209 -0.6059 -1.0930
  388TMC3    C1 5795   1.661   3.624   9.550  0.3130  0.5749 -0.0067
  388TMC3    C2 5796   1.644   3.756   9.583 -0.0541  0.7172 -0.0037
  388TMC3    C3 5797   1.699   3.802   9.697  1.0375 -0.2859 -0.1393
  388TMC3    C4 5798   1.725   3.537   9.639 -0.0142  0.5025 -0.5967
  388TMC3    C5 5799   1.793   3.591   9.752 -0.2695  0.1195 -0.4090
  388TMC3    C6 5800   1.775   3.724   9.779  0.3057  0.3199  0.1552
  388TMC3     C 5801   1.593   3.561   9.435  0.6597 -0.0251  0.0253
  388TMC3     O 5802   1.498   3.610   9.385 -0.0246 -0.3117  0.5045
  388TMC3     H 5803   1.582   3.820   9.520  0.6468  3.2125  1.8366
  388TMC3    H1 5804   1.711   3.431   9.621  1.9688 -0.4912  3.6331
  388TMC3    H2 5805   1.833   3.774   9.856 -0.7570 -0.6737  1.6102
  388TMC3    C7 5806   1.897   3.513   9.821 -0.0951 -0.4771 -0.3184
  388TMC3    C8 5807   1.653   3.936   9.735  0.2128  0.4750  0.5518
  388TMC3    O1 5808   1.935   3.539   9.932  0.3110 -0.1405  0.2925
  388TMC3    O2 5809   1.592   4.003   9.654  0.8432 -0.4781 -0.3171
  389MPD2     C 5810   1.350   1.690  11.045  0.2690 -0.2090  0.2781
  389MPD2    C1 5811   1.289   1.647  10.929  0.0271 -0.3049  0.7197
  389MPD2    C2 5812   1.226   1.527  10.930 -0.0773  0.2197 -0.6474
  389MPD2    C3 5813   1.226   1.449  11.050  0.2253  0.5957 -0.5378
  389MPD2    C4 5814   1.285   1.494  11.164 -0.9684 -0.5236  0.0889
  389MPD2    C5 5815   1.334   1.623  11.164  0.5893 -0.9439 -0.6974
  389MPD2     H 5816   1.171   1.497  10.841  1.7341  0.1352 -1.7476
  389MPD2    H1 5817   1.285   1.425  11.248 -0.2657 -0.2296  0.3324
  389MPD2    H2 5818   1.391   1.790  11.051 -0.3730  0.1180 -0.6717
  389MPD2    H3 5819   1.378   1.665  11.253  1.5655 -0.4734 -1.4062
  389MPD2     N 5820   1.155   1.330  11.069 -0.4553 -0.3329 -0.4139
  389MPD2    H5 5821   1.139   1.304  11.166  1.0435  0.4954  0.0620
  389MPD2    N1 5822   1.283   1.743  10.823 -0.1110  0.2225 -0.1603
  389MPD2    H7 5823   1.332   1.829  10.842 -0.7386  0.7838 -1.0696
  390TMC3    C1 5824   1.042   1.120  11.000  0.2356  0.2561 -0.3648
  390TMC3    C2 5825   1.074   1.057  11.118 -0.2468 -0.1849 -0.2818
  390TMC3    C3 5826   1.007   0.946  11.151  0.7718 -0.0417 -0.2531
  390TMC3    C4 5827   0.959   1.070  10.903 -0.1288  0.8439 -0.0518
  390TMC3    C5 5828   0.892   0.959  10.945 -0.3815 -0.7515 -0.0871
  390TMC3    C6 5829   0.915   0.892  11.062 -0.4473  0.2417 -0.0516
  390TMC3     C 5830   1.099   1.248  10.970  0.6318  0.1656  0.1133
  390TMC3     O 5831   1.113   1.267  10.850 -0.6553  0.0727  0.8105
  390TMC3     H 5832   1.147   1.103  11.185  1.2896 -2.7243 -0.2049
  390TMC3    H1 5833   0.942   1.122  10.809 -0.2431  0.3848 -0.2815
  390TMC3    H2 5834   0.862   0.798  11.072  0.0418 -0.0964 -0.6390
  390TMC3    C7 5835   0.748   0.956  10.924  0.1414 -0.2236 -0.0647
  390TMC3    C8 5836   0.971   0.929  11.289  0.1802 -0.1824  0.3438
  390TMC3    O1 5837   0.697   0.920  10.819 -0.1431 -0.6753  0.5442
  390TMC3    O2 5838   1.034   0.998  11.368  0.1685 -0.1131 -0.0949
  391MPD2     C 5839   0.692   2.673  10.980 -0.2102 -0.0140 -0.1974
  391MPD2    C1 5840   0.773   2.789  10.970 -0.3695  0.2362  0.3671
  391MPD2    C2 5841   0.760   2.869  10.854 -0.2025 -0.7308  0.1113
  391MPD2    C3 5842   0.675   2.837  10.755  0.2655 -0.1047  0.6911
  391MPD2    C4 5843   0.584   2.735  10.772  0.0129  0.1496 -0.0386
  391MPD2    C5 5844   0.595   2.652  10.883  0.2257  0.2556 -0.2899
  391MPD2     H 5845   0.813   2.962  10.834 -1.8707  0.4680  1.1998
  391MPD2    H1 5846   0.515   2.705  10.695 -0.5952 -0.7682  0.8668
  391MPD2    H2 5847   0.695   2.603  11.063 -2.6284  0.3139  0.1643
  391MPD2    H3 5848   0.531   2.567  10.902 -0.3820  0.5716 -0.9298
  391MPD2     N 5849   0.690   2.914  10.637  0.1660  0.0711  0.1634
  391MPD2    H5 5850   0.770   2.976  10.632 -0.4302  0.7885 -0.4689
  391MPD2    N1 5851   0.863   2.809  11.072  0.1326  0.4948  0.5860
  391MPD2    H7 5852   0.870   2.748  11.153  1.3922  0.0502  0.1445
  392TMC3    C1 5853   0.628   3.008  10.432  0.1499 -0.3637  0.3326
  392TMC3    C2 5854   0.568   2.990  10.317 -0.7347 -0.2460 -0.1400
  392TMC3    C3 5855   0.598   3.084  10.217  0.4566 -0.1386 -0.1622
  392TMC3    C4 5856   0.718   3.108  10.455 -0.1576 -0.1333 -0.1932
  392TMC3    C5 5857   0.758   3.189  10.354 -0.2652 -0.0486 -0.2152
  392TMC3    C6 5858   0.689   3.180  10.242  0.3628  0.6032 -0.0530
  392TMC3     C 5859   0.597   2.920  10.534  0.0252  0.7978 -0.4728
  392TMC3     O 5860   0.483   2.870  10.534  0.1231 -0.5408  0.1992
  392TMC3     H 5861   0.482   2.923  10.312  0.8446 -2.3620  1.1792
  392TMC3    H1 5862   0.761   3.113  10.554 -1.0874  1.9159  0.1088
  392TMC3    H2 5863   0.702   3.257  10.166 -2.2152 -0.4143 -1.5212
  392TMC3    C7 5864   0.877   3.273  10.365  0.6678  0.4715  0.0126
  392TMC3    C8 5865   0.523   3.071  10.091 -0.5745 -0.0694 -0.4546
  392TMC3    O1 5866   0.937   3.249  10.470  0.0316  0.0139 -0.0917
  392TMC3    O2 5867   0.441   2.983  10.086 -1.0158  0.6440 -0.1722
  393TMC3    C1 5868   0.013   0.964  10.508  0.8754  0.2673  0.0966
  393TMC3    C2 5869   4.604   0.925  10.549 -0.0086  0.0859  0.5974
  393TMC3    C3 5870   4.556   0.821  10.478  0.0844  0.0807 -0.0138
  393TMC3    C4 5871   0.090   0.887  10.423  0.3736 -0.1695  0.2124
  393TMC3    C5 5872   0.036   0.773  10.368 -0.1498 -0.3637 -0.0110
  393TMC3    C6 5873   4.632   0.730  10.405 -0.3624  0.0573  0.5666
  393TMC3     C 5874   0.064   1.098  10.517 -0.2627  0.3259 -0.2786
  393TMC3     O 5875   0.115   1.150  10.419  0.3084 -0.6310  0.2111
  393TMC3     H 5876   4.535   0.989  10.603  1.5524  1.5976  0.8149
  393TMC3    H1 5877   0.190   0.918  10.395 -0.2870  0.6185 -1.3014
  393TMC3    H2 5878   4.581   0.646  10.358  0.1186  0.0015  0.1446
  393TMC3    C7 5879   0.097   0.701  10.255  0.0230 -0.0362 -1.1421
  393TMC3    C8 5880   4.413   0.795  10.496 -0.2993 -0.0220 -0.4591
  393TMC3    O1 5881   0.026   0.621  10.201  0.4814  0.3341 -0.4114
  393TMC3    O2 5882   4.366   0.783  10.605 -0.2257 -0.2298 -0.6619
  394TMC3    C1 5883   1.213   1.857  10.634  0.0398 -0.7867 -0.3951
  394TMC3    C2 5884   1.099   1.893  10.567 -0.2810  0.2544  0.5303
  394TMC3    C3 5885   1.121   1.961  10.453 -0.1675  0.5956 -0.6721
  394TMC3    C4 5886   1.338   1.887  10.589 -0.4455  0.3582  0.2825
  394TMC3    C5 5887   1.356   1.957  10.472 -0.5973 -0.2790  0.0668
  394TMC3    C6 5888   1.245   1.993  10.401 -0.4047  0.6152 -0.2788
  394TMC3     C 5889   1.203   1.737  10.717  0.8647  0.0591 -0.0663
  394TMC3     O 5890   1.118   1.657  10.694 -0.2732  0.6290  0.1082
  394TMC3     H 5891   1.003   1.859  10.603 -0.9292  1.6468  0.1080
  394TMC3    H1 5892   1.421   1.830  10.628 -1.8819 -0.5220  2.0140
  394TMC3    H2 5893   1.254   2.048  10.308  0.1120 -0.5731 -0.9329
  394TMC3    C7 5894   1.484   1.980  10.405  0.0186  0.0044 -0.3731
  394TMC3    C8 5895   1.019   1.931  10.349  0.1596  0.0906  0.2341
  394TMC3    O1 5896   1.478   2.029  10.291 -0.4435  0.3493 -0.0289
  394TMC3    O2 5897   0.903   1.930  10.385  0.0517 -0.2658  0.2798
  395TMC3    C1 5898   1.175   3.421  15.145 -0.2435  0.0570  0.0232
  395TMC3    C2 5899   1.070   3.423  15.057  0.3220  0.1772  0.0336
  395TMC3    C3 5900   1.108   3.432  14.926  0.3627  0.0786  0.5618
  395TMC3    C4 5901   1.314   3.425  15.122 -0.1087 -0.5261 -0.0979
  395TMC3    C5 5902   1.338   3.442  14.990 -0.4806  0.0578 -0.5502
  395TMC3    C6 5903   1.239   3.444  14.890 -0.1136  0.6372 -0.7278
  395TMC3     C 5904   1.135   3.448  15.278  0.0253  0.2919  0.7609
  395TMC3     O 5905   1.024   3.496  15.289  0.1700 -0.1976 -0.3907
  395TMC3     H 5906   0.967   3.436  15.089 -0.1555  0.3024 -1.5458
  395TMC3    H1 5907   1.386   3.432  15.203  1.7856  0.4962 -1.8815
  395TMC3    H2 5908   1.265   3.492  14.797 -0.5901 -0.9881 -1.7034
  395TMC3    C7 5909   1.471   3.503  14.960 -0.2275  0.7154  0.0928
  395TMC3    C8 5910   1.009   3.433  14.825 -0.9917  0.0913  0.1592
  395TMC3    O1 5911   1.515   3.581  15.047 -0.8514 -0.0139 -0.1854
  395TMC3    O2 5912   1.028   3.508  14.722  0.6060  0.5190  0.2936
  396MPD2     C 5913   0.709   4.643  16.872 -0.2827 -0.2295  0.2559
  396MPD2    C1 5914   0.847   4.658  16.886 -0.3526  0.7408 -0.0510
  396MPD2    C2 5915   0.894   0.060  16.850  0.3002  0.4555 -0.2988
  396MPD2    C3 5916   0.812   0.154  16.787  0.1953  0.2254 -0.7234
  396MPD2    C4 5917   0.683   0.127  16.760  0.7013 -0.6276 -0.0894
  396MPD2    C5 5918   0.628   0.010  16.811  0.2561  0.1103 -0.0461
  396MPD2     H 5919   0.995   0.092  16.875  0.3229  2.4103 -2.9430
  396MPD2    H1 5920   0.620   0.207  16.724  0.2786 -0.9214 -0.0092
  396MPD2    H2 5921   0.669   4.547  16.901 -1.6684 -0.2872 -1.8373
  396MPD2    H3 5922   0.526   4.707  16.786  0.2834 -2.0166  2.0084
  396MPD2     N 5923   0.863   0.287  16.768 -0.2632  0.3742  0.2076
  396MPD2    H5 5924   0.957   0.305  16.803 -0.1646  0.9982 -0.3722
  396MPD2    N1 5925   0.929   4.560  16.947 -0.0358  0.1618 -0.1584
  396MPD2    H7 5926   0.879   4.497  17.008 -1.7690  0.5464 -1.1619
  397TMC3    C1 5927   1.132   4.431  16.991 -0.5955 -0.4381 -0.0209
  397TMC3    C2 5928   1.175   4.363  16.880 -1.0128  0.4837 -0.0834
  397TMC3    C3 5929   1.111   4.249  16.844  0.2036 -0.4195  0.1232
  397TMC3    C4 5930   1.051   4.375  17.086 -0.0030  0.3100  0.2037
  397TMC3    C5 5931   0.998   4.248  17.047 -0.1700 -0.0569  0.0865
  397TMC3    C6 5932   1.032   4.184  16.929 -0.5852 -0.1437  0.3510
  397TMC3     C 5933   1.066   4.551  16.936  0.2654  0.2750 -0.6055
  397TMC3     O 5934   1.149   4.628  16.884  0.7458 -0.2234 -0.6875
  397TMC3     H 5935   1.215   4.430  16.805 -0.9395 -0.0373 -0.5073
  397TMC3    H1 5936   1.027   4.417  17.183 -0.6026  1.4497 -0.4415
  397TMC3    H2 5937   0.991   4.088  16.900  2.5448 -1.4127  0.1188
  397TMC3    C7 5938   0.921   4.168  17.142  0.6089 -0.0798  0.4426
  397TMC3    C8 5939   1.054   4.258  16.711  0.7058  0.3037  0.1617
  397TMC3    O1 5940   0.867   4.066  17.103  0.3480  0.0953 -0.0583
  397TMC3    O2 5941   0.933   4.237  16.704  0.3176 -0.3193 -0.6357
  398MPD2     C 5942   3.547   0.414   0.144 -0.5481 -0.7147  0.9979
  398MPD2    C1 5943   3.543   0.361   0.274  0.5838 -0.0156  0.0219
  398MPD2    C2 5944   3.645   0.398   0.360 -0.0045  0.0896 -0.7865
  398MPD2    C3 5945   3.747   0.469   0.306  0.5065  0.5159 -0.7326
  398MPD2    C4 5946   3.756   0.506   0.172 -1.1022  0.0901 -0.5202
  398MPD2    C5 5947   3.657   0.483   0.089 -0.0697  0.5515 -0.0326
  398MPD2     H 5948   3.646   0.370   0.465  1.7150 -1.2865 -1.1829
  398MPD2    H1 5949   3.837   0.563   0.129 -0.4697 -0.8661 -0.5888
  398MPD2    H2 5950   3.467   0.388   0.076 -3.4192  1.6692  3.4929
  398MPD2    H3 5951   3.668   0.518  17.681 -0.1934 -1.0604 -0.6012
  398MPD2     N 5952   3.842   0.519   0.396  0.0341 -0.4387  0.6364
  398MPD2    H5 5953   3.832   0.498   0.494  1.5644  1.6573  1.2333
  398MPD2    N1 5954   3.445   0.278   0.328  0.4117  0.4338 -0.0508
  398MPD2    H7 5955   3.444   0.268   0.429  1.4917  0.8476  0.0040
  399TMC3    C1 5956   3.257   0.145   0.343  0.1717  0.1854  0.1174
  399TMC3    C2 5957   3.287   0.132   0.475  0.7148 -0.1527  0.6882
  399TMC3    C3 5958   3.186   0.125   0.568 -0.9220 -0.1238 -0.3520
  399TMC3    C4 5959   3.126   0.149   0.299  0.0506  0.1008 -0.2013
  399TMC3    C5 5960   3.030   0.111   0.390  0.6473  0.6012  0.3499
  399TMC3    C6 5961   3.058   0.112   0.526 -0.5516 -0.4683  1.1128
  399TMC3     C 5962   3.347   0.213   0.260  0.6751 -0.0491  0.5035
  399TMC3     O 5963   3.318   0.217   0.137 -0.0445 -0.1215  0.5132
  399TMC3     H 5964   3.385   0.113   0.517  1.9017  0.1641 -2.0039
  399TMC3    H1 5965   3.106   0.154   0.192  1.0407  0.9931 -0.3429
  399TMC3    H2 5966   2.979   0.085   0.595 -1.0632  0.2933  0.8192
  399TMC3    C7 5967   2.901   0.050   0.361  0.1189 -0.3132 -0.9356
  399TMC3    C8 5968   3.221   0.130   0.705 -0.6610  0.4019  0.1361
  399TMC3    O1 5969   2.827   0.027   0.458  0.0408 -0.1415 -0.2189
  399TMC3    O2 5970   3.339   0.143   0.741  0.0561 -0.1692 -0.1846
  400TMC3    C1 5971   2.226   4.191  17.171 -0.0799 -0.2195  0.9105
  400TMC3    C2 5972   2.150   4.166  17.063  0.1020 -0.3345  0.0735
  400TMC3    C3 5973   2.165   4.245  16.955  0.0117  0.1887 -0.3240
  400TMC3    C4 5974   2.318   4.291  17.173 -0.3818  0.0370  0.1939
  400TMC3    C5 5975   2.340   4.359  17.054 -0.4083  0.1055  0.3116
  400TMC3    C6 5976   2.258   4.341  16.946 -0.4442  0.2326  0.2877
  400TMC3     C 5977   2.208   4.089  17.270 -0.1539  0.2890 -0.0488
  400TMC3     O 5978   2.159   3.983  17.239 -0.7826 -0.4074 -0.6895
  400TMC3     H 5979   2.081   4.084  17.053 -1.5738  1.0420  0.3288
  400TMC3    H1 5980   2.379   4.311  17.260 -0.4072 -2.8385  0.8943
  400TMC3    H2 5981   2.267   4.395  16.852 -0.4361  0.7539  0.5898
  400TMC3    C7 5982   2.417   4.484  17.062 -0.2955 -0.1662  0.3256
  400TMC3    C8 5983   2.060   4.245  16.855  0.5341  0.4205  0.2541
  400TMC3    O1 5984   2.432   4.523  17.177  0.0159 -0.6179 -0.0666
  400TMC3    O2 5985   2.045   4.354  16.798  0.0371  0.1326 -0.1275
  401MPD2     C 5986   4.518   2.472   0.374 -0.2163  0.0754  0.5303
  401MPD2    C1 5987   4.625   2.442   0.450  0.2761 -1.0678 -1.2647
  401MPD2    C2 5988   4.608   2.371   0.568 -0.0258 -0.5089  0.2153
  401MPD2    C3 5989   4.477   2.339   0.616 -0.5972 -0.7370  0.4830
  401MPD2    C4 5990   4.372   2.372   0.532  0.2250 -0.6269  0.3183
  401MPD2    C5 5991   4.390   2.430   0.410 -0.4549  0.5574  0.6066
  401MPD2     H 5992   4.681   2.337   0.641  1.8304 -0.7815 -1.7852
  401MPD2    H1 5993   4.278   2.327   0.563  0.3058 -0.2829  1.0449
  401MPD2    H2 5994   4.526   2.517   0.275  2.4696 -0.5819  0.4569
  401MPD2    H3 5995   4.306   2.444   0.344  0.5005  0.4084 -0.6545
  401MPD2     N 5996   4.467   2.268   0.741  0.4685  0.0178  0.4153
  401MPD2    H5 5997   4.551   2.236   0.788  2.1124  1.8446 -1.2841
  401MPD2    N1 5998   0.038   2.495   0.420  0.4137 -0.5044 -0.1702
  401MPD2    H7 5999   0.107   2.471   0.491  2.5895  0.6125 -1.9321
  402TMC3    C1 6000   4.378   2.158   0.924  0.1306 -0.0701  0.4213
  402TMC3    C2 6001   4.486   2.080   0.934 -0.5094 -0.4179 -0.2087
  402TMC3    C3 6002   4.502   2.010   1.053 -0.3772 -0.2532  0.0279
  402TMC3    C4 6003   4.286   2.167   1.028 -0.6452  0.2792 -0.5765
  402TMC3    C5 6004   4.309   2.104   1.150  0.1798  0.8110  0.8393
  402TMC3    C6 6005   4.416   2.024   1.163  0.3596 -0.2735  0.6124
  402TMC3     C 6006   4.352   2.233   0.804  0.5057 -0.1791 -0.1246
  402TMC3     O 6007   4.235   2.253   0.775 -0.3314  0.1728  0.1269
  402TMC3     H 6008   4.551   2.084   0.847  0.2867 -3.0296  0.2676
  402TMC3    H1 6009   4.212   2.246   1.025 -0.7538  0.1621 -0.9490
  402TMC3    H2 6010   4.435   1.978   1.259  0.9194 -0.2196  0.5274
  402TMC3    C7 6011   4.239   2.139   1.271 -0.0692  0.3299  0.2507
  402TMC3    C8 6012   4.621   1.926   1.076 -0.6185 -0.0850 -0.0314
  402TMC3    O1 6013   4.298   2.123   1.379  0.5202  0.3384  0.3179
  402TMC3    O2 6014   4.707   1.943   0.992 -0.4104  0.2680 -0.4849
  403MPD2     C 6015   3.341   1.199  13.876 -0.1353 -0.0629  0.5732
  403MPD2    C1 6016   3.429   1.202  13.770 -0.1227  0.2002 -0.3873
  403MPD2    C2 6017   3.525   1.301  13.764 -0.3995  0.8167  0.3585
  403MPD2    C3 6018   3.543   1.387  13.873  0.6312  0.5962  0.2119
  403MPD2    C4 6019   3.460   1.377  13.983  0.3783  0.5823 -0.0859
  403MPD2    C5 6020   3.350   1.290  13.979  0.4073  0.0790 -0.0234
  403MPD2     H 6021   3.574   1.329  13.672 -1.5326  0.7720 -0.2655
  403MPD2    H1 6022   3.471   1.444  14.068 -1.7883 -0.8699  1.3461
  403MPD2    H2 6023   3.259   1.128  13.871  0.8617 -1.0079 -2.6733
  403MPD2    H3 6024   3.280   1.290  14.063  0.6697  2.9423  0.1815
  403MPD2     N 6025   3.660   1.471  13.868  0.5779  0.8022 -0.1047
  403MPD2    H5 6026   3.725   1.453  13.792  0.7099 -1.8499  0.6297
  403MPD2    N1 6027   3.403   1.114  13.660 -0.2486  0.0149 -0.3209
  403MPD2    H7 6028   3.337   1.038  13.674  0.6811 -0.4438  1.5971
  404TMC3    C1 6029   3.436   1.006  13.470  0.0197 -0.0068 -0.2644
  404TMC3    C2 6030   3.450   0.888  13.534  0.2314  0.1607 -0.4416
  404TMC3    C3 6031   3.488   0.786  13.448  0.2218 -1.4653 -0.1331
  404TMC3    C4 6032   3.468   1.019  13.339 -0.2726  0.0634  0.7578
  404TMC3    C5 6033   3.480   0.908  13.264 -0.1498  0.2462  0.5189
  404TMC3    C6 6034   3.508   0.792  13.319 -0.3592 -0.3701 -0.3774
  404TMC3     C 6035   3.469   1.120  13.543  0.1276 -0.1040  0.1723
  404TMC3     O 6036   3.550   1.202  13.494 -0.2618  0.1773 -0.5999
  404TMC3     H 6037   3.463   0.874  13.640  2.6860  1.4244 -0.5831
  404TMC3    H1 6038   3.458   1.114  13.289 -2.0789 -0.8200 -0.5541
  404TMC3    H2 6039   3.554   0.707  13.270  1.2496  0.5299 -0.4548
  404TMC3    C7 6040   3.533   0.936  13.137 -0.4634 -0.8248  0.2453
  404TMC3    C8 6041   3.543   0.662  13.513 -0.8693 -0.6072  0.1980
  404TMC3    O1 6042   3.571   1.048  13.105 -0.3908 -0.0985 -0.4562
  404TMC3    O2 6043   3.607   0.582  13.443 -0.1265  0.2392 -0.2259
  405MPD2     C 6044   3.948   1.134  15.157  0.8313 -0.1770 -0.2402
  405MPD2    C1 6045   3.918   1.103  15.025  0.1233  0.5303 -1.0424
  405MPD2    C2 6046   3.962   1.188  14.927 -0.1015 -0.0207  0.4972
  405MPD2    C3 6047   4.014   1.309  14.962  0.2636  0.0107  0.9137
  405MPD2    C4 6048   4.040   1.343  15.098 -0.3460 -0.3598 -0.8662
  405MPD2    C5 6049   4.014   1.250  15.192  0.3688 -0.5107 -0.3985
  405MPD2     H 6050   3.946   1.189  14.820  0.8830 -2.0714  0.3273
  405MPD2    H1 6051   4.090   1.435  15.126 -1.8166 -0.1214  1.0515
  405MPD2    H2 6052   3.918   1.060  15.230  0.7450 -0.0982 -0.1953
  405MPD2    H3 6053   4.023   1.285  15.295 -4.9188  0.7001 -0.3844
  405MPD2     N 6054   4.026   1.406  14.858  0.0956 -0.8001 -0.2978
  405MPD2    H5 6055   4.005   1.363  14.769  1.3502 -0.9511 -0.5273
  405MPD2    N1 6056   3.855   0.982  14.995 -0.4183 -0.2395  0.1141
  405MPD2    H7 6057   3.816   0.919  15.064  0.1614 -1.4127 -0.6347
  406TMC3    C1 6058   3.879   1.782  14.671  0.3935  0.6814  0.0216
  406TMC3    C2 6059   3.859   1.715  14.558  0.0186  0.4142  0.2646
  406TMC3    C3 6060   3.923   1.596  14.543 -0.3216  0.1266 -0.6331
  406TMC3    C4 6061   3.967   1.744  14.769  0.0211 -0.0663 -0.0208
  406TMC3    C5 6062   4.011   1.617  14.758 -0.3054 -0.1349  0.0788
  406TMC3    C6 6063   3.999   1.545  14.641 -0.2284  0.1418 -0.8854
  406TMC3     C 6064   3.776   1.875  14.704  0.2435  0.4808 -0.3080
  406TMC3     O 6065   3.796   1.950  14.801  0.8515 -0.3492 -0.5267
  406TMC3     H 6066   3.814   1.762  14.471 -0.5340 -0.9525 -0.1759
  406TMC3    H1 6067   3.971   1.804  14.859  1.4119  1.0778 -0.8379
  406TMC3    H2 6068   4.051   1.451  14.630 -2.5117 -1.1340 -0.7508
  406TMC3    C7 6069   4.040   1.545  14.878  0.1341 -0.2539  0.9442
  406TMC3    C8 6070   3.875   1.525  14.426 -0.0176 -0.0670 -0.4196
  406TMC3    O1 6071   4.048   1.617  14.978 -0.3608  0.3028 -0.0427
  406TMC3    O2 6072   3.828   1.590  14.333 -0.4390  0.1895  0.3618
  407MPD2     C 6073   1.595   2.451   9.430 -0.3999 -0.1097  0.0718
  407MPD2    C1 6074   1.561   2.579   9.385 -0.2850 -0.1449  0.3646
  407MPD2    C2 6075   1.550   2.674   9.482 -0.3259  0.4374  0.1380
  407MPD2    C3 6076   1.592   2.658   9.613  0.3978 -0.1579 -0.5890
  407MPD2    C4 6077   1.644   2.535   9.649  0.0991  0.1688 -0.0229
  407MPD2    C5 6078   1.638   2.427   9.559  0.3354  0.0153 -0.0327
  407MPD2     H 6079   1.520   2.774   9.453 -2.6462  0.2789  2.0504
  407MPD2    H1 6080   1.679   2.513   9.749 -2.1628 -2.2714  0.2453
  407MPD2    H2 6081   1.606   2.365   9.364  0.9546  0.2186 -0.1229
  407MPD2    H3 6082   1.660   2.330   9.602  1.6313  0.6552  0.7337
  407MPD2     N 6083   1.589   2.767   9.703  0.1332  0.0917  0.7071
  407MPD2    H5 6084   1.626   2.745   9.795 -0.0166  1.6218  1.1310
  407MPD2    N1 6085   1.537   2.613   9.246 -0.2102  0.2155  0.1463
  407MPD2    H7 6086   1.509   2.709   9.229 -0.7769 -0.2606 -1.6450
  408TMC3    C1 6087   1.515   2.618   9.014  0.5541 -0.2428 -0.1762
  408TMC3    C2 6088   1.619   2.623   8.928 -0.1999  0.0157 -0.1545
  408TMC3    C3 6089   1.637   2.732   8.852  0.3022 -0.3242 -0.5739
  408TMC3    C4 6090   1.405   2.700   9.006  0.0223 -0.1695  0.1849
  408TMC3    C5 6091   1.433   2.816   8.929 -0.2063  0.5610  0.6415
  408TMC3    C6 6092   1.546   2.831   8.861  0.4825 -0.8652  0.3940
  408TMC3     C 6093   1.536   2.539   9.136 -0.2838 -0.0547 -0.4791
  408TMC3     O 6094   1.586   2.428   9.118 -0.1839  0.0845 -0.2723
  408TMC3     H 6095   1.688   2.540   8.922 -1.9030 -1.2624 -2.1426
  408TMC3    H1 6096   1.316   2.679   9.063  0.4610  1.2313  1.4023
  408TMC3    H2 6097   1.553   2.910   8.787  1.9584 -2.5055 -1.2201
  408TMC3    C7 6098   1.335   2.928   8.932  0.5065 -0.2880  0.2227
  408TMC3    C8 6099   1.774   2.778   8.832  0.3013 -0.8169 -0.2380
  408TMC3    O1 6100   1.375   3.032   8.881 -0.2044 -0.1338  0.1669
  408TMC3    O2 6101   1.852   2.681   8.837  0.3824 -0.1350  0.6112
  409MPD2     C 6102   1.169   3.708  17.167 -1.1044  0.0640 -0.1172
  409MPD2    C1 6103   1.273   3.773  17.233 -0.3740 -0.2146 -0.5770
  409MPD2    C2 6104   1.349   3.863  17.166 -0.3981 -0.1446  0.0871
  409MPD2    C3 6105   1.331   3.885  17.034 -0.0260 -0.4791  0.3087
  409MPD2    C4 6106   1.230   3.823  16.971 -0.0685 -0.0502  0.5421
  409MPD2    C5 6107   1.139   3.738  17.034  0.2193  0.3665 -0.4795
  409MPD2     H 6108   1.440   3.899  17.213 -0.5221 -0.0160  0.2288
  409MPD2    H1 6109   1.213   3.847  16.866 -0.8454  0.6457  0.8295
  409MPD2    H2 6110   1.092   3.651  17.220  0.6174 -1.8889  0.2867
  409MPD2    H3 6111   1.055   3.689  16.987 -0.8188  0.0790  1.6695
  409MPD2     N 6112   1.415   3.969  16.958 -0.0137  0.8655  0.7734
  409MPD2    H5 6113   1.386   4.010  16.870  0.4459 -0.1847  0.1287
  409MPD2    N1 6114   1.304   3.761  17.373  0.0585 -0.1000 -0.0371
  409MPD2    H7 6115   1.361   3.836  17.411  1.0119 -1.2790  0.8364
  410TMC3    C1 6116   1.614   4.109  16.967  0.6705 -0.2480 -0.7707
  410TMC3    C2 6117   1.728   4.146  17.029  0.5178  0.5624  0.3041
  410TMC3    C3 6118   1.758   4.278  17.027  0.3388  0.5379  0.4485
  410TMC3    C4 6119   1.543   4.196  16.885 -0.1107 -0.3798  0.2991
  410TMC3    C5 6120   1.585   4.332  16.875 -0.3717  0.6159 -0.3338
  410TMC3    C6 6121   1.689   4.377  16.956  0.0369 -0.1604  1.0662
  410TMC3     C 6122   1.548   3.989  17.008 -0.4766  0.1082  0.3224
  410TMC3     O 6123   1.620   3.914  17.073  0.0985 -0.1576 -0.0809
  410TMC3     H 6124   1.779   4.077  17.096  1.3177  1.4624  0.6264
  410TMC3    H1 6125   1.482   4.156  16.805 -0.5444 -1.0746  0.9725
  410TMC3    H2 6126   1.718   4.481  16.968 -0.9706  0.4765 -2.0491
  410TMC3    C7 6127   1.520   4.408  16.769 -1.1673  0.1280 -0.3323
  410TMC3    C8 6128   1.834   4.329  17.143 -0.1121  0.2002  0.3347
  410TMC3    O1 6129   1.445   4.344  16.688 -0.3699 -0.1591 -0.3450
  410TMC3    O2 6130   1.931   4.404  17.126 -0.0171  0.3871  0.2111
  411MPD2     C 6131   1.606   4.112  14.490  0.2462 -0.0970 -0.1995
  411MPD2    C1 6132   1.544   4.205  14.411  0.2228  0.7653  0.3026
  411MPD2    C2 6133   1.434   4.164  14.343  0.8391  0.5324 -0.6810
  411MPD2    C3 6134   1.375   4.039  14.361  0.4284 -0.6383 -0.3676
  411MPD2    C4 6135   1.441   3.949  14.435 -0.3339  0.7613  1.0551
  411MPD2    C5 6136   1.552   3.985  14.505  0.1443  0.7178 -0.2860
  411MPD2     H 6137   1.374   4.236  14.289  2.0773  1.8418 -0.3272
  411MPD2    H1 6138   1.406   3.849  14.462  0.7268 -0.2019 -1.1167
  411MPD2    H2 6139   1.690   4.136  14.555  0.1637 -0.8140  0.1724
  411MPD2    H3 6140   1.603   3.921  14.576 -0.0596  0.4185 -0.4097
  411MPD2     N 6141   1.247   3.989  14.300 -0.0084 -0.2387  0.3053
  411MPD2    H5 6142   1.229   3.891  14.323 -2.7087  0.1580 -0.1470
  411MPD2    N1 6143   1.601   4.336  14.410  0.5456  0.4343  0.0582
  411MPD2    H7 6144   1.685   4.355  14.463 -0.5843 -1.0786  2.3800
  412TMC3    C1 6145   1.046   4.015  14.172 -0.1784  0.1825  0.0639
  412TMC3    C2 6146   1.003   4.083  14.063 -0.2232  0.1572 -0.5673
  412TMC3    C3 6147   0.945   4.013  13.960 -0.3001 -0.0387 -0.7575
  412TMC3    C4 6148   1.024   3.879  14.187  0.1345 -0.9357  0.3731
  412TMC3    C5 6149   0.954   3.814  14.092  0.0938  0.3145 -0.2445
  412TMC3    C6 6150   0.919   3.881  13.977  0.1416 -0.0761  0.1368
  412TMC3     C 6151   1.157   4.078  14.242 -0.3316 -0.1160  0.5243
  412TMC3     O 6152   1.155   4.199  14.247  0.3730 -0.3892  0.0092
  412TMC3     H 6153   1.045   4.180  14.040 -0.8136  0.9138  1.5278
  412TMC3    H1 6154   1.069   3.820  14.266  0.6528 -1.3160 -0.2004
  412TMC3    H2 6155   0.848   3.843  13.905  0.4534 -0.0042 -0.2047
  412TMC3    C7 6156   1.006   3.679  14.068 -0.1580 -0.4230 -0.7288
  412TMC3    C8 6157   0.991   4.032  13.832  0.3601  0.7696  0.5540
  412TMC3    O1 6158   0.981   3.589  14.146 -0.2837 -0.1921  0.2874
  412TMC3    O2 6159   1.069   3.940  13.805 -0.2949  0.4137  0.0197
  413MPD2     C 6160   2.817   2.915  15.570  0.5014  0.0901 -0.3873
  413MPD2    C1 6161   2.783   2.848  15.460  0.4675 -0.7664 -0.0916
  413MPD2    C2 6162   2.889   2.799  15.375  0.0498 -0.1139  0.3044
  413MPD2    C3 6163   3.024   2.819  15.408 -0.0510 -0.2114 -0.2250
  413MPD2    C4 6164   3.050   2.896  15.522 -0.6330 -1.0572  0.0956
  413MPD2    C5 6165   2.948   2.944  15.600 -0.1017  0.2309 -0.6101
  413MPD2     H 6166   2.866   2.738  15.289  1.8277  0.0121 -0.2465
  413MPD2    H1 6167   3.150   2.925  15.554 -0.5723 -2.3281  1.0584
  413MPD2    H2 6168   2.743   2.942  15.645 -0.9191  1.0780 -2.1395
  413MPD2    H3 6169   2.967   3.018  15.676 -1.2865  0.8725 -0.9473
  413MPD2     N 6170   3.113   2.748  15.338  0.4408  0.1236  0.4851
  413MPD2    H5 6171   3.082   2.701  15.253  0.2358  0.6278  0.2824
  413MPD2    N1 6172   2.647   2.835  15.424  0.1701  0.8663 -0.1082
  413MPD2    H7 6173   2.579   2.863  15.494  2.2344  3.7733  0.7502
  414TMC3    C1 6174   3.310   2.665  15.248  0.0768 -0.0511 -0.1490
  414TMC3    C2 6175   3.401   2.568  15.284  0.0013 -0.4175 -0.3528
  414TMC3    C3 6176   3.412   2.459  15.202  0.0592 -0.8394 -0.2279
  414TMC3    C4 6177   3.244   2.657  15.127 -0.6104  0.0924  0.5999
  414TMC3    C5 6178   3.263   2.545  15.057 -0.9977  0.1133 -0.6647
  414TMC3    C6 6179   3.330   2.437  15.099 -0.2240 -0.4401 -0.1261
  414TMC3     C 6180   3.252   2.736  15.360  0.1275  0.6612  0.8099
  414TMC3     O 6181   3.314   2.754  15.462 -0.3039  0.2891 -0.3421
  414TMC3     H 6182   3.465   2.580  15.371 -0.9790 -0.1788  0.3414
  414TMC3    H1 6183   3.192   2.745  15.089 -0.2132  1.2994  2.8418
  414TMC3    H2 6184   3.331   2.350  15.034  1.5342 -1.7561  1.6639
  414TMC3    C7 6185   3.188   2.536  14.937  0.2937  0.4282 -0.0736
  414TMC3    C8 6186   3.503   2.346  15.235 -0.0136  0.1151  0.7858
  414TMC3    O1 6187   3.074   2.584  14.950  0.2543 -0.3525 -0.3946
  414TMC3    O2 6188   3.504   2.244  15.163 -0.6740  0.1853 -0.1452
  415TMC3    C1 6189   3.526   0.240  10.294  0.7370 -0.4064  0.2785
  415TMC3    C2 6190   3.566   0.326  10.201 -0.1574  0.4832  0.3867
  415TMC3    C3 6191   3.515   0.446  10.194 -0.3713  0.2473 -0.7627
  415TMC3    C4 6192   3.421   0.263  10.379  0.5134  0.5533  0.1488
  415TMC3    C5 6193   3.377   0.391  10.384 -0.5055 -0.2543 -0.1222
  415TMC3    C6 6194   3.422   0.488  10.291  0.2172  0.2883 -1.5404
  415TMC3     C 6195   3.609   0.118  10.306 -0.6394  0.1380 -0.5900
  415TMC3     O 6196   3.558   0.012  10.340  0.3289 -0.6511 -0.1785
  415TMC3     H 6197   3.640   0.294  10.128 -0.8985 -0.6577  0.1280
  415TMC3    H1 6198   3.397   0.198  10.462 -0.9616  0.5236 -0.3026
  415TMC3    H2 6199   3.389   0.590  10.307  1.9339  0.7069 -0.7330
  415TMC3    C7 6200   3.335   0.447  10.513  0.6402  0.0760 -0.2645
  415TMC3    C8 6201   3.593   0.549  10.121 -0.8807 -0.7569  0.0780
  415TMC3    O1 6202   3.365   0.562  10.540 -0.3447  0.1845  0.3896
  415TMC3    O2 6203   3.585   0.663  10.164  0.4305  0.7881  0.0473
  416MPD2     C 6204   0.851   4.285  11.508 -0.1363  0.1907 -0.1793
  416MPD2    C1 6205   0.739   4.278  11.427  0.2628  0.8765  0.1975
  416MPD2    C2 6206   0.743   4.186  11.329 -0.2249  0.0046  0.2782
  416MPD2    C3 6207   0.853   4.113  11.305  0.5471 -0.3161  0.0528
  416MPD2    C4 6208   0.959   4.117  11.388 -0.1106 -0.7666 -0.2679
  416MPD2    C5 6209   0.958   4.201  11.500  0.0888  0.3926 -0.5974
  416MPD2     H 6210   0.668   4.183  11.251 -1.8225 -0.0163  1.8312
  416MPD2    H1 6211   1.043   4.050  11.375 -1.8229 -2.6869 -1.2513
  416MPD2    H2 6212   0.857   4.362  11.584 -0.1688  0.6540 -0.6454
  416MPD2    H3 6213   1.036   4.201  11.575  2.4174 -2.0871 -3.0060
  416MPD2     N 6214   0.870   4.016  11.202  0.0266  0.5271  0.2506
  416MPD2    H5 6215   0.950   3.954  11.213  0.0958  0.8283  1.4155
  416MPD2    N1 6216   0.635   4.366  11.458  0.0157 -0.0317  0.0131
  416MPD2    H7 6217   0.653   4.432  11.533 -1.4897 -0.7421  1.0074
  417TMC3    C1 6218   0.423   4.445  11.471 -0.0929 -0.7866  0.0751
  417TMC3    C2 6219   0.436   4.441  11.608 -0.0825  0.0284 -0.4447
  417TMC3    C3 6220   0.332   4.495  11.677  0.1077 -0.1219 -0.3801
  417TMC3    C4 6221   0.320   4.507  11.405 -0.9004  0.1907  0.5688
  417TMC3    C5 6222   0.215   4.555  11.485  0.4760 -0.2564 -0.5807
  417TMC3    C6 6223   0.223   4.545  11.623 -0.0737 -0.5883  0.5707
  417TMC3     C 6224   0.513   4.366  11.392  0.0238  0.8185 -1.1536
  417TMC3     O 6225   0.480   4.324  11.283  0.4130  0.2562 -0.1314
  417TMC3     H 6226   0.516   4.387  11.657 -0.8547  0.7910  1.6516
  417TMC3    H1 6227   0.312   4.510  11.297  0.4944 -0.2889  0.4493
  417TMC3    H2 6228   0.148   4.588  11.688  0.8261 -0.1225  1.3021
  417TMC3    C7 6229   0.119   4.646  11.429 -0.2386 -0.8054 -0.1248
  417TMC3    C8 6230   0.353   4.532  11.818 -0.0723  0.3340  0.6324
  417TMC3    O1 6231   0.138   4.671  11.311 -0.3285  0.8205 -0.0699
  417TMC3    O2 6232   0.259   4.560  11.886  0.1006  0.0204 -0.2561
  418TMC3    C1 6233   4.183   0.568   0.648 -0.2206  0.4889 -0.8559
  418TMC3    C2 6234   4.147   0.579   0.516 -0.6435  0.1744 -0.2850
  418TMC3    C3 6235   4.020   0.623   0.489 -0.6035 -0.6894  0.5691
  418TMC3    C4 6236   4.109   0.619   0.747 -0.1145 -0.2402  0.2188
  418TMC3    C5 6237   3.979   0.661   0.716 -0.2913 -0.0114  0.0750
  418TMC3    C6 6238   3.933   0.664   0.589  0.0493  0.2548  0.0030
  418TMC3     C 6239   4.260   0.446   0.671  0.3199 -0.7555 -0.1535
  418TMC3     O 6240   4.325   0.399   0.579 -0.2136  0.2540 -0.1128
  418TMC3     H 6241   4.208   0.545   0.433  0.8546 -0.4513  1.0824
  418TMC3    H1 6242   4.133   0.604   0.852  0.0894 -0.1792  0.1814
  418TMC3    H2 6243   3.832   0.698   0.567  0.4050 -0.2283 -2.4075
  418TMC3    C7 6244   3.891   0.724   0.819 -0.2281  0.2161  0.1277
  418TMC3    C8 6245   3.964   0.585   0.363 -0.0219 -0.9780 -0.5260
  418TMC3    O1 6246   3.772   0.729   0.794  0.2151 -0.7803  0.3411
  418TMC3    O2 6247   4.028   0.557   0.264  0.1692 -0.0727 -0.7541
  419MPD2     C 6248   2.809   3.844  12.354 -0.5654 -0.3380  0.3265
  419MPD2    C1 6249   2.717   3.929  12.302  0.2392  0.2527 -0.1882
  419MPD2    C2 6250   2.604   3.959  12.375 -0.4522 -0.0513  0.1531
  419MPD2    C3 6251   2.599   3.925  12.513  0.2041  0.3945 -0.9345
  419MPD2    C4 6252   2.705   3.858  12.567  0.6871 -0.3717 -0.4398
  419MPD2    C5 6253   2.801   3.804  12.485  0.0424  0.1839 -0.0814
  419MPD2     H 6254   2.526   4.027  12.343  1.2989  1.2634 -1.3229
  419MPD2    H1 6255   2.718   3.836  12.673 -0.7098  1.5221  0.1283
  419MPD2    H2 6256   2.903   3.816  12.309 -0.5534  1.0298 -0.4956
  419MPD2    H3 6257   2.876   3.739  12.527 -0.7120 -2.3823 -2.7289
  419MPD2     N 6258   2.497   3.985  12.590  0.3173  0.1620 -0.2060
  419MPD2    H5 6259   2.417   4.021  12.540 -0.2324 -0.2183  0.3974
  419MPD2    N1 6260   2.724   3.986  12.166  0.0551  0.0914 -0.0790
  419MPD2    H7 6261   2.647   4.052  12.159  1.8690  2.3377  1.0698
  420TMC3    C1 6262   2.389   4.053  12.782  0.3182 -0.4877  0.0842
  420TMC3    C2 6263   2.303   4.143  12.717  0.4354  0.2872  0.2184
  420TMC3    C3 6264   2.186   4.181  12.781  0.2612 -1.0374 -0.9444
  420TMC3    C4 6265   2.372   4.012  12.910 -0.2742 -0.5502  0.0277
  420TMC3    C5 6266   2.252   4.053  12.965 -0.6171  0.7141 -0.0505
  420TMC3    C6 6267   2.160   4.136  12.905  0.9697  0.0934 -0.2386
  420TMC3     C 6268   2.506   4.008  12.728 -0.2312 -0.6730  0.1898
  420TMC3     O 6269   2.597   3.985  12.809 -0.3113  0.4050 -0.0646
  420TMC3     H 6270   2.329   4.190  12.622 -0.7575 -0.1752 -0.3401
  420TMC3    H1 6271   2.434   3.944  12.966 -0.8639 -1.0069  0.1242
  420TMC3    H2 6272   2.079   4.179  12.963 -2.1279 -4.0582 -1.4972
  420TMC3    C7 6273   2.271   4.063  13.113 -0.6556  0.6822 -0.5320
  420TMC3    C8 6274   2.098   4.266  12.711  0.4765  0.3006  0.2345
  420TMC3    O1 6275   2.346   3.980  13.168  0.6317  0.4627 -0.0980
  420TMC3    O2 6276   2.140   4.344  12.627  0.0171 -0.5146 -0.1109
  421TMC3    C1 6277   3.846   1.565  13.989  0.1788 -0.0655  0.0430
  421TMC3    C2 6278   3.885   1.677  14.060 -0.1049 -0.3789 -0.6147
  421TMC3    C3 6279   4.017   1.684  14.096 -0.4877 -0.5121  0.0079
  421TMC3    C4 6280   3.930   1.467  13.953 -0.1025  1.0795 -0.4665
  421TMC3    C5 6281   4.054   1.480  13.994  0.5568 -0.0036 -0.3206
  421TMC3    C6 6282   4.109   1.587  14.071  0.0091 -0.2103 -0.1511
  421TMC3     C 6283   3.700   1.546  13.982  0.3487 -0.2857 -0.0208
  421TMC3     O 6284   3.628   1.617  14.054  0.1007  0.1696 -0.1805
  421TMC3     H 6285   3.809   1.750  14.084 -0.3394 -0.1701 -2.0040
  421TMC3    H1 6286   3.892   1.376  13.908 -1.1282  0.3204  1.9268
  421TMC3    H2 6287   4.201   1.588  14.127 -0.2058  0.3320  0.1975
  421TMC3    C7 6288   4.152   1.373  13.973  0.4544 -0.3784  0.2011
  421TMC3    C8 6289   4.052   1.778  14.200 -0.0114  0.0090  0.3298
  421TMC3    O1 6290   4.224   1.361  14.072 -0.0968  0.4227  0.9351
  421TMC3    O2 6291   4.142   1.759  14.282 -0.2063 -0.0405 -0.0969
  422TMC3    C1 6292   1.702   2.268  12.608 -0.1723  0.8701  0.1020
  422TMC3    C2 6293   1.650   2.388  12.654 -0.1046 -0.3758  0.4498
  422TMC3    C3 6294   1.519   2.397  12.701  0.2151  0.2397 -0.2138
  422TMC3    C4 6295   1.618   2.156  12.608 -0.2528 -0.5756  0.3390
  422TMC3    C5 6296   1.494   2.168  12.658  0.7275 -0.9578  0.2520
  422TMC3    C6 6297   1.438   2.282  12.710  0.0230 -0.2303  0.5538
  422TMC3     C 6298   1.803   2.281  12.514  0.3468  0.0827  0.0715
  422TMC3     O 6299   1.806   2.392  12.456  0.4139  0.2637  0.1735
  422TMC3     H 6300   1.701   2.484  12.650  0.1759 -0.6141 -1.2932
  422TMC3    H1 6301   1.645   2.066  12.555  1.6827 -0.4624  1.1396
  422TMC3    H2 6302   1.335   2.294  12.742  0.2550  3.2556 -0.0028
  422TMC3    C7 6303   1.420   2.043  12.653  0.4113 -0.0750  0.6000
  422TMC3    C8 6304   1.465   2.523  12.748 -0.1399 -0.4051  0.2381
  422TMC3    O1 6305   1.470   1.940  12.610 -0.2138  0.1887 -0.2673
  422TMC3    O2 6306   1.549   2.608  12.775 -0.6184  0.2414  0.4582
  423MPD2     C 6307   2.905   3.082   0.875  0.4775  0.2644 -0.7470
  423MPD2    C1 6308   2.907   2.942   0.871 -0.1814 -1.5354 -0.6507
  423MPD2    C2 6309   2.948   2.876   0.760 -0.6282  0.2434  0.1492
  423MPD2    C3 6310   2.981   2.952   0.650  0.1499 -0.2838 -1.1186
  423MPD2    C4 6311   2.998   3.090   0.652  0.6863 -0.6062  0.4110
  423MPD2    C5 6312   2.946   3.157   0.761 -0.5621 -0.0431  0.5139
  423MPD2     H 6313   2.931   2.770   0.752 -0.3347  0.2216 -0.1715
  423MPD2    H1 6314   3.033   3.153   0.571  3.8361 -3.2201 -0.2540
  423MPD2    H2 6315   2.859   3.143   0.952 -2.5526 -2.3662 -0.4803
  423MPD2    H3 6316   2.953   3.265   0.758  2.0713 -0.2241  0.5234
  423MPD2     N 6317   3.019   2.891   0.526  0.6030  0.2932  0.8131
  423MPD2    H5 6318   3.042   2.953   0.450 -1.0692 -2.4901 -1.9868
  423MPD2    N1 6319   2.868   2.867   0.985 -0.7100  0.1738  0.0864
  423MPD2    H7 6320   2.889   2.768   0.979  1.5450  0.4954  2.5664
  424TMC3    C1 6321   2.777   2.805   1.191  0.6603 -0.1323  0.4150
  424TMC3    C2 6322   2.867   2.705   1.201 -0.5795 -0.5166  0.5156
  424TMC3    C3 6323   2.831   2.605   1.295  0.1119 -0.7324  0.1683
  424TMC3    C4 6324   2.658   2.813   1.268 -0.0411  0.0345 -0.3518
  424TMC3    C5 6325   2.633   2.716   1.360 -0.1487  0.3210  0.3979
  424TMC3    C6 6326   2.715   2.602   1.369  0.2599 -0.0701  0.2193
  424TMC3     C 6327   2.804   2.913   1.102 -0.0274 -0.6072 -0.5463
  424TMC3     O 6328   2.773   3.027   1.136 -0.5751  0.3568  0.0063
  424TMC3     H 6329   2.966   2.718   1.159 -1.5637  1.0740 -1.2806
  424TMC3    H1 6330   2.598   2.902   1.251  1.0698  0.7774 -0.4184
  424TMC3    H2 6331   2.678   2.524   1.435  1.4925 -1.0539 -0.2459
  424TMC3    C7 6332   2.513   2.721   1.437 -0.1862 -0.3054 -0.2597
  424TMC3    C8 6333   2.934   2.511   1.331  0.1124  0.5684  0.3997
  424TMC3    O1 6334   2.464   2.613   1.459  0.8368 -0.0595  0.4023
  424TMC3    O2 6335   3.051   2.544   1.307  0.2041  0.2882  0.2013
  425MPD2     C 6336   2.035   2.748  16.709  0.3089 -1.0680  0.5533
  425MPD2    C1 6337   2.034   2.628  16.783  0.5121  0.3954  0.1052
  425MPD2    C2 6338   1.982   2.633  16.913  0.1351 -0.1918  0.1706
  425MPD2    C3 6339   1.933   2.754  16.974  1.2592  0.5369 -0.3736
  425MPD2    C4 6340   1.938   2.864  16.898 -0.3663  0.8694  0.4595
  425MPD2    C5 6341   1.985   2.863  16.769 -0.2336  1.0674 -0.4571
  425MPD2     H 6342   1.976   2.550  16.983  0.5304  0.6092  1.1492
  425MPD2    H1 6343   1.890   2.955  16.930  1.2196  1.0232  2.3815
  425MPD2    H2 6344   2.064   2.759  16.605 -0.9948 -4.6831 -0.1644
  425MPD2    H3 6345   1.981   2.945  16.698  0.5496  0.0161 -1.7093
  425MPD2     N 6346   1.875   2.750  17.102 -0.2907 -0.2171  0.3093
  425MPD2    H5 6347   1.872   2.661  17.150  1.1078 -0.4368 -0.0095
  425MPD2    N1 6348   2.078   2.500  16.733 -0.1948 -0.0201  0.3034
  425MPD2    H7 6349   2.058   2.415  16.785 -1.1495  1.2051  1.9150
  426TMC3    C1 6350   2.139   2.323  16.602 -0.5628 -0.5025  1.0391
  426TMC3    C2 6351   2.057   2.251  16.510 -0.6069  0.6760  0.1117
  426TMC3    C3 6352   2.022   2.119  16.547 -0.3285  0.5725  0.4012
  426TMC3    C4 6353   2.193   2.265  16.717 -0.1611  0.1359 -0.9910
  426TMC3    C5 6354   2.168   2.132  16.734 -0.3017 -0.3320  0.3771
  426TMC3    C6 6355   2.085   2.062  16.653 -0.4933  0.7311 -1.2196
  426TMC3     C 6356   2.124   2.464  16.609  0.0836 -0.0525 -0.0036
  426TMC3     O 6357   2.133   2.544  16.519  0.1812  0.1368  0.1490
  426TMC3     H 6358   2.020   2.297  16.419 -0.1751 -0.3145 -0.5651
  426TMC3    H1 6359   2.266   2.320  16.777 -0.3149 -0.9960  0.2269
  426TMC3    H2 6360   2.056   1.959  16.672 -1.3239  1.3076  0.6566
  426TMC3    C7 6361   2.225   2.068  16.839  0.8387 -0.3187 -0.4723
  426TMC3    C8 6362   1.973   2.023  16.452 -0.7209  0.9625  0.1476
  426TMC3    O1 6363   2.252   1.952  16.820  0.3686  0.0165 -0.8706
  426TMC3    O2 6364   2.015   2.019  16.337 -0.0227 -0.0854 -0.5618
  427MPD2     C 6365   0.881   0.098  14.839  0.8474  0.3596 -0.1106
  427MPD2    C1 6366   0.812   4.720  14.916 -0.4283 -1.1372 -0.0974
  427MPD2    C2 6367   0.680   4.710  14.930  0.4807  0.2949  0.2055
  427MPD2    C3 6368   0.596   0.075  14.870  0.4658  0.4146 -0.5123
  427MPD2    C4 6369   0.659   0.172  14.796 -0.1678 -0.2170 -0.2505
  427MPD2    C5 6370   0.794   0.190  14.784 -0.1089  0.2049 -0.4422
  427MPD2     H 6371   0.642   4.625  14.985  0.4552  1.0016  1.2602
  427MPD2    H1 6372   0.606   0.254  14.749  2.5641  1.7573  0.0708
  427MPD2    H2 6373   0.987   0.121  14.829  0.7197  0.4702 -1.2381
  427MPD2    H3 6374   0.837   0.272  14.728  2.3088  0.5770  1.9599
  427MPD2     N 6375   0.453   0.069  14.881 -0.4029 -0.2210 -0.0382
  427MPD2    H5 6376   0.401   0.119  14.809 -0.5783  0.8018  0.8039
  427MPD2    N1 6377   0.887   4.615  14.982 -0.4279 -0.0452 -0.5546
  427MPD2    H7 6378   0.844   4.553  15.049 -0.2419 -0.0161 -0.4061
  428TMC3    C1 6379   1.081   4.484  15.045  0.1083 -0.6848 -0.1086
  428TMC3    C2 6380   1.005   4.406  15.127  0.2403 -0.4199  0.1259
  428TMC3    C3 6381   1.062   4.296  15.194 -0.2328  0.1020 -0.3416
  428TMC3    C4 6382   1.216   4.475  15.054 -0.2307  0.0380 -0.7863
  428TMC3    C5 6383   1.273   4.374  15.127  0.4374  0.2893  0.0899
  428TMC3    C6 6384   1.197   4.283  15.188  0.2938  0.0765 -0.6155
  428TMC3     C 6385   1.031   4.592  14.955  0.0506 -0.5290  0.0386
  428TMC3     O 6386   1.106   4.650  14.875 -0.0191 -0.0213 -0.4990
  428TMC3     H 6387   0.898   4.412  15.144 -0.0050  1.1271 -2.0792
  428TMC3    H1 6388   1.280   4.551  15.012 -1.1038  0.6853 -0.9492
  428TMC3    H2 6389   1.239   4.204  15.249  1.3544  0.1589 -1.2394
  428TMC3    C7 6390   1.411   4.387  15.177  0.3815  1.0932  0.9797
  428TMC3    C8 6391   0.984   4.244  15.307  0.0720  0.1149  0.2935
  428TMC3    O1 6392   1.431   4.361  15.296  0.4727 -0.1488  0.1771
  428TMC3    O2 6393   1.020   4.136  15.354  0.4363  0.1900 -0.1672
  429MPD2     C 6394   1.752   0.404   0.051 -0.1541 -0.2244  0.0321
  429MPD2    C1 6395   1.775   0.310  17.652  0.1399  0.1072 -0.2439
  429MPD2    C2 6396   1.867   0.336  17.559 -0.6758 -0.1226  0.3024
  429MPD2    C3 6397   1.939   0.454  17.560  0.9087  0.0347  0.0776
  429MPD2    C4 6398   1.916   0.547  17.655  0.3327 -0.1278 -0.4804
  429MPD2    C5 6399   1.816   0.519   0.051  0.4203  0.5429 -0.4630
  429MPD2     H 6400   1.885   0.259  17.485 -0.7667 -0.6933  0.8642
  429MPD2    H1 6401   1.979   0.635  17.667 -1.9667  1.1516  2.2739
  429MPD2    H2 6402   1.698   0.381   0.143 -0.4045 -0.3445 -0.1464
  429MPD2    H3 6403   1.802   0.584   0.138 -0.0865 -0.1406 -0.0369
  429MPD2     N 6404   2.035   0.478  17.455  0.0536 -0.2615 -0.4493
  429MPD2    H5 6405   2.051   0.395  17.400 -0.9409 -0.1635 -0.8803
  429MPD2    N1 6406   1.698   0.195  17.638  0.1931 -0.4593 -0.0699
  429MPD2    H7 6407   1.727   0.142  17.556 -1.4341 -1.2598 -0.1123
  430TMC3    C1 6408   2.192   0.590  17.317 -0.5112  0.1850  0.3350
  430TMC3    C2 6409   2.215   0.699  17.231 -0.1888  0.4887 -0.0211
  430TMC3    C3 6410   2.270   0.675  17.105 -0.0368  0.0368  0.5264
  430TMC3    C4 6411   2.245   0.471  17.286 -0.2700  0.0138  0.4670
  430TMC3    C5 6412   2.321   0.456  17.173  0.0591 -0.6176  0.3910
  430TMC3    C6 6413   2.326   0.551  17.075 -0.2267  0.2323 -1.0713
  430TMC3     C 6414   2.086   0.601  17.416 -0.1104  0.1013 -0.1559
  430TMC3     O 6415   2.062   0.714  17.459  0.5253  0.2152  0.4424
  430TMC3     H 6416   2.165   0.793  17.245 -0.6011  0.1061  1.0611
  430TMC3    H1 6417   2.237   0.399  17.366 -0.1013 -2.1352 -1.4620
  430TMC3    H2 6418   2.372   0.533  16.978 -0.2540 -1.8095 -0.7113
  430TMC3    C7 6419   2.353   0.314  17.137 -0.7722 -0.6507  0.4001
  430TMC3    C8 6420   2.217   0.745  16.984  0.2490  0.0188  1.0915
  430TMC3    O1 6421   2.317   0.237  17.218 -0.4811  0.7051 -0.1565
  430TMC3    O2 6422   2.233   0.684  16.877 -0.2606 -0.3767 -0.0685
  431MPD2     C 6423   2.814   0.018  12.497 -0.4469 -0.3801 -0.1962
  431MPD2    C1 6424   2.931   0.002  12.414  0.0607 -0.7551  0.2022
  431MPD2    C2 6425   2.925   4.631  12.318 -0.7658  0.4647  0.2181
  431MPD2    C3 6426   2.809   4.553  12.302 -0.3105 -0.4112 -0.0068
  431MPD2    C4 6427   2.702   4.557  12.390  0.1251  0.0739 -0.2241
  431MPD2    C5 6428   2.705   4.657  12.488  0.5254 -0.4315  0.3658
  431MPD2     H 6429   3.004   4.628  12.244 -0.8648  1.8169  0.0682
  431MPD2    H1 6430   2.618   4.492  12.369 -0.5352 -0.2830  3.6145
  431MPD2    H2 6431   2.806   0.100  12.568 -0.1821 -1.8375  1.4951
  431MPD2    H3 6432   2.627   4.680  12.559  0.6690 -0.0654  0.4084
  431MPD2     N 6433   2.806   4.460  12.193 -0.2120 -1.0090  0.0379
  431MPD2    H5 6434   2.724   4.401  12.195 -1.4113  0.6455 -1.0395
  431MPD2    N1 6435   3.049   0.082  12.424 -0.3918 -0.7313  0.1732
  431MPD2    H7 6436   3.131   0.069  12.365  0.3828 -3.5900  1.8961
  432TMC3    C1 6437   2.844   4.336  12.003 -0.4384  0.2469  0.1217
  432TMC3    C2 6438   2.910   4.331  11.879  0.3349 -0.7052  0.4385
  432TMC3    C3 6439   2.932   4.207  11.822 -0.4497  0.8617  0.4682
  432TMC3    C4 6440   2.800   4.220  12.059  0.0747 -0.1504 -0.7737
  432TMC3    C5 6441   2.816   4.097  12.000 -0.2581 -0.5740  0.5004
  432TMC3    C6 6442   2.882   4.093  11.877  0.4511 -0.4982 -0.2917
  432TMC3     C 6443   2.892   4.435  12.092 -0.1753  0.4811  1.2779
  432TMC3     O 6444   3.004   4.475  12.072 -0.1699  0.0365  0.2416
  432TMC3     H 6445   2.948   4.427  11.845 -0.2290 -0.0487  1.6607
  432TMC3    H1 6446   2.771   4.219  12.164 -1.8984 -0.9189 -1.3329
  432TMC3    H2 6447   2.919   3.999  11.838  2.6680  0.6271 -0.8931
  432TMC3    C7 6448   2.830   3.981  12.077  0.1611 -0.2261 -0.6284
  432TMC3    C8 6449   3.066   4.195  11.763  0.2181 -0.2111 -0.1677
  432TMC3    O1 6450   2.921   3.900  12.057  0.5385  0.5478 -0.3680
  432TMC3    O2 6451   3.084   4.091  11.704  0.3120 -0.8325 -0.0207
  433MPD2     C 6452   1.482   3.570  10.597  0.1435  0.5527 -0.4019
  433MPD2    C1 6453   1.486   3.457  10.679 -0.2273 -0.4774  0.0647
  433MPD2    C2 6454   1.495   3.478  10.818  0.5122  0.4956 -0.3011
  433MPD2    C3 6455   1.512   3.603  10.876 -0.2355  0.7949  0.5990
  433MPD2    C4 6456   1.515   3.714  10.790 -0.1190 -0.1046 -0.0564
  433MPD2    C5 6457   1.501   3.693  10.651 -0.4633 -0.1355  0.1544
  433MPD2     H 6458   1.493   3.395  10.887  0.2152  1.3021  0.6504
  433MPD2    H1 6459   1.518   3.815  10.829  1.4078  0.2215 -0.9899
  433MPD2    H2 6460   1.462   3.560  10.491 -0.3760 -0.4324 -0.2139
  433MPD2    H3 6461   1.508   3.784  10.592 -2.3263 -0.9491 -1.3264
  433MPD2     N 6462   1.538   3.616  11.017  0.0055 -0.0446 -0.3952
  433MPD2    H5 6463   1.530   3.526  11.064  1.0595 -0.3401 -0.7856
  433MPD2    N1 6464   1.477   3.331  10.623  0.5509 -0.3546  0.7477
  433MPD2    H7 6465   1.487   3.317  10.523  1.2562  1.5689  0.5393
  434TMC3    C1 6466   1.475   3.093  10.619 -0.1205  0.3560 -0.1380
  434TMC3    C2 6467   1.522   2.989  10.690 -0.0005 -0.1533 -0.1464
  434TMC3    C3 6468   1.608   2.897  10.628  1.0080 -0.3247  0.6632
  434TMC3    C4 6469   1.510   3.108  10.485  0.5726 -0.1403 -0.2926
  434TMC3    C5 6470   1.573   3.010  10.417 -0.2133 -0.1385 -0.2626
  434TMC3    C6 6471   1.628   2.909  10.487  0.2816  0.7622  0.1334
  434TMC3     C 6472   1.458   3.215  10.697 -0.5786  0.4084 -0.0885
  434TMC3     O 6473   1.453   3.201  10.817 -0.2572 -0.0866 -0.9249
  434TMC3     H 6474   1.501   2.973  10.795  0.4611 -0.4294 -0.0944
  434TMC3    H1 6475   1.454   3.182  10.428  2.3742  0.7785 -0.8960
  434TMC3    H2 6476   1.707   2.852  10.439 -0.2239 -0.9998  1.4094
  434TMC3    C7 6477   1.501   2.957  10.297  0.0606  0.4154  0.3309
  434TMC3    C8 6478   1.712   2.845  10.715  0.1320  0.2293 -0.0058
  434TMC3    O1 6479   1.404   3.015  10.247  0.1358  0.2580  0.2546
  434TMC3    O2 6480   1.708   2.875  10.834 -0.0179 -0.0744 -0.0994
  435MPD2     C 6481   3.462   3.515  15.500 -0.2746  0.2791 -0.9094
  435MPD2    C1 6482   3.411   3.478  15.619 -0.1672 -0.3854  0.1930
  435MPD2    C2 6483   3.506   3.437  15.711  0.0364 -0.7535  0.1242
  435MPD2    C3 6484   3.638   3.443  15.695  0.0400 -0.6165 -0.7732
  435MPD2    C4 6485   3.680   3.475  15.571  0.2363 -0.2010 -0.2359
  435MPD2    C5 6486   3.593   3.502  15.471 -0.4764  0.3331  0.6969
  435MPD2     H 6487   3.460   3.405  15.804  0.3075  1.3514  0.9820
  435MPD2    H1 6488   3.785   3.482  15.547  1.0045 -1.6153  2.7123
  435MPD2    H2 6489   3.397   3.527  15.414  1.3941  1.2121 -2.0441
  435MPD2    H3 6490   3.610   3.524  15.367  1.4058 -0.4411  0.8473
  435MPD2     N 6491   3.726   3.408  15.795  1.2445  0.9119 -0.5047
  435MPD2    H5 6492   3.682   3.382  15.883  2.1269  3.5401  0.7135
  435MPD2    N1 6493   3.274   3.478  15.654 -0.5520 -0.6040  0.3418
  435MPD2    H7 6494   3.245   3.437  15.742  0.1160  1.5782  1.5797
  436TMC3    C1 6495   3.014   3.567  15.887 -0.4642  0.4508  0.3873
  436TMC3    C2 6496   3.097   3.592  15.778  0.1630  0.0010  0.0859
  436TMC3    C3 6497   3.062   3.534  15.655 -0.0073 -0.2614  0.0937
  436TMC3    C4 6498   2.904   3.483  15.867  0.4902 -0.4198  0.3206
  436TMC3    C5 6499   2.874   3.430  15.747 -0.1521  0.8227 -0.1806
  436TMC3    C6 6500   2.953   3.460  15.636  0.1687  0.2179 -0.1743
  436TMC3     C 6501   3.068   3.603  16.017  0.1598  0.1011  0.0092
  436TMC3     O 6502   3.178   3.643  16.018 -0.3986 -0.7407  0.5407
  436TMC3     H 6503   3.185   3.654  15.772 -1.1187  1.9604  1.5428
  436TMC3    H1 6504   2.850   3.451  15.954 -0.2550 -2.5614 -0.9328
  436TMC3    H2 6505   2.954   3.410  15.539 -0.4359  0.4303 -0.2896
  436TMC3    C7 6506   2.800   3.309  15.749  0.6210 -0.1843  0.3846
  436TMC3    C8 6507   3.170   3.509  15.567 -0.3975 -0.8848  0.3945
  436TMC3    O1 6508   2.813   3.238  15.848 -0.0353 -0.5379 -0.3857
  436TMC3    O2 6509   3.162   3.552  15.453  0.5955  0.0199 -0.9321
  437TMC3    C1 6510   2.260   0.891  12.330 -0.2993  0.1234 -0.4823
  437TMC3    C2 6511   2.321   0.970  12.236 -0.0552 -0.7513  1.0729
  437TMC3    C3 6512   2.436   0.924  12.181  0.4159 -0.6143  0.2863
  437TMC3    C4 6513   2.303   0.766  12.361 -0.1162  0.0513  0.3616
  437TMC3    C5 6514   2.423   0.725  12.308 -1.0931  0.0089  0.4747
  437TMC3    C6 6515   2.491   0.798  12.215 -0.7121 -0.0238  0.2401
  437TMC3     C 6516   2.123   0.916  12.375  0.7568 -0.5440  0.3010
  437TMC3     O 6517   2.070   0.823  12.436  0.0061 -0.2200  0.5362
  437TMC3     H 6518   2.275   1.059  12.194  0.0448 -1.3404 -0.2887
  437TMC3    H1 6519   2.262   0.708  12.443 -1.6173  0.7007  0.0706
  437TMC3    H2 6520   2.581   0.769  12.163 -1.4818 -1.7556 -0.1405
  437TMC3    C7 6521   2.487   0.618  12.370 -0.2120 -0.0933  0.4517
  437TMC3    C8 6522   2.505   1.025  12.087  0.1501  0.0547  0.2083
  437TMC3    O1 6523   2.420   0.537  12.432  0.0769  0.6055  0.2462
  437TMC3    O2 6524   2.440   1.095  12.011 -0.5832 -0.4080 -0.4624
  438MPD2     C 6525   4.413   1.116  17.210  0.0218 -0.0570 -0.0350
  438MPD2    C1 6526   4.452   0.992  17.173  0.1583 -0.6569 -0.3681
  438MPD2    C2 6527   4.439   0.884  17.256 -0.2167 -0.2365 -0.2933
  438MPD2    C3 6528   4.367   0.902  17.384 -0.5098  0.0833 -0.2171
  438MPD2    C4 6529   4.318   1.028  17.415  0.0383  0.0800  0.9721
  438MPD2    C5 6530   4.339   1.131  17.324  0.3275  0.2191 -0.6977
  438MPD2     H 6531   4.497   0.797  17.228  0.2075 -0.4892  1.3606
  438MPD2    H1 6532   4.269   1.065  17.505  2.1853 -1.5088  2.8000
  438MPD2    H2 6533   4.433   1.199  17.144  2.1272 -0.2568  0.3659
  438MPD2    H3 6534   4.315   1.235  17.345  0.9659  0.4901 -1.2856
  438MPD2     N 6535   4.362   0.798  17.487 -0.0892  0.8885 -0.1196
  438MPD2    H5 6536   4.342   0.817  17.585 -2.0813 -1.0617 -0.1575
  438MPD2    N1 6537   4.516   0.963  17.050 -0.6843  0.1056  0.4197
  438MPD2    H7 6538   4.571   0.878  17.043 -2.2144 -1.0741  2.4661
  439TMC3    C1 6539   4.623   0.986  16.847  0.1191  0.1550  0.5286
  439TMC3    C2 6540   4.631   1.051  16.733 -0.3606  0.1183 -0.2609
  439TMC3    C3 6541   4.719   1.003  16.641 -0.3175  0.5458 -0.1581
  439TMC3    C4 6542   4.709   0.885  16.884 -0.5442 -0.1602  0.4989
  439TMC3    C5 6543   0.084   0.852  16.792  0.6528 -0.4293 -0.5143
  439TMC3    C6 6544   0.090   0.900  16.666 -0.1307 -0.3640  0.2311
  439TMC3     C 6545   4.538   1.050  16.950  0.1566  0.5440 -0.2482
  439TMC3     O 6546   4.479   1.154  16.930  0.0668  0.2679 -0.4987
  439TMC3     H 6547   4.565   1.135  16.717  0.5809  0.5742 -1.7777
  439TMC3    H1 6548   4.723   0.849  16.986  1.0717  0.2094  0.4051
  439TMC3    H2 6549   0.167   0.876  16.594  1.1363  2.9727  0.4429
  439TMC3    C7 6550   0.206   0.797  16.844  0.4888  0.1562  0.8603
  439TMC3    C8 6551   4.717   1.052  16.502  0.6518 -0.1232  0.1345
  439TMC3    O1 6552   0.303   0.848  16.792  0.6918 -0.2172  0.0507
  439TMC3    O2 6553   0.107   1.034  16.453  0.4556  0.2178  0.1333
  440MPD2     C 6554   3.149   1.664  14.946 -0.6428  0.3322 -0.1371
  440MPD2    C1 6555   3.210   1.776  14.995 -0.7799  0.3844  0.3842
  440MPD2    C2 6556   3.343   1.774  15.020  0.3126  0.2992 -0.4318
  440MPD2    C3 6557   3.419   1.657  14.994 -0.1621 -0.2216 -0.6723
  440MPD2    C4 6558   3.345   1.553  14.942  0.1520  0.3436 -0.8196
  440MPD2    C5 6559   3.223   1.555  14.906 -0.2071  0.0060  0.4675
  440MPD2     H 6560   3.391   1.863  15.060 -1.7129  0.2480  2.0898
  440MPD2    H1 6561   3.397   1.459  14.930 -0.3169 -0.1975  1.4424
  440MPD2    H2 6562   3.042   1.658  14.935 -0.5585  0.6703 -1.1129
  440MPD2    H3 6563   3.183   1.462  14.869 -3.2527  0.1911  3.2584
  440MPD2     N 6564   3.558   1.641  15.002 -0.5125  0.1520 -0.0872
  440MPD2    H5 6565   3.595   1.550  14.976 -0.6079  0.0672  0.0751
  440MPD2    N1 6566   3.135   1.898  15.025  0.1190  0.3392 -0.6549
  440MPD2    H7 6567   3.172   1.957  15.099 -1.3076  0.8271 -0.3212
  441TMC3    C1 6568   3.779   1.680  15.101  0.4480 -0.1159  0.2679
  441TMC3    C2 6569   3.841   1.780  15.173 -0.1942 -0.1231  0.1481
  441TMC3    C3 6570   3.882   1.751  15.298  0.1586 -0.1651 -0.5272
  441TMC3    C4 6571   3.772   1.547  15.147 -0.4979  0.5669  0.7390
  441TMC3    C5 6572   3.831   1.533  15.276 -0.5670 -0.2079  0.1372
  441TMC3    C6 6573   3.884   1.626  15.357 -0.8025 -0.3543 -0.4458
  441TMC3     C 6574   3.643   1.731  15.067 -0.3735 -0.7596 -0.6139
  441TMC3     O 6575   3.623   1.844  15.116 -0.4561 -0.3103 -0.3146
  441TMC3     H 6576   3.860   1.877  15.127  0.7127 -1.0007 -1.3296
  441TMC3    H1 6577   3.733   1.472  15.080  1.7227 -1.6571  1.9502
  441TMC3    H2 6578   3.914   1.607  15.459  0.8642 -0.7933 -1.0219
  441TMC3    C7 6579   3.760   1.426  15.351 -0.0997 -0.6868 -0.9436
  441TMC3    C8 6580   3.897   1.863  15.388  0.3440  0.1918 -0.1115
  441TMC3    O1 6581   3.669   1.373  15.287  0.2704 -0.4355  0.1868
  441TMC3    O2 6582   3.979   1.862  15.476 -0.0235  0.0863  0.5316
  442MPD2     C 6583   1.862   2.564  16.299 -0.4564 -0.5040  0.4473
  442MPD2    C1 6584   1.761   2.525  16.382  0.2639  0.1800 -0.1430
  442MPD2    C2 6585   1.708   2.399  16.357  0.4180 -0.6777 -0.2372
  442MPD2    C3 6586   1.764   2.305  16.267 -0.1926 -0.3715  0.0092
  442MPD2    C4 6587   1.858   2.353  16.176 -0.5562 -0.7787  0.4539
  442MPD2    C5 6588   1.903   2.483  16.196 -0.2631  0.0416 -0.3086
  442MPD2     H 6589   1.623   2.380  16.423 -0.2895 -0.3839 -1.0634
  442MPD2    H1 6590   1.893   2.293  16.093 -0.1945 -2.2627  1.6742
  442MPD2    H2 6591   1.922   2.654  16.308  0.1761 -0.8134 -0.6195
  442MPD2    H3 6592   1.985   2.513  16.132  0.3794  1.4046  1.1542
  442MPD2     N 6593   1.724   2.170  16.240 -0.1612  0.2960 -0.5612
  442MPD2    H5 6594   1.769   2.122  16.163 -0.7259 -0.3469 -0.4941
  442MPD2    N1 6595   1.709   2.609  16.490  1.0418  0.2109  0.7621
  442MPD2    H7 6596   1.628   2.572  16.537 -0.0199  2.4478  0.7027
  443TMC3    C1 6597   1.665   2.797  16.629 -0.0350 -0.1611  0.0006
  443TMC3    C2 6598   1.582   2.901  16.593  0.0062  0.4431 -0.0703
  443TMC3    C3 6599   1.467   2.921  16.663 -0.5953 -0.2180 -0.3148
  443TMC3    C4 6600   1.646   2.721  16.746 -0.0879 -0.1248  0.3113
  443TMC3    C5 6601   1.542   2.762  16.829 -0.9318  0.0750 -0.1153
  443TMC3    C6 6602   1.454   2.860  16.785  0.2274  0.0711 -0.6087
  443TMC3     C 6603   1.741   2.744  16.519 -0.2417  0.1715 -0.7418
  443TMC3     O 6604   1.806   2.822  16.448  0.4673 -0.4540  0.2278
  443TMC3     H 6605   1.596   2.944  16.494  0.4552 -0.6494 -0.4760
  443TMC3    H1 6606   1.717   2.646  16.779  0.5304  1.3020  2.2692
  443TMC3    H2 6607   1.367   2.874  16.848  0.1771  1.3107 -0.9501
  443TMC3    C7 6608   1.516   2.686  16.948 -0.4922 -0.0595  0.4791
  443TMC3    C8 6609   1.354   2.899  16.579 -0.2688  0.1269 -0.2620
  443TMC3    O1 6610   1.575   2.579  16.954  0.1414  0.0433 -0.3023
  443TMC3    O2 6611   1.255   2.832  16.622  0.5087  0.1196  0.4790
  444MPD2     C 6612   1.979   1.682  16.811 -0.9132 -0.1621  0.7046
  444MPD2    C1 6613   1.882   1.576  16.826 -0.1444 -0.4775  0.5201
  444MPD2    C2 6614   1.908   1.449  16.779 -0.0097 -0.1854 -0.1737
  444MPD2    C3 6615   2.030   1.421  16.721 -0.1932 -0.2063 -0.1119
  444MPD2    C4 6616   2.120   1.522  16.704  0.4548 -0.0746 -0.0277
  444MPD2    C5 6617   2.097   1.648  16.741  0.1687 -0.0601  0.2615
  444MPD2     H 6618   1.832   1.374  16.794  0.8574 -0.7959  1.1541
  444MPD2    H1 6619   2.213   1.508  16.651  0.6036  2.4572 -0.4054
  444MPD2    H2 6620   1.971   1.787  16.839 -1.3056  0.1867 -0.6626
  444MPD2    H3 6621   2.177   1.721  16.736  0.2826 -0.1650  0.5739
  444MPD2     N 6622   2.058   1.284  16.684  0.0031  0.6280 -0.0625
  444MPD2    H5 6623   1.984   1.221  16.713 -0.2716  1.0918  0.2405
  444MPD2    N1 6624   1.762   1.603  16.895 -0.3732 -0.4421  0.4623
  444MPD2    H7 6625   1.698   1.525  16.907  0.1731 -0.7693  1.2876
  445TMC3    C1 6626   2.188   1.088  16.654  1.1199 -0.2401  0.7213
  445TMC3    C2 6627   2.090   1.014  16.599 -0.5652  0.1011 -0.1941
  445TMC3    C3 6628   2.125   0.890  16.552  0.2780  0.3110 -0.0822
  445TMC3    C4 6629   2.318   1.049  16.664  0.5662  0.7216  0.8999
  445TMC3    C5 6630   2.346   0.923  16.630 -0.0140 -0.2340  0.2369
  445TMC3    C6 6631   2.254   0.845  16.566  0.5001  0.8482  0.2924
  445TMC3     C 6632   2.180   1.235  16.649 -0.5977  0.4880  0.2374
  445TMC3     O 6633   2.290   1.289  16.639 -0.7523  0.3344  0.2810
  445TMC3     H 6634   1.986   1.045  16.593 -0.3738  0.9476  0.7992
  445TMC3    H1 6635   2.400   1.106  16.706  1.1862  0.3825  0.1407
  445TMC3    H2 6636   2.276   0.753  16.514  1.7108  2.2125 -1.5875
  445TMC3    C7 6637   2.473   0.902  16.565 -0.5416 -0.3141 -0.1678
  445TMC3    C8 6638   2.028   0.816  16.475 -0.7903  0.4240  0.2440
  445TMC3    O1 6639   2.462   0.894  16.444 -0.2787  0.2819 -0.5259
  445TMC3    O2 6640   1.924   0.871  16.445  0.2261 -0.0478  0.2333
  446MPD2     C 6641   1.339   2.761  11.210 -0.6019  0.0079  0.0408
  446MPD2    C1 6642   1.356   2.763  11.070 -0.1849  0.1989 -0.2015
  446MPD2    C2 6643   1.451   2.850  11.025  0.5649  0.2135  0.3898
  446MPD2    C3 6644   1.529   2.928  11.112  0.1478  0.1585 -0.0211
  446MPD2    C4 6645   1.499   2.936  11.242  0.4698 -0.0486  0.2234
  446MPD2    C5 6646   1.406   2.842  11.290  0.4085 -0.4923 -0.3268
  446MPD2     H 6647   1.490   2.846  10.924  1.1790 -2.5460  0.7362
  446MPD2    H1 6648   1.546   3.010  11.306  1.2001  0.5307 -1.0030
  446MPD2    H2 6649   1.273   2.691  11.260 -0.1464  0.3090  1.0569
  446MPD2    H3 6650   1.370   2.841  11.392 -1.6729 -0.9323 -1.0765
  446MPD2     N 6651   1.642   2.998  11.058  0.2483 -0.1146  0.0045
  446MPD2    H5 6652   1.673   2.979  10.963  0.0130 -0.9781  0.1010
  446MPD2    N1 6653   1.277   2.687  10.984 -0.1745  0.5842  0.5399
  446MPD2    H7 6654   1.207   2.635  11.036 -0.1571  1.5626  1.5521
  447TMC3    C1 6655   1.803   3.174  11.028 -0.6759  0.2872  0.1549
  447TMC3    C2 6656   1.775   3.175  10.890 -0.1803 -0.0322 -0.7355
  447TMC3    C3 6657   1.874   3.223  10.809 -0.4822 -0.2733  0.1578
  447TMC3    C4 6658   1.912   3.227  11.081 -0.4893 -0.2351  0.3114
  447TMC3    C5 6659   2.010   3.277  10.994  0.8367 -0.1173 -0.1896
  447TMC3    C6 6660   1.993   3.261  10.859 -0.5616  0.0521 -0.0963
  447TMC3     C 6661   1.707   3.110  11.116  0.0309  0.7396  0.1138
  447TMC3     O 6662   1.684   3.164  11.224  0.7604 -0.0352 -0.5303
  447TMC3     H 6663   1.674   3.154  10.855 -0.9160 -0.3116  1.5407
  447TMC3    H1 6664   1.918   3.221  11.189  0.5120  0.1915  0.2814
  447TMC3    H2 6665   2.067   3.293  10.787  0.5812 -1.4107  0.4287
  447TMC3    C7 6666   2.149   3.295  11.043 -0.2629 -0.2398 -0.1566
  447TMC3    C8 6667   1.868   3.186  10.666 -0.1694 -0.0976 -0.3164
  447TMC3    O1 6668   2.237   3.305  10.962 -0.7784  0.6571 -0.1388
  447TMC3    O2 6669   1.776   3.235  10.605  0.3261  0.0117  0.1766
  448TMC3    C1 6670   0.346   2.647  16.971 -0.1075 -0.0207 -0.5746
  448TMC3    C2 6671   0.226   2.595  16.926 -0.5517  0.5899 -1.3276
  448TMC3    C3 6672   0.172   2.507  17.016 -0.1597  0.1406  0.3660
  448TMC3    C4 6673   0.413   2.618  17.081 -0.5654  0.1809  0.2463
  448TMC3    C5 6674   0.356   2.527  17.164 -0.1077  0.1748 -0.3456
  448TMC3    C6 6675   0.231   2.481  17.136  0.5023 -0.6665 -0.6791
  448TMC3     C 6676   0.376   2.768  16.905 -0.1238 -0.2167  0.8428
  448TMC3     O 6677   0.304   2.795  16.810  0.2471 -0.2551 -0.6509
  448TMC3     H 6678   0.198   2.605  16.822 -1.9223  0.9820 -0.9074
  448TMC3    H1 6679   0.500   2.675  17.110  1.5202 -1.1883 -3.3561
  448TMC3    H2 6680   0.175   2.421  17.207 -0.3047 -1.7549 -2.2433
  448TMC3    C7 6681   0.404   2.525  17.299 -0.1507  0.0463  1.1400
  448TMC3    C8 6682   0.046   2.441  16.975  0.1069  0.5012 -0.2133
  448TMC3    O1 6683   0.515   2.574  17.317 -0.0894 -0.1468 -0.2725
  448TMC3    O2 6684   0.010   2.341  17.039 -0.1937 -0.2537  0.3274
  449MPD2     C 6685   1.478   0.812  13.829 -0.0398 -0.1096 -0.5653
  449MPD2    C1 6686   1.380   0.880  13.767  0.1987  0.5943  0.8178
  449MPD2    C2 6687   1.273   0.924  13.836  0.1029  0.3670 -0.3298
  449MPD2    C3 6688   1.265   0.908  13.972  0.1669 -0.2712 -0.1641
  449MPD2    C4 6689   1.352   0.822  14.035  0.4968  0.5937 -0.8709
  449MPD2    C5 6690   1.460   0.776  13.964  0.0992 -0.1776  0.4185
  449MPD2     H 6691   1.193   0.979  13.787  0.0370  0.5216 -0.0438
  449MPD2    H1 6692   1.333   0.783  14.134 -2.5983 -0.1480 -1.7587
  449MPD2    H2 6693   1.565   0.772  13.777 -0.6605  0.1091 -1.7787
  449MPD2    H3 6694   1.531   0.708  14.009 -1.1290 -0.2590  2.2297
  449MPD2     N 6695   1.156   0.969  14.033  0.0111 -0.0722  0.0213
  449MPD2    H5 6696   1.103   1.031  13.973  0.9422 -1.7471 -2.5193
  449MPD2    N1 6697   1.389   0.910  13.631 -0.0510 -0.0231  0.0291
  449MPD2    H7 6698   1.300   0.941  13.593  0.4563 -0.7038 -1.7372
  450TMC3    C1 6699   1.457   0.931  13.409  0.3306  0.2422 -0.0026
  450TMC3    C2 6700   1.523   1.032  13.355  0.0978  0.0823 -0.3229
  450TMC3    C3 6701   1.456   1.135  13.299 -0.4034 -0.2078 -0.5507
  450TMC3    C4 6702   1.321   0.938  13.399 -0.6597 -0.0525 -0.0901
  450TMC3    C5 6703   1.254   1.050  13.348 -0.8821  0.1513 -0.0968
  450TMC3    C6 6704   1.322   1.146  13.285  0.1817 -0.6289 -0.5010
  450TMC3     C 6705   1.494   0.895  13.538  1.4505  0.0594 -0.0777
  450TMC3     O 6706   1.608   0.854  13.562  0.2146  0.5423 -0.2024
  450TMC3     H 6707   1.630   1.035  13.372 -0.1244  1.9267  0.7449
  450TMC3    H1 6708   1.253   0.863  13.438 -0.7375 -0.5716 -1.2079
  450TMC3    H2 6709   1.276   1.234  13.242  1.5275  1.7167  2.8892
  450TMC3    C7 6710   1.141   1.077  13.431 -0.0301  0.2654  0.0371
  450TMC3    C8 6711   1.539   1.212  13.216  0.3696  0.4268 -0.3240
  450TMC3    O1 6712   1.148   1.031  13.543  0.5126  0.4292  0.3012
  450TMC3    O2 6713   1.485   1.317  13.190 -0.4379 -0.3302  0.3088
  451MPD2     C 6714   2.631   0.506   1.198 -0.5573  0.5484 -0.1927
  451MPD2    C1 6715   2.536   0.542   1.295 -0.2727 -0.6373 -0.3906
  451MPD2    C2 6716   2.454   0.437   1.339  0.0937  0.3075  0.0464
  451MPD2    C3 6717   2.473   0.305   1.308  0.4527 -0.1003 -0.3986
  451MPD2    C4 6718   2.566   0.279   1.213  0.4370 -0.1867 -0.4361
  451MPD2    C5 6719   2.640   0.380   1.158  0.1619  0.7358 -0.0601
  451MPD2     H 6720   2.377   0.469   1.408 -0.7761 -1.3468 -0.1601
  451MPD2    H1 6721   2.579   0.176   1.182 -1.2628 -0.9934  1.5526
  451MPD2    H2 6722   2.706   0.568   1.149 -2.0875  0.7858 -2.1874
  451MPD2    H3 6723   2.712   0.352   1.082  2.0040  0.7596  1.6815
  451MPD2     N 6724   2.402   0.195   1.367  0.4737  0.6486 -0.2861
  451MPD2    H5 6725   2.434   0.099   1.358  2.8001  1.4138 -0.0897
  451MPD2    N1 6726   2.521   0.679   1.324 -0.0726  0.3101 -0.0692
  451MPD2    H7 6727   2.592   0.741   1.285  1.0850 -0.5613  0.6422
  452TMC3    C1 6728   2.237   0.080   1.485  0.6729 -0.4760 -0.7296
  452TMC3    C2 6729   2.285   0.039   1.605 -0.1623  0.6550 -0.2230
  452TMC3    C3 6730   2.296   4.629   1.631  1.0822  0.2102 -0.7390
  452TMC3    C4 6731   2.222   4.711   1.382  0.1377  0.6637  0.2041
  452TMC3    C5 6732   2.243   4.579   1.409  0.4035  0.4707  0.3690
  452TMC3    C6 6733   2.284   4.538   1.533  0.0856 -0.1531 -0.1788
  452TMC3     C 6734   2.293   0.208   1.449 -0.7441 -0.0831 -0.1849
  452TMC3     O 6735   2.227   0.302   1.480  0.3575  0.1370  0.0196
  452TMC3     H 6736   2.330   0.111   1.671  0.7894 -0.5228  0.4003
  452TMC3    H1 6737   2.203   0.027   1.283  0.2863  0.8969  0.2668
  452TMC3    H2 6738   2.271   4.438   1.572  2.4537  0.1897  1.5522
  452TMC3    C7 6739   2.243   4.493   1.298 -0.1854 -0.0305 -0.2699
  452TMC3    C8 6740   2.381   4.594   1.747 -0.0780 -0.1619 -0.2204
  452TMC3    O1 6741   2.216   4.542   1.189 -0.6201 -0.3175 -0.1991
  452TMC3    O2 6742   2.437   4.487   1.739  0.3364  0.2320  0.1784
  453TMC3    C1 6743   3.588   2.130  11.908 -0.5316  0.7052  0.2912
  453TMC3    C2 6744   3.518   2.018  11.945  0.4692 -0.1863 -0.4018
  453TMC3    C3 6745   3.490   1.924  11.847 -0.1436  0.2315  0.7597
  453TMC3    C4 6746   3.607   2.167  11.776 -0.3276  1.0805  0.2563
  453TMC3    C5 6747   3.566   2.076  11.686  0.1135 -0.2191 -0.0158
  453TMC3    C6 6748   3.507   1.956  11.719  0.5762  0.3371  0.5571
  453TMC3     C 6749   3.708   2.165  11.986 -0.2639  0.1833 -0.7062
  453TMC3     O 6750   3.804   2.202  11.917  0.5110 -0.4531 -0.1453
  453TMC3     H 6751   3.501   1.998  12.050  2.2244  1.5483  0.2232
  453TMC3    H1 6752   3.672   2.246  11.739  1.3913 -1.2089 -1.6105
  453TMC3    H2 6753   3.478   1.884  11.642  0.3592  0.0893  0.8692
  453TMC3    C7 6754   3.594   2.099  11.547 -0.4657 -0.3669  0.4222
  453TMC3    C8 6755   3.501   1.790  11.889  0.7886 -0.2940  0.4115
  453TMC3    O1 6756   3.623   2.000  11.481 -0.2844  0.5582 -0.1337
  453TMC3    O2 6757   3.442   1.745  11.985 -0.0989  0.3815 -0.1047
  454MPD2     C 6758   2.573   0.969  15.975  0.4611  0.2046  0.0008
  454MPD2    C1 6759   2.543   1.100  15.951 -0.0088 -0.1186 -0.7673
  454MPD2    C2 6760   2.553   1.188  16.057  0.4465 -1.1145 -0.5869
  454MPD2    C3 6761   2.604   1.146  16.183 -0.0654 -0.2103 -0.1915
  454MPD2    C4 6762   2.646   1.022  16.198 -0.2267 -0.3361  0.2711
  454MPD2    C5 6763   2.612   0.929  16.102 -0.1323 -1.3304 -0.0246
  454MPD2     H 6764   2.526   1.290  16.034  2.1483 -1.0650 -2.3136
  454MPD2    H1 6765   2.687   1.000  16.296  1.4243 -0.3491 -0.4250
  454MPD2    H2 6766   2.554   0.888  15.906 -2.3896  0.5602  0.3577
  454MPD2    H3 6767   2.644   0.828  16.122  0.5594 -1.2939 -0.9494
  454MPD2     N 6768   2.592   1.233  16.298 -0.5047 -0.7419  0.3181
  454MPD2    H5 6769   2.663   1.213  16.368 -1.6604  0.8445  1.9324
  454MPD2    N1 6770   2.492   1.157  15.828 -0.9764 -0.2598  0.6642
  454MPD2    H7 6771   2.474   1.256  15.836  2.0731  0.1275  3.0294
  455TMC3    C1 6772   2.375   1.324  16.279  0.1972  0.0631 -0.1745
  455TMC3    C2 6773   2.299   1.439  16.261  0.0814 -0.0716 -1.1506
  455TMC3    C3 6774   2.170   1.419  16.229  0.0368 -0.2486 -0.3890
  455TMC3    C4 6775   2.321   1.200  16.260 -0.1250 -0.9037 -0.2868
  455TMC3    C5 6776   2.195   1.194  16.216 -0.2453  0.0411 -0.2639
  455TMC3    C6 6777   2.115   1.300  16.200 -0.2008 -0.3473 -0.4473
  455TMC3     C 6778   2.513   1.343  16.324 -0.3774  0.4051  0.3981
  455TMC3     O 6779   2.546   1.446  16.381 -0.4051  0.1614  0.5717
  455TMC3     H 6780   2.330   1.539  16.285  1.2249 -0.6089 -0.4044
  455TMC3    H1 6781   2.367   1.107  16.291  0.1427 -1.5116 -2.4856
  455TMC3    H2 6782   2.009   1.287  16.181 -0.0998 -0.5423 -0.8831
  455TMC3    C7 6783   2.144   1.062  16.169  0.1705 -0.2456  0.4756
  455TMC3    C8 6784   2.082   1.532  16.254 -0.2524  0.7930  0.4147
  455TMC3    O1 6785   2.028   1.050  16.127  0.4795 -0.1648  0.0653
  455TMC3    O2 6786   2.138   1.641  16.254  0.3200  0.0876 -0.4502
  456MPD2     C 6787   4.680   1.644  15.982  0.0298 -0.1255  0.3619
  456MPD2    C1 6788   0.044   1.604  16.078  0.5304 -0.2886 -0.1159
  456MPD2    C2 6789   0.007   1.613  16.215 -0.4418  0.1270 -0.0504
  456MPD2    C3 6790   4.608   1.667  16.247 -0.3581  0.5373 -0.1730
  456MPD2    C4 6791   4.528   1.713  16.147  0.0813 -0.6189 -0.7371
  456MPD2    C5 6792   4.564   1.694  16.019 -0.5873 -0.3560 -0.1059
  456MPD2     H 6793   0.070   1.574  16.294  0.3167  1.2788 -0.0790
  456MPD2    H1 6794   4.428   1.751  16.166  0.5352  0.0555  0.3139
  456MPD2    H2 6795   4.696   1.627  15.876  0.8073  1.5773  0.2092
  456MPD2    H3 6796   4.492   1.711  15.939  1.4931  2.7553 -1.2769
  456MPD2     N 6797   4.581   1.673  16.383 -0.0234  0.1513 -0.3629
  456MPD2    H5 6798   4.646   1.631  16.449  1.2287  0.3440 -1.4962
  456MPD2    N1 6799   0.175   1.559  16.033 -0.3049  0.5613 -0.0592
  456MPD2    H7 6800   0.183   1.538  15.934  0.3899 -0.6651  0.2595
  457TMC3    C1 6801   4.481   1.754  16.573 -0.2144  0.5358  0.4771
  457TMC3    C2 6802   4.455   1.877  16.626  0.1754  0.2371  0.2014
  457TMC3    C3 6803   4.491   1.895  16.758  0.2415 -0.0495  0.2701
  457TMC3    C4 6804   4.538   1.645  16.646  0.0482  0.7190 -0.1137
  457TMC3    C5 6805   4.551   1.669  16.781 -0.1485 -0.4655 -0.0815
  457TMC3    C6 6806   4.529   1.787  16.841 -0.3572 -0.2975 -0.5706
  457TMC3     C 6807   4.493   1.768  16.434 -0.1475  0.3061  0.0596
  457TMC3     O 6808   4.425   1.848  16.372  0.6205 -0.0805 -0.1212
  457TMC3     H 6809   4.451   1.962  16.560  0.0114 -0.2469 -0.4086
  457TMC3    H1 6810   4.567   1.553  16.596  2.2171  1.0154  0.5714
  457TMC3    H2 6811   4.551   1.801  16.947  0.2976 -0.8559 -0.6363
  457TMC3    C7 6812   4.614   1.560  16.862 -0.1944  0.0052 -0.9885
  457TMC3    C8 6813   4.493   2.026  16.817  0.1403 -0.4250 -0.7522
  457TMC3    O1 6814   4.576   1.544  16.977 -0.2064  0.0521 -0.0231
  457TMC3    O2 6815   4.571   2.037  16.910 -0.0064  0.2123  0.5596
  458MPD2     C 6816   2.887   0.486  12.668 -0.9140  0.5952  0.1120
  458MPD2    C1 6817   2.922   0.591  12.587  0.0984 -0.1433 -0.0956
  458MPD2    C2 6818   2.839   0.633  12.487 -0.1065 -0.1261 -0.0095
  458MPD2    C3 6819   2.715   0.581  12.470 -0.8054 -0.5465  0.2829
  458MPD2    C4 6820   2.678   0.474  12.551  0.6854  0.0141  0.0024
  458MPD2    C5 6821   2.767   0.426  12.641  0.6670  0.2932  0.1280
  458MPD2     H 6822   2.868   0.713  12.419 -0.9766 -1.1369 -1.5525
  458MPD2    H1 6823   2.583   0.423  12.540  0.5572 -0.0121  1.2372
  458MPD2    H2 6824   2.957   0.457  12.746 -1.4061  0.3262  0.4557
  458MPD2    H3 6825   2.745   0.337  12.698  1.5172  0.4997  0.7726
  458MPD2     N 6826   2.630   0.643  12.380  0.3308 -0.5743 -0.6361
  458MPD2    H5 6827   2.667   0.718  12.322  0.6215 -0.2332 -0.0114
  458MPD2    N1 6828   3.047   0.652  12.619  0.0133 -0.1815 -0.4442
  458MPD2    H7 6829   3.102   0.611  12.694  0.0838 -1.4720 -1.1982
  459TMC3    C1 6830   3.179   0.838  12.656 -1.0213 -0.0847 -0.1151
  459TMC3    C2 6831   3.259   0.930  12.606  0.1099 -0.0192  0.4471
  459TMC3    C3 6832   3.323   1.022  12.693  0.2956  0.5262  0.2691
  459TMC3    C4 6833   3.141   0.842  12.787  0.8310 -0.5725 -0.7469
  459TMC3    C5 6834   3.196   0.941  12.864 -0.0889  0.5808  0.2923
  459TMC3    C6 6835   3.294   1.031  12.827 -0.1062  0.3341  0.3795
  459TMC3     C 6836   3.086   0.774  12.570 -0.1639 -0.1695  0.2125
  459TMC3     O 6837   3.065   0.824  12.458 -0.4699  0.0244 -0.1328
  459TMC3     H 6838   3.271   0.932  12.499  0.4393 -0.4159  0.4745
  459TMC3    H1 6839   3.045   0.800  12.814  0.4280  0.5055 -0.5166
  459TMC3    H2 6840   3.350   1.086  12.902  1.0423 -1.3867  0.7800
  459TMC3    C7 6841   3.189   0.910  13.007  0.3246 -0.2611 -0.0869
  459TMC3    C8 6842   3.412   1.122  12.628  0.1578 -0.1838 -0.0671
  459TMC3    O1 6843   3.139   0.802  13.034  0.1861 -0.1947 -1.0502
  459TMC3    O2 6844   3.455   1.083  12.519  0.0479 -0.2358  0.0264
  460MPD2     C 6845   2.108   2.983  10.470  0.2130 -0.6156  0.9300
  460MPD2    C1 6846   1.995   3.062  10.496 -0.4973  0.6930 -0.3795
  460MPD2    C2 6847   1.901   3.079  10.397 -0.1268  0.5295  0.5801
  460MPD2    C3 6848   1.924   3.026  10.273  0.7483  0.3003  0.2760
  460MPD2    C4 6849   2.032   2.941  10.257 -0.0002  0.1005 -0.2769
  460MPD2    C5 6850   2.124   2.914  10.350  0.1537  0.0576  0.2407
  460MPD2     H 6851   1.824   3.155  10.401  1.5830  2.3006  0.0269
  460MPD2    H1 6852   2.051   2.896  10.160 -1.2356 -0.8544 -0.0676
  460MPD2    H2 6853   2.178   2.977  10.552  0.8500  0.7101  0.4887
  460MPD2    H3 6854   2.198   2.835  10.345 -1.0254 -1.0641  0.5660
  460MPD2     N 6855   1.826   3.046  10.177 -0.2957 -0.0081  0.4894
  460MPD2    H5 6856   1.764   3.124  10.197 -0.2216  0.1272  0.1911
  460MPD2    N1 6857   1.974   3.112  10.625 -0.0853 -0.0109  0.1419
  460MPD2    H7 6858   2.045   3.075  10.688 -0.9709 -0.6848  0.7440
  461TMC3    C1 6859   1.700   3.020   9.980  0.1096  0.4513  0.2530
  461TMC3    C2 6860   1.631   2.930   9.914 -0.5182 -0.2444 -0.4180
  461TMC3    C3 6861   1.545   2.961   9.813  0.3653  0.1542 -1.0409
  461TMC3    C4 6862   1.680   3.152   9.959  1.1148  0.0873  0.0515
  461TMC3    C5 6863   1.595   3.192   9.861 -0.4417  0.0232  0.3937
  461TMC3    C6 6864   1.524   3.096   9.793  0.6701  0.0802  0.2069
  461TMC3     C 6865   1.803   2.969  10.072  0.3853 -0.4672  1.1990
  461TMC3     O 6866   1.843   2.856  10.049  0.4090  0.4583 -0.0395
  461TMC3     H 6867   1.640   2.825   9.940 -0.6433 -0.3108 -0.6460
  461TMC3    H1 6868   1.754   3.223   9.996  0.6236  0.3367  0.5475
  461TMC3    H2 6869   1.455   3.127   9.716 -1.6235  0.4348  2.4102
  461TMC3    C7 6870   1.543   3.332   9.866 -0.2296  0.1620  0.2594
  461TMC3    C8 6871   1.534   2.890   9.688 -0.3556 -0.5152 -0.0232
  461TMC3    O1 6872   1.476   3.364   9.768 -0.2160  0.0207 -0.0593
  461TMC3    O2 6873   1.475   2.941   9.596 -0.2697  0.2140  0.0969
  462TMC3    C1 6874   1.552   3.931   0.736  0.4141 -0.5262 -0.8069
  462TMC3    C2 6875   1.637   3.821   0.758 -0.1732 -0.6039 -0.2580
  462TMC3    C3 6876   1.648   3.728   0.660 -0.5209 -0.0198 -0.0216
  462TMC3    C4 6877   1.472   3.933   0.626 -0.2152  0.5159 -0.8562
  462TMC3    C5 6878   1.487   3.835   0.539 -0.1637 -0.3103 -0.1408
  462TMC3    C6 6879   1.579   3.737   0.545 -0.6010  0.6064 -0.0852
  462TMC3     C 6880   1.580   4.061   0.798 -0.0438 -0.0718 -0.4260
  462TMC3     O 6881   1.620   4.053   0.914 -0.4056 -0.3602  0.8812
  462TMC3     H 6882   1.707   3.808   0.839  0.0749 -1.1984 -0.5762
  462TMC3    H1 6883   1.391   4.005   0.623  0.9939  1.8984 -0.1054
  462TMC3    H2 6884   1.572   3.648   0.484 -4.1488  1.4658 -0.9263
  462TMC3    C7 6885   1.392   3.818   0.434  0.3602 -0.1533 -0.5746
  462TMC3    C8 6886   1.750   3.626   0.678 -0.5976  0.3285  0.5476
  462TMC3    O1 6887   1.407   3.717   0.364  0.4324  0.4293  0.6313
  462TMC3    O2 6888   1.767   3.585   0.789  0.1540 -0.8070 -0.1716
  463MPD2     C 6889   2.993   2.264   1.814 -0.1027 -0.5343 -0.1226
  463MPD2    C1 6890   2.868   2.330   1.799 -0.4871 -0.1345 -0.6434
  463MPD2    C2 6891   2.868   2.456   1.747  0.2717 -0.3289 -0.2661
  463MPD2    C3 6892   2.988   2.524   1.716  0.1436  0.5556 -0.4279
  463MPD2    C4 6893   3.102   2.457   1.729  0.1206  0.2439 -0.3042
  463MPD2    C5 6894   3.110   2.328   1.779 -0.0827  0.7172  0.0255
  463MPD2     H 6895   2.771   2.498   1.725  0.3304 -1.4495 -2.6187
  463MPD2    H1 6896   3.193   2.513   1.711 -1.3388  2.0158 -2.2521
  463MPD2    H2 6897   3.012   2.167   1.857  0.3635 -0.4890 -0.2330
  463MPD2    H3 6898   3.209   2.287   1.792 -0.4583  0.8846  3.4622
  463MPD2     N 6899   3.006   2.654   1.658 -0.3826  0.2234  0.4022
  463MPD2    H5 6900   3.095   2.675   1.614 -0.0719 -2.0006 -0.0614
  463MPD2    N1 6901   2.747   2.270   1.829  0.0960  0.2342  0.3424
  463MPD2    H7 6902   2.672   2.322   1.785 -0.0942 -0.0154  0.3682
  464TMC3    C1 6903   2.598   2.138   1.944  0.7127  0.0522  0.7619
  464TMC3    C2 6904   2.506   2.241   1.911 -0.8443  0.6021  1.2029
  464TMC3    C3 6905   2.376   2.205   1.891  0.2048  0.3510 -0.4918
  464TMC3    C4 6906   2.559   2.011   1.933  0.4748  0.4449  0.1504
  464TMC3    C5 6907   2.435   1.986   1.894  0.0772 -0.4297 -0.6961
  464TMC3    C6 6908   2.328   2.074   1.875  0.4571  0.4042 -0.4986
  464TMC3     C 6909   2.738   2.163   1.917 -0.1587  0.2933  0.6688
  464TMC3     O 6910   2.818   2.082   1.964 -0.4958  0.0045  0.2461
  464TMC3     H 6911   2.540   2.343   1.901 -3.0728  0.9763 -2.6920
  464TMC3    H1 6912   2.634   1.935   1.956 -1.0581 -1.9456 -2.7636
  464TMC3    H2 6913   2.232   2.050   1.832 -0.2021  0.6167  0.8833
  464TMC3    C7 6914   2.398   1.852   1.890 -0.0497  0.5107  0.1362
  464TMC3    C8 6915   2.287   2.320   1.857 -0.1890 -0.7814  0.3482
  464TMC3    O1 6916   2.460   1.774   1.960  0.0375  0.7774  0.3317
  464TMC3    O2 6917   2.341   2.429   1.845 -0.0900 -0.8505  0.2806
  465MPD2     C 6918   4.234   1.416  16.528  0.6617 -0.3265 -1.0940
  465MPD2    C1 6919   4.124   1.346  16.575  0.5240  0.3225  0.0805
  465MPD2    C2 6920   4.001   1.390  16.549 -0.3230 -0.3881 -0.5838
  465MPD2    C3 6921   3.969   1.499  16.464 -0.8311  0.0237 -0.1184
  465MPD2    C4 6922   4.078   1.571  16.420 -0.2041  0.3861 -0.3300
  465MPD2    C5 6923   4.204   1.527  16.449 -0.1011  0.1241  0.0600
  465MPD2     H 6924   3.925   1.327  16.595 -2.9426  3.7603  0.7947
  465MPD2    H1 6925   4.056   1.647  16.346 -0.1869  0.8896  0.1815
  465MPD2    H2 6926   4.339   1.391  16.538  0.4659 -0.2618  1.1122
  465MPD2    H3 6927   4.278   1.581  16.392 -0.6618  0.7386 -0.0813
  465MPD2     N 6928   3.843   1.525  16.422  0.9170  0.2283  0.0301
  465MPD2    H5 6929   3.770   1.477  16.473  1.9066  0.2946  1.5263
  465MPD2    N1 6930   4.136   1.228  16.655 -0.1209  0.0415  0.4284
  465MPD2    H7 6931   4.052   1.178  16.681  0.2143 -1.1351 -0.6889
  466TMC3    C1 6932   3.460   1.507  16.288  0.9796  0.7126 -0.1918
  466TMC3    C2 6933   3.414   1.606  16.199  0.1649  0.4673  0.2522
  466TMC3    C3 6934   3.494   1.707  16.177  0.2648 -0.1376  0.4369
  466TMC3    C4 6935   3.592   1.498  16.327  0.0316 -0.1795 -0.1831
  466TMC3    C5 6936   3.669   1.612  16.295  0.5472 -0.5340 -0.2102
  466TMC3    C6 6937   3.620   1.718  16.225  0.2391  0.5069  0.3284
  466TMC3     C 6938   3.369   1.433  16.381 -0.1756  0.1871 -0.3999
  466TMC3     O 6939   3.408   1.327  16.431  0.2605  0.4525  0.2878
  466TMC3     H 6940   3.308   1.610  16.175 -0.0898 -1.5794  1.0367
  466TMC3    H1 6941   3.633   1.414  16.382 -1.4802 -1.8870 -1.6574
  466TMC3    H2 6942   3.674   1.812  16.217  0.4723  0.3189 -0.2664
  466TMC3    C7 6943   3.806   1.623  16.329  0.1125 -1.1329 -0.1958
  466TMC3    C8 6944   3.417   1.834  16.177  1.2285  0.1589  0.1603
  466TMC3    O1 6945   3.871   1.704  16.267  0.0868  0.1152 -0.0165
  466TMC3    O2 6946   3.338   1.845  16.085 -0.4134  0.3789 -0.2986
  467TMC3    C1 6947   0.103   0.585  14.056 -0.4501  0.4875 -0.3541
  467TMC3    C2 6948   0.030   0.692  14.015  0.4448  0.2780 -0.2423
  467TMC3    C3 6949   4.662   0.676  13.916 -0.4388 -0.0955  0.6245
  467TMC3    C4 6950   0.073   0.463  14.010  0.2953  0.9460 -0.7740
  467TMC3    C5 6951   4.706   0.451  13.908 -0.2702  0.8998 -0.6736
  467TMC3    C6 6952   4.632   0.551  13.862 -0.5547  0.6512 -0.1202
  467TMC3     C 6953   0.241   0.619  14.053 -0.3521 -0.4403 -0.1260
  467TMC3     O 6954   0.317   0.532  14.087 -0.1830  0.0532 -0.1660
  467TMC3     H 6955   0.051   0.779  14.076  0.8013 -0.4029  0.5977
  467TMC3    H1 6956   0.117   0.373  14.051 -0.2277  0.6192 -0.9325
  467TMC3    H2 6957   4.553   0.531  13.789  0.3088 -2.9260 -0.0444
  467TMC3    C7 6958   4.652   0.316  13.889 -0.1757 -0.5695 -0.4327
  467TMC3    C8 6959   4.691   0.782  13.821  0.4223  0.6823  0.6864
  467TMC3    O1 6960   0.014   0.229  13.900 -0.6005 -0.3079 -0.0595
  467TMC3    O2 6961   0.047   0.865  13.864 -0.1794 -0.0858  0.1520
  468MPD2     C 6962   3.966   3.194  10.301 -0.1286 -0.1855  0.2745
  468MPD2    C1 6963   3.945   3.177  10.435  0.3979  0.3688  0.5625
  468MPD2    C2 6964   3.886   3.060  10.476  0.4387 -0.2391  0.3350
  468MPD2    C3 6965   3.858   2.960  10.389 -0.6598  0.1712  0.7571
  468MPD2    C4 6966   3.885   2.980  10.256 -0.6325 -0.0292  0.6071
  468MPD2    C5 6967   3.943   3.091  10.209 -0.1763 -1.0651 -0.0076
  468MPD2     H 6968   3.862   3.035  10.578 -0.8074  1.6151  0.4840
  468MPD2    H1 6969   3.872   2.897  10.188  1.0807 -0.7184  1.1380
  468MPD2    H2 6970   4.026   3.280  10.272 -0.1983  0.0387  0.7903
  468MPD2    H3 6971   3.970   3.114  10.106 -2.8574 -0.0296 -0.4752
  468MPD2     N 6972   3.817   2.825  10.423 -0.3863 -0.0721 -0.0208
  468MPD2    H5 6973   3.806   2.767  10.341 -0.9607 -0.8018  0.5594
  468MPD2    N1 6974   3.969   3.278  10.529  0.3226  0.0602 -0.1311
  468MPD2    H7 6975   3.970   3.258  10.628 -2.6252  0.9216  0.0828
  469TMC3    C1 6976   4.037   3.472  10.622 -0.3457  0.6760  0.4560
  469TMC3    C2 6977   4.114   3.400  10.714 -0.1103  0.1763  0.1020
  469TMC3    C3 6978   4.145   3.475  10.826 -0.8508 -0.1436  0.4328
  469TMC3    C4 6979   3.981   3.595  10.628 -0.7343 -0.6993  0.1956
  469TMC3    C5 6980   4.026   3.662  10.734 -0.2887 -0.8272  0.0551
  469TMC3    C6 6981   4.111   3.606  10.826 -0.5867 -0.0645  0.5353
  469TMC3     C 6982   4.017   3.402  10.499  0.1858  0.4086 -0.0428
  469TMC3     O 6983   3.993   3.474  10.404  0.2350  0.1593  0.0845
  469TMC3     H 6984   4.155   3.300  10.703 -1.0875 -0.4552  2.1090
  469TMC3    H1 6985   3.915   3.624  10.547  0.7232  0.6834 -0.4899
  469TMC3    H2 6986   4.148   3.671  10.904 -0.7017  0.7192 -0.0587
  469TMC3    C7 6987   3.926   3.754  10.787  0.3493  0.6820 -0.6224
  469TMC3    C8 6988   4.148   3.424  10.958 -0.4839  0.5366 -0.1598
  469TMC3    O1 6989   3.819   3.754  10.731 -0.0154  0.0394 -0.4812
  469TMC3    O2 6990   4.089   3.491  11.040  0.0793  0.3528  0.1133
  470TMC3    C1 6991   2.011   4.696   0.371 -0.7607  0.0554  0.3258
  470TMC3    C2 6992   2.019   0.075   0.460  0.0091 -0.1546  0.1809
  470TMC3    C3 6993   2.010   0.036   0.595 -0.7573  0.6941  0.3805
  470TMC3    C4 6994   1.983   4.568   0.400 -0.7048  0.1681 -0.4244
  470TMC3    C5 6995   1.987   4.535   0.527  0.2104  0.7178  0.1295
  470TMC3    C6 6996   2.005   4.625   0.631  0.2695 -0.0210 -0.4942
  470TMC3     C 6997   2.030   0.005   0.230 -0.1220  0.2094  0.2493
  470TMC3     O 6998   2.001   4.637   0.154 -0.2934  0.3088 -0.2266
  470TMC3     H 6999   2.021   0.180   0.434 -0.5530 -0.0438  0.5929
  470TMC3    H1 7000   1.978   4.494   0.320 -2.3702  0.1243 -0.2625
  470TMC3    H2 7001   1.993   4.602   0.736  2.4375  1.6007  0.1273
  470TMC3    C7 7002   1.989   4.387   0.554  0.3952 -0.1223 -0.1678
  470TMC3    C8 7003   1.983   0.137   0.693 -0.7649  0.4514  0.5883
  470TMC3    O1 7004   1.989   4.315   0.456 -0.2812 -0.0070  0.0186
  470TMC3    O2 7005   1.929   0.244   0.659 -0.1263 -0.1352  0.9064
  471MPD2     C 7006   1.788   0.985  16.832  0.1621  0.1242 -0.6649
  471MPD2    C1 7007   1.837   0.858  16.799 -0.1544 -0.0434 -0.4394
  471MPD2    C2 7008   1.959   0.826  16.859 -0.2855 -0.5148  0.1716
  471MPD2    C3 7009   2.022   0.904  16.953  0.1255 -0.6784  0.0520
  471MPD2    C4 7010   1.964   1.022  16.988  0.3212 -0.6260  0.1180
  471MPD2    C5 7011   1.847   1.062  16.931 -0.3990 -0.0000  0.1135
  471MPD2     H 7012   2.004   0.733  16.826 -1.3062 -0.9601  0.0166
  471MPD2    H1 7013   2.010   1.098  17.049  1.4499 -1.0575 -0.1920
  471MPD2    H2 7014   1.696   1.015  16.783 -1.4501 -1.6601  1.2932
  471MPD2    H3 7015   1.811   1.162  16.948  1.1442  0.8757 -1.6630
  471MPD2     N 7016   2.140   0.860  17.016  0.8917 -0.0742 -0.2421
  471MPD2    H5 7017   2.166   0.904  17.104 -1.9011 -0.4105  0.7478
  471MPD2    N1 7018   1.781   0.762  16.715  0.0527  0.0440  0.2831
  471MPD2    H7 7019   1.812   0.666  16.729  0.8430 -0.0504 -2.1452
  472TMC3    C1 7020   1.611   0.675  16.567  0.5998  0.4073 -0.5201
  472TMC3    C2 7021   1.521   0.699  16.470  0.4895  0.3942  0.2874
  472TMC3    C3 7022   1.438   0.592  16.438  0.3362  0.4520 -0.4131
  472TMC3    C4 7023   1.652   0.545  16.596  0.6884 -0.6113  0.2564
  472TMC3    C5 7024   1.586   0.439  16.535  0.0456  0.6943 -0.3718
  472TMC3    C6 7025   1.469   0.464  16.468 -0.2798  1.1550 -0.8908
  472TMC3     C 7026   1.674   0.795  16.630 -0.3178 -0.5409  0.5486
  472TMC3     O 7027   1.637   0.900  16.586 -0.0414 -0.3876  0.1962
  472TMC3     H 7028   1.483   0.800  16.467  1.8211  0.8872  0.1841
  472TMC3    H1 7029   1.738   0.524  16.659  1.1163 -1.0861 -0.4891
  472TMC3    H2 7030   1.396   0.386  16.447  1.0454  0.1080 -1.5807
  472TMC3    C7 7031   1.621   0.303  16.574 -0.4779  0.2082 -0.4146
  472TMC3    C8 7032   1.310   0.629  16.370 -0.4736  0.4477  0.6958
  472TMC3    O1 7033   1.676   0.287  16.683 -0.0434  0.2704  0.2983
  472TMC3    O2 7034   1.301   0.748  16.342  0.1862 -0.4064 -0.1978
  473MPD2     C 7035   1.408   2.292  14.203 -0.0039 -0.1802 -0.4827
  473MPD2    C1 7036   1.489   2.364  14.116  0.6796 -0.2909  0.0196
  473MPD2    C2 7037   1.552   2.476  14.167  0.1525  0.4026  0.6497
  473MPD2    C3 7038   1.540   2.514  14.305 -0.7611 -0.6806  0.1516
  473MPD2    C4 7039   1.453   2.449  14.388  0.1192  0.1663 -0.5763
  473MPD2    C5 7040   1.387   2.338  14.338  0.3006  0.2908 -0.0679
  473MPD2     H 7041   1.616   2.538  14.105 -0.5621 -0.3319 -0.8140
  473MPD2    H1 7042   1.447   2.489  14.488 -0.6660  1.8570 -1.3021
  473MPD2    H2 7043   1.349   2.205  14.175 -1.2298  0.4742  0.0437
  473MPD2    H3 7044   1.327   2.279  14.406  0.2907 -0.6390 -0.8775
  473MPD2     N 7045   1.607   2.628  14.354 -0.2601 -0.0282  0.1555
  473MPD2    H5 7046   1.574   2.664  14.444 -1.3204 -1.9459  0.5338
  473MPD2    N1 7047   1.496   2.345  13.978  0.4031  0.1405 -0.0590
  473MPD2    H7 7048   1.546   2.420  13.930 -2.0078  0.7437 -1.6188
  474TMC3    C1 7049   1.764   2.790  14.363  0.2787 -0.0756 -0.3741
  474TMC3    C2 7050   1.674   2.865  14.428 -0.7720  0.5278  0.4537
  474TMC3    C3 7051   1.719   2.957  14.526  0.2290 -0.0157  0.7857
  474TMC3    C4 7052   1.889   2.795  14.403  0.6261 -0.4576  0.2876
  474TMC3    C5 7053   1.930   2.869  14.504  0.3370  0.5254  0.0768
  474TMC3    C6 7054   1.852   2.968  14.562 -0.1049  0.1961 -0.0564
  474TMC3     C 7055   1.721   2.679  14.294  0.6977 -0.8732 -0.0526
  474TMC3     O 7056   1.791   2.628  14.210  0.1770 -0.5745  0.4257
  474TMC3     H 7057   1.567   2.867  14.409 -0.8233 -1.7592  0.4764
  474TMC3    H1 7058   1.960   2.724  14.362 -0.9791 -1.1555 -1.3151
  474TMC3    H2 7059   1.875   3.049  14.630  0.1792 -0.1137  0.2206
  474TMC3    C7 7060   2.068   2.876  14.520  0.9200 -0.1026  0.1627
  474TMC3    C8 7061   1.620   3.058  14.559 -0.4241  0.0799  0.4752
  474TMC3    O1 7062   2.145   2.851  14.426 -0.3257  0.2185 -0.0070
  474TMC3    O2 7063   1.609   3.094  14.677  0.3807 -0.0570 -0.3306
  475MPD2     C 7064   0.474   0.578   9.921 -0.6258  0.4451 -0.4456
  475MPD2    C1 7065   0.515   0.686   9.993  0.3175 -1.0996 -0.1589
  475MPD2    C2 7066   0.435   0.736  10.095 -0.6287  0.6592 -0.4822
  475MPD2    C3 7067   0.308   0.681  10.119 -0.1332 -0.5421 -0.1668
  475MPD2    C4 7068   0.268   0.575  10.042 -0.0115 -0.7113 -0.2419
  475MPD2    C5 7069   0.356   0.527   9.945  0.1932  1.1854  0.0112
  475MPD2     H 7070   0.485   0.804  10.163  0.2928 -1.2201  0.6867
  475MPD2    H1 7071   0.170   0.532  10.062 -0.0139 -1.1958 -1.2857
  475MPD2    H2 7072   0.537   0.539   9.842 -2.3660 -0.9766 -1.1456
  475MPD2    H3 7073   0.341   0.434   9.891  0.4248  1.7407 -1.0038
  475MPD2     N 7074   0.225   0.742  10.219  0.1377 -0.1340 -0.5723
  475MPD2    H5 7075   0.268   0.815  10.275 -1.1553 -0.5968  1.0631
  475MPD2    N1 7076   0.631   0.745   9.943 -0.0709 -0.9586  0.5391
  475MPD2    H7 7077   0.673   0.686   9.872  0.1258  0.5838 -0.6284
  476TMC3    C1 7078   0.585   0.986  10.003 -0.0497 -0.6868 -0.0386
  476TMC3    C2 7079   0.458   0.988   9.959  0.0514  0.0857 -0.0830
  476TMC3    C3 7080   0.385   1.105   9.947  0.0729  0.1784  0.1269
  476TMC3    C4 7081   0.646   1.099  10.041 -0.3742  0.1397  0.2068
  476TMC3    C5 7082   0.575   1.212  10.051 -0.1121 -0.4866  0.5494
  476TMC3    C6 7083   0.441   1.212  10.013 -0.0375 -0.5340 -0.6095
  476TMC3     C 7084   0.673   0.875   9.955  0.0696  0.1956  0.4055
  476TMC3     O 7085   0.781   0.919   9.923 -0.5142 -0.2810 -0.1743
  476TMC3     H 7086   0.420   0.900   9.908  2.3746 -0.7592 -0.3346
  476TMC3    H1 7087   0.750   1.105  10.072 -0.5386  2.0243  0.3613
  476TMC3    H2 7088   0.384   1.303  10.027 -3.7802 -2.9155 -0.4010
  476TMC3    C7 7089   0.628   1.331  10.115 -0.5995 -0.5070 -0.6660
  476TMC3    C8 7090   0.241   1.099   9.945  0.6639 -0.6589  0.2983
  476TMC3    O1 7091   0.739   1.353  10.074  0.1216 -0.6295 -0.2021
  476TMC3    O2 7092   0.179   1.204   9.945 -0.6823 -0.1702  0.1440
  477MPD2     C 7093   2.623   2.863  11.808 -0.0695 -0.2148  0.3030
  477MPD2    C1 7094   2.551   2.765  11.736 -0.8467 -0.3750 -0.5433
  477MPD2    C2 7095   2.540   2.633  11.790  0.7251  0.2675  0.1262
  477MPD2    C3 7096   2.573   2.618  11.924 -0.0411  0.5492  0.0978
  477MPD2    C4 7097   2.647   2.717  11.987 -0.2260  0.5972  0.0412
  477MPD2    C5 7098   2.672   2.838  11.929 -0.1027  0.1637  0.4312
  477MPD2     H 7099   2.485   2.559  11.733 -0.4048  1.3418 -0.1749
  477MPD2    H1 7100   2.692   2.692  12.082  1.0209  0.1909 -0.6542
  477MPD2    H2 7101   2.641   2.961  11.765 -1.3661  0.7499  1.9710
  477MPD2    H3 7102   2.737   2.909  11.979  0.7014  1.1742 -2.0489
  477MPD2     N 7103   2.528   2.500  11.986 -0.2141  0.4036 -0.3941
  477MPD2    H5 7104   2.485   2.425  11.932 -0.2685  0.5952 -0.6169
  477MPD2    N1 7105   2.498   2.804  11.610  0.3302 -0.2603  0.1032
  477MPD2    H7 7106   2.494   2.905  11.604 -1.6713 -0.2597  1.3689
  478TMC3    C1 7107   2.404   2.822  11.393 -0.5454 -0.2034 -0.9469
  478TMC3    C2 7108   2.307   2.899  11.444 -0.1373 -0.1714 -0.1015
  478TMC3    C3 7109   2.206   2.948  11.369  0.1114  0.5172 -0.2151
  478TMC3    C4 7110   2.396   2.782  11.266 -0.2707 -0.2970  0.8568
  478TMC3    C5 7111   2.294   2.823  11.183 -0.4610  0.1968  0.6098
  478TMC3    C6 7112   2.204   2.917  11.233  0.3061  0.2236 -1.1643
  478TMC3     C 7113   2.470   2.736  11.496  0.4097  0.1845 -0.4996
  478TMC3     O 7114   2.508   2.622  11.469 -0.4249 -0.4074  0.2758
  478TMC3     H 7115   2.291   2.907  11.551  0.2930 -0.5065 -0.0153
  478TMC3    H1 7116   2.455   2.698  11.233 -0.8243  0.1741 -1.3896
  478TMC3    H2 7117   2.135   2.962  11.162 -0.8948  2.0068  1.1434
  478TMC3    C7 7118   2.291   2.785  11.035  0.0232 -0.5753 -0.0117
  478TMC3    C8 7119   2.101   3.028  11.424 -0.4726 -0.4699 -0.0533
  478TMC3    O1 7120   2.396   2.748  10.980  0.1138  0.1467 -0.3107
  478TMC3    O2 7121   2.009   3.060  11.351  0.0035  0.2110  0.2378
  479MPD2     C 7122   1.716   4.487  14.990 -0.4271 -0.0581  0.6550
  479MPD2    C1 7123   1.640   4.457  15.103  0.1091  0.3216  0.0685
  479MPD2    C2 7124   1.703   4.471  15.222  0.6772 -0.6574  0.2548
  479MPD2    C3 7125   1.827   4.530  15.241 -0.3792 -0.7337  0.2407
  479MPD2    C4 7126   1.897   4.554  15.123  0.7138 -0.2735  0.0964
  479MPD2    C5 7127   1.843   4.530  15.001  0.2547 -0.7064 -0.0640
  479MPD2     H 7128   1.648   4.436  15.309  1.0269  0.1133  0.7886
  479MPD2    H1 7129   1.996   4.598  15.119 -0.0461  1.6107  1.6125
  479MPD2    H2 7130   1.686   4.467  14.888 -2.4726  0.0672  1.2303
  479MPD2    H3 7131   1.895   4.558  14.909  0.0092  2.1282  0.6522
  479MPD2     N 7132   1.890   4.559  15.368 -0.3434  0.1519 -0.1189
  479MPD2    H5 7133   1.991   4.568  15.360 -0.5112  0.0609 -2.3495
  479MPD2    N1 7134   1.508   4.434  15.084  0.5110 -0.1619 -0.0239
  479MPD2    H7 7135   1.477   4.424  14.988 -0.2418  1.3281  0.0583
  480TMC3    C1 7136   1.492   4.521  15.608  0.2349 -0.2997  0.4306
  480TMC3    C2 7137   1.423   4.610  15.524  0.4068  0.7556 -0.1064
  480TMC3    C3 7138   1.496   4.687  15.438  0.2486  0.5425 -0.7330
  480TMC3    C4 7139   1.626   4.506  15.601 -1.3200 -0.4005  0.6531
  480TMC3    C5 7140   1.694   4.579  15.507  0.5193 -0.2219  0.3145
  480TMC3    C6 7141   1.627   4.669  15.418  0.1562  0.5525 -0.0343
  480TMC3     C 7142   1.426   4.435  15.704  0.9056 -0.1652  0.0160
  480TMC3     O 7143   1.498   4.351  15.753  0.1011  0.1232 -0.2278
  480TMC3     H 7144   1.324   4.584  15.487 -0.4188  3.3016  0.3154
  480TMC3    H1 7145   1.680   4.452  15.678  0.5467  2.4859  1.3720
  480TMC3    H2 7146   1.682   0.009  15.350  0.9846  0.6181  0.6907
  480TMC3    C7 7147   1.830   4.560  15.492 -0.0508 -0.3723 -0.2658
  480TMC3    C8 7148   1.417   0.023  15.334 -0.7652 -0.6473 -0.7041
  480TMC3    O1 7149   1.889   4.588  15.597 -0.5376 -0.5871 -0.4707
  480TMC3    O2 7150   1.302   0.055  15.364  0.3421  0.7665 -0.4586
  481MPD2     C 7151   2.925   4.010  14.073  0.4869  0.4879  0.2602
  481MPD2    C1 7152   2.811   3.999  14.146  0.6247 -0.5328 -0.0307
  481MPD2    C2 7153   2.823   3.983  14.285 -0.1013  0.5013  0.4031
  481MPD2    C3 7154   2.950   3.976  14.339 -0.2925  1.1916  0.7301
  481MPD2    C4 7155   3.062   3.991  14.263 -0.2165 -0.2040 -0.4301
  481MPD2    C5 7156   3.047   4.009  14.130 -0.3029 -0.4724 -0.5947
  481MPD2     H 7157   2.738   3.956  14.348 -0.4732 -2.3046 -1.3312
  481MPD2    H1 7158   3.163   3.989  14.304  0.2195  2.1750 -1.3405
  481MPD2    H2 7159   2.919   4.036  13.968  2.1582 -0.8424 -0.1684
  481MPD2    H3 7160   3.133   4.023  14.065 -0.5047 -0.3016 -0.8270
  481MPD2     N 7161   2.974   3.932  14.469 -0.0487  0.1578  0.1232
  481MPD2    H5 7162   3.071   3.932  14.499  0.6004  0.5949 -1.9811
  481MPD2    N1 7163   2.687   3.994  14.081  0.6428  0.2770 -0.1611
  481MPD2    H7 7164   2.681   4.004  13.981 -2.9259  0.4146  0.0549
  482TMC3    C1 7165   2.461   3.964  14.049  0.5491 -0.4154  0.2782
  482TMC3    C2 7166   2.370   3.864  14.056 -0.3107  0.5607 -0.5080
  482TMC3    C3 7167   2.273   3.861  13.952 -0.5642 -0.9351  0.5286
  482TMC3    C4 7168   2.446   4.062  13.956  0.0453  1.1442  0.0159
  482TMC3    C5 7169   2.351   4.055  13.857 -0.0515 -0.2841 -0.3616
  482TMC3    C6 7170   2.266   3.951  13.847  0.4238  0.1603  0.8023
  482TMC3     C 7171   2.568   3.962  14.140 -0.2973  0.3610 -0.2562
  482TMC3     O 7172   2.554   3.897  14.245 -0.0509 -0.0308 -0.3719
  482TMC3     H 7173   2.367   3.786  14.132  0.5214 -0.7928 -1.8534
  482TMC3    H1 7174   2.504   4.153  13.966  0.3712  0.7250  2.0168
  482TMC3    H2 7175   2.201   3.933  13.762  0.9096  3.2714 -0.2226
  482TMC3    C7 7176   2.352   4.167  13.770 -0.2548 -0.8152 -0.7853
  482TMC3    C8 7177   2.208   3.733  13.936 -0.4393  0.3539  0.2159
  482TMC3    O1 7178   2.376   4.277  13.813  0.1222 -0.2664  0.9704
  482TMC3    O2 7179   2.287   3.638  13.945 -0.0965  0.1131  0.4650
  483TMC3    C1 7180   0.212   2.604   0.319  0.5512 -0.2500 -0.1205
  483TMC3    C2 7181   0.249   2.706   0.234 -0.4386 -0.6996 -0.6026
  483TMC3    C3 7182   0.376   2.760   0.244 -0.9978  0.0976 -0.0660
  483TMC3    C4 7183   0.303   2.535   0.392 -0.2588  0.0557  0.3426
  483TMC3    C5 7184   0.430   2.587   0.390 -1.3357 -0.3867  0.0403
  483TMC3    C6 7185   0.472   2.697   0.317 -0.8232 -0.1401  0.2819
  483TMC3     C 7186   0.071   2.573   0.314 -0.1921 -0.4194 -0.0637
  483TMC3     O 7187   4.723   2.604   0.223 -0.1937  0.4543 -0.0182
  483TMC3     H 7188   0.169   2.754   0.179  0.6663  1.6521 -0.1747
  483TMC3    H1 7189   0.276   2.435   0.426  0.1418 -0.2769 -0.3162
  483TMC3    H2 7190   0.576   2.730   0.323  0.1982 -2.5276 -4.4600
  483TMC3    C7 7191   0.532   2.513   0.451  0.3702 -0.0796  0.0765
  483TMC3    C8 7192   0.422   2.865   0.152 -0.2383  0.0438 -0.3101
  483TMC3    O1 7193   0.649   2.550   0.424  0.2597 -0.4294  0.3777
  483TMC3    O2 7194   0.537   2.897   0.161 -0.5258  0.4321 -0.7021
  484MPD2     C 7195   3.437   1.477  12.721  0.2756 -1.1331  0.6612
  484MPD2    C1 7196   3.452   1.366  12.642  0.5871 -0.6778  0.5335
  484MPD2    C2 7197   3.525   1.377  12.528 -0.0988 -0.0003 -0.5205
  484MPD2    C3 7198   3.569   1.508  12.490 -0.1257  0.3556  0.5920
  484MPD2    C4 7199   3.535   1.623  12.562  0.3133 -0.1091  0.2660
  484MPD2    C5 7200   3.456   1.609  12.675 -1.0751 -1.0389  0.7922
  484MPD2     H 7201   3.555   1.285  12.479  0.4038  0.5666 -1.2771
  484MPD2    H1 7202   3.569   1.719  12.523 -1.5847  0.4356 -0.0403
  484MPD2    H2 7203   3.380   1.467  12.813  1.5397 -1.1983  1.4380
  484MPD2    H3 7204   3.419   1.695  12.731  2.0345  1.6171 -1.2287
  484MPD2     N 7205   3.656   1.528  12.379 -0.6058  0.8323 -0.6591
  484MPD2    H5 7206   3.683   1.619  12.344 -0.7384  1.0188 -0.2760
  484MPD2    N1 7207   3.403   1.250  12.693 -0.2242 -0.4915 -0.3185
  484MPD2    H7 7208   3.347   1.249  12.778  0.6103 -0.4833  0.2293
  485TMC3    C1 7209   3.786   1.487  12.188  0.1000  0.4571  0.6307
  485TMC3    C2 7210   3.912   1.433  12.186  0.1180 -0.2670  0.3754
  485TMC3    C3 7211   4.021   1.516  12.177 -0.4623 -0.0210 -0.4706
  485TMC3    C4 7212   3.767   1.623  12.173  0.4215  0.7564  0.1236
  485TMC3    C5 7213   3.877   1.699  12.160  0.6038  0.0194 -0.5578
  485TMC3    C6 7214   4.000   1.649  12.164  0.1878  0.5246 -0.6943
  485TMC3     C 7215   3.703   1.429  12.294  0.0062  0.4893 -0.2873
  485TMC3     O 7216   3.696   1.309  12.289  0.3116 -0.0572 -0.6144
  485TMC3     H 7217   3.923   1.325  12.186 -0.0047 -0.2800  0.7768
  485TMC3    H1 7218   3.671   1.672  12.164  0.3224  0.3106 -1.2542
  485TMC3    H2 7219   4.085   1.717  12.157 -0.3555  1.0151 -2.5015
  485TMC3    C7 7220   3.871   1.798  12.049 -0.6353 -0.0474  0.1140
  485TMC3    C8 7221   4.128   1.477  12.083  0.1134 -0.3458 -0.2495
  485TMC3    O1 7222   3.774   1.873  12.037 -0.2491  0.5884 -0.1170
  485TMC3    O2 7223   4.160   1.567  12.009  0.2466 -0.3411 -0.0844
  486MPD2     C 7224   1.278   4.644  12.721 -0.9435 -0.2204  0.1996
  486MPD2    C1 7225   1.174   4.622  12.633  0.1272 -0.2198  0.6107
  486MPD2    C2 7226   1.116   0.005  12.564  0.0827  0.2654 -0.0969
  486MPD2    C3 7227   1.146   0.132  12.590  0.6632 -0.1346 -0.1313
  486MPD2    C4 7228   1.250   0.162  12.680  0.0799  0.2476 -0.2811
  486MPD2    C5 7229   1.317   0.053  12.739 -0.1742  0.1986  0.4554
  486MPD2     H 7230   1.047   4.713  12.481 -1.1508  2.9651  0.4532
  486MPD2    H1 7231   1.280   0.262  12.710  0.0493  0.2001 -0.0913
  486MPD2    H2 7232   1.334   4.565  12.769  3.1572  1.9596 -0.9249
  486MPD2    H3 7233   1.411   0.070  12.791  0.6217 -2.6342 -0.0434
  486MPD2     N 7234   1.064   0.231  12.525 -0.1515  0.1051  0.1203
  486MPD2    H5 7235   0.997   0.213  12.451  0.4630 -0.7425 -0.2433
  486MPD2    N1 7236   1.134   4.487  12.603 -0.1030  0.0922 -0.2328
  486MPD2    H7 7237   1.181   4.408  12.646  0.2464  0.2696 -0.2819
  487TMC3    C1 7238   1.003   4.312  12.531 -0.4620  0.2332 -0.2024
  487TMC3    C2 7239   0.881   4.260  12.555 -0.0922 -0.8493 -0.7656
  487TMC3    C3 7240   0.859   4.130  12.533 -0.1209 -0.6515 -0.5045
  487TMC3    C4 7241   1.112   4.235  12.492 -1.0329 -0.2639  0.1686
  487TMC3    C5 7242   1.085   4.099  12.468 -0.5400  0.1016 -0.6085
  487TMC3    C6 7243   0.956   4.050  12.472  0.4047  0.3907  0.6010
  487TMC3     C 7244   1.015   4.452  12.546  0.3817  1.1102  0.9416
  487TMC3     O 7245   0.911   4.516  12.533 -0.0275  0.4750  0.5389
  487TMC3     H 7246   0.807   4.326  12.599  2.4952  2.2363 -1.0166
  487TMC3    H1 7247   1.215   4.270  12.484 -1.2682  0.5446  0.6953
  487TMC3    H2 7248   0.938   3.944  12.459 -1.6617  0.9050 -0.7310
  487TMC3    C7 7249   1.186   4.012  12.523  0.0684  0.0593  0.2341
  487TMC3    C8 7250   0.772   4.075  12.637 -0.7589  0.2466  0.4438
  487TMC3    O1 7251   1.264   4.058  12.608  0.4071 -0.1509 -0.1798
  487TMC3    O2 7252   0.697   4.153  12.697 -0.2603 -0.2244 -0.3106
  488MPD2     C 7253   1.063   1.785  16.642  0.0736 -0.3717 -0.4915
  488MPD2    C1 7254   1.123   1.911  16.654 -0.0202 -0.1650 -0.5757
  488MPD2    C2 7255   1.174   1.935  16.773  0.8650  0.2235  0.7279
  488MPD2    C3 7256   1.175   1.843  16.878  0.3214  0.1773  0.5840
  488MPD2    C4 7257   1.106   1.722  16.867 -0.2913 -0.3214  0.1187
  488MPD2    C5 7258   1.056   1.698  16.742 -0.1293 -0.2533 -0.0128
  488MPD2     H 7259   1.221   2.030  16.797 -1.0066  1.2187  0.4630
  488MPD2    H1 7260   1.096   1.646  16.944  0.5329 -1.4533 -0.9098
  488MPD2    H2 7261   1.020   1.754  16.547 -0.6533 -1.7351  0.2909
  488MPD2    H3 7262   0.999   1.606  16.734 -0.9049  0.3922 -2.0461
  488MPD2     N 7263   1.238   1.887  17.000 -0.8060 -0.3991 -0.1145
  488MPD2    H5 7264   1.285   1.977  16.994  1.3637 -1.6538 -1.6745
  488MPD2    N1 7265   1.136   2.007  16.550  0.4244 -0.4811 -0.0965
  488MPD2    H7 7266   1.189   2.088  16.579  0.6377 -0.1213 -1.5015
  489TMC3    C1 7267   1.255   1.914  17.239 -0.1523  0.0659 -0.0300
  489TMC3    C2 7268   1.261   2.051  17.205  0.6999  0.0439  0.1203
  489TMC3    C3 7269   1.297   2.141  17.306  0.0452  0.1737  0.5015
  489TMC3    C4 7270   1.230   1.882  17.367 -0.3188 -0.0656 -0.0695
  489TMC3    C5 7271   1.252   1.979  17.464  0.6445 -0.2701  0.6377
  489TMC3    C6 7272   1.296   2.108  17.431 -0.3061  0.0078  0.6114
  489TMC3     C 7273   1.231   1.823  17.124  0.0656 -0.0174 -0.3551
  489TMC3     O 7274   1.204   1.705  17.143  0.0855 -0.2378 -0.4185
  489TMC3     H 7275   1.254   2.088  17.103  0.8957 -0.6771 -0.1511
  489TMC3    H1 7276   1.198   1.783  17.396 -1.1819  0.3437  0.3856
  489TMC3    H2 7277   1.315   2.174  17.515 -0.2524 -0.0637  0.6547
  489TMC3    C7 7278   1.215   1.942  17.603  0.3528  0.6159 -0.4777
  489TMC3    C8 7279   1.356   2.267  17.272  0.1988  0.1297  0.1078
  489TMC3    O1 7280   1.198   1.821  17.630 -1.0914 -0.2354  0.3528
  489TMC3    O2 7281   1.382   2.276  17.151  0.5601 -0.3876 -0.0773
  490MPD2     C 7282   1.780   1.326  17.315  0.7677  0.0449 -0.3199
  490MPD2    C1 7283   1.841   1.264  17.424 -0.2371 -0.2478  0.3145
  490MPD2    C2 7284   1.921   1.339  17.507  0.3078 -0.1614  0.2961
  490MPD2    C3 7285   1.950   1.469  17.479 -0.1824 -0.4179  0.1753
  490MPD2    C4 7286   1.896   1.528  17.369 -0.0439 -0.0722 -0.0535
  490MPD2    C5 7287   1.812   1.455  17.287  0.2556  0.2538 -0.1069
  490MPD2     H 7288   1.969   1.291  17.592 -0.5028 -1.9361 -0.2490
  490MPD2    H1 7289   1.925   1.627  17.334  0.6144 -1.1272 -2.5435
  490MPD2    H2 7290   1.716   1.273  17.245 -0.0348  0.2965  0.2319
  490MPD2    H3 7291   1.766   1.500  17.200 -0.3330 -0.0364  0.0498
  490MPD2     N 7292   2.057   1.537  17.539 -0.5777  0.0313  0.4583
  490MPD2    H5 7293   2.084   1.626  17.500 -0.4867  0.2808  1.0822
  490MPD2    N1 7294   1.832   1.123  17.452  0.5281 -0.0397 -0.2553
  490MPD2    H7 7295   1.877   1.096  17.539 -0.3074 -1.0817 -0.1533
  491TMC3    C1 7296   1.785   0.894  17.413  0.1531 -0.6148  0.0716
  491TMC3    C2 7297   1.707   0.884  17.523  0.3446 -0.5428  0.4776
  491TMC3    C3 7298   1.610   0.784  17.527 -0.3687 -0.3753 -0.1057
  491TMC3    C4 7299   1.757   0.813  17.304 -0.3483  0.1499  0.1948
  491TMC3    C5 7300   1.658   0.719  17.317 -0.7231  1.1044 -0.2878
  491TMC3    C6 7301   1.595   0.685  17.431  0.5505  0.1314 -0.1068
  491TMC3     C 7302   1.790   1.030  17.363 -0.6936 -0.3161  0.4441
  491TMC3     O 7303   1.735   1.057  17.256  0.4220 -0.6816 -0.0710
  491TMC3     H 7304   1.712   0.967  17.591  0.8905 -0.5748  0.4778
  491TMC3    H1 7305   1.817   0.828  17.214 -0.3238 -3.0585 -0.3062
  491TMC3    H2 7306   1.515   0.613  17.436 -0.3546  1.2274  1.3216
  491TMC3    C7 7307   1.582   0.716  17.200 -0.9287  0.4721  0.5426
  491TMC3    C8 7308   1.532   0.775  17.642 -0.3910  0.1347  0.1197
  491TMC3    O1 7309   1.508   0.624  17.176  0.3026  0.2457  0.1210
  491TMC3    O2 7310   1.445   0.688  17.629  0.1657  0.3552 -0.1961
  492MPD2     C 7311   2.335   1.094  11.076  0.1095 -0.5976  0.1983
  492MPD2    C1 7312   2.215   1.074  11.013 -0.6586 -0.4242 -0.5366
  492MPD2    C2 7313   2.104   1.050  11.093 -0.5564  0.2197  0.3967
  492MPD2    C3 7314   2.121   1.036  11.233 -0.6298  0.5054  0.0899
  492MPD2    C4 7315   2.242   1.043  11.289  0.1967 -0.1370  0.6723
  492MPD2    C5 7316   2.349   1.081  11.214  0.0904 -0.0334 -0.1601
  492MPD2     H 7317   2.008   1.035  11.045 -0.3360  0.6418 -0.1646
  492MPD2    H1 7318   2.259   1.040  11.396  2.0319  0.8547  0.4203
  492MPD2    H2 7319   2.419   1.113  11.010 -0.5148  1.5471  0.0366
  492MPD2    H3 7320   2.449   1.092  11.254  0.5581 -1.9432 -0.8065
  492MPD2     N 7321   2.016   0.999  11.321  0.5379  0.6182  0.3651
  492MPD2    H5 7322   2.031   0.987  11.421 -0.3826 -2.6615  0.1136
  492MPD2    N1 7323   2.210   1.099  10.870  0.1886 -0.0518 -0.4358
  492MPD2    H7 7324   2.288   1.135  10.817  0.4740 -0.8943 -0.5963
  493TMC3    C1 7325   2.122   1.176  10.661 -0.7173  0.2459 -0.9098
  493TMC3    C2 7326   2.234   1.248  10.653  0.0161 -0.5968 -0.3059
  493TMC3    C3 7327   2.259   1.312  10.540 -0.3462  0.3291 -0.1571
  493TMC3    C4 7328   2.031   1.173  10.554  0.3240  0.2645 -0.1956
  493TMC3    C5 7329   2.062   1.236  10.443  0.4614  0.6588  0.0448
  493TMC3    C6 7330   2.183   1.303  10.430  0.3100 -0.1156 -0.6092
  493TMC3     C 7331   2.097   1.102  10.793 -0.1931  0.0504  0.0478
  493TMC3     O 7332   1.984   1.055  10.810 -0.0951  0.5310 -0.1832
  493TMC3     H 7333   2.286   1.289  10.738 -1.0506  0.5579 -0.2243
  493TMC3    H1 7334   1.944   1.109  10.558 -1.2629  2.4940  1.0218
  493TMC3    H2 7335   2.205   1.365  10.344 -1.3744 -0.5500 -1.3508
  493TMC3    C7 7336   1.977   1.223  10.328 -0.3595 -0.2888  0.3652
  493TMC3    C8 7337   2.389   1.374  10.525  0.0873  0.8430  0.2888
  493TMC3    O1 7338   1.856   1.200  10.347 -0.3347 -0.0579 -0.4045
  493TMC3    O2 7339   2.480   1.333  10.598  0.2298  0.0745  0.2234
  494TMC3    C1 7340   2.547   2.822   0.768  0.0268  0.1134  0.4209
  494TMC3    C2 7341   2.592   2.693   0.785  0.7771 -0.0535  0.6613
  494TMC3    C3 7342   2.653   2.630   0.680  1.2511  0.0705 -0.0920
  494TMC3    C4 7343   2.559   2.894   0.647  0.6390 -0.2688 -0.7289
  494TMC3    C5 7344   2.632   2.830   0.547 -1.0606  0.5917 -0.7189
  494TMC3    C6 7345   2.678   2.700   0.565  0.8140 -0.0063 -0.3124
  494TMC3     C 7346   2.500   2.878   0.891 -0.3975  0.3345  0.5222
  494TMC3     O 7347   2.481   2.803   0.983  0.2064 -0.2061 -0.1792
  494TMC3     H 7348   2.575   2.640   0.878 -1.7998 -0.6550 -0.1567
  494TMC3    H1 7349   2.502   2.986   0.634  2.2944  0.9073  0.4070
  494TMC3    H2 7350   2.731   2.650   0.486  3.0292  2.1958 -0.2143
  494TMC3    C7 7351   2.663   2.897   0.424  0.2279  0.7353 -0.2104
  494TMC3    C8 7352   2.650   2.489   0.672 -0.3740  0.2529  0.6060
  494TMC3    O1 7353   2.755   2.856   0.357 -0.5398 -0.0968  0.1442
  494TMC3    O2 7354   2.726   2.435   0.591 -0.1608 -0.0005  0.4056
  495TMC3    C1 7355   1.606   4.582  14.369 -0.2772  0.5707 -0.1053
  495TMC3    C2 7356   1.567   4.666  14.272  0.1898  0.5721 -0.1955
  495TMC3    C3 7357   1.498   0.051  14.316  0.0629 -0.8407 -0.6088
  495TMC3    C4 7358   1.609   4.611  14.505  0.3751 -0.6759  0.3118
  495TMC3    C5 7359   1.536   4.719  14.539  0.0264  0.4102  0.1452
  495TMC3    C6 7360   1.481   0.077  14.448 -0.4848  0.6276  0.2848
  495TMC3     C 7361   1.556   4.444  14.337 -0.7914 -0.1081  0.2370
  495TMC3     O 7362   1.466   4.441  14.254 -0.0592  0.5415  0.3334
  495TMC3     H 7363   1.557   4.632  14.170 -2.1897 -0.3809  0.3544
  495TMC3    H1 7364   1.639   4.533  14.575 -1.2232  0.4708  2.2700
  495TMC3    H2 7365   1.438   0.175  14.465 -1.7868  0.2190 -0.6181
  495TMC3    C7 7366   1.523   0.022  14.682 -0.0274 -0.4793 -0.0461
  495TMC3    C8 7367   1.406   0.104  14.215  0.5372 -1.0739  0.0504
  495TMC3    O1 7368   1.602   4.687  14.758 -0.6180 -0.1101 -0.3501
  495TMC3    O2 7369   1.435   0.093  14.093 -0.1838  0.0258  0.7525
  496MPD2     C 7370   2.911   0.331  15.273  0.3521 -0.1238 -0.4230
  496MPD2    C1 7371   2.992   0.252  15.353 -0.3161 -0.5848 -0.2428
  496MPD2    C2 7372   2.939   0.208  15.475 -0.0607  0.0693 -0.0987
  496MPD2    C3 7373   2.811   0.241  15.521  0.2993 -0.2834 -0.5058
  496MPD2    C4 7374   2.734   0.317  15.433  0.4850  0.4242  0.5401
  496MPD2    C5 7375   2.781   0.354  15.311  0.3858  0.5508  0.0322
  496MPD2     H 7376   3.001   0.151  15.544  0.1739 -0.9741 -1.1878
  496MPD2    H1 7377   2.630   0.341  15.454  0.2538 -0.2037  0.1211
  496MPD2    H2 7378   2.942   0.368  15.176 -1.5501  0.3142 -0.8589
  496MPD2    H3 7379   2.706   0.388  15.241  0.8222 -1.2368 -1.2925
  496MPD2     N 7380   2.752   0.185  15.638  0.0436 -0.1854  0.1877
  496MPD2    H5 7381   2.653   0.163  15.643  0.0488 -0.8977 -2.4623
  496MPD2    N1 7382   3.116   0.202  15.300  0.2880 -0.5220 -0.3362
  496MPD2    H7 7383   3.163   0.138  15.364  2.7584  2.2930  0.6584
  497TMC3    C1 7384   2.777   0.051  15.830 -0.7184 -0.1844  0.2379
  497TMC3    C2 7385   2.685   4.678  15.791  0.5938  0.3494  0.7415
  497TMC3    C3 7386   2.640   4.587  15.881 -0.1614  0.4433  0.0970
  497TMC3    C4 7387   2.808   0.073  15.958  0.0240 -0.2168 -0.2958
  497TMC3    C5 7388   2.746   4.706  16.047 -0.7363  0.2212 -0.5954
  497TMC3    C6 7389   2.666   4.599  16.014  0.5801 -0.2509 -0.3450
  497TMC3     C 7390   2.839   0.140  15.735 -0.8843 -0.1584  0.4630
  497TMC3     O 7391   2.941   0.199  15.761  0.5724 -0.4702 -0.0936
  497TMC3     H 7392   2.651   4.666  15.689  0.6066 -1.2127  0.9195
  497TMC3    H1 7393   2.850   0.166  15.995  2.4010 -0.5450 -2.1366
  497TMC3    H2 7394   2.627   4.540  16.096  1.4550 -0.2433  0.0755
  497TMC3    C7 7395   2.780   0.000  16.189  0.4419 -0.1543  0.2069
  497TMC3    C8 7396   2.521   4.511  15.853  0.3269 -1.0571 -0.7984
  497TMC3    O1 7397   2.713   4.656  16.270 -0.0990 -0.7962  0.3076
  497TMC3    O2 7398   2.484   4.427  15.935  0.1448 -0.1587 -0.4896
  498MPD2     C 7399   3.896   0.716   9.743 -0.1753 -0.1381  0.7630
  498MPD2    C1 7400   3.945   0.594   9.782 -0.6203  0.3663 -0.5488
  498MPD2    C2 7401   3.871   0.525   9.874 -1.3071 -0.7402 -0.1243
  498MPD2    C3 7402   3.761   0.584   9.936  0.1640  0.3575 -0.0206
  498MPD2    C4 7403   3.721   0.707   9.900  0.0901  0.2284  0.1622
  498MPD2    C5 7404   3.782   0.762   9.790 -0.2041  0.7439  0.6593
  498MPD2     H 7405   3.902   0.428   9.910 -0.0506  0.1348  1.1996
  498MPD2    H1 7406   3.654   0.769   9.960 -0.0602  0.1163  0.1112
  498MPD2    H2 7407   3.942   0.779   9.667  0.3882 -0.6868  0.6537
  498MPD2    H3 7408   3.753   0.865   9.774  0.2022  0.5859 -1.0826
  498MPD2     N 7409   3.687   0.501  10.029 -0.5878 -0.7525  0.2250
  498MPD2    H5 7410   3.688   0.401  10.019  2.0770 -0.8162  1.2236
  498MPD2    N1 7411   4.069   0.542   9.728  0.2064 -0.4139  0.2707
  498MPD2    H7 7412   4.101   0.455   9.770  1.0359 -0.4674 -0.4432
  499TMC3    C1 7413   4.282   0.545   9.615  0.4461  0.4400  0.2163
  499TMC3    C2 7414   4.308   0.417   9.651  0.0578 -0.5493 -0.2159
  499TMC3    C3 7415   4.439   0.370   9.649 -0.0150  0.2803  0.2086
  499TMC3    C4 7416   4.385   0.630   9.586  0.2272  0.3261  0.6419
  499TMC3    C5 7417   4.515   0.585   9.578 -0.6679 -0.5928 -0.2240
  499TMC3    C6 7418   4.543   0.453   9.619  0.6182 -0.3375 -0.2041
  499TMC3     C 7419   4.157   0.611   9.644 -1.0131 -0.8148 -0.1459
  499TMC3     O 7420   4.139   0.713   9.574  0.1314 -1.0749  0.4592
  499TMC3     H 7421   4.228   0.353   9.684 -1.0630  0.0431 -1.7511
  499TMC3    H1 7422   4.358   0.729   9.551  0.3043 -0.6129 -2.0875
  499TMC3    H2 7423   4.637   0.400   9.607  0.5022 -0.1943 -1.7411
  499TMC3    C7 7424   4.618   0.682   9.543 -0.8872 -0.1012  0.8529
  499TMC3    C8 7425   4.465   0.244   9.707  0.5283  0.0435 -0.6407
  499TMC3    O1 7426   4.587   0.759   9.456 -0.0077  0.0544  0.4561
  499TMC3    O2 7427   4.581   0.221   9.731  0.4748  0.6068 -0.7262
  500MPD2     C 7428   1.215   2.263  10.664 -0.9102  0.5371  0.6573
  500MPD2    C1 7429   1.232   2.317  10.540 -0.2876  0.1312  0.3304
  500MPD2    C2 7430   1.121   2.321  10.451  0.3687 -0.6953  0.2000
  500MPD2    C3 7431   0.995   2.273  10.479  0.2841  0.1182  0.6039
  500MPD2    C4 7432   0.983   2.234  10.610 -0.0841  0.2877 -0.3215
  500MPD2    C5 7433   1.086   2.226  10.698 -0.1821 -0.3718 -0.2347
  500MPD2     H 7434   1.136   2.370  10.355  3.0635 -2.8024 -0.4615
  500MPD2    H1 7435   0.892   2.186  10.644 -1.7826  1.4598 -3.1904
  500MPD2    H2 7436   1.302   2.262  10.729  0.6940 -0.6518 -1.5178
  500MPD2    H3 7437   1.076   2.175  10.793 -1.6840  1.8970  0.8115
  500MPD2     N 7438   0.886   2.290  10.385 -0.3656  0.7840 -0.1316
  500MPD2    H5 7439   0.795   2.248  10.398  0.8127 -2.2295 -1.5928
  500MPD2    N1 7440   1.355   2.361  10.481  0.4586  0.0564  0.0351
  500MPD2    H7 7441   1.356   2.408  10.391 -1.8504 -1.5666 -0.8614
  501TMC3    C1 7442   1.583   2.377  10.457  0.3787 -0.3353 -0.3959
  501TMC3    C2 7443   1.561   2.356  10.322 -0.6115 -0.1981  0.3015
  501TMC3    C3 7444   1.673   2.352  10.246 -0.5868 -0.0179 -0.2130
  501TMC3    C4 7445   1.711   2.392  10.508 -0.1459 -0.3429  0.8584
  501TMC3    C5 7446   1.817   2.368  10.431  0.4220  0.5342  0.3240
  501TMC3    C6 7447   1.795   2.349  10.298  0.5033  0.1917 -0.1933
  501TMC3     C 7448   1.476   2.349  10.548  0.7992  0.0607  0.2271
  501TMC3     O 7449   1.497   2.308  10.660  0.1691 -0.6236  0.2604
  501TMC3     H 7450   1.466   2.341  10.273 -0.2722 -2.5339  0.3514
  501TMC3    H1 7451   1.725   2.406  10.615  2.4476 -0.9580  0.5952
  501TMC3    H2 7452   1.877   2.329  10.230  1.0869  0.1955  0.5039
  501TMC3    C7 7453   1.955   2.343  10.484 -0.0680 -0.1606  0.3501
  501TMC3    C8 7454   1.653   2.324  10.105 -0.3533 -0.5334  0.3323
  501TMC3    O1 7455   1.969   2.313  10.604 -0.0087  0.4494 -0.1347
  501TMC3    O2 7456   1.720   2.230  10.064 -0.2177 -0.0059  0.6195
  502TMC3    C1 7457   0.579   0.504  15.032  0.1788 -0.2673 -0.3985
  502TMC3    C2 7458   0.525   0.613  14.987  0.1364 -0.6006  0.2432
  502TMC3    C3 7459   0.427   0.607  14.895 -0.3842  0.0147 -0.2708
  502TMC3    C4 7460   0.523   0.378  15.016 -0.0102 -0.5085  0.1997
  502TMC3    C5 7461   0.393   0.388  14.976  0.1288 -0.5613 -0.1189
  502TMC3    C6 7462   0.355   0.492  14.895  0.1900  0.1586 -0.4971
  502TMC3     C 7463   0.649   0.520  15.152  0.0738 -0.0460  0.0372
  502TMC3     O 7464   0.724   0.427  15.171 -0.0542 -0.1352 -0.1755
  502TMC3     H 7465   0.573   0.706  15.014 -2.4049  0.7122  0.1153
  502TMC3    H1 7466   0.556   0.304  15.088 -0.6145  1.3569  2.3924
  502TMC3    H2 7467   0.261   0.491  14.841 -0.4609 -0.0057  0.6300
  502TMC3    C7 7468   0.298   0.368  15.082  0.9165  0.1107 -0.1197
  502TMC3    C8 7469   0.349   0.726  14.866  0.2007  0.2300  0.6098
  502TMC3    O1 7470   0.329   0.285  15.165 -0.0270 -0.0590  0.3688
  502TMC3    O2 7471   0.228   0.713  14.880 -0.1338  0.1548 -0.3392
  503MPD2     C 7472   2.570   1.662  16.760 -0.5436  0.5474 -0.2245
  503MPD2    C1 7473   2.644   1.666  16.876  0.1868  0.3214  0.2760
  503MPD2    C2 7474   2.675   1.542  16.933  0.3197  0.9606  0.4765
  503MPD2    C3 7475   2.671   1.422  16.867 -0.4984  0.0794 -0.1608
  503MPD2    C4 7476   2.601   1.420  16.747 -0.0915 -0.4101  0.1991
  503MPD2    C5 7477   2.545   1.538  16.707  0.3032 -0.1096  0.1704
  503MPD2     H 7478   2.735   1.541  17.023 -1.1184 -0.1947  1.4242
  503MPD2    H1 7479   2.573   1.323  16.709  0.0497 -1.3354  2.4283
  503MPD2    H2 7480   2.522   1.750  16.717 -1.1541  0.8853  1.1686
  503MPD2    H3 7481   2.475   1.532  16.624  1.7451  0.7019 -1.1169
  503MPD2     N 7482   2.717   1.302  16.925 -0.2391  0.0636  0.0531
  503MPD2    H5 7483   2.735   1.308  17.024 -0.2150  0.3528  0.0320
  503MPD2    N1 7484   2.688   1.788  16.932 -0.4655  0.5017 -0.1404
  503MPD2    H7 7485   2.734   1.776  17.022  0.7344  0.9988 -0.6859
  504TMC3    C1 7486   2.853   1.107  16.946 -0.6360 -0.0590 -0.2956
  504TMC3    C2 7487   2.825   1.095  17.079 -0.1855 -0.1954 -0.9133
  504TMC3    C3 7488   2.911   1.046  17.167  0.6269  0.4434  0.1737
  504TMC3    C4 7489   2.966   1.056  16.894 -0.0984  0.2821  0.4433
  504TMC3    C5 7490   3.056   1.010  16.987  0.4804  0.2782 -0.2233
  504TMC3    C6 7491   3.034   0.997  17.125 -0.1355 -0.5461  0.2333
  504TMC3     C 7492   2.768   1.196  16.859 -0.1323  0.3751 -0.1799
  504TMC3     O 7493   2.784   1.176  16.739  0.3120  0.3769 -0.1439
  504TMC3     H 7494   2.728   1.120  17.121 -1.1384 -1.9195 -2.0641
  504TMC3    H1 7495   2.990   1.082  16.791  0.0813 -1.4803  0.0461
  504TMC3    H2 7496   3.096   0.941  17.193 -0.2479 -0.5400  0.3404
  504TMC3    C7 7497   3.190   0.980  16.939 -0.2881  0.7490 -0.0142
  504TMC3    C8 7498   2.856   1.032  17.304 -0.2228 -0.6194 -0.3358
  504TMC3    O1 7499   3.201   0.954  16.821 -0.5408  0.0780 -0.0241
  504TMC3    O2 7500   2.750   1.087  17.325 -0.2118  0.3037 -0.1490
  505MPD2     C 7501   3.795   4.457  11.149 -0.8948  0.1641  0.4789
  505MPD2    C1 7502   3.682   4.398  11.102  0.0085  0.0922  0.7068
  505MPD2    C2 7503   3.694   4.314  10.998  0.8178  0.2116  0.5357
  505MPD2    C3 7504   3.817   4.288  10.947 -0.6350  0.1598  0.0669
  505MPD2    C4 7505   3.927   4.344  11.001  0.5817 -0.0971  0.1566
  505MPD2    C5 7506   3.925   4.435  11.099 -0.2718 -0.7849  0.6629
  505MPD2     H 7507   3.608   4.268  10.951  0.4378 -0.2470  1.6889
  505MPD2    H1 7508   4.026   4.325  10.962 -0.2829 -2.6116 -0.8173
  505MPD2    H2 7509   3.789   4.541  11.218 -1.0153  0.1024  0.5436
  505MPD2    H3 7510   4.009   4.487  11.143  1.4164 -1.1714 -2.1284
  505MPD2     N 7511   3.823   4.208  10.830 -0.6196  0.0707  0.1462
  505MPD2    H5 7512   3.740   4.159  10.797  0.2736 -1.4273  0.1112
  505MPD2    N1 7513   3.557   4.435  11.150 -0.1103 -0.2292 -0.1130
  505MPD2    H7 7514   3.552   4.515  11.211  1.6967 -1.9829  2.3677
  506TMC3    C1 7515   3.315   4.424  11.169  0.1919 -1.0746 -0.5149
  506TMC3    C2 7516   3.311   4.564  11.171  0.1849  0.4017 -0.4554
  506TMC3    C3 7517   3.208   4.629  11.115 -0.6326  0.5901  0.1324
  506TMC3    C4 7518   3.208   4.355  11.123 -0.4394 -0.0358  0.4387
  506TMC3    C5 7519   3.116   4.426  11.052  0.5656  0.3478 -0.2415
  506TMC3    C6 7520   3.109   4.567  11.055 -0.4652 -0.0031  0.1094
  506TMC3     C 7521   3.438   4.362  11.125 -0.6551  1.0917 -0.0917
  506TMC3     O 7522   3.423   4.260  11.057 -0.1591 -0.2643 -0.2476
  506TMC3     H 7523   3.387   4.621  11.222 -2.1843  1.9716  1.2915
  506TMC3    H1 7524   3.206   4.246  11.130 -1.7643 -0.0333  0.0752
  506TMC3    H2 7525   3.025   4.618  11.008 -0.0436  0.2403 -0.3768
  506TMC3    C7 7526   3.087   4.370  10.917 -0.4492 -0.9215 -0.2527
  506TMC3    C8 7527   3.217   0.049  11.112 -0.4429 -0.7703  0.3810
  506TMC3    O1 7528   3.004   4.427  10.846 -0.1647  0.3510  0.4886
  506TMC3    O2 7529   3.274   0.106  11.205  0.1523  0.2825  0.0845
  507TMC3    C1 7530   3.466   0.912  14.907 -0.6031 -0.6738 -0.0691
  507TMC3    C2 7531   3.434   0.879  14.773  1.0500  0.2081 -0.6935
  507TMC3    C3 7532   3.538   0.836  14.693 -0.9773  0.0267  0.0936
  507TMC3    C4 7533   3.595   0.911  14.953  0.8967 -0.1003  0.2214
  507TMC3    C5 7534   3.694   0.863  14.871 -0.2831 -0.1846 -0.0678
  507TMC3    C6 7535   3.661   0.825  14.739 -0.1868 -0.2724  0.6198
  507TMC3     C 7536   3.363   0.903  15.008 -0.3254  0.3934 -0.0267
  507TMC3     O 7537   3.391   0.847  15.112  0.1007  0.1592  0.6794
  507TMC3     H 7538   3.332   0.874  14.738  0.6475 -0.5756  0.5932
  507TMC3    H1 7539   3.608   0.946  15.055  0.7991 -0.7415  0.4526
  507TMC3    H2 7540   3.741   0.794  14.672 -0.9210 -1.8420  0.4705
  507TMC3    C7 7541   3.809   0.952  14.868  0.2629  0.0941  0.7520
  507TMC3    C8 7542   3.528   0.914  14.573 -0.0542 -0.6345 -0.4583
  507TMC3    O1 7543   3.851   0.976  14.754 -0.1937  0.8707 -0.1727
  507TMC3    O2 7544   3.444   0.888  14.488 -0.3808  0.1121  0.3439
  508MPD2     C 7545   4.694   3.421  16.194  0.8496 -0.1923 -0.4578
  508MPD2    C1 7546   4.700   3.543  16.258 -0.5219  0.0360 -0.5678
  508MPD2    C2 7547   4.679   3.662  16.190 -0.6175 -0.2511 -0.7731
  508MPD2    C3 7548   4.658   3.655  16.054  0.3448 -0.1161  0.4995
  508MPD2    C4 7549   4.626   3.532  15.999  0.4328 -0.2432  0.0614
  508MPD2    C5 7550   4.647   3.417  16.069  0.4124  0.5284  0.5810
  508MPD2     H 7551   4.694   3.759  16.234 -3.9915  1.0996 -2.5947
  508MPD2    H1 7552   4.597   3.526  15.894 -0.0276 -0.7731  0.2192
  508MPD2    H2 7553   4.701   3.328  16.250 -0.1607 -0.2031 -0.3518
  508MPD2    H3 7554   4.619   3.324  16.021  1.1297 -0.1994  1.5843
  508MPD2     N 7555   4.661   3.767  15.968 -0.0742  0.1821 -0.3059
  508MPD2    H5 7556   4.654   3.863  16.003  1.1909  0.5323 -1.0159
  508MPD2    N1 7557   0.035   3.545  16.393 -0.4584  0.6675 -0.0137
  508MPD2    H7 7558   0.084   3.462  16.424 -1.0865  0.2196 -0.2285
  509TMC3    C1 7559   4.653   4.103  15.698 -0.3335  0.1990 -0.1708
  509TMC3    C2 7560   0.055   4.124  15.651  0.1639 -0.4722  0.6793
  509TMC3    C3 7561   0.139   4.023  15.643 -0.5233  0.8468 -0.2284
  509TMC3    C4 7562   4.617   3.983  15.759 -0.3682  0.7251 -0.2094
  509TMC3    C5 7563   4.717   3.887  15.772  0.6117 -0.0200  0.3800
  509TMC3    C6 7564   0.115   3.902  15.710 -0.3713  0.9085 -1.0547
  509TMC3     C 7565   4.548   4.193  15.659 -0.3084  0.3529  0.7147
  509TMC3     O 7566   4.443   4.198  15.722  0.5445 -0.4953  0.2941
  509TMC3     H 7567   0.087   4.213  15.597  0.2588 -0.3900  0.8700
  509TMC3    H1 7568   4.524   3.974  15.814  0.3740 -0.5623  0.8614
  509TMC3    H2 7569   0.191   3.829  15.733 -0.7397  0.7338 -0.4032
  509TMC3    C7 7570   4.693   3.760  15.834 -0.3063 -0.0460 -0.2167
  509TMC3    C8 7571   0.269   4.032  15.583  0.0155 -0.4145  0.3752
  509TMC3    O1 7572   0.014   3.671  15.765  0.2003 -0.5408  0.1231
  509TMC3    O2 7573   0.337   3.931  15.579  0.4050 -0.3163 -0.2128
  510MPD2     C 7574   2.637   0.236  14.622  0.2320  0.0277  0.2110
  510MPD2    C1 7575   2.735   0.230  14.715  0.1870  0.3611  0.0463
  510MPD2    C2 7576   2.860   0.247  14.661 -0.8567 -0.2046 -0.2361
  510MPD2    C3 7577   2.893   0.278  14.534  0.2213 -0.2249 -1.1127
  510MPD2    C4 7578   2.791   0.294  14.448  0.0378  0.0122 -0.0067
  510MPD2    C5 7579   2.663   0.274  14.495  0.1327 -0.2896 -0.1787
  510MPD2     H 7580   2.939   0.233  14.734 -1.8217  0.6986  0.9665
  510MPD2    H1 7581   2.808   0.312  14.342 -2.8125  0.7428 -0.3286
  510MPD2    H2 7582   2.532   0.228  14.644 -0.0457 -2.7666 -2.2219
  510MPD2    H3 7583   2.580   0.275  14.425 -0.6445  2.7434  0.8045
  510MPD2     N 7584   3.034   0.286  14.501 -0.3323  0.4404 -0.2644
  510MPD2    H5 7585   3.095   0.288  14.582 -0.7328  0.0615  0.0435
  510MPD2    N1 7586   2.701   0.198  14.847 -0.1771  0.5315  0.4455
  510MPD2    H7 7587   2.606   0.165  14.856  0.0086  0.3851  1.8051
  511TMC3    C1 7588   2.736   0.117  15.063  0.2921  0.2848  0.3949
  511TMC3    C2 7589   2.601   0.130  15.082  0.2051 -0.9815 -0.1861
  511TMC3    C3 7590   2.546   0.061  15.192 -0.6467  0.0593  0.6341
  511TMC3    C4 7591   2.808   0.033  15.149  0.2587 -0.2708 -0.2760
  511TMC3    C5 7592   2.750   4.693  15.252  0.2436 -0.4851  0.0387
  511TMC3    C6 7593   2.622   4.718  15.285  0.5319 -0.0100 -0.7095
  511TMC3     C 7594   2.797   0.178  14.951  0.6891  0.0179  0.6559
  511TMC3     O 7595   2.915   0.189  14.960 -0.2507  0.0460 -0.0076
  511TMC3     H 7596   2.536   0.197  15.027 -1.3337 -0.3193  2.4041
  511TMC3    H1 7597   2.913   0.010  15.136  0.1491 -1.0550  0.2566
  511TMC3    H2 7598   2.576   4.658  15.362  0.4043  0.8881 -0.0883
  511TMC3    C7 7599   2.828   4.592  15.330  0.9820 -0.6913 -0.4020
  511TMC3    C8 7600   2.413   0.105  15.238  0.0720  0.0080  0.3471
  511TMC3    O1 7601   2.951   4.607  15.321  0.4814 -0.0893  0.1582
  511TMC3    O2 7602   2.399   0.096  15.360 -0.1225 -0.2445 -0.3457
  512TMC3    C1 7603   1.346   4.344  13.340  0.0470  0.3222 -0.6768
  512TMC3    C2 7604   1.422   4.315  13.449 -0.6630  0.3269 -0.1478
  512TMC3    C3 7605   1.508   4.209  13.434 -0.1327  0.4105 -0.8203
  512TMC3    C4 7606   1.338   4.268  13.224 -0.0943 -0.4012 -0.6161
  512TMC3    C5 7607   1.430   4.170  13.214 -0.1515 -0.0841  0.3742
  512TMC3    C6 7608   1.511   4.133  13.323  0.1038 -0.4124 -0.0513
  512TMC3     C 7609   1.254   4.463  13.352 -0.8391  0.4087 -0.1518
  512TMC3     O 7610   1.217   4.497  13.465  0.0161 -0.4671  0.3151
  512TMC3     H 7611   1.419   4.365  13.545 -0.2920  1.2408 -0.6114
  512TMC3    H1 7612   1.259   4.292  13.155  0.2585 -1.3387 -1.3418
  512TMC3    H2 7613   1.592   4.062  13.313 -1.1845 -1.7486 -0.9987
  512TMC3    C7 7614   1.461   4.114  13.086 -0.1593  0.1930  0.2800
  512TMC3    C8 7615   1.633   4.218  13.514 -0.3148 -0.0692 -1.1398
  512TMC3    O1 7616   1.385   4.144  12.997  0.1364  0.1820 -0.1891
  512TMC3    O2 7617   1.704   4.118  13.524 -0.3557 -0.1125 -0.6696
  513MPD2     C 7618   3.376   0.244  13.533 -0.0161 -0.3114  0.1911
  513MPD2    C1 7619   3.370   0.124  13.467  0.0520  0.7603  0.1981
  513MPD2    C2 7620   3.447   0.013  13.504  0.2029 -0.1027  0.7515
  513MPD2    C3 7621   3.538   0.036  13.610  0.5655  0.6046  0.5829
  513MPD2    C4 7622   3.540   0.155  13.683  0.1066  0.5338  0.0516
  513MPD2    C5 7623   3.452   0.259  13.644 -0.0933  0.4981  0.4982
  513MPD2     H 7624   3.454   4.641  13.453  3.5937  0.0674  0.9035
  513MPD2    H1 7625   3.613   0.179  13.760  0.9975 -0.5062 -0.4589
  513MPD2    H2 7626   3.313   0.329  13.509  1.0797  0.1417 -1.0570
  513MPD2    H3 7627   3.446   0.353  13.698 -0.5949  0.7002  0.0878
  513MPD2     N 7628   3.623   4.650  13.661  0.0120  0.1432 -0.6541
  513MPD2    H5 7629   3.619   4.569  13.599  2.2048 -0.2327 -0.2850
  513MPD2    N1 7630   3.272   0.098  13.370  0.1132 -0.0090  0.4157
  513MPD2    H7 7631   3.279   0.008  13.323  0.6539  0.8203 -1.0657
  514TMC3    C1 7632   3.133   0.133  13.197 -0.2837 -0.1601  0.1744
  514TMC3    C2 7633   3.174   0.206  13.091 -0.3903 -0.1701 -0.2651
  514TMC3    C3 7634   3.239   0.145  12.981 -0.6397  0.0064  0.3441
  514TMC3    C4 7635   3.146   0.000  13.187  0.7250  0.4945 -0.3911
  514TMC3    C5 7636   3.213   4.670  13.084  0.1819 -0.5040  0.1738
  514TMC3    C6 7637   3.262   0.011  12.979 -0.4530  0.1542 -0.4699
  514TMC3     C 7638   3.183   0.192  13.321  0.0753 -0.6505 -0.4377
  514TMC3     O 7639   3.173   0.315  13.338  0.4846  0.5027  0.4773
  514TMC3     H 7640   3.172   0.314  13.106  0.1035 -0.0928 -0.7409
  514TMC3    H1 7641   3.098   4.656  13.257  2.5960  0.2580  0.6823
  514TMC3    H2 7642   3.333   4.686  12.913  0.9594  1.0207  0.4335
  514TMC3    C7 7643   3.299   4.571  13.131  0.5707 -0.5961  0.7498
  514TMC3    C8 7644   3.336   0.228  12.910  0.4801 -0.0517 -0.0301
  514TMC3    O1 7645   3.315   4.558  13.249 -0.1081  0.1000 -0.2198
  514TMC3    O2 7646   3.372   0.326  12.973 -0.0798  0.3644  0.0486
  515MPD2     C 7647   1.118   1.392  14.896  0.1557  0.5836  0.2977
  515MPD2    C1 7648   1.214   1.424  14.800 -0.1870 -0.2527 -0.4364
  515MPD2    C2 7649   1.287   1.542  14.811 -0.5139 -0.2985 -0.4473
  515MPD2    C3 7650   1.267   1.626  14.918  1.0278 -0.6638  0.4163
  515MPD2    C4 7651   1.164   1.591  15.009  0.3796 -0.5333 -0.1144
  515MPD2    C5 7652   1.083   1.483  14.992 -0.0229 -0.1953 -0.0634
  515MPD2     H 7653   1.352   1.564  14.727  2.6177  0.4961  2.2081
  515MPD2    H1 7654   1.146   1.657  15.094 -0.8981 -0.1222 -0.7174
  515MPD2    H2 7655   1.056   1.304  14.900  1.8741 -0.5436  2.0499
  515MPD2    H3 7656   1.005   1.472  15.066 -1.0995 -0.3937 -1.2361
  515MPD2     N 7657   1.349   1.731  14.955  0.0938 -0.1086  0.1891
  515MPD2    H5 7658   1.311   1.782  15.035  1.3435  1.4132 -0.1971
  515MPD2    N1 7659   1.253   1.342  14.696  0.4019  0.3457  0.1978
  515MPD2    H7 7660   1.333   1.372  14.642 -0.3786  0.4115 -0.9148
  516TMC3    C1 7661   1.272   1.137  14.570 -0.0572 -0.1106 -0.3530
  516TMC3    C2 7662   1.325   1.197  14.464 -0.7857 -0.4064 -0.4449
  516TMC3    C3 7663   1.388   1.124  14.370 -0.1287  0.6544 -0.1136
  516TMC3    C4 7664   1.286   1.000  14.591 -0.4139  0.3384  1.2272
  516TMC3    C5 7665   1.366   0.935  14.504  0.4834 -0.5716 -0.8156
  516TMC3    C6 7666   1.420   0.994  14.391  0.4684 -0.4590 -0.2379
  516TMC3     C 7667   1.201   1.217  14.671  0.3093  0.7326 -0.2239
  516TMC3     O 7668   1.122   1.154  14.737 -0.5107 -0.2102  0.5977
  516TMC3     H 7669   1.305   1.303  14.459 -1.5007 -0.5784 -1.1769
  516TMC3    H1 7670   1.247   0.951  14.679 -0.8108 -0.0722  0.8209
  516TMC3    H2 7671   1.473   0.942  14.312 -1.6653 -0.7266 -1.4895
  516TMC3    C7 7672   1.423   0.809  14.541  0.1881  0.4448 -0.2199
  516TMC3    C8 7673   1.411   1.188  14.241 -0.5728  0.3047 -0.7109
  516TMC3    O1 7674   1.358   0.756  14.627  0.0850 -0.0134 -0.2601
  516TMC3    O2 7675   1.334   1.278  14.212 -0.0751  0.1361 -0.2749
  517MPD2     C 7676   1.494   3.083   0.136 -0.6394 -0.5925 -0.1367
  517MPD2    C1 7677   1.454   3.064   0.003 -0.7199 -0.4487  0.1148
  517MPD2    C2 7678   1.349   3.135  17.644 -0.7326 -0.2364  0.0352
  517MPD2    C3 7679   1.275   3.213   0.034 -0.3832  0.3625  0.3716
  517MPD2    C4 7680   1.316   3.229   0.164 -0.2616 -0.0176 -0.3193
  517MPD2    C5 7681   1.425   3.168   0.213 -0.0283  0.2188  0.8133
  517MPD2     H 7682   1.322   3.111  17.542 -0.1663  0.7838 -0.3521
  517MPD2    H1 7683   1.268   3.297   0.233 -0.7291  0.6194 -1.2621
  517MPD2    H2 7684   1.578   3.029   0.180 -1.0426 -1.1833 -0.0856
  517MPD2    H3 7685   1.474   3.204   0.303 -1.5735  0.3646  1.5835
  517MPD2     N 7686   1.168   3.301  17.688 -0.6391  0.3438 -0.3102
  517MPD2    H5 7687   1.133   3.360   0.069  1.6848 -1.2107  2.0207
  517MPD2    N1 7688   1.516   2.978  17.607 -0.1637  0.2122  0.0514
  517MPD2    H7 7689   1.489   3.001  17.512  0.1120  1.7619  0.3517
  518TMC3    C1 7690   1.640   2.829  17.499 -0.0734  0.6882  0.2561
  518TMC3    C2 7691   1.627   2.694  17.513 -0.2765  0.3028 -0.1129
  518TMC3    C3 7692   1.668   2.612  17.409  0.5970  0.0193  0.2422
  518TMC3    C4 7693   1.696   2.891  17.390  0.0370 -0.3623 -0.1045
  518TMC3    C5 7694   1.748   2.805  17.290  0.5830 -0.4220  0.1627
  518TMC3    C6 7695   1.731   2.666  17.296  0.1367 -0.7657  0.1896
  518TMC3     C 7696   1.621   2.899  17.624  0.1111 -0.2383 -0.0817
  518TMC3     O 7697   1.662   2.847   0.032  0.7594  0.0740 -0.0570
  518TMC3     H 7698   1.592   2.648  17.605  2.6658  0.8645  1.2923
  518TMC3    H1 7699   1.733   2.993  17.386 -1.4065  0.1488 -0.4623
  518TMC3    H2 7700   1.762   2.596  17.219 -0.5292  1.8554 -2.4405
  518TMC3    C7 7701   1.834   2.857  17.181 -0.1565 -0.0163 -0.7277
  518TMC3    C8 7702   1.672   2.470  17.413 -0.3227  0.3164 -0.3676
  518TMC3    O1 7703   1.833   2.976  17.154 -0.3794  0.1066 -0.0245
  518TMC3    O2 7704   1.718   2.410  17.314 -0.0250 -0.4271  0.2048
  519MPD2     C 7705   2.769   1.489  14.311  0.1561 -0.0530  0.9419
  519MPD2    C1 7706   2.786   1.478  14.174 -0.2482 -0.2530  0.2457
  519MPD2    C2 7707   2.861   1.373  14.126 -0.8082  0.2138 -0.2457
  519MPD2    C3 7708   2.903   1.277  14.214  1.1584  0.6099 -0.4803
  519MPD2    C4 7709   2.879   1.279  14.347 -0.6132 -0.5866 -0.4586
  519MPD2    C5 7710   2.827   1.394  14.395  0.4331 -0.1969  0.3581
  519MPD2     H 7711   2.867   1.357  14.019  0.4811  1.3493 -0.3389
  519MPD2    H1 7712   2.909   1.194  14.408 -0.5759  1.1508  1.9152
  519MPD2    H2 7713   2.714   1.574  14.352 -2.9374 -1.4591 -0.2547
  519MPD2    H3 7714   2.818   1.409  14.502 -0.6962 -1.7334  0.4758
  519MPD2     N 7715   2.955   1.153  14.169  0.3939  0.3139 -0.1438
  519MPD2    H5 7716   2.961   1.078  14.237 -1.9311 -1.3503 -1.7321
  519MPD2    N1 7717   2.707   1.561  14.091  0.0202  1.0704  0.1056
  519MPD2    H7 7718   2.663   1.639  14.139  0.2341 -0.5384  2.8962
  520TMC3    C1 7719   3.030   0.988  14.033 -0.9101  0.2654  0.1783
  520TMC3    C2 7720   2.934   0.904  13.980  0.0795 -0.2167 -0.0798
  520TMC3    C3 7721   2.960   0.771  13.996 -0.3477  0.0881  1.0323
  520TMC3    C4 7722   3.143   0.944  14.100 -0.3820  0.2739 -0.4851
  520TMC3    C5 7723   3.157   0.808  14.111  0.2843 -0.6364 -0.0380
  520TMC3    C6 7724   3.072   0.717  14.054  0.0429  0.1051 -0.6913
  520TMC3     C 7725   2.979   1.121  14.039  0.3849 -0.4473 -0.2837
  520TMC3     O 7726   2.961   1.180  13.933 -0.1476  0.0052 -0.3289
  520TMC3     H 7727   2.852   0.951  13.926  0.5967 -0.7113 -1.2893
  520TMC3    H1 7728   3.185   1.004  14.180 -0.3599  1.8488 -1.6761
  520TMC3    H2 7729   3.081   0.612  14.076  1.0059  0.1946 -0.6626
  520TMC3    C7 7730   3.295   0.767  14.123 -1.1604 -0.0519  0.1125
  520TMC3    C8 7731   2.871   0.675  13.939  0.9032 -0.3986  0.3610
  520TMC3    O1 7732   3.318   0.651  14.151 -0.4470  0.1378 -0.0084
  520TMC3    O2 7733   2.909   0.561  13.946  0.0071  0.1872 -0.5193
  521MPD2     C 7734   3.837   4.292   0.329  0.7357 -0.2506 -0.0243
  521MPD2    C1 7735   3.788   4.242   0.206  0.2056 -1.0045 -0.7381
  521MPD2    C2 7736   3.878   4.188   0.109  0.0914  0.3407 -0.3110
  521MPD2    C3 7737   4.017   4.183   0.132 -0.3409  1.2631 -0.3433
  521MPD2    C4 7738   4.058   4.224   0.259 -0.0159  0.6191 -0.5899
  521MPD2    C5 7739   3.973   4.279   0.354 -0.6259  0.3317  0.3953
  521MPD2     H 7740   3.854   4.159   0.008 -1.1109 -0.9892  0.3573
  521MPD2    H1 7741   4.160   4.231   0.295 -0.5696  2.1364  0.6631
  521MPD2    H2 7742   3.768   4.331   0.402  1.0871 -0.6664  0.5280
  521MPD2    H3 7743   4.009   4.319   0.448 -1.8869  1.8901  0.2203
  521MPD2     N 7744   4.100   4.129   0.030 -0.4550  0.5163  0.4343
  521MPD2    H5 7745   4.052   4.101  17.638  1.7404  1.3007 -1.0614
  521MPD2    N1 7746   3.651   4.235   0.198 -0.3410 -0.4600  1.0505
  521MPD2    H7 7747   3.604   4.250   0.286  0.7313  1.5967  1.2654
  522TMC3    C1 7748   4.284   4.052  17.622  1.2832  0.8211 -0.3743
  522TMC3    C2 7749   4.424   4.078  17.604 -0.6778 -0.4480  0.7451
  522TMC3    C3 7750   4.490   4.002  17.510 -0.0308 -0.4866 -0.7000
  522TMC3    C4 7751   4.209   3.971  17.547  0.0045 -0.0459  0.5172
  522TMC3    C5 7752   4.280   3.899  17.456  0.2971 -0.0111 -0.0025
  522TMC3    C6 7753   4.417   3.909  17.439 -0.1757 -0.0805 -0.7131
  522TMC3     C 7754   4.233   4.087   0.053  0.0556  0.2404 -0.1685
  522TMC3     O 7755   4.309   4.107   0.150  0.3605  0.1517 -0.3514
  522TMC3     H 7756   4.480   4.140  17.672  0.3484  1.4487 -1.8128
  522TMC3    H1 7757   4.115   3.935  17.588 -0.3257 -0.4350 -0.5892
  522TMC3    H2 7758   4.471   3.853  17.364 -0.4497 -1.1094 -0.1423
  522TMC3    C7 7759   4.208   3.807  17.371 -0.4401  0.0003  0.2616
  522TMC3    C8 7760   4.626   4.042  17.475  0.2401  0.7680 -0.2025
  522TMC3    O1 7761   4.272   3.723  17.315  1.2841  0.5099 -0.3494
  522TMC3    O2 7762   4.682   4.122  17.550 -0.0969 -0.9206 -0.1479
  523MPD2     C 7763   1.604   3.601  10.128  0.3509  0.7544  0.2452
  523MPD2    C1 7764   1.560   3.546  10.009 -0.0068  0.5108  0.0456
  523MPD2    C2 7765   1.470   3.619   9.936  0.6874 -0.4398  0.1759
  523MPD2    C3 7766   1.452   3.753   9.964 -0.7409  0.9342  0.1964
  523MPD2    C4 7767   1.498   3.801  10.084 -0.6075 -0.8744  0.5124
  523MPD2    C5 7768   1.571   3.725  10.176 -0.0291  0.1181 -0.0771
  523MPD2     H 7769   1.415   3.578   9.853  2.4520 -2.2273 -0.0945
  523MPD2    H1 7770   1.488   3.905  10.109  2.6685 -0.3534 -0.3208
  523MPD2    H2 7771   1.664   3.538  10.193 -2.2694  1.5354  3.4322
  523MPD2    H3 7772   1.601   3.764  10.273 -0.0637 -0.2858  0.0924
  523MPD2     N 7773   1.386   3.841   9.875 -0.0802 -0.1220 -0.4623
  523MPD2    H5 7774   1.377   3.937   9.907 -0.5176 -0.2749 -0.1181
  523MPD2    N1 7775   1.592   3.413   9.971  0.1150 -0.0746  0.4570
  523MPD2    H7 7776   1.655   3.370  10.039  0.2142 -0.6023  0.0383
  524TMC3    C1 7777   1.274   3.926   9.690 -0.1925  0.9598  0.2158
  524TMC3    C2 7778   1.302   3.954   9.558 -0.3109  0.1313 -0.6543
  524TMC3    C3 7779   1.314   4.079   9.515  1.3400  0.0282  0.6247
  524TMC3    C4 7780   1.235   4.023   9.772  0.1024 -0.0293  0.0871
  524TMC3    C5 7781   1.212   4.145   9.718  0.0939 -0.8927 -0.6899
  524TMC3    C6 7782   1.252   4.176   9.590  0.0152 -0.2786  0.2229
  524TMC3     C 7783   1.337   3.812   9.752 -0.4824 -0.3204 -0.0774
  524TMC3     O 7784   1.341   3.710   9.685  1.0008  0.3502 -0.2237
  524TMC3     H 7785   1.354   3.874   9.507  0.8519  1.7908 -2.0644
  524TMC3    H1 7786   1.177   3.993   9.859  1.0994 -1.0278  0.3969
  524TMC3    H2 7787   1.243   4.282   9.565 -1.8990 -0.6786 -0.8575
  524TMC3    C7 7788   1.162   4.248   9.799 -0.5145  0.2188 -0.6681
  524TMC3    C8 7789   1.316   4.096   9.375 -0.3583  0.1174 -0.2411
  524TMC3    O1 7790   1.176   4.225   9.920 -0.7566 -0.7579  0.2558
  524TMC3    O2 7791   1.297   3.999   9.303  0.3044 -0.2814  0.0168
  525MPD2     C 7792   4.121   0.812  14.380 -0.3270 -0.2978  0.1908
  525MPD2    C1 7793   4.252   0.836  14.416  0.1242 -0.3848  0.8685
  525MPD2    C2 7794   4.316   0.951  14.370  0.3725 -0.2985 -0.5483
  525MPD2    C3 7795   4.245   1.039  14.295  0.4630  0.9561 -0.0986
  525MPD2    C4 7796   4.111   1.025  14.274 -0.4940  0.2243  0.5089
  525MPD2    C5 7797   4.047   0.909  14.316  0.4779 -0.1743  0.4706
  525MPD2     H 7798   4.423   0.960  14.382  0.6377 -1.9850 -1.6588
  525MPD2    H1 7799   4.064   1.114  14.234 -0.3246  0.3981  0.6915
  525MPD2    H2 7800   4.065   0.726  14.414 -1.9363 -0.0927 -1.9638
  525MPD2    H3 7801   3.940   0.893  14.309  0.2633  1.3065  0.4537
  525MPD2     N 7802   4.303   1.162  14.247 -0.0088  0.2543  0.7290
  525MPD2    H5 7803   4.241   1.230  14.205 -0.4499 -0.8703 -0.4511
  525MPD2    N1 7804   4.331   0.746  14.494 -0.0965  0.0534  0.0595
  525MPD2    H7 7805   4.430   0.770  14.494 -0.6403  2.3230  1.2100
  526TMC3    C1 7806   4.392   0.568  14.629 -0.2653 -0.2843 -0.5697
  526TMC3    C2 7807   4.351   0.487  14.733  0.2964 -0.1168 -0.2320
  526TMC3    C3 7808   4.433   0.476  14.844  0.3940  0.6876  0.0293
  526TMC3    C4 7809   4.524   0.606  14.625 -0.2461  0.5130  0.7698
  526TMC3    C5 7810   4.595   0.591  14.739  0.0312  0.4641 -0.5245
  526TMC3    C6 7811   4.556   0.527  14.850 -0.3024  0.1922  0.0988
  526TMC3     C 7812   4.287   0.626  14.544 -0.4448 -0.0221  0.0140
  526TMC3     O 7813   4.175   0.579  14.556  0.0344 -0.1252  0.0245
  526TMC3     H 7814   4.244   0.474  14.742  0.7487 -2.4174  1.6734
  526TMC3    H1 7815   4.576   0.634  14.534  0.0440 -1.6984  0.2493
  526TMC3    H2 7816   4.627   0.506  14.929 -2.6179 -1.5124  1.7329
  526TMC3    C7 7817   0.018   0.567  14.720 -0.6436 -0.3902 -0.6688
  526TMC3    C8 7818   4.394   0.408  14.968 -0.3128 -0.4342  0.4561
  526TMC3    O1 7819   0.058   0.459  14.772 -0.1864 -0.1380 -0.1326
  526TMC3    O2 7820   4.469   0.420  15.062 -0.4506 -0.2840  0.0771
  527MPD2     C 7821   2.221   2.944   1.802 -0.6208 -0.7538 -0.3421
  527MPD2    C1 7822   2.292   3.046   1.737 -0.8847  0.5282 -0.0647
  527MPD2    C2 7823   2.376   3.008   1.627 -0.3073 -0.3718 -0.1415
  527MPD2    C3 7824   2.396   2.870   1.590 -1.0689 -0.3707 -0.5111
  527MPD2    C4 7825   2.340   2.771   1.666  0.0996  0.3324  0.4646
  527MPD2    C5 7826   2.257   2.815   1.770 -0.3551 -0.1896  0.2445
  527MPD2     H 7827   2.413   3.083   1.559 -0.1545  0.3376  0.7371
  527MPD2    H1 7828   2.361   2.664   1.670  2.4642  0.8412  1.3657
  527MPD2    H2 7829   2.145   2.958   1.878 -1.1226  1.2123 -1.2202
  527MPD2    H3 7830   2.221   2.734   1.833 -1.6245 -0.4251 -0.7928
  527MPD2     N 7831   2.480   2.843   1.484  0.4801 -0.0068  0.6475
  527MPD2    H5 7832   2.530   2.918   1.437  0.8883  0.3764  1.6876
  527MPD2    N1 7833   2.277   3.180   1.774 -0.0229 -0.4315  0.0470
  527MPD2    H7 7834   2.345   3.248   1.740  1.1578 -0.6694  1.9595
  528TMC3    C1 7835   2.169   3.387   1.818  0.0771 -0.1544 -0.0441
  528TMC3    C2 7836   2.295   3.444   1.820  0.4516  0.7775  0.8441
  528TMC3    C3 7837   2.306   3.573   1.773 -0.0661 -0.1863 -0.0617
  528TMC3    C4 7838   2.054   3.455   1.791 -0.2959 -0.6230 -0.0631
  528TMC3    C5 7839   2.067   3.588   1.755  0.2860  0.3393  0.9285
  528TMC3    C6 7840   2.189   3.647   1.735 -0.0491  0.2656 -0.1381
  528TMC3     C 7841   2.162   3.240   1.820 -0.6318  0.1825  0.0592
  528TMC3     O 7842   2.051   3.196   1.858 -0.0812 -0.2822  0.1808
  528TMC3     H 7843   2.377   3.393   1.870  1.3325 -0.4604 -1.8623
  528TMC3    H1 7844   1.959   3.407   1.811 -0.5456  0.3963  1.2156
  528TMC3    H2 7845   2.209   3.745   1.692 -0.5039  0.1220 -0.6756
  528TMC3    C7 7846   1.943   3.665   1.731 -0.2681  0.1590  0.8858
  528TMC3    C8 7847   2.432   3.651   1.805  0.2690 -0.8743  0.1504
  528TMC3    O1 7848   1.936   3.780   1.772  0.1932 -0.3359 -0.3978
  528TMC3    O2 7849   2.423   3.769   1.780 -0.1907 -0.2007 -0.0220
  529MPD2     C 7850   4.340   1.697   0.877 -0.7529  0.0834  0.7789
  529MPD2    C1 7851   4.471   1.688   0.829  0.4501 -0.6456 -0.7522
  529MPD2    C2 7852   4.505   1.773   0.727  0.0228  0.3716  0.4619
  529MPD2    C3 7853   4.422   1.862   0.664  0.1042  0.0800  0.4450
  529MPD2    C4 7854   4.292   1.866   0.711 -1.2399 -0.8117  0.5460
  529MPD2    C5 7855   4.246   1.783   0.816  0.2255  0.5569 -0.7090
  529MPD2     H 7856   4.606   1.761   0.691 -0.3222 -0.7021 -0.1749
  529MPD2    H1 7857   4.227   1.936   0.659 -0.9604 -2.3503 -1.8984
  529MPD2    H2 7858   4.306   1.634   0.959  0.8287 -0.3632  1.0860
  529MPD2    H3 7859   4.146   1.786   0.858 -0.8604 -0.3992 -3.2410
  529MPD2     N 7860   4.456   1.940   0.554  0.4081 -0.8641 -0.2870
  529MPD2    H5 7861   4.382   1.985   0.501  0.4072  2.5619  2.6779
  529MPD2    N1 7862   4.564   1.579   0.861 -0.3172 -0.5722  0.3675
  529MPD2    H7 7863   4.663   1.581   0.835  0.0664  2.6590  2.1241
  530TMC3    C1 7864   4.641   1.414   1.027  0.2785 -0.6251  0.1700
  530TMC3    C2 7865   0.038   1.483   1.029 -0.2261  0.2603 -0.1815
  530TMC3    C3 7866   0.147   1.407   1.077 -0.2326  0.4414 -1.1641
  530TMC3    C4 7867   4.622   1.283   1.053 -0.0132  0.7977  0.0038
  530TMC3    C5 7868   0.010   1.217   1.102 -0.2413 -0.2772 -0.8989
  530TMC3    C6 7869   0.131   1.274   1.111 -0.5558  0.9187 -0.1157
  530TMC3     C 7870   4.536   1.486   0.958  0.7902 -0.3524 -0.0555
  530TMC3     O 7871   4.420   1.445   0.985 -0.1578  0.6228  0.3212
  530TMC3     H 7872   0.044   1.589   1.007  0.5416 -0.1250 -1.8205
  530TMC3    H1 7873   4.519   1.249   1.054 -0.5926  2.5162 -2.0051
  530TMC3    H2 7874   0.214   1.206   1.121 -0.8707  0.3993 -1.0382
  530TMC3    C7 7875   0.000   1.074   1.076 -0.2149 -0.0516  0.5941
  530TMC3    C8 7876   0.274   1.435   1.015  0.0388  0.1891 -0.3060
  530TMC3    O1 7877   0.102   1.021   1.034 -0.0809 -0.2985 -0.1977
  530TMC3    O2 7878   0.261   1.508   0.924 -0.4102 -0.8547 -0.2794
  531MPD2     C 7879   3.708   4.267  13.092 -0.3540 -0.8165 -0.2140
  531MPD2    C1 7880   3.662   4.331  13.202 -0.6394  0.1073 -0.0417
  531MPD2    C2 7881   3.547   4.409  13.188  0.1537 -0.0644 -0.3359
  531MPD2    C3 7882   3.483   4.421  13.064  0.1922  0.0658  0.0937
  531MPD2    C4 7883   3.538   4.356  12.956  0.4710  0.1244 -0.0362
  531MPD2    C5 7884   3.648   4.282  12.970 -0.7663  0.2670  0.4809
  531MPD2     H 7885   3.513   4.470  13.271 -0.1182 -1.2624  0.4359
  531MPD2    H1 7886   3.489   4.357  12.859  1.4017 -0.4658 -0.5165
  531MPD2    H2 7887   3.802   4.212  13.088  0.2933  0.3183 -0.5247
  531MPD2    H3 7888   3.692   4.233  12.884 -0.3992 -0.9714  1.3807
  531MPD2     N 7889   3.371   4.503  13.035  0.4954 -0.7002 -0.4326
  531MPD2    H5 7890   3.336   4.517  12.941 -0.6428  1.0535  0.2609
  531MPD2    N1 7891   3.728   4.319  13.331 -0.3101 -0.1923 -0.3903
  531MPD2    H7 7892   3.814   4.266  13.334  0.6774  1.5439  1.5628
  532TMC3    C1 7893   3.773   4.384  13.548  0.6097  0.6782  0.8305
  532TMC3    C2 7894   3.723   4.443  13.657 -0.5172  0.0001  0.3631
  532TMC3    C3 7895   3.799   4.527  13.733 -0.4648 -0.5256 -0.7841
  532TMC3    C4 7896   3.908   4.388  13.519  0.4152  0.5483  0.5906
  532TMC3    C5 7897   3.985   4.467  13.599 -0.5899 -0.6996 -0.0483
  532TMC3    C6 7898   3.934   4.540  13.706  0.4452 -0.5495 -0.6144
  532TMC3     C 7899   3.676   4.372  13.446 -0.0069  0.7465 -0.0520
  532TMC3     O 7900   3.568   4.418  13.470 -0.3195 -0.5357  0.5583
  532TMC3     H 7901   3.628   4.405  13.694 -0.4184 -0.9379 -0.3579
  532TMC3    H1 7902   3.935   4.323  13.436 -0.7978  0.5484  0.1956
  532TMC3    H2 7903   3.998   4.613  13.754 -3.9957  2.0268  1.4199
  532TMC3    C7 7904   4.128   4.428  13.599  0.2221  0.3651  0.0327
  532TMC3    C8 7905   3.735   4.651  13.735 -0.5007  0.1059  0.0697
  532TMC3    O1 7906   4.204   4.508  13.652  0.0127 -0.2948  0.2889
  532TMC3    O2 7907   3.788   0.014  13.805  0.1199 -0.1812 -0.1012
  533TMC3    C1 7908   4.446   1.351  14.272 -0.3022  0.2268  0.2397
  533TMC3    C2 7909   4.573   1.393  14.271  0.4099  0.3113 -0.4233
  533TMC3    C3 7910   4.605   1.500  14.343  0.6963  0.7366 -0.1030
  533TMC3    C4 7911   4.339   1.406  14.343 -0.3532  0.0369 -0.1597
  533TMC3    C5 7912   4.374   1.515  14.421 -0.2498  0.7831 -0.5460
  533TMC3    C6 7913   4.506   1.560  14.416 -0.4406  0.0023 -0.6978
  533TMC3     C 7914   4.430   1.208  14.275 -0.1753  0.4715  0.2412
  533TMC3     O 7915   4.532   1.143  14.301 -0.2815  0.0627 -0.0719
  533TMC3     H 7916   4.656   1.336  14.231 -0.6476 -1.0943 -0.6109
  533TMC3    H1 7917   4.238   1.369  14.339 -0.0285 -1.2019  3.1569
  533TMC3    H2 7918   4.544   1.640  14.479 -0.2645  0.5721 -1.5329
  533TMC3    C7 7919   4.324   1.477  14.556 -0.3883 -0.5230  0.5105
  533TMC3    C8 7920   0.025   1.533  14.374 -0.4671  0.3097 -0.9757
  533TMC3    O1 7921   4.283   1.365  14.563  0.8984 -0.1260  0.7771
  533TMC3    O2 7922   0.108   1.442  14.373  0.4111  0.8735 -0.5141
  534MPD2     C 7923   2.244   1.595   1.823  0.1660 -0.0168  0.4479
  534MPD2    C1 7924   2.227   1.717   1.762 -0.2431  0.0774 -0.5709
  534MPD2    C2 7925   2.136   1.733   1.653  0.2299 -0.2868 -0.0608
  534MPD2    C3 7926   2.061   1.622   1.611 -1.1331 -0.2502  0.6821
  534MPD2    C4 7927   2.094   1.498   1.664  0.2066 -0.0965  0.5244
  534MPD2    C5 7928   2.186   1.485   1.766 -0.2582  0.3577 -0.4014
  534MPD2     H 7929   2.114   1.832   1.615 -0.9595 -0.6530 -0.3281
  534MPD2    H1 7930   2.043   1.410   1.627 -1.3411  0.9417  0.1756
  534MPD2    H2 7931   2.318   1.577   1.901  1.0665 -2.4845 -0.9563
  534MPD2    H3 7932   2.207   1.388   1.809 -1.3020  0.3615  0.1190
  534MPD2     N 7933   1.979   1.628   1.493  0.0251  0.4577 -0.4967
  534MPD2    H5 7934   1.934   1.544   1.458 -0.9180 -0.1955  2.3133
  534MPD2    N1 7935   2.302   1.833   1.800  0.8929  0.7506  0.2959
  534MPD2    H7 7936   2.272   1.916   1.750 -1.0619 -0.9664 -1.3844
  535TMC3    C1 7937   1.896   1.718   1.292  0.2841 -0.1404 -0.2139
  535TMC3    C2 7938   1.761   1.675   1.293 -0.4726  0.0504  0.2417
  535TMC3    C3 7939   1.676   1.712   1.194  0.4371 -0.1283 -0.2842
  535TMC3    C4 7940   1.941   1.796   1.189 -0.2995  0.2668 -0.4898
  535TMC3    C5 7941   1.853   1.837   1.095  1.0470  0.4857  0.2549
  535TMC3    C6 7942   1.718   1.795   1.091  0.2954 -0.6595  0.6450
  535TMC3     C 7943   1.967   1.741   1.413  0.2432  0.4615 -0.4855
  535TMC3     O 7944   2.015   1.855   1.423 -0.3296  1.1377  0.7361
  535TMC3     H 7945   1.722   1.632   1.384 -2.0081  0.4366 -0.2189
  535TMC3    H1 7946   2.045   1.825   1.194  0.0705 -1.3580  1.4490
  535TMC3    H2 7947   1.654   1.825   1.009  0.2791  0.5256  1.0982
  535TMC3    C7 7948   1.899   1.943   1.008 -0.0738 -0.0453 -0.1490
  535TMC3    C8 7949   1.544   1.748   1.224  0.3699 -0.2186 -0.0658
  535TMC3    O1 7950   2.021   1.959   1.009  0.4029  0.5695 -0.4099
  535TMC3    O2 7951   1.464   1.761   1.133 -0.0103 -0.5459 -0.1105
  536MPD2     C 7952   1.028   1.038  16.268  0.1264  0.1187  0.0884
  536MPD2    C1 7953   0.911   0.988  16.317  1.3206 -0.5857  0.1721
  536MPD2    C2 7954   0.792   1.000  16.243 -0.3691 -0.7284  0.4917
  536MPD2    C3 7955   0.799   1.069  16.125 -0.0275  0.4785  0.0983
  536MPD2    C4 7956   0.920   1.109  16.073 -0.3115 -0.1539  0.4127
  536MPD2    C5 7957   1.038   1.093  16.140  0.2863 -0.1936 -0.5139
  536MPD2     H 7958   0.702   0.955  16.282  0.0096 -0.9268  1.1283
  536MPD2    H1 7959   0.928   1.163  15.979  1.1955  0.1184  0.6917
  536MPD2    H2 7960   1.121   1.048  16.322  0.4367 -0.5818 -0.3106
  536MPD2    H3 7961   1.127   1.135  16.095 -0.7228  0.9087 -1.4854
  536MPD2     N 7962   0.685   1.070  16.034  0.0869  0.5481  0.1668
  536MPD2    H5 7963   0.707   1.085  15.936 -2.7316  1.2157 -0.3553
  536MPD2    N1 7964   0.925   0.911  16.438  0.0341  0.2016 -0.0108
  536MPD2    H7 7965   1.019   0.882  16.465 -1.4147 -3.9607  0.6378
  537TMC3    C1 7966   0.874   0.741  16.603 -0.3023 -0.2087 -0.3246
  537TMC3    C2 7967   0.998   0.764  16.661 -1.3701  0.7594 -0.2607
  537TMC3    C3 7968   1.068   0.656  16.710  0.5448 -0.5426  0.1077
  537TMC3    C4 7969   0.809   0.622  16.610  0.0773  0.3839 -0.1920
  537TMC3    C5 7970   0.878   0.519  16.676  1.6916 -0.0684 -0.3587
  537TMC3    C6 7971   1.010   0.533  16.710 -0.4441  0.3581 -0.3696
  537TMC3     C 7972   0.822   0.834  16.497  0.3713 -0.3196 -0.3526
  537TMC3     O 7973   0.703   0.830  16.478 -0.4967  0.1446 -0.1773
  537TMC3     H 7974   1.024   0.870  16.663 -0.5730  0.6037 -1.8957
  537TMC3    H1 7975   0.712   0.602  16.564 -0.3235 -2.1328  1.7215
  537TMC3    H2 7976   1.060   0.449  16.756 -0.6940 -0.3036 -1.3074
  537TMC3    C7 7977   0.801   0.395  16.705 -0.7915 -0.0362  0.5466
  537TMC3    C8 7978   1.191   0.672  16.788 -0.7600 -0.6445 -0.5381
  537TMC3    O1 7979   0.687   0.397  16.666  0.1296  0.7709  0.5466
  537TMC3    O2 7980   1.215   0.583  16.868 -0.9819  0.2282 -0.3108
  538TMC3    C1 7981   1.881   3.738  10.862  0.3090  0.2065 -0.0352
  538TMC3    C2 7982   1.898   3.656  10.754  0.1072  0.1121 -0.0187
  538TMC3    C3 7983   1.877   3.710  10.628 -0.1063 -0.0128  0.8346
  538TMC3    C4 7984   1.834   3.866  10.847 -0.3356 -0.1807 -0.7933
  538TMC3    C5 7985   1.810   3.918  10.721  0.0972  0.7669 -0.1003
  538TMC3    C6 7986   1.835   3.847  10.611 -0.0415 -0.0811 -0.1999
  538TMC3     C 7987   1.924   3.705  10.990 -0.1494 -0.1082  0.5292
  538TMC3     O 7988   1.934   3.586  11.017  0.3613  0.5243  0.6321
  538TMC3     H 7989   1.919   3.550  10.757 -0.9612 -0.0419  2.2488
  538TMC3    H1 7990   1.801   3.918  10.936  1.6668 -0.9367  0.3874
  538TMC3    H2 7991   1.808   3.887  10.514  2.0318 -1.1368 -1.1912
  538TMC3    C7 7992   1.700   4.018  10.697  0.0771  0.9081  0.2665
  538TMC3    C8 7993   1.950   3.662  10.513 -0.6615 -0.0117 -0.5043
  538TMC3    O1 7994   1.637   4.005  10.592 -0.4536 -0.5967  0.2638
  538TMC3    O2 7995   1.946   3.538  10.501 -0.1556  0.6684  0.0610
  539MPD2     C 7996   2.078   3.198  11.756  0.0394 -0.3994  0.2429
  539MPD2    C1 7997   2.056   3.169  11.622  0.4639  0.7444 -1.2201
  539MPD2    C2 7998   1.961   3.253  11.557 -0.2743 -0.8800 -0.0757
  539MPD2    C3 7999   1.899   3.360  11.622  0.3502  0.2233  0.4124
  539MPD2    C4 8000   1.926   3.380  11.754  0.3918  0.1817  0.4422
  539MPD2    C5 8001   2.014   3.299  11.819  0.5352 -0.1531 -0.5888
  539MPD2     H 8002   1.929   3.237  11.454  2.5780  0.0971 -1.1118
  539MPD2    H1 8003   1.874   3.453  11.815  1.2471 -0.8470  2.3842
  539MPD2    H2 8004   2.162   3.147  11.802  1.8796  3.1672  0.7836
  539MPD2    H3 8005   2.033   3.313  11.925 -0.8973 -1.8394 -0.1284
  539MPD2     N 8006   1.811   3.456  11.563 -0.5850 -0.3796 -0.3737
  539MPD2    H5 8007   1.775   3.530  11.623  0.0144 -0.4791  0.1116
  539MPD2    N1 8008   2.124   3.064  11.555 -0.0985  0.3514 -0.1396
  539MPD2    H7 8009   2.210   3.027  11.594 -0.7416 -1.1457 -0.1514
  540TMC3    C1 8010   1.702   3.576  11.387 -0.5961 -0.0718  0.8727
  540TMC3    C2 8011   1.695   3.608  11.253 -0.1937  0.3210  0.3341
  540TMC3    C3 8012   1.613   3.713  11.219 -0.0905  1.2168 -1.1093
  540TMC3    C4 8013   1.629   3.640  11.479 -0.3738 -0.1900 -0.8783
  540TMC3    C5 8014   1.542   3.744  11.444 -0.6881  0.3734  1.1148
  540TMC3    C6 8015   1.545   3.781  11.313  0.4733  0.0951 -0.7703
  540TMC3     C 8016   1.799   3.467  11.421 -0.2716 -0.7793  0.5980
  540TMC3     O 8017   1.866   3.415  11.332  0.4108  0.0455  0.3915
  540TMC3     H 8018   1.736   3.548  11.173  0.8415  1.0490  0.3208
  540TMC3    H1 8019   1.623   3.606  11.582  2.4061  1.0822 -0.2707
  540TMC3    H2 8020   1.475   3.858  11.284 -1.1442 -0.4181  1.7374
  540TMC3    C7 8021   1.470   3.819  11.548  0.6452  0.7833  0.1574
  540TMC3    C8 8022   1.575   3.731  11.084  0.4335  0.2975  0.0958
  540TMC3    O1 8023   1.436   3.752  11.644  0.2978 -0.8654 -0.1909
  540TMC3    O2 8024   1.561   3.845  11.040  0.5195  0.1082  0.3512
  541MPD2     C 8025   0.515   4.616  13.314 -0.9416  0.0228 -0.3338
  541MPD2    C1 8026   0.472   4.507  13.236 -0.2583  0.4347  0.2670
  541MPD2    C2 8027   0.425   4.538  13.110  0.0915 -1.5921  0.4935
  541MPD2    C3 8028   0.417   4.663  13.053  1.0756 -0.0585  0.2794
  541MPD2    C4 8029   0.461   0.045  13.131 -0.2404  0.6032 -0.4443
  541MPD2    C5 8030   0.514   0.018  13.256 -0.7262 -0.1837  0.2749
  541MPD2     H 8031   0.404   4.450  13.051 -0.2155 -0.0910 -1.6227
  541MPD2    H1 8032   0.455   0.152  13.118  2.5477  0.7829 -0.3903
  541MPD2    H2 8033   0.540   4.613  13.419  0.1153  0.6422 -0.5751
  541MPD2    H3 8034   0.535   0.099  13.324 -1.1261  0.1172  0.0416
  541MPD2     N 8035   0.377   4.689  12.920 -0.0901 -0.0992  0.1615
  541MPD2    H5 8036   0.369   0.063  12.891 -0.4446 -0.0509  0.4086
  541MPD2    N1 8037   0.487   4.375  13.277  0.3954  0.0815  0.2751
  541MPD2    H7 8038   0.463   4.305  13.207 -1.7700  2.2516 -1.1164
  542TMC3    C1 8039   0.312   4.667  12.713  0.4934 -0.0685 -0.0097
  542TMC3    C2 8040   0.369   4.650  12.590 -0.5342  0.3438  0.3491
  542TMC3    C3 8041   0.337   0.011  12.483  0.0628 -0.0894 -0.3830
  542TMC3    C4 8042   0.238   0.060  12.733  0.5332  0.8896  0.9726
  542TMC3    C5 8043   0.206   0.139  12.621  0.3748 -0.1080 -0.3387
  542TMC3    C6 8044   0.258   0.117  12.497 -0.0958  0.5095  0.1194
  542TMC3     C 8045   0.371   4.602  12.819  0.2698 -1.1629  0.0348
  542TMC3     O 8046   0.391   4.482  12.806  0.5062  0.5443  0.2781
  542TMC3     H 8047   0.424   4.557  12.580 -1.3403  0.1742 -2.6882
  542TMC3    H1 8048   0.185   0.079  12.826  0.1157  3.0930  0.2896
  542TMC3    H2 8049   0.225   0.162  12.404  0.9587  1.7593  0.3507
  542TMC3    C7 8050   0.160   0.274  12.650 -0.3754  0.0595 -0.3236
  542TMC3    C8 8051   0.360   4.682  12.352  0.2654 -0.1312  0.5544
  542TMC3    O1 8052   0.145   0.303  12.764  0.0601  0.9128  0.0481
  542TMC3    O2 8053   0.283   4.709  12.261 -0.1778  0.5200 -0.5666
  543TMC3    C1 8054   4.374   0.592  17.574 -0.4961 -0.2312 -0.3857
  543TMC3    C2 8055   4.348   0.458  17.560 -0.8171 -0.3611 -0.1514
  543TMC3    C3 8056   4.312   0.393  17.674 -0.4362 -0.1376  0.0123
  543TMC3    C4 8057   4.372   0.652   0.005  0.0291  0.6152  0.1284
  543TMC3    C5 8058   4.342   0.579   0.116  0.7302  0.4263  0.4571
  543TMC3    C6 8059   4.313   0.449   0.111 -0.2374 -0.1760 -0.0716
  543TMC3     C 8060   4.395   0.675  17.462 -0.5002  0.4575  0.0071
  543TMC3     O 8061   4.428   0.611  17.364 -0.5583  0.0340 -0.3485
  543TMC3     H 8062   4.333   0.414  17.462 -0.6937  1.8272 -1.1640
  543TMC3    H1 8063   4.403   0.755   0.018  0.6896  0.6725 -1.9699
  543TMC3    H2 8064   4.279   0.387   0.193 -0.4416 -1.1505 -0.8929
  543TMC3    C7 8065   4.391   0.622   0.243  0.5927  0.3792  0.5191
  543TMC3    C8 8066   4.334   0.245  17.658 -0.0983  0.3985 -0.2153
  543TMC3    O1 8067   4.479   0.560   0.304  0.2354  0.1686 -0.7321
  543TMC3    O2 8068   4.412   0.219  17.565 -0.0237 -0.2807 -0.2142
  544MPD2     C 8069   4.199   4.480   0.034  0.1455 -0.5811 -0.1840
  544MPD2    C1 8070   4.286   4.534  17.635 -0.6563  0.6066 -0.5426
  544MPD2    C2 8071   4.310   4.676  17.647  0.0914  0.3806  0.0775
  544MPD2    C3 8072   4.248   0.031   0.045 -0.2449  0.1014  0.5152
  544MPD2    C4 8073   4.171   4.692   0.144 -0.1668 -0.4054 -0.3720
  544MPD2    C5 8074   4.158   4.555   0.144  1.4955  0.4025  0.2837
  544MPD2     H 8075   4.363   4.719  17.562 -1.0191  0.2904 -0.6682
  544MPD2    H1 8076   4.123   0.026   0.222 -1.7206 -0.0104 -1.6352
  544MPD2    H2 8077   4.176   4.374   0.034  2.4046 -1.0826 -3.0225
  544MPD2    H3 8078   4.094   4.508   0.217  0.2781  0.1791 -0.9317
  544MPD2     N 8079   4.249   0.171   0.045  0.5305 -0.0655 -0.0262
  544MPD2    H5 8080   4.204   0.217   0.123  0.9676  0.1041  0.1294
  544MPD2    N1 8081   4.340   4.452  17.540 -0.2545 -0.1235 -0.5859
  544MPD2    H7 8082   4.316   4.353  17.539  0.5748 -0.3245 -0.4608
  545TMC3    C1 8083   4.462   4.370  17.353 -0.6069 -0.4238  0.6463
  545TMC3    C2 8084   4.359   4.288  17.315  0.2208  0.2825 -0.1728
  545TMC3    C3 8085   4.370   4.225  17.199 -0.0887  0.2135 -0.5677
  545TMC3    C4 8086   4.580   4.377  17.274  0.0542 -0.0199 -0.0191
  545TMC3    C5 8087   4.582   4.313  17.156  0.7007  0.4180 -0.8279
  545TMC3    C6 8088   4.480   4.235  17.120  0.8344  0.3248 -0.1153
  545TMC3     C 8089   4.442   4.477  17.453 -0.2948 -0.2624  0.3840
  545TMC3     O 8090   4.513   4.575  17.439 -0.2571 -0.1178  0.3966
  545TMC3     H 8091   4.263   4.281  17.365  0.4756 -0.6281  0.1874
  545TMC3    H1 8092   4.660   4.441  17.311  0.0341 -0.2949  0.4969
  545TMC3    H2 8093   4.497   4.180  17.028 -0.1230 -0.8519  0.4128
  545TMC3    C7 8094   4.703   4.302  17.086  0.3041  0.2075  0.4300
  545TMC3    C8 8095   4.251   4.171  17.143 -0.6165  0.1705 -0.2807
  545TMC3    O1 8096   4.696   4.263  16.969  0.2591  0.0531 -0.4771
  545TMC3    O2 8097   4.152   4.154  17.213 -0.2765 -0.1689 -0.2948
  546MPD2     C 8098   1.318   1.007  17.426  0.4728 -0.2714  0.7772
  546MPD2    C1 8099   1.255   1.035  17.304 -0.6433 -0.3898 -0.2620
  546MPD2    C2 8100   1.296   1.155  17.245  0.7492  0.1067  0.1725
  546MPD2    C3 8101   1.390   1.246  17.304 -0.3194  0.5700  0.1401
  546MPD2    C4 8102   1.439   1.212  17.421 -0.0839  1.0023 -0.1537
  546MPD2    C5 8103   1.408   1.093  17.476 -0.5710  0.1342 -0.4593
  546MPD2     H 8104   1.249   1.184  17.152  0.8000 -2.5831 -0.6751
  546MPD2    H1 8105   1.521   1.268  17.464  2.6815 -2.5173 -0.8212
  546MPD2    H2 8106   1.296   0.916  17.481 -0.1418 -0.3083  0.4732
  546MPD2    H3 8107   1.447   1.058  17.571 -2.0206 -1.0422 -0.2811
  546MPD2     N 8108   1.447   1.366  17.255  0.2607 -0.5055  0.6969
  546MPD2    H5 8109   1.504   1.420  17.320 -1.5146  1.0421  0.9748
  546MPD2    N1 8110   1.154   0.944  17.269 -0.4083  0.0525 -0.2722
  546MPD2    H7 8111   1.130   0.873  17.337  0.1922  1.9356  1.9035
  547TMC3    C1 8112   1.022   0.821  17.119 -0.6563  0.5773  0.0956
  547TMC3    C2 8113   0.913   0.816  17.031  0.0215  0.1586 -0.0426
  547TMC3    C3 8114   0.859   0.691  17.006  0.0786  0.6412 -0.5157
  547TMC3    C4 8115   1.072   0.706  17.183  0.5076  0.1689  0.1746
  547TMC3    C5 8116   1.016   0.584  17.146  0.4956 -0.5474 -0.1270
  547TMC3    C6 8117   0.919   0.583  17.045  0.0185  0.4436 -0.8693
  547TMC3     C 8118   1.078   0.949  17.150  0.2325  0.1525  0.0893
  547TMC3     O 8119   1.061   1.039  17.074  0.4304 -0.7239 -0.7068
  547TMC3     H 8120   0.863   0.902  16.988  0.5631  0.8152  0.6284
  547TMC3    H1 8121   1.158   0.706  17.249  1.3445  1.4294 -0.9133
  547TMC3    H2 8122   0.889   0.492  16.995 -1.7697  0.3866  0.3121
  547TMC3    C7 8123   0.991   0.492  17.258  0.7081  0.1676  0.4653
  547TMC3    C8 8124   0.722   0.681  16.960  0.0532  0.4945  0.2351
  547TMC3    O1 8125   1.007   0.532  17.372 -0.0715  0.0993 -0.3020
  547TMC3    O2 8126   0.676   0.758  16.875 -0.0315 -0.2295 -0.5660
  548MPD2     C 8127   1.124   1.962  12.264 -0.4764  0.6900 -0.3322
  548MPD2    C1 8128   1.090   1.829  12.273  0.0362  0.1167 -0.5522
  548MPD2    C2 8129   1.176   1.735  12.221  0.2764 -0.4479  0.1405
  548MPD2    C3 8130   1.281   1.776  12.154  0.4597  0.3326  0.1013
  548MPD2    C4 8131   1.314   1.905  12.142  0.2259 -0.1773 -0.0398
  548MPD2    C5 8132   1.234   2.000  12.196  0.4925  0.5006  0.4488
  548MPD2     H 8133   1.170   1.628  12.237 -0.1000 -0.3639  0.5869
  548MPD2    H1 8134   1.404   1.926  12.085 -0.3672 -2.2175 -1.6884
  548MPD2    H2 8135   1.049   2.031  12.300  1.0032  0.6118  2.8869
  548MPD2    H3 8136   1.269   2.103  12.204  1.3044 -0.1447  5.2403
  548MPD2     N 8137   1.365   1.674  12.105 -0.4124 -0.4552  0.1308
  548MPD2    H5 8138   1.352   1.578  12.137  1.9244 -0.6694  0.4290
  548MPD2    N1 8139   0.965   1.784  12.317  0.0486 -0.4166  0.8352
  548MPD2    H7 8140   0.908   1.860  12.352  2.6056  1.4180  1.0726
  549TMC3    C1 8141   0.784   1.644  12.376  0.2210  0.8776 -0.2293
  549TMC3    C2 8142   0.698   1.746  12.349  0.8432  0.0710  0.1794
  549TMC3    C3 8143   0.565   1.728  12.383  1.2839  0.1093  0.6527
  549TMC3    C4 8144   0.745   1.523  12.426  0.3073 -0.6059  0.0022
  549TMC3    C5 8145   0.613   1.503  12.447 -0.2671 -0.3808  0.7445
  549TMC3    C6 8146   0.521   1.602  12.424 -0.6112 -0.4548  0.4657
  549TMC3     C 8147   0.920   1.652  12.332  0.3270 -0.6795 -0.5845
  549TMC3     O 8148   0.981   1.547  12.326 -0.4442  0.6310 -0.3115
  549TMC3     H 8149   0.727   1.837  12.299  0.7361  1.2075  2.1965
  549TMC3    H1 8150   0.812   1.441  12.449  0.4175 -0.5862 -0.2483
  549TMC3    H2 8151   0.414   1.591  12.440 -0.3878 -1.1712  1.4875
  549TMC3    C7 8152   0.557   1.380  12.503  0.5260  0.2249  0.3389
  549TMC3    C8 8153   0.461   1.832  12.366  0.5187  0.0693 -0.1654
  549TMC3    O1 8154   0.437   1.375  12.523 -1.2581 -0.2788  0.1635
  549TMC3    O2 8155   0.346   1.805  12.343 -0.3982 -0.4083 -0.2083
  550TMC3    C1 8156   3.987   4.408  12.719  0.0785  0.1140  0.7207
  550TMC3    C2 8157   3.952   4.523  12.792  0.0754 -0.4347  0.1942
  550TMC3    C3 8158   4.048   4.601  12.856  0.1087 -0.5271  0.2418
  550TMC3    C4 8159   4.116   4.364  12.721  0.6802 -0.2079 -0.0335
  550TMC3    C5 8160   4.208   4.450  12.774  0.9903 -0.2146 -0.3157
  550TMC3    C6 8161   4.182   4.560  12.858  0.2792 -0.1518 -0.6695
  550TMC3     C 8162   3.890   4.367  12.617  0.3023  0.3297 -0.3577
  550TMC3     O 8163   3.771   4.399  12.626 -0.0625  0.8244 -0.3528
  550TMC3     H 8164   3.865   4.574  12.753 -0.2714 -0.6315  0.7035
  550TMC3    H1 8165   4.149   4.274  12.671  0.5984 -0.1918 -0.1176
  550TMC3    H2 8166   4.256   4.629  12.896  0.4953  0.0913 -1.5408
  550TMC3    C7 8167   4.346   4.406  12.763 -0.5075  0.1204  0.1077
  550TMC3    C8 8168   4.038   0.011  12.809  0.0191  0.3110  0.5265
  550TMC3    O1 8169   4.401   4.379  12.873 -0.5716  0.6751 -0.0240
  550TMC3    O2 8170   4.134   0.041  12.734  0.1156 -0.3353 -0.9984
  551TMC3    C1 8171   1.917   2.099  13.200 -0.6758 -0.6808  0.6073
  551TMC3    C2 8172   1.963   2.209  13.138  0.4710  0.5046 -0.6377
  551TMC3    C3 8173   2.007   2.316  13.207  0.1499 -0.3710 -0.4540
  551TMC3    C4 8174   1.922   2.092  13.337  0.5388 -0.3424  0.1754
  551TMC3    C5 8175   1.963   2.206  13.412  0.2582  0.0929 -0.3867
  551TMC3    C6 8176   2.000   2.319  13.350  0.0112 -0.7349  0.3906
  551TMC3     C 8177   1.844   1.999  13.120 -0.5937 -0.2991  0.3513
  551TMC3     O 8178   1.840   2.010  12.998  0.1042 -0.2295 -0.0943
  551TMC3     H 8179   1.985   2.196  13.032  1.6476 -1.4413 -0.1633
  551TMC3    H1 8180   1.897   2.004  13.395 -0.2525 -0.9580 -1.0976
  551TMC3    H2 8181   2.028   2.409  13.402  1.6291 -1.9109  1.5574
  551TMC3    C7 8182   1.960   2.222  13.562  0.4345 -0.0803  0.7580
  551TMC3    C8 8183   2.126   2.373  13.151  0.0997 -0.3323  0.5202
  551TMC3    O1 8184   2.000   2.331  13.604  0.1066 -0.6205  0.3320
  551TMC3    O2 8185   2.225   2.305  13.135 -0.0449 -0.0790  0.3236
  552MPD2     C 8186   4.046   4.143  13.893  0.1623 -0.0756  0.3558
  552MPD2    C1 8187   4.002   4.058  13.982  0.4706 -0.2813 -0.2197
  552MPD2    C2 8188   4.083   4.019  14.090  0.3027  0.0813 -0.2396
  552MPD2    C3 8189   4.213   4.075  14.095 -0.0187 -0.4413  0.8719
  552MPD2    C4 8190   4.257   4.165  14.004  0.2717  0.4422 -0.4897
  552MPD2    C5 8191   4.173   4.199  13.903  0.0966 -0.1275 -0.3313
  552MPD2     H 8192   4.046   3.947  14.161  1.3350  0.8845  1.1209
  552MPD2    H1 8193   4.357   4.201  14.022  0.4885 -1.4568  2.0765
  552MPD2    H2 8194   3.985   4.190  13.817  1.1192  1.4852  0.5578
  552MPD2    H3 8195   4.211   4.255  13.818 -0.4314  2.5802  1.2094
  552MPD2     N 8196   4.299   4.053  14.205  0.1950 -0.2564  0.0283
  552MPD2    H5 8197   4.395   4.084  14.200  0.4562 -0.6999  2.2109
  552MPD2    N1 8198   3.878   4.002  13.974 -0.3803  0.2170  0.4793
  552MPD2    H7 8199   3.841   3.941  14.046  2.3092  1.1604  2.6680
  553TMC3    C1 8200   3.685   3.924  13.883  0.4534  1.2979 -0.5825
  553TMC3    C2 8201   3.594   3.946  13.785  0.1467 -0.1832 -0.2370
  553TMC3    C3 8202   3.564   3.849  13.698  0.5737 -0.9386  0.2720
  553TMC3    C4 8203   3.734   3.796  13.905 -0.2537 -0.2935  0.2420
  553TMC3    C5 8204   3.705   3.705  13.815 -0.4867 -0.1204 -0.4963
  553TMC3    C6 8205   3.619   3.727  13.712  0.3649 -0.8315  0.8420
  553TMC3     C 8206   3.790   4.023  13.874 -0.3868 -0.3251 -0.3752
  553TMC3     O 8207   3.782   4.108  13.789 -0.8738 -0.5151 -0.2422
  553TMC3     H 8208   3.569   4.049  13.762  0.5035 -0.3360 -1.2998
  553TMC3    H1 8209   3.788   3.767  13.995  1.1689  0.4296 -0.3898
  553TMC3    H2 8210   3.597   3.648  13.641 -0.6429 -0.1173  0.3579
  553TMC3    C7 8211   3.830   3.664  13.750 -0.9417 -0.6207 -0.3044
  553TMC3    C8 8212   3.553   3.911  13.568  0.5920  0.0520 -0.3134
  553TMC3    O1 8213   3.837   3.685  13.628  0.0389  0.0908 -0.1663
  553TMC3    O2 8214   3.479   4.002  13.537  0.3075 -0.8289  0.0670
  554TMC3    C1 8215   1.029   2.947  11.427  0.9373 -0.0387 -0.4145
  554TMC3    C2 8216   0.980   2.893  11.313 -0.6369  0.5613 -0.2932
  554TMC3    C3 8217   1.042   2.920  11.193 -0.1629  0.7328  0.1111
  554TMC3    C4 8218   1.120   3.047  11.416  0.1594  0.4335  0.0389
  554TMC3    C5 8219   1.172   3.086  11.296  0.0635  0.2422 -0.5021
  554TMC3    C6 8220   1.137   3.016  11.176  0.4082 -0.6122 -0.2865
  554TMC3     C 8221   0.951   2.939  11.549 -0.1059 -0.7270  0.2979
  554TMC3     O 8222   0.825   2.929  11.535  0.7083 -0.5789  0.2189
  554TMC3     H 8223   0.902   2.821  11.336 -0.3839  0.0175 -1.1247
  554TMC3    H1 8224   1.158   3.084  11.510  0.9079 -0.3514  0.0549
  554TMC3    H2 8225   1.177   3.043  11.080 -0.2822 -2.6949 -1.1491
  554TMC3    C7 8226   1.235   3.218  11.273  0.0961 -0.3569 -0.7603
  554TMC3    C8 8227   0.964   2.909  11.068  0.2966  0.4157  0.7280
  554TMC3    O1 8228   1.272   3.235  11.157  0.0331 -0.0801 -0.5392
  554TMC3    O2 8229   0.987   2.993  10.981 -0.2386  0.0951 -0.5264
  555TMC3    C1 8230   4.395   2.784  15.548 -0.4685  0.2933 -0.3409
  555TMC3    C2 8231   4.415   2.874  15.652  0.7482  0.5925  0.2545
  555TMC3    C3 8232   4.455   2.818  15.768  0.5126  0.2471 -0.1956
  555TMC3    C4 8233   4.409   2.653  15.558  0.3994  0.2842  0.4371
  555TMC3    C5 8234   4.444   2.601  15.676  0.0153  0.2322  0.0749
  555TMC3    C6 8235   4.463   2.681  15.783  0.5950  0.2516 -1.1895
  555TMC3     C 8236   4.389   2.844  15.414 -0.9762 -0.2040 -0.1174
  555TMC3     O 8237   4.345   2.764  15.334  0.5963 -0.2410  0.4721
  555TMC3     H 8238   4.396   2.981  15.645 -4.3164 -0.3856 -0.9647
  555TMC3    H1 8239   4.377   2.579  15.485  1.2647  0.7116 -0.3777
  555TMC3    H2 8240   4.483   2.639  15.881 -1.2063  2.3348  0.0885
  555TMC3    C7 8241   4.472   2.459  15.678 -0.0036 -0.5939  0.5182
  555TMC3    C8 8242   4.525   2.897  15.865 -0.2426 -0.3711 -0.1473
  555TMC3    O1 8243   4.387   2.387  15.629 -0.1447  0.4401 -0.2375
  555TMC3    O2 8244   4.491   3.013  15.861 -0.3430  0.5816  0.6220
  556MPD2     C 8245   2.837   0.065  10.523  0.0733  0.2910  0.4383
  556MPD2    C1 8246   2.770   4.681  10.590 -0.0136 -0.2462  0.0083
  556MPD2    C2 8247   2.717   4.579  10.512 -0.5308 -0.1151  0.6799
  556MPD2    C3 8248   2.729   4.577  10.374  0.0486  0.8568  0.3296
  556MPD2    C4 8249   2.794   4.682  10.314  0.2213 -1.1352  0.2194
  556MPD2    C5 8250   2.840   0.059  10.391 -0.0262  0.6893 -1.0782
  556MPD2     H 8251   2.648   4.505  10.552  0.9527 -1.6910  0.3125
  556MPD2    H1 8252   2.800   4.704  10.208 -1.2314 -1.3517  0.0887
  556MPD2    H2 8253   2.894   0.139  10.578 -0.7379 -0.2511  2.0042
  556MPD2    H3 8254   2.903   0.136  10.348  0.9444  0.3838 -0.2118
  556MPD2     N 8255   2.677   4.469  10.299  0.7255 -0.4924  0.1233
  556MPD2    H5 8256   2.648   4.383  10.346  0.2665 -0.4159 -0.0245
  556MPD2    N1 8257   2.749   4.674  10.728  0.4862 -0.2789 -0.3163
  556MPD2    H7 8258   2.706   4.593  10.771  0.5450  0.4062  1.0023
  557TMC3    C1 8259   2.623   4.333  10.108  0.2474 -0.3905  0.0644
  557TMC3    C2 8260   2.621   4.318   9.968  0.2412  0.5691 -0.3845
  557TMC3    C3 8261   2.552   4.212   9.916 -0.4799  0.0870 -0.2735
  557TMC3    C4 8262   2.565   4.238  10.193  0.4730 -0.5425 -0.7298
  557TMC3    C5 8263   2.497   4.135  10.131  0.1761  0.1822 -0.2104
  557TMC3    C6 8264   2.493   4.120   9.995 -0.5672 -0.0252 -0.0807
  557TMC3     C 8265   2.670   4.458  10.165 -0.4555 -0.8381 -0.1932
  557TMC3     O 8266   2.721   4.537  10.081 -0.4200  0.4323 -0.7896
  557TMC3     H 8267   2.669   4.396   9.910  1.3062  1.2108  1.3433
  557TMC3    H1 8268   2.582   4.242  10.300  0.8676  1.3274 -0.8618
  557TMC3    H2 8269   2.431   4.044   9.950  0.2813 -0.8008  0.0658
  557TMC3    C7 8270   2.410   4.050  10.215  0.1949 -0.2372  0.0456
  557TMC3    C8 8271   2.575   4.205   9.763 -0.0098 -1.2471 -0.3688
  557TMC3    O1 8272   2.348   4.089  10.316 -0.2482 -0.4288  0.1594
  557TMC3    O2 8273   2.627   4.298   9.707 -0.8368  0.0070 -0.7387
  558TMC3    C1 8274   0.781   2.327  10.177 -0.0418 -0.0368  0.2324
  558TMC3    C2 8275   0.657   2.299  10.236 -0.1084  0.0557 -0.2821
  558TMC3    C3 8276   0.561   2.266  10.144  0.5541 -0.7431 -0.1273
  558TMC3    C4 8277   0.805   2.323  10.042 -0.0141 -0.1830 -0.1099
  558TMC3    C5 8278   0.701   2.310   9.962  0.4747  0.2647  0.1548
  558TMC3    C6 8279   0.582   2.273  10.010 -0.2756  0.3785  0.0252
  558TMC3     C 8280   0.902   2.337  10.257 -0.5922 -0.4802 -0.0732
  558TMC3     O 8281   1.008   2.353  10.194 -0.3163  0.4246 -0.3336
  558TMC3     H 8282   0.634   2.313  10.340 -0.9143  2.3749 -0.7845
  558TMC3    H1 8283   0.902   2.343   9.998 -0.6257  0.1713 -1.3045
  558TMC3    H2 8284   0.494   2.257   9.949 -0.6360  1.3844  0.2760
  558TMC3    C7 8285   0.732   2.243   9.834 -0.0824 -0.2923 -0.2916
  558TMC3    C8 8286   0.427   2.241  10.191 -0.5689  0.0134 -0.3170
  558TMC3    O1 8287   0.795   2.307   9.751 -0.3183 -0.2159 -0.1276
  558TMC3    O2 8288   0.340   2.236  10.108  0.4393 -0.0630  0.9795
  559MPD2     C 8289   0.587   2.638  10.127 -0.1350  0.1736 -0.6671
  559MPD2    C1 8290   0.539   2.619  10.252  0.3850 -0.3230 -0.2356
  559MPD2    C2 8291   0.611   2.632  10.367 -0.5272  0.0765 -0.1904
  559MPD2    C3 8292   0.750   2.659  10.352  0.2649  0.7948  0.3025
  559MPD2    C4 8293   0.806   2.669  10.228 -0.1099  0.7808  0.1508
  559MPD2    C5 8294   0.726   2.665  10.116 -0.1599 -0.5210  0.3110
  559MPD2     H 8295   0.574   2.619  10.469 -3.0796  1.9539 -0.8746
  559MPD2    H1 8296   0.912   2.687  10.217  0.5676 -3.6715 -0.3625
  559MPD2    H2 8297   0.531   2.637  10.034  0.5541  0.6567 -1.0829
  559MPD2    H3 8298   0.768   2.689  10.020  0.1072 -1.7797  0.1111
  559MPD2     N 8299   0.825   2.645  10.476  0.1502  0.1901  0.0494
  559MPD2    H5 8300   0.766   2.626  10.556  0.6912  0.8192  0.5996
  559MPD2    N1 8301   0.405   2.583  10.284  0.6315  0.2095 -0.0623
  559MPD2    H7 8302   0.392   2.567  10.383 -2.5950  1.8411 -0.2287
  560TMC3    C1 8303   0.992   2.623  10.628 -0.6308 -0.4255  0.4083
  560TMC3    C2 8304   0.907   2.551  10.710  0.4879  0.7707  0.1845
  560TMC3    C3 8305   0.942   2.519  10.840 -0.7141  0.1359 -0.4677
  560TMC3    C4 8306   1.118   2.654  10.667 -0.0033  0.5177 -0.0949
  560TMC3    C5 8307   1.160   2.627  10.794 -0.9625  0.5140  0.8347
  560TMC3    C6 8308   1.070   2.551  10.876  0.8167 -0.1073 -0.6745
  560TMC3     C 8309   0.960   2.659  10.496 -0.0438  0.2306 -0.9354
  560TMC3     O 8310   1.056   2.681  10.421 -0.3012  0.2297  0.0818
  560TMC3     H 8311   0.811   2.518  10.673  0.7148  1.9576 -1.4576
  560TMC3    H1 8312   1.187   2.705  10.601 -0.2779  0.7551 -0.1990
  560TMC3    H2 8313   1.107   2.520  10.974  1.4304 -1.1150 -1.2254
  560TMC3    C7 8314   1.275   2.692  10.850  1.0899 -0.6991  0.6782
  560TMC3    C8 8315   0.871   2.410  10.890 -0.8318 -0.2349  0.3287
  560TMC3    O1 8316   1.344   2.749  10.771 -0.0730  0.1634 -0.3896
  560TMC3    O2 8317   0.778   2.366  10.822  0.3176  0.0631  0.7743
  561TMC3    C1 8318   3.375   1.827  11.353 -0.1339  0.1801 -0.4567
  561TMC3    C2 8319   3.292   1.791  11.458  0.6246  0.0165  0.0107
  561TMC3    C3 8320   3.201   1.879  11.526 -0.3500 -0.3675 -1.1591
  561TMC3    C4 8321   3.368   1.958  11.315  0.4506 -0.1388 -0.3598
  561TMC3    C5 8322   3.284   2.049  11.383  0.0666 -0.8706  0.2060
  561TMC3    C6 8323   3.194   2.008  11.486 -0.1485 -0.0754 -0.2078
  561TMC3     C 8324   3.405   1.724  11.255 -0.0142 -0.1211 -0.0872
  561TMC3     O 8325   3.484   1.638  11.292 -0.5320  0.2307 -0.5059
  561TMC3     H 8326   3.283   1.686  11.484 -1.6392  0.3219  0.4924
  561TMC3    H1 8327   3.430   1.989  11.231  0.5925  1.3654  0.3105
  561TMC3    H2 8328   3.139   2.079  11.546  1.4317  1.8332 -1.0460
  561TMC3    C7 8329   3.262   2.182  11.332  0.4037 -0.4736  0.1426
  561TMC3    C8 8330   3.175   1.840  11.663  0.0962  0.4423 -0.2858
  561TMC3    O1 8331   3.183   2.255  11.396  0.0937  0.1203  0.2376
  561TMC3    O2 8332   3.252   1.758  11.709  0.0833 -0.1899 -0.6848
  562TMC3    C1 8333   4.511   3.171  16.446  0.3127 -0.0372  0.6318
  562TMC3    C2 8334   4.463   3.285  16.385  0.0084 -0.6214 -0.1470
  562TMC3    C3 8335   4.385   3.275  16.277  0.2213 -0.9833  0.3225
  562TMC3    C4 8336   4.494   3.049  16.390 -0.6579 -0.7463  0.6565
  562TMC3    C5 8337   4.416   3.045  16.278  1.1718  0.0712  0.0262
  562TMC3    C6 8338   4.358   3.159  16.218 -0.1391  0.7824  0.4319
  562TMC3     C 8339   4.600   3.179  16.562  0.7206  0.6155 -0.5997
  562TMC3     O 8340   4.690   3.101  16.579 -0.2606  0.2218 -0.9397
  562TMC3     H 8341   4.467   3.381  16.435  0.8828 -0.8536  0.2285
  562TMC3    H1 8342   4.525   2.965  16.451 -0.5139  0.3760  2.1530
  562TMC3    H2 8343   4.301   3.141  16.127 -2.7508  0.2477  2.1905
  562TMC3    C7 8344   4.386   2.928  16.200  0.0037  0.0931  0.5735
  562TMC3    C8 8345   4.289   3.386  16.255  0.1687  0.6237 -0.0464
  562TMC3    O1 8346   4.283   2.929  16.140  0.6017  0.2471  0.0503
  562TMC3    O2 8347   4.257   3.446  16.355  0.4665 -0.1279 -0.2827
  563MPD2     C 8348   1.995   4.107  15.900  0.1033  0.5671 -0.3153
  563MPD2    C1 8349   2.049   4.226  15.955 -0.1351  0.0581 -0.5532
  563MPD2    C2 8350   2.168   4.230  16.030  0.0600  0.1910 -0.0501
  563MPD2    C3 8351   2.235   4.115  16.057  0.1404  0.3444  0.1996
  563MPD2    C4 8352   2.187   4.005  15.995 -0.5800  0.1784 -0.1674
  563MPD2    C5 8353   2.066   3.992  15.925  0.0576 -0.0498 -0.6605
  563MPD2     H 8354   2.211   4.320  16.074 -1.6344  0.0086  2.0078
  563MPD2    H1 8355   2.223   3.906  16.022  0.1377  0.1401 -1.3163
  563MPD2    H2 8356   1.898   4.108  15.852  0.6996  2.9212 -1.4951
  563MPD2    H3 8357   2.026   3.899  15.886  0.3048 -0.6960  0.6274
  563MPD2     N 8358   2.345   4.120  16.150  0.1804 -0.0334  0.2322
  563MPD2    H5 8359   2.373   4.208  16.193  3.7087 -1.1338  0.1715
  563MPD2    N1 8360   1.978   4.349  15.963 -0.4260  0.1876  0.0196
  563MPD2    H7 8361   2.028   4.411  16.026  2.2799  0.1669 -2.1183
  564TMC3    C1 8362   1.784   4.443  16.027 -0.1700  0.6405 -0.1488
  564TMC3    C2 8363   1.652   4.388  16.046 -0.3265  0.2051  0.1012
  564TMC3    C3 8364   1.613   4.329  16.160  0.1188 -0.5324 -0.1850
  564TMC3    C4 8365   1.856   4.450  16.141  0.5829  0.4960  0.9800
  564TMC3    C5 8366   1.812   4.390  16.262  0.0785  0.3098  0.0125
  564TMC3    C6 8367   1.695   4.321  16.270  0.2733  0.0158  0.2923
  564TMC3     C 8368   1.845   4.365  15.927 -0.3423 -0.0551  0.3042
  564TMC3     O 8369   1.767   4.301  15.859 -0.1623  0.3959 -0.1030
  564TMC3     H 8370   1.588   4.384  15.959  1.0085  2.8008 -1.0087
  564TMC3    H1 8371   1.940   4.518  16.143  2.0623 -1.3468  0.9866
  564TMC3    H2 8372   1.668   4.266  16.359 -0.2616  0.9745  0.7232
  564TMC3    C7 8373   1.922   4.297  16.312 -0.3824 -0.2337  0.7517
  564TMC3    C8 8374   1.535   4.212  16.152 -1.1867 -0.2945  0.0072
  564TMC3    O1 8375   2.029   4.349  16.350  0.0230  0.0494  0.1909
  564TMC3    O2 8376   1.493   4.148  16.249  0.1712  0.0915  0.0981
  565TMC3    C1 8377   1.876   0.985   9.487 -0.1451 -0.4155 -0.0541
  565TMC3    C2 8378   1.863   0.868   9.566  0.3376  0.4459 -0.3452
  565TMC3    C3 8379   1.758   0.784   9.541  0.1387  0.2890  0.0915
  565TMC3    C4 8380   1.798   1.002   9.378 -0.2135 -0.4609 -0.8877
  565TMC3    C5 8381   1.695   0.921   9.360 -1.0515  0.3363 -0.2871
  565TMC3    C6 8382   1.669   0.806   9.435 -0.1595 -0.5057 -0.0978
  565TMC3     C 8383   1.985   1.072   9.503 -0.4739  0.5158 -0.5640
  565TMC3     O 8384   2.005   1.149   9.413  0.2928  0.0375 -0.1632
  565TMC3     H 8385   1.927   0.848   9.651 -0.1248 -1.1464 -0.3711
  565TMC3    H1 8386   1.804   1.086   9.310 -0.6030 -0.3040 -0.7295
  565TMC3    H2 8387   1.572   0.759   9.438  1.0159 -2.8954  0.2850
  565TMC3    C7 8388   1.601   0.944   9.258 -0.3679 -0.0361  0.9435
  565TMC3    C8 8389   1.720   0.689   9.638 -0.0703  0.0337 -0.4215
  565TMC3    O1 8390   1.593   1.062   9.221 -0.1323  0.4285 -0.4417
  565TMC3    O2 8391   1.788   0.687   9.742  0.3847 -0.4391 -0.2411
  566MPD2     C 8392   3.896   2.614  14.457  0.1912 -0.7808 -0.2601
  566MPD2    C1 8393   3.934   2.692  14.356 -0.4364 -0.3273 -0.0025
  566MPD2    C2 8394   3.838   2.753  14.283 -0.1035  0.4998  0.3634
  566MPD2    C3 8395   3.702   2.715  14.298 -0.4932 -0.5177  0.1605
  566MPD2    C4 8396   3.663   2.636  14.407 -0.4506  0.3414 -0.4908
  566MPD2    C5 8397   3.761   2.589  14.484 -0.5761  0.1694  0.2435
  566MPD2     H 8398   3.855   2.822  14.201  0.9098  1.8114  1.6637
  566MPD2    H1 8399   3.561   2.606  14.430 -0.4453  0.1053 -0.7731
  566MPD2    H2 8400   3.965   2.562  14.523 -0.0371 -0.8273 -0.0563
  566MPD2    H3 8401   3.731   2.520  14.562  0.0692 -0.2657  0.1080
  566MPD2     N 8402   3.602   2.737  14.200 -0.2087  0.2880 -0.0377
  566MPD2    H5 8403   3.511   2.734  14.243  1.1705  0.4162  2.9126
  566MPD2    N1 8404   4.073   2.725  14.339 -0.0648 -0.3448  0.1696
  566MPD2    H7 8405   4.143   2.680  14.397  1.0369  0.6404 -0.4179
  567TMC3    C1 8406   4.271   2.815  14.239  0.7267  0.2557  0.0672
  567TMC3    C2 8407   4.331   2.821  14.118 -0.2664 -0.0870  0.5994
  567TMC3    C3 8408   4.469   2.840  14.112 -0.3012  0.0950  0.2603
  567TMC3    C4 8409   4.343   2.829  14.354 -0.0750  0.5824  0.5302
  567TMC3    C5 8410   4.473   2.850  14.344  0.0322 -0.3508 -0.0952
  567TMC3    C6 8411   4.543   2.855  14.225 -0.2746 -0.4895  0.2392
  567TMC3     C 8412   4.125   2.800  14.235 -0.1267 -0.4400 -0.0446
  567TMC3     O 8413   4.076   2.856  14.138  0.7514  0.2808 -0.4914
  567TMC3     H 8414   4.276   2.802  14.027  1.2745  2.1372 -0.7902
  567TMC3    H1 8415   4.290   2.858  14.444 -2.5103  1.1494 -1.0899
  567TMC3    H2 8416   4.648   2.883  14.226 -0.5264  0.4391  3.0449
  567TMC3    C7 8417   4.555   2.854  14.471  0.1586  0.4796 -0.2098
  567TMC3    C8 8418   4.514   2.894  13.985  0.3275  0.4609 -0.5538
  567TMC3    O1 8419   4.662   2.916  14.466 -0.9280  0.0935 -0.4182
  567TMC3    O2 8420   4.429   2.912  13.896 -0.3007 -0.0424  0.0867
  568MPD2     C 8421   2.422   3.402  16.706 -0.3568  0.1799  0.1837
  568MPD2    C1 8422   2.306   3.377  16.778  0.0243  0.2239 -0.4866
  568MPD2    C2 8423   2.184   3.389  16.716  0.6327  0.6441 -0.4732
  568MPD2    C3 8424   2.182   3.414  16.578  0.4471  0.1163  0.0409
  568MPD2    C4 8425   2.295   3.439  16.511  0.3735  0.0837  1.0945
  568MPD2    C5 8426   2.416   3.434  16.576  0.5013  0.0543 -0.3755
  568MPD2     H 8427   2.088   3.372  16.763  0.7385 -0.6980 -0.7603
  568MPD2    H1 8428   2.311   3.455  16.405  0.2921 -0.3342  1.0165
  568MPD2    H2 8429   2.519   3.395  16.753 -0.8947 -1.3844  1.0818
  568MPD2    H3 8430   2.505   3.464  16.521  1.1703 -0.3888  0.4747
  568MPD2     N 8431   2.054   3.433  16.525 -0.1194  0.1559  0.5222
  568MPD2    H5 8432   1.985   3.424  16.599  0.5349 -0.5698  1.0428
  568MPD2    N1 8433   2.324   3.321  16.904 -0.4034  0.4740 -0.2663
  568MPD2    H7 8434   2.417   3.302  16.940  0.2651  1.2141 -1.6121
  569TMC3    C1 8435   1.887   3.483  16.373  0.0440  0.0844 -1.1488
  569TMC3    C2 8436   1.828   3.545  16.479 -0.2278 -0.3680  1.0174
  569TMC3    C3 8437   1.702   3.586  16.464 -0.5255  0.4053  0.6900
  569TMC3    C4 8438   1.820   3.464  16.261 -0.2110  0.9047  0.1984
  569TMC3    C5 8439   1.693   3.496  16.243 -0.3678 -0.4423 -0.0341
  569TMC3    C6 8440   1.633   3.560  16.349  0.6632 -0.7434 -0.6165
  569TMC3     C 8441   2.021   3.446  16.389  0.3538 -0.1274 -0.5670
  569TMC3     O 8442   2.099   3.426  16.295  0.9861  0.3310  0.3112
  569TMC3     H 8443   1.883   3.578  16.568 -1.0245  0.0891  1.3396
  569TMC3    H1 8444   1.872   3.419  16.177 -1.2595  0.3494 -0.1628
  569TMC3    H2 8445   1.534   3.602  16.338  1.2365  0.3827 -1.4366
  569TMC3    C7 8446   1.673   3.566  16.116 -0.6644  0.2749  0.8048
  569TMC3    C8 8447   1.684   3.730  16.496  0.2810  0.3076  0.6775
  569TMC3    O1 8448   1.720   3.513  16.019 -0.1292 -0.1487  0.4411
  569TMC3    O2 8449   1.618   3.789  16.413 -0.5669  0.8485  0.0355
  570TMC3    C1 8450   1.141   2.086  16.322  0.2199 -0.6153  0.0024
  570TMC3    C2 8451   1.195   2.044  16.209  0.0979  0.0505 -0.0613
  570TMC3    C3 8452   1.247   2.135  16.118 -0.8571  0.0897 -0.5230
  570TMC3    C4 8453   1.149   2.219  16.361 -0.0301 -0.5442  0.2098
  570TMC3    C5 8454   1.201   2.307  16.274  0.0326 -0.3425 -0.4659
  570TMC3    C6 8455   1.253   2.270  16.147  0.3444 -0.7222 -0.1558
  570TMC3     C 8456   1.092   1.987  16.421 -0.9118 -0.2110 -0.3805
  570TMC3     O 8457   1.030   1.896  16.371 -0.0403 -0.0954  0.1693
  570TMC3     H 8458   1.188   1.937  16.192  1.9515 -0.2834  1.2269
  570TMC3    H1 8459   1.115   2.256  16.457  0.5120 -0.4366  0.3602
  570TMC3    H2 8460   1.298   2.340  16.078 -2.9353  0.8019 -0.7635
  570TMC3    C7 8461   1.220   2.445  16.314  0.6290  0.2512  0.6704
  570TMC3    C8 8462   1.362   2.090  16.037 -0.0110 -0.5722  0.4990
  570TMC3    O1 8463   1.217   2.470  16.434  0.3526 -0.1682  0.4712
  570TMC3    O2 8464   1.450   2.168  16.004 -0.1710 -0.3146 -0.2338
  571MPD2     C 8465   3.288   3.417   0.390 -0.0318  0.2658 -0.6042
  571MPD2    C1 8466   3.395   3.473   0.326  0.1710  0.8713 -0.2093
  571MPD2    C2 8467   3.446   3.589   0.388  0.6060  0.5899  0.0768
  571MPD2    C3 8468   3.410   3.635   0.509  0.1188  1.0598 -0.2161
  571MPD2    C4 8469   3.297   3.580   0.563 -0.1904  0.2887  0.4734
  571MPD2    C5 8470   3.237   3.475   0.505 -0.3441 -0.3501 -0.0701
  571MPD2     H 8471   3.531   3.633   0.337  0.3308 -0.9953 -1.7664
  571MPD2    H1 8472   3.258   3.623   0.654 -0.5660 -0.3890  0.6249
  571MPD2    H2 8473   3.239   3.327   0.356  2.0806 -0.7264 -1.0315
  571MPD2    H3 8474   3.149   3.429   0.548 -0.5721  0.6829  0.5880
  571MPD2     N 8475   3.482   3.743   0.571  0.3569 -0.3561 -0.2516
  571MPD2    H5 8476   3.548   3.789   0.509  1.5663 -0.4734  0.9387
  571MPD2    N1 8477   3.446   3.406   0.215  0.3706  0.7897 -0.0608
  571MPD2    H7 8478   3.415   3.312   0.192 -0.8038  1.3868 -0.9109
  572TMC3    C1 8479   3.555   3.897   0.730 -0.1212 -0.1659  0.2234
  572TMC3    C2 8480   3.605   3.904   0.858  0.4848 -0.3157  0.1172
  572TMC3    C3 8481   3.679   4.011   0.887  0.3275  0.6335 -0.8598
  572TMC3    C4 8482   3.543   4.009   0.654 -0.4014 -0.2912  0.4586
  572TMC3    C5 8483   3.598   4.125   0.700 -0.1431 -0.9292 -0.5738
  572TMC3    C6 8484   3.673   4.129   0.812  0.9313 -0.4210 -0.2783
  572TMC3     C 8485   3.469   3.785   0.698  0.7292  0.1075  0.4863
  572TMC3     O 8486   3.413   3.735   0.795  1.0613  0.7353  0.2931
  572TMC3     H 8487   3.618   3.807   0.905  0.1528  0.8375  2.5734
  572TMC3    H1 8488   3.481   3.998   0.567 -0.7861  1.4013  0.5095
  572TMC3    H2 8489   3.727   4.218   0.842  2.8147 -2.8484  3.4960
  572TMC3    C7 8490   3.588   4.248   0.614  0.1050  0.1147 -0.3043
  572TMC3    C8 8491   3.722   4.017   1.022 -0.9982  0.6091 -0.4531
  572TMC3    O1 8492   3.571   4.221   0.495  0.1854  0.5242  0.1696
  572TMC3    O2 8493   3.820   4.078   1.050 -0.2684 -0.1655  0.1821
  573MPD2     C 8494   0.321   4.620   0.343  0.0895  0.3021 -0.0999
  573MPD2    C1 8495   0.458   4.618   0.356  0.4915 -0.3438 -0.2677
  573MPD2    C2 8496   0.541   4.597   0.244 -0.1621  0.1934 -0.7515
  573MPD2    C3 8497   0.493   4.591   0.119 -0.2294  0.1282 -0.2108
  573MPD2    C4 8498   0.358   4.595   0.100 -0.0271 -0.2639 -0.0610
  573MPD2    C5 8499   0.276   4.600   0.210 -0.6415  0.8133 -0.5918
  573MPD2     H 8500   0.647   4.590   0.264 -0.7532 -0.9904  1.9805
  573MPD2    H1 8501   0.311   4.569   0.006 -0.9979  0.3130  0.2643
  573MPD2    H2 8502   0.250   4.614   0.424  0.4297  1.5001  0.2813
  573MPD2    H3 8503   0.172   4.584   0.183 -0.8896  1.1711  0.1656
  573MPD2     N 8504   0.571   4.566   0.008 -0.1692  0.2492 -0.8332
  573MPD2    H5 8505   0.521   4.558  17.613 -1.0680 -0.9408 -0.2115
  573MPD2    N1 8506   0.504   4.623   0.488 -0.1902  0.1819  0.0589
  573MPD2    H7 8507   0.440   4.616   0.567  0.8674  3.0129  1.1871
  574TMC3    C1 8508   0.775   4.534  17.574  0.3246 -0.3705  0.4547
  574TMC3    C2 8509   0.700   4.493  17.474 -0.1950  0.1543 -0.4401
  574TMC3    C3 8510   0.744   4.523  17.347  0.3572  0.2419  0.5523
  574TMC3    C4 8511   0.894   4.593  17.553  0.9256 -0.5776  1.0460
  574TMC3    C5 8512   0.932   4.640  17.430  0.4133 -0.3986 -1.1131
  574TMC3    C6 8513   0.853   4.594  17.325  0.3369 -0.4097 -0.2716
  574TMC3     C 8514   0.716   4.555   0.007  0.0655  0.3554  0.2865
  574TMC3     O 8515   0.791   4.591   0.098  0.1609 -0.2069  0.6531
  574TMC3     H 8516   0.616   4.428  17.496  1.1616 -0.9423  1.4766
  574TMC3    H1 8517   0.957   4.626  17.635  3.1728 -1.4791 -0.3161
  574TMC3    H2 8518   0.882   4.628  17.226  0.4308  0.7148  0.1417
  574TMC3    C7 8519   1.051   4.717  17.420 -0.1069 -0.1203 -0.1428
  574TMC3    C8 8520   0.680   4.472  17.230 -0.4489 -1.1648 -0.7890
  574TMC3    O1 8521   1.097   4.692  17.311 -0.2985 -0.2939 -0.2384
  574TMC3    O2 8522   0.747   4.462  17.129  0.6291 -0.0035 -0.0318
  575TMC3    C1 8523   1.502   0.401  10.443 -0.3403 -0.2470 -0.1137
  575TMC3    C2 8524   1.610   0.388  10.530  0.3465 -0.3704  0.4580
  575TMC3    C3 8525   1.733   0.410  10.469  0.0083  0.2796  0.0043
  575TMC3    C4 8526   1.512   0.406  10.310  0.5956 -0.6408  0.6379
  575TMC3    C5 8527   1.634   0.437  10.262 -0.0684  0.0473 -0.3793
  575TMC3    C6 8528   1.747   0.443  10.336  0.1444  0.3185  0.1876
  575TMC3     C 8529   1.368   0.381  10.490 -0.2269  0.2210  0.3143
  575TMC3     O 8530   1.314   0.274  10.454  0.1468  0.3368  0.0406
  575TMC3     H 8531   1.594   0.375  10.637  2.6517 -1.3152  0.6988
  575TMC3    H1 8532   1.421   0.432  10.257  0.9846 -1.3679 -0.3664
  575TMC3    H2 8533   1.839   0.474  10.288  1.5544 -0.8749  2.1626
  575TMC3    C7 8534   1.644   0.456  10.117 -0.6134  0.5088  0.1015
  575TMC3    C8 8535   1.859   0.419  10.544  0.3302  0.0781 -0.3428
  575TMC3    O1 8536   1.742   0.510  10.070  0.0233  0.2000 -0.5336
  575TMC3    O2 8537   1.961   0.444  10.481  0.2011  0.2004  0.1932
  576MPD2     C 8538   2.177   2.196  12.688  0.2154  0.2384  0.1445
  576MPD2    C1 8539   2.198   2.298  12.591 -0.5130 -0.6518 -0.5799
  576MPD2    C2 8540   2.150   2.427  12.604 -0.0635  0.3139 -0.2152
  576MPD2    C3 8541   2.073   2.457  12.709 -0.0690 -0.0418 -0.8524
  576MPD2    C4 8542   2.065   2.369  12.814  0.2641 -0.0884 -1.0154
  576MPD2    C5 8543   2.118   2.245  12.804 -0.0003 -0.0605  0.0799
  576MPD2     H 8544   2.190   2.502  12.537 -0.8569 -0.6913 -1.8123
  576MPD2    H1 8545   1.999   2.400  12.894 -0.4158 -0.4554 -1.4370
  576MPD2    H2 8546   2.220   2.097  12.697  0.4606  0.3177 -0.1684
  576MPD2    H3 8547   2.114   2.173  12.886 -0.1436 -0.3077 -0.1457
  576MPD2     N 8548   2.027   2.593  12.711 -0.1018  0.4008  0.1432
  576MPD2    H5 8549   2.047   2.658  12.635 -1.4194  0.0132 -0.5405
  576MPD2    N1 8550   2.273   2.270  12.471  0.2517  0.6287 -0.1155
  576MPD2    H7 8551   2.261   2.348  12.408  1.0693 -1.1476 -2.4692
  577TMC3    C1 8552   2.422   2.199  12.323  0.4264  0.4716 -0.0491
  577TMC3    C2 8553   2.483   2.092  12.260  0.3293  0.0526 -0.4814
  577TMC3    C3 8554   2.559   2.112  12.152  0.5184  0.3196 -0.0636
  577TMC3    C4 8555   2.440   2.323  12.279 -0.4820  0.5869 -0.6939
  577TMC3    C5 8556   2.509   2.342  12.159  0.3658 -0.1664 -0.0459
  577TMC3    C6 8557   2.575   2.241  12.101 -0.0818 -0.1065  0.0429
  577TMC3     C 8558   2.359   2.173  12.447  0.1475 -0.7123 -0.2238
  577TMC3     O 8559   2.371   2.068  12.508 -0.3633 -1.2361 -0.1768
  577TMC3     H 8560   2.465   1.996  12.305 -0.1917  1.7983  3.0236
  577TMC3    H1 8561   2.399   2.408  12.332 -0.6794 -1.6539  2.7741
  577TMC3    H2 8562   2.643   2.263  12.019  1.1150  0.8046  1.2828
  577TMC3    C7 8563   2.537   2.476  12.121  0.2112  0.7152 -0.3030
  577TMC3    C8 8564   2.677   2.034  12.154  0.3362 -0.5084  0.9350
  577TMC3    O1 8565   2.521   2.559  12.212 -0.2880  0.1137  0.8252
  577TMC3    O2 8566   2.704   1.972  12.260  0.1785 -0.1143  0.0983
  578MPD2     C 8567   4.672   1.675   1.335 -0.0440 -0.5081  0.2514
  578MPD2    C1 8568   4.712   1.758   1.228  0.5052 -0.7693 -0.8591
  578MPD2    C2 8569   0.124   1.771   1.197  0.0680  1.2840  0.9051
  578MPD2    C3 8570   0.226   1.699   1.262 -0.1894  0.5720  0.6172
  578MPD2    C4 8571   0.181   1.608   1.360 -0.3242  0.4393  0.3414
  578MPD2    C5 8572   0.051   1.602   1.395  0.1929  0.6142 -0.1648
  578MPD2     H 8573   0.157   1.835   1.116 -1.8708 -0.4417 -1.2401
  578MPD2    H1 8574   0.240   1.533   1.411  1.3052  0.2690 -1.7670
  578MPD2    H2 8575   4.570   1.667   1.370 -0.6091 -1.6014 -1.6204
  578MPD2    H3 8576   0.025   1.530   1.473  2.2675 -0.0244 -0.0586
  578MPD2     N 8577   0.361   1.719   1.217 -0.3066  0.1551  0.2182
  578MPD2    H5 8578   0.378   1.763   1.127 -1.3255  1.3091  0.5849
  578MPD2    N1 8579   4.608   1.829   1.173  0.1973 -0.6966  0.4230
  578MPD2    H7 8580   4.516   1.819   1.215  0.3226  1.2429  1.1519
  579TMC3    C1 8581   0.598   1.718   1.246  0.2340 -0.1750 -0.2375
  579TMC3    C2 8582   0.705   1.745   1.326 -0.0583 -0.5359  0.2042
  579TMC3    C3 8583   0.820   1.791   1.282  0.0192  0.0369  0.3185
  579TMC3    C4 8584   0.607   1.741   1.115  0.3441 -0.0536  0.3846
  579TMC3    C5 8585   0.724   1.801   1.071  0.0982  0.1994  0.1812
  579TMC3    C6 8586   0.835   1.818   1.154 -0.4965 -0.7622  0.1282
  579TMC3     C 8587   0.470   1.683   1.297  0.5290  0.2264  1.0774
  579TMC3     O 8588   0.468   1.628   1.406 -0.6827 -0.0307 -0.1043
  579TMC3     H 8589   0.689   1.719   1.430  0.3702  2.4133  1.0070
  579TMC3    H1 8590   0.535   1.706   1.042 -0.7213  0.8380  1.0218
  579TMC3    H2 8591   0.924   1.859   1.107 -0.1792  1.2389  2.4211
  579TMC3    C7 8592   0.741   1.831   0.926 -0.1582  0.0290 -0.1321
  579TMC3    C8 8593   0.921   1.811   1.382 -0.1914  0.1455 -0.3622
  579TMC3    O1 8594   0.851   1.876   0.889  0.0571 -0.0973  0.1219
  579TMC3    O2 8595   0.888   1.870   1.483 -0.2649 -0.2049  0.4284
  580TMC3    C1 8596   0.386   1.096  11.803 -0.0733 -0.2209 -0.5648
  580TMC3    C2 8597   0.373   1.054  11.670  0.5270 -0.2917  0.7541
  580TMC3    C3 8598   0.310   0.943  11.635 -0.7015 -0.2681  0.1140
  580TMC3    C4 8599   0.334   1.023  11.908 -0.6158  0.3766 -0.2800
  580TMC3    C5 8600   0.285   0.899  11.869  0.3783 -0.0400 -0.5536
  580TMC3    C6 8601   0.269   0.861  11.734 -0.3696  0.5029  0.4583
  580TMC3     C 8602   0.489   1.195  11.823 -0.4504  0.3900  0.0839
  580TMC3     O 8603   0.587   1.209  11.749  0.2013  0.3141 -0.8726
  580TMC3     H 8604   0.412   1.124  11.597  0.3281 -1.1492 -0.1662
  580TMC3    H1 8605   0.349   1.055  12.010  0.5149  0.1580 -0.3727
  580TMC3    H2 8606   0.217   0.768  11.714 -2.1133  1.6239 -0.2410
  580TMC3    C7 8607   0.302   0.798  11.976  0.4510  0.2768 -0.4359
  580TMC3    C8 8608   0.301   0.907  11.494  0.4404  0.9253  0.3974
  580TMC3    O1 8609   0.364   0.831  12.079 -0.1023  0.4687  0.3363
  580TMC3    O2 8610   0.231   0.811  11.470  0.4962 -0.2714 -0.0983
  581MPD2     C 8611   2.965   0.606  14.400 -0.0383  0.2745  0.4013
  581MPD2    C1 8612   2.969   0.672  14.522 -0.6518 -0.7039  0.0957
  581MPD2    C2 8613   2.853   0.740  14.558 -0.5190 -0.5493 -0.8288
  581MPD2    C3 8614   2.738   0.748  14.473  0.2530 -0.5466 -0.1011
  581MPD2    C4 8615   2.740   0.681  14.353 -0.3259 -0.0230 -0.0253
  581MPD2    C5 8616   2.856   0.613  14.321 -0.2053  0.3297 -0.1337
  581MPD2     H 8617   2.861   0.780  14.658  0.0700 -0.1824 -1.0259
  581MPD2    H1 8618   2.659   0.670  14.281  0.0262 -1.0625 -0.2760
  581MPD2    H2 8619   3.047   0.539  14.376  2.0683  2.4393  1.4882
  581MPD2    H3 8620   2.870   0.553  14.231 -3.3494 -0.6026 -0.0087
  581MPD2     N 8621   2.619   0.811  14.518  0.3423 -0.3280 -0.4874
  581MPD2    H5 8622   2.636   0.883  14.587 -1.3277 -0.4458  0.0272
  581MPD2    N1 8623   3.089   0.647  14.603  0.1808 -0.4169 -0.3941
  581MPD2    H7 8624   3.169   0.615  14.549  1.6979  1.0202  0.9945
  582TMC3    C1 8625   2.998   0.646  14.830  0.1538  0.6275  0.4907
  582TMC3    C2 8626   3.033   0.678  14.957  0.1996 -0.4503 -0.1890
  582TMC3    C3 8627   2.939   0.653  15.056 -0.0107 -0.0341 -0.4080
  582TMC3    C4 8628   2.881   0.571  14.804  0.5911  0.0462  0.3584
  582TMC3    C5 8629   2.787   0.563  14.905  0.1036  0.4946 -0.2596
  582TMC3    C6 8630   2.812   0.612  15.030 -0.0420 -0.1540  0.3233
  582TMC3     C 8631   3.113   0.652  14.740  0.9306 -0.4662  0.2555
  582TMC3     O 8632   3.212   0.625  14.801  0.0245  0.1351 -0.1060
  582TMC3     H 8633   3.123   0.738  14.968 -1.3356  1.7654  0.1200
  582TMC3    H1 8634   2.863   0.527  14.707  1.2892 -0.3639  0.4098
  582TMC3    H2 8635   2.732   0.611  15.103  0.5307  3.3443  1.0084
  582TMC3    C7 8636   2.657   0.595  14.850  0.9063  0.0696 -0.4614
  582TMC3    C8 8637   2.980   0.671  15.191 -0.2874  0.5344 -0.0361
  582TMC3    O1 8638   2.593   0.507  14.797  0.0319  0.2214 -0.2145
  582TMC3    O2 8639   2.890   0.711  15.265 -0.5203 -0.0270  0.1475
  583MPD2     C 8640   2.995   2.543  16.809  0.2949 -0.1065 -0.0320
  583MPD2    C1 8641   3.013   2.674  16.770 -0.3039 -0.4400  0.1649
  583MPD2    C2 8642   3.000   2.771  16.861 -0.0071 -0.3276 -0.5512
  583MPD2    C3 8643   2.968   2.751  16.995  0.5918 -0.1306  0.4127
  583MPD2    C4 8644   2.936   2.619  17.032  0.5881  0.5652  0.0198
  583MPD2    C5 8645   2.954   2.519  16.936  0.1246 -0.7280  0.4371
  583MPD2     H 8646   3.034   2.872  16.845  0.8220 -0.8180 -1.8347
  583MPD2    H1 8647   2.919   2.581  17.131 -1.7155 -0.3118 -0.7164
  583MPD2    H2 8648   3.007   2.452  16.750  0.2479 -0.3761  0.3776
  583MPD2    H3 8649   2.944   2.415  16.965 -0.8601 -1.4672 -2.6100
  583MPD2     N 8650   2.969   2.857  17.085  0.1184  0.0159  0.2981
  583MPD2    H5 8651   2.979   2.951  17.047  0.2882  0.1355  0.6320
  583MPD2    N1 8652   3.063   2.703  16.641  0.5442 -0.6203  0.3449
  583MPD2    H7 8653   3.097   2.795  16.618 -2.0877  0.1153 -0.5488
  584TMC3    C1 8654   2.936   2.960  17.299  0.1135  0.5912 -0.4058
  584TMC3    C2 8655   2.986   3.080  17.255 -0.5537 -0.5168 -0.0207
  584TMC3    C3 8656   2.962   3.189  17.331  0.1841  0.0399  0.3015
  584TMC3    C4 8657   2.862   2.940  17.417 -0.0790  0.6750 -0.1012
  584TMC3    C5 8658   2.829   3.054  17.485  0.0059 -0.1943 -0.1460
  584TMC3    C6 8659   2.876   3.180  17.443  0.2894 -0.3214 -0.4828
  584TMC3     C 8660   2.952   2.837  17.219 -0.6389 -0.9668  0.0354
  584TMC3     O 8661   2.964   2.735  17.290  0.1953  0.1951 -0.5062
  584TMC3     H 8662   3.026   3.091  17.155 -0.7594  0.5765  0.0232
  584TMC3    H1 8663   2.822   2.843  17.444  1.2652  0.0320 -0.4309
  584TMC3    H2 8664   2.868   3.273  17.497  2.8918 -0.9278  0.9260
  584TMC3    C7 8665   2.771   3.039  17.613 -0.1329  0.7799 -0.1106
  584TMC3    C8 8666   2.998   3.319  17.274  0.1267 -0.0431  0.1626
  584TMC3    O1 8667   2.760   2.923  17.651  0.1164 -0.3683  0.1377
  584TMC3    O2 8668   3.015   3.326  17.151  0.5103  0.4476  0.2917
  585MPD2     C 8669   2.493   1.707   0.620  0.7751  0.2722 -0.2202
  585MPD2    C1 8670   2.519   1.794   0.516 -0.3946 -0.3291 -0.2740
  585MPD2    C2 8671   2.546   1.743   0.390  0.0760  0.2781 -0.3990
  585MPD2    C3 8672   2.544   1.602   0.368  1.1226  0.1066 -0.2903
  585MPD2    C4 8673   2.508   1.518   0.475 -0.5270 -0.2636 -0.1039
  585MPD2    C5 8674   2.497   1.573   0.604 -0.1628 -0.4971 -0.8436
  585MPD2     H 8675   2.535   1.813   0.308 -0.5393  3.2933  2.2561
  585MPD2    H1 8676   2.506   1.410   0.469  0.3582 -0.2593 -0.5503
  585MPD2    H2 8677   2.467   1.741   0.719 -1.0420 -0.3009 -0.5113
  585MPD2    H3 8678   2.475   1.500   0.681 -0.0650 -0.6114 -0.9249
  585MPD2     N 8679   2.551   1.549   0.236  0.1130  0.4239 -0.3066
  585MPD2    H5 8680   2.544   1.447   0.235  0.4095  0.4013  0.1537
  585MPD2    N1 8681   2.496   1.934   0.536  0.4221 -0.4499  0.4297
  585MPD2    H7 8682   2.444   1.966   0.617  1.3996 -0.4082  1.0471
  586TMC3    C1 8683   2.494   1.539   0.019  0.1828  0.5028 -0.6457
  586TMC3    C2 8684   2.533   1.579  17.587 -0.2831 -0.3782  0.1903
  586TMC3    C3 8685   2.452   1.591  17.481  0.5597 -0.0820  0.3527
  586TMC3    C4 8686   2.363   1.521   0.043 -0.0003  0.0719  0.6472
  586TMC3    C5 8687   2.276   1.543  17.626  0.6245  0.3259 -0.2347
  586TMC3    C6 8688   2.320   1.572  17.502  0.2070 -0.2412 -0.4452
  586TMC3     C 8689   2.561   1.613   0.121 -0.6500  0.0093  0.3707
  586TMC3     O 8690   2.583   1.729   0.103  0.2510 -0.0484  0.2008
  586TMC3     H 8691   2.640   1.571  17.568 -0.4415 -0.0238 -0.8750
  586TMC3    H1 8692   2.324   1.495   0.141 -2.0236 -1.3588 -0.5385
  586TMC3    H2 8693   2.256   1.549  17.418  1.0551 -0.0315 -1.1521
  586TMC3    C7 8694   2.146   1.482  17.623  0.2954 -1.1144  0.1143
  586TMC3    C8 8695   2.500   1.509  17.376  0.0509 -0.1944  0.1356
  586TMC3    O1 8696   2.138   1.385   0.003  0.0648 -0.5771  0.8619
  586TMC3    O2 8697   2.600   1.442  17.399  0.1110  0.2374  0.3576
  587TMC3    C1 8698   4.563   0.157  16.124  0.4087  0.2351  0.0401
  587TMC3    C2 8699   4.527   0.293  16.115  0.9573 -0.4616  0.4556
  587TMC3    C3 8700   4.629   0.371  16.064 -0.3733  0.1635 -0.5359
  587TMC3    C4 8701   4.686   0.107  16.100 -0.6847  0.0397  0.2808
  587TMC3    C5 8702   0.062   0.191  16.051  0.2811  1.0898  0.4234
  587TMC3    C6 8703   0.029   0.324  16.024 -0.3769 -0.4425 -0.3319
  587TMC3     C 8704   4.462   0.061  16.179  0.6933  0.0349 -0.6532
  587TMC3     O 8705   4.484   4.664  16.172 -0.3382 -0.2625 -0.1651
  587TMC3     H 8706   4.425   0.330  16.119  0.3809 -2.0822  1.0409
  587TMC3    H1 8707   4.704   0.009  16.143 -0.0809 -1.8340 -4.2507
  587TMC3    H2 8708   0.098   0.392  15.975 -0.7791  1.2917  1.4650
  587TMC3    C7 8709   0.200   0.148  16.049 -0.7114 -0.1008  0.4580
  587TMC3    C8 8710   4.608   0.511  16.045  0.3482  0.2883  0.3764
  587TMC3    O1 8711   0.278   0.242  16.037  0.1614 -0.2521 -0.0015
  587TMC3    O2 8712   4.673   0.573  15.962  0.0748  0.2290  0.3969
  588TMC3    C1 8713   1.822   2.794   9.310  0.0268 -0.4523 -0.5606
  588TMC3    C2 8714   1.871   2.681   9.259 -0.4112 -0.5010 -0.1254
  588TMC3    C3 8715   1.956   2.607   9.338 -1.3490  0.0596 -0.3007
  588TMC3    C4 8716   1.850   2.842   9.439  0.0942 -0.0890 -0.3725
  588TMC3    C5 8717   1.940   2.767   9.512 -0.3265  0.1270  0.0592
  588TMC3    C6 8718   1.985   2.648   9.461 -0.0198 -0.0316 -0.3606
  588TMC3     C 8719   1.753   2.888   9.227  0.9879  0.2336  0.0857
  588TMC3     O 8720   1.690   2.839   9.133  0.3784  0.2844  0.8304
  588TMC3     H 8721   1.854   2.645   9.158 -1.0430 -3.5747  1.0823
  588TMC3    H1 8722   1.789   2.919   9.486  2.5467  1.7421 -0.1814
  588TMC3    H2 8723   2.055   2.595   9.525 -0.8834  0.6276  1.1482
  588TMC3    C7 8724   1.990   2.831   9.633  0.3050  0.6783 -0.1521
  588TMC3    C8 8725   2.058   2.533   9.274  0.0885  0.1192  0.7601
  588TMC3    O1 8726   2.022   2.757   9.727 -0.0247 -0.5109 -0.2742
  588TMC3    O2 8727   2.072   2.561   9.159  0.0662 -0.4312 -0.5784
  589TMC3    C1 8728   1.432   0.590   1.233 -0.0857  0.2951  0.4219
  589TMC3    C2 8729   1.467   0.617   1.364  0.1880  0.2958  0.0902
  589TMC3    C3 8730   1.591   0.575   1.409 -0.0496  0.6360 -0.5323
  589TMC3    C4 8731   1.512   0.527   1.145  0.1630 -0.1630  0.1202
  589TMC3    C5 8732   1.639   0.489   1.197 -0.0303 -0.0580 -0.2119
  589TMC3    C6 8733   1.676   0.520   1.324  0.4017 -0.0254 -0.6986
  589TMC3     C 8734   1.307   0.646   1.181  0.3803  0.4357  0.1124
  589TMC3     O 8735   1.303   0.659   1.060  0.2574  0.1022 -0.4703
  589TMC3     H 8736   1.393   0.669   1.424 -1.5600  0.3853 -2.1195
  589TMC3    H1 8737   1.491   0.521   1.038 -0.1734  0.1553  0.1692
  589TMC3    H2 8738   1.770   0.481   1.360  1.0745  2.5318  0.3093
  589TMC3    C7 8739   1.728   0.421   1.105 -0.1086  0.0526  0.2049
  589TMC3    C8 8740   1.637   0.651   1.524 -0.2601  0.1905  0.3489
  589TMC3    O1 8741   1.665   0.341   1.034 -0.1404  0.0207 -0.1271
  589TMC3    O2 8742   1.544   0.696   1.587 -0.0040  0.0886  0.0623
  590MPD2     C 8743   0.798   3.538  16.818  0.3655 -0.1963 -0.2289
  590MPD2    C1 8744   0.712   3.591  16.719 -0.3794  0.1327  0.6788
  590MPD2    C2 8745   0.773   3.639  16.603 -0.2884  0.4576  0.9837
  590MPD2    C3 8746   0.911   3.637  16.591 -0.1864 -0.1842  0.2368
  590MPD2    C4 8747   0.991   3.596  16.696  0.3142  0.3772 -0.3415
  590MPD2    C5 8748   0.931   3.554  16.809 -0.7845 -0.3751 -0.1622
  590MPD2     H 8749   0.717   3.672  16.517 -0.2594 -0.9133  0.4403
  590MPD2    H1 8750   1.098   3.613  16.699  0.7990 -2.6036 -0.3140
  590MPD2    H2 8751   0.757   3.495  16.909 -2.1401 -0.8974 -1.6721
  590MPD2    H3 8752   0.999   3.511  16.881 -1.0921 -0.8421 -0.1498
  590MPD2     N 8753   0.970   3.679  16.465 -0.2817  0.6728  0.0534
  590MPD2    H5 8754   0.908   3.723  16.399  2.1262  2.7717 -0.8086
  590MPD2    N1 8755   0.570   3.578  16.730  0.0642 -0.2163 -0.8360
  590MPD2    H7 8756   0.535   3.568  16.825  1.8172 -0.0927 -0.1719
  591TMC3    C1 8757   1.126   3.718  16.298 -0.0009  0.2085 -0.0802
  591TMC3    C2 8758   1.196   3.642  16.209  0.0351  0.0335 -0.3698
  591TMC3    C3 8759   1.244   3.710  16.102  0.8189  0.5237  0.5922
  591TMC3    C4 8760   1.098   3.855  16.277 -0.2374 -0.3782 -0.5786
  591TMC3    C5 8761   1.164   3.924  16.176  0.0867 -0.3575 -0.1428
  591TMC3    C6 8762   1.234   3.843  16.085 -0.1163 -0.9002 -0.2638
  591TMC3     C 8763   1.101   3.656  16.425  0.0833 -0.5239 -0.0319
  591TMC3     O 8764   1.188   3.582  16.472 -0.2801  0.2922 -0.1772
  591TMC3     H 8765   1.202   3.533  16.215  0.8685  0.1711  1.4510
  591TMC3    H1 8766   1.043   3.910  16.352 -1.0155 -3.3106  0.9813
  591TMC3    H2 8767   1.295   3.898  16.014 -3.3412 -0.4638 -2.6835
  591TMC3    C7 8768   1.116   4.059  16.141  0.2652  0.0729  0.2580
  591TMC3    C8 8769   1.306   3.637  15.997 -0.4193 -0.1669 -0.1079
  591TMC3    O1 8770   1.024   4.094  16.206  0.4514  0.7672 -0.2940
  591TMC3    O2 8771   1.330   3.515  16.015  0.0850  0.2642  0.0491
  592MPD2     C 8772   1.455   0.971  11.078  0.1329 -0.4714 -0.4068
  592MPD2    C1 8773   1.464   1.017  11.206  0.5846 -0.0235  0.0269
  592MPD2    C2 8774   1.414   0.931  11.306 -0.0061 -0.0552  0.6894
  592MPD2    C3 8775   1.348   0.811  11.270  0.1696 -0.4957 -0.1716
  592MPD2    C4 8776   1.336   0.774  11.135 -0.2858 -0.0119  0.1011
  592MPD2    C5 8777   1.391   0.857  11.043 -0.3797  0.5164 -0.2395
  592MPD2     H 8778   1.426   0.963  11.409  0.6193 -0.4056  0.7273
  592MPD2    H1 8779   1.276   0.690  11.101  0.1850 -1.0981  1.9503
  592MPD2    H2 8780   1.496   1.039  11.004 -1.2190 -1.0501 -1.6741
  592MPD2    H3 8781   1.391   0.837  10.936  1.0054 -0.6112 -0.0321
  592MPD2     N 8782   1.286   0.744  11.375  0.7532 -0.6357  0.1694
  592MPD2    H5 8783   1.306   0.768  11.472 -0.1266 -3.4498  1.0347
  592MPD2    N1 8784   1.555   1.128  11.231  0.3853  0.4872  0.1258
  592MPD2    H7 8785   1.605   1.173  11.155  1.1457 -0.1046  0.2766
  593TMC3    C1 8786   1.691   1.281  11.352  0.2264  0.1675  0.2430
  593TMC3    C2 8787   1.719   1.348  11.474  0.2022 -0.2756 -0.0358
  593TMC3    C3 8788   1.841   1.408  11.494  0.8374 -0.1007 -0.5608
  593TMC3    C4 8789   1.789   1.271  11.258 -0.1591 -0.2361 -0.2121
  593TMC3    C5 8790   1.913   1.336  11.283  0.6786  0.9133  0.1649
  593TMC3    C6 8791   1.941   1.402  11.399  0.3503 -0.1611 -0.1436
  593TMC3     C 8792   1.590   1.176  11.357 -0.2632 -0.2523  0.2452
  593TMC3     O 8793   1.567   1.136  11.467  0.3288 -0.3260  0.1901
  593TMC3     H 8794   1.639   1.354  11.548 -0.4118 -0.6332 -0.6596
  593TMC3    H1 8795   1.776   1.222  11.163 -0.2180  0.9352 -0.8078
  593TMC3    H2 8796   2.040   1.447  11.410 -0.1900  0.9160  0.3515
  593TMC3    C7 8797   1.996   1.381  11.174 -0.3411  0.0866 -0.2181
  593TMC3    C8 8798   1.853   1.495  11.609  0.3616 -0.2597  0.5137
  593TMC3    O1 8799   2.090   1.455  11.197 -0.2118  0.3008  0.5545
  593TMC3    O2 8800   1.746   1.539  11.650  0.4308 -0.0597 -0.4000
  594MPD2     C 8801   0.221   4.030  14.690 -1.2505 -0.1680  0.4040
  594MPD2    C1 8802   0.130   4.122  14.638  0.4654  0.2062 -0.3509
  594MPD2    C2 8803   0.175   4.249  14.601 -0.2568  0.4223 -0.1071
  594MPD2    C3 8804   0.306   4.284  14.637 -0.5613 -0.3882 -0.0264
  594MPD2    C4 8805   0.392   4.196  14.695 -0.0710 -0.3858 -0.6572
  594MPD2    C5 8806   0.344   4.072  14.722  0.3655  0.0196 -0.5857
  594MPD2     H 8807   0.115   4.313  14.537  0.2647  1.0492  0.0278
  594MPD2    H1 8808   0.494   4.208  14.729 -0.4207 -0.8342  0.5583
  594MPD2    H2 8809   0.181   3.931  14.708 -1.8076  0.1990  1.1901
  594MPD2    H3 8810   0.407   4.000  14.772 -1.0498  0.8217  2.3627
  594MPD2     N 8811   0.345   4.419  14.598  0.8267  0.0391  0.6815
  594MPD2    H5 8812   0.275   4.480  14.558  2.3265  3.1853  2.8821
  594MPD2    N1 8813   0.002   4.081  14.625  0.0066 -0.2592  0.2864
  594MPD2    H7 8814   4.698   3.994  14.669 -1.2082 -1.2489 -2.4130
  595TMC3    C1 8815   0.657   4.720  14.416  0.4043 -0.0421  0.1382
  595TMC3    C2 8816   0.616   4.596  14.454  0.1799 -0.1768 -0.3729
  595TMC3    C3 8817   0.503   4.592  14.536 -0.1441  0.0927 -0.3413
  595TMC3    C4 8818   0.591   0.109  14.447  0.3544 -0.0353  0.2440
  595TMC3    C5 8819   0.473   0.092  14.512 -0.2473  0.3054  0.1253
  595TMC3    C6 8820   0.425   4.700  14.564 -0.7296 -0.5121  0.3176
  595TMC3     C 8821   0.793   0.003  14.366  0.3474  0.5085 -0.3099
  595TMC3     O 8822   0.867   4.644  14.418  0.0182  0.0227  0.2330
  595TMC3     H 8823   0.686   4.514  14.443  0.4913  0.0116  0.1781
  595TMC3    H1 8824   0.627   0.209  14.430 -0.9105  0.5694  1.1572
  595TMC3    H2 8825   0.337   4.691  14.627 -0.5864  0.1412  0.6063
  595TMC3    C7 8826   0.405   0.214  14.551 -0.6955 -0.0957  0.5738
  595TMC3    C8 8827   0.476   4.460  14.596  0.3440  0.1076 -0.4246
  595TMC3    O1 8828   0.336   0.205  14.653 -0.2646 -0.4695 -0.3405
  595TMC3    O2 8829   0.577   4.401  14.633  0.2869 -0.3389  0.5886
  596MPD2     C 8830   3.754   2.203  16.787  0.6133  0.3381  0.4871
  596MPD2    C1 8831   3.764   2.332  16.739  0.7581  0.0073 -0.2262
  596MPD2    C2 8832   3.749   2.353  16.601 -0.1297 -0.1124  0.5304
  596MPD2    C3 8833   3.746   2.243  16.512 -0.9305 -0.1680 -0.3293
  596MPD2    C4 8834   3.757   2.123  16.564 -0.7301 -0.1291 -0.1419
  596MPD2    C5 8835   3.759   2.098  16.701  1.1005  0.9395 -0.0807
  596MPD2     H 8836   3.740   2.457  16.572 -1.4447 -0.3002  0.2564
  596MPD2    H1 8837   3.762   2.034  16.503 -0.6494 -0.5765  0.5195
  596MPD2    H2 8838   3.761   2.176  16.891  1.2429  1.8352  0.8348
  596MPD2    H3 8839   3.767   1.994  16.732 -1.2869  1.5801  2.7443
  596MPD2     N 8840   3.744   2.250  16.372 -0.3681  0.1577  0.3604
  596MPD2    H5 8841   3.738   2.163  16.321  2.6230  0.1526  0.0463
  596MPD2    N1 8842   3.775   2.454  16.809  0.1349  0.2135 -0.0831
  596MPD2    H7 8843   3.788   2.535  16.749 -1.6030 -1.0411 -2.1694
  597TMC3    C1 8844   3.787   2.601  16.997 -0.1951 -0.0286 -0.2414
  597TMC3    C2 8845   3.853   2.693  16.926  0.3911  0.0964  0.4079
  597TMC3    C3 8846   3.851   2.817  16.984  0.3855 -1.0702  0.6451
  597TMC3    C4 8847   3.716   2.623  17.107 -0.4758 -0.3219  0.7657
  597TMC3    C5 8848   3.706   2.756  17.154  0.7807 -0.2455 -0.3771
  597TMC3    C6 8849   3.768   2.855  17.087  0.3087  0.1680 -0.6486
  597TMC3     C 8850   3.768   2.465  16.943  0.2691 -0.2901 -0.1217
  597TMC3     O 8851   3.746   2.384  17.031 -0.2460 -0.2753  0.2825
  597TMC3     H 8852   3.933   2.670  16.857  1.4220 -0.7944  1.8910
  597TMC3    H1 8853   3.642   2.553  17.144  0.5219 -0.2513  2.8626
  597TMC3    H2 8854   3.781   2.955  17.128  0.7522 -0.8599  1.7365
  597TMC3    C7 8855   3.596   2.777  17.252 -0.0456 -0.1621 -1.2872
  597TMC3    C8 8856   3.914   2.928  16.908 -0.4175  0.3422 -0.4895
  597TMC3    O1 8857   3.580   2.685  17.329  0.0843 -0.2932  0.2681
  597TMC3    O2 8858   3.938   3.025  16.975 -0.1422 -0.0549 -0.8002
  598TMC3    C1 8859   2.542   3.727  15.885 -0.5933  0.6259  0.0469
  598TMC3    C2 8860   2.424   3.721  15.815  0.1373 -0.3612 -0.5565
  598TMC3    C3 8861   2.388   3.834  15.740 -0.2517 -0.4474  0.2489
  598TMC3    C4 8862   2.608   3.847  15.885  0.0895  1.0888  0.1172
  598TMC3    C5 8863   2.567   3.959  15.818 -0.9299  0.0277 -0.2624
  598TMC3    C6 8864   2.455   3.954  15.747 -0.3940  0.5825 -0.3097
  598TMC3     C 8865   2.600   3.616  15.961  0.5010  0.0389  0.9391
  598TMC3     O 8866   2.704   3.645  16.020  0.3015  0.1998 -0.1322
  598TMC3     H 8867   2.373   3.626  15.804  0.0768 -0.2811 -0.9520
  598TMC3    H1 8868   2.710   3.857  15.922 -0.2860  3.2191  0.5724
  598TMC3    H2 8869   2.409   4.036  15.694  1.2432  1.3254 -0.5893
  598TMC3    C7 8870   2.657   4.080  15.818  0.7702 -0.1210  0.3157
  598TMC3    C8 8871   2.253   3.847  15.683  0.3213  0.5195  0.9804
  598TMC3    O1 8872   2.729   4.087  15.914  0.0090 -0.2290 -0.5046
  598TMC3    O2 8873   2.211   3.953  15.638 -0.5077  0.0116 -0.0738
  599MPD2     C 8874   2.189   1.701  15.826  0.2328  0.4505 -0.6530
  599MPD2    C1 8875   2.108   1.589  15.841  0.5340 -0.7519  0.9694
  599MPD2    C2 8876   1.989   1.599  15.915  0.3834 -0.5214  0.0651
  599MPD2    C3 8877   1.971   1.722  15.978 -0.0584  0.1474  0.2464
  599MPD2    C4 8878   2.058   1.822  15.965  0.7512 -0.1860  0.1430
  599MPD2    C5 8879   2.175   1.814  15.891 -0.5330 -0.4184 -0.1286
  599MPD2     H 8880   1.912   1.523  15.920 -0.2621  0.0912 -0.5214
  599MPD2    H1 8881   2.031   1.915  16.013  1.5541  1.0484 -1.7815
  599MPD2    H2 8882   2.269   1.691  15.753  0.5107 -1.3164 -0.1157
  599MPD2    H3 8883   2.258   1.883  15.891  0.7892 -1.9659  1.8298
  599MPD2     N 8884   1.861   1.757  16.054 -0.5528 -0.2140  0.2014
  599MPD2    H5 8885   1.863   1.844  16.106 -1.5146 -1.7000  2.7280
  599MPD2    N1 8886   2.144   1.469  15.774  0.1669 -0.0477 -0.1049
  599MPD2    H7 8887   2.233   1.484  15.729  0.8068 -0.3574  1.0326
  600TMC3    C1 8888   1.644   1.762  16.144 -0.1380 -0.9274  0.2652
  600TMC3    C2 8889   1.541   1.700  16.211 -0.0529 -0.3333  0.4414
  600TMC3    C3 8890   1.475   1.773  16.313 -0.2163 -0.1560  0.4581
  600TMC3    C4 8891   1.676   1.892  16.184  0.4690 -0.5553  0.4055
  600TMC3    C5 8892   1.603   1.966  16.273 -0.7423 -0.1382 -0.0601
  600TMC3    C6 8893   1.506   1.905  16.346  0.7549  0.7287 -0.5739
  600TMC3     C 8894   1.740   1.689  16.054 -0.5211 -0.3159  0.1410
  600TMC3     O 8895   1.699   1.593  15.995  0.1360 -0.3863 -0.0377
  600TMC3     H 8896   1.523   1.594  16.192 -0.2254  0.4105 -3.5543
  600TMC3    H1 8897   1.742   1.945  16.118  0.0345 -1.8518 -1.0717
  600TMC3    H2 8898   1.444   1.953  16.421  0.5997  0.6838 -0.6721
  600TMC3    C7 8899   1.621   2.111  16.304 -0.2948  0.1551 -0.5358
  600TMC3    C8 8900   1.368   1.705  16.386 -0.5608 -0.6735  1.0868
  600TMC3    O1 8901   1.550   2.147  16.398  0.5607 -0.4168 -0.3771
  600TMC3    O2 8902   1.362   1.703  16.505  0.2490 -0.2691  0.0594
  601MPD2     C 8903   3.699   0.037   0.524 -0.0189  0.1881 -0.4191
  601MPD2    C1 8904   3.655   4.654   0.438 -0.4021  0.0410  0.4454
  601MPD2    C2 8905   3.625   4.524   0.489  0.0914  0.1488 -0.6534
  601MPD2    C3 8906   3.644   4.490   0.624  0.3555 -0.0486 -0.0274
  601MPD2    C4 8907   3.687   4.594   0.701  0.3370 -0.6170  0.0634
  601MPD2    C5 8908   3.701   0.002   0.657  0.6184 -0.4895 -0.5587
  601MPD2     H 8909   3.604   4.452   0.410  0.8880  0.1727 -0.8897
  601MPD2    H1 8910   3.708   4.577   0.806 -1.9585 -0.9384  0.4895
  601MPD2    H2 8911   3.716   0.136   0.483  0.4543  0.5952  0.7591
  601MPD2    H3 8912   3.727   0.077   0.730  0.9384  1.5075 -2.7010
  601MPD2     N 8913   3.618   4.362   0.683  0.3817 -0.0767  0.7310
  601MPD2    H5 8914   3.622   4.360   0.785 -1.0144  0.0780  0.7835
  601MPD2    N1 8915   3.653   4.679   0.304  0.1192 -0.3931 -0.0905
  601MPD2    H7 8916   3.587   4.622   0.252 -1.3285  1.3646 -0.2051
  602TMC3    C1 8917   3.669   0.085   0.097 -0.3825 -0.0179  0.2410
  602TMC3    C2 8918   3.755   0.153   0.016  0.4272  0.2952  0.0686
  602TMC3    C3 8919   3.721   0.182  17.583 -0.6674 -0.1840  0.2210
  602TMC3    C4 8920   3.539   0.054   0.053  0.4392  0.9046  0.4997
  602TMC3    C5 8921   3.505   0.100  17.619  0.4500  0.2600 -0.6125
  602TMC3    C6 8922   3.591   0.173  17.536  0.4263  1.1986 -0.6675
  602TMC3     C 8923   3.722   0.052   0.230  0.2991 -0.1845 -0.7951
  602TMC3     O 8924   3.826   0.115   0.262  0.0028 -0.2361 -0.1721
  602TMC3     H 8925   3.858   0.171   0.047  1.0418  0.4473 -2.0922
  602TMC3    H1 8926   3.469   4.717   0.109 -2.6840  1.5378 -2.7381
  602TMC3    H2 8927   3.562   0.195  17.434 -1.2503  1.7911 -0.0726
  602TMC3    C7 8928   3.369   0.076  17.575  0.4517 -0.2015 -0.1610
  602TMC3    C8 8929   3.804   0.285  17.517 -0.4184  0.0085  1.1554
  602TMC3    O1 8930   3.312   4.697  17.622  0.8444 -0.8217  0.2008
  602TMC3    O2 8931   3.925   0.291  17.528  0.0938 -0.0820 -0.3686
  603TMC3    C1 8932   1.628   0.439  11.029 -0.0765 -0.1435  0.4311
  603TMC3    C2 8933   1.736   0.481  11.102 -0.3890  0.2641  0.0225
  603TMC3    C3 8934   1.814   0.589  11.063  0.2005  0.1423  0.2247
  603TMC3    C4 8935   1.596   0.500  10.912 -0.0164  0.4730 -0.3548
  603TMC3    C5 8936   1.681   0.602  10.869  0.5371  0.4534 -0.0625
  603TMC3    C6 8937   1.778   0.656  10.952  0.5538  0.2690 -0.7537
  603TMC3     C 8938   1.534   0.359  11.105 -0.2386  0.6116  0.0199
  603TMC3     O 8939   1.583   0.287  11.194 -0.0415  0.2794 -0.0882
  603TMC3     H 8940   1.764   0.423  11.190  1.8816 -1.8127 -2.0737
  603TMC3    H1 8941   1.505   0.472  10.860 -1.3417  0.8327  1.7576
  603TMC3    H2 8942   1.838   0.740  10.920  1.6523  0.1158  0.9153
  603TMC3    C7 8943   1.661   0.659  10.735 -0.0243  0.1725  0.0822
  603TMC3    C8 8944   1.939   0.625  11.135  0.2294  0.2884 -0.0945
  603TMC3    O1 8945   1.562   0.614  10.682  0.3381  0.4055 -0.4003
  603TMC3    O2 8946   2.024   0.690  11.072 -0.2237 -0.0443 -0.5319
  604MPD2     C 8947   3.016   3.581  16.531 -0.1841 -0.0943  0.2229
  604MPD2    C1 8948   2.896   3.617  16.473 -0.4905 -0.1466  0.2103
  604MPD2    C2 8949   2.888   3.614  16.334 -0.0748  0.5157  0.2565
  604MPD2    C3 8950   2.991   3.591  16.253 -0.6939 -0.7771 -0.4761
  604MPD2    C4 8951   3.110   3.556  16.305  0.4721  0.7937 -0.7333
  604MPD2    C5 8952   3.121   3.550  16.449 -0.0410  0.4385  0.4851
  604MPD2     H 8953   2.796   3.644  16.285 -0.5133  2.3224  2.1564
  604MPD2    H1 8954   3.193   3.538  16.239 -0.0525  0.7898 -1.3872
  604MPD2    H2 8955   3.037   3.570  16.637 -1.6979 -2.4311  0.2641
  604MPD2    H3 8956   3.217   3.534  16.497 -0.5447 -1.6001  0.7829
  604MPD2     N 8957   2.970   3.608  16.114  0.6231 -0.5542 -0.1365
  604MPD2    H5 8958   2.878   3.606  16.071  1.1631 -2.6408 -1.2029
  604MPD2    N1 8959   2.795   3.663  16.557  0.6660 -0.0997 -0.0375
  604MPD2    H7 8960   2.827   3.676  16.652 -1.9126  1.0457  0.6549
  605TMC3    C1 8961   2.595   3.767  16.632  0.0269 -0.0421  0.0277
  605TMC3    C2 8962   2.660   3.845  16.724 -0.0281  0.7695 -0.4425
  605TMC3    C3 8963   2.587   3.940  16.788  0.1736  0.3962  0.4747
  605TMC3    C4 8964   2.461   3.782  16.608  0.4987  0.2324 -0.1839
  605TMC3    C5 8965   2.388   3.887  16.672  0.1423 -0.0393 -0.5508
  605TMC3    C6 8966   2.458   3.966  16.760  0.6442  0.5240 -0.1011
  605TMC3     C 8967   2.673   3.708  16.519  0.3417 -0.1412  0.0166
  605TMC3     O 8968   2.621   3.691  16.410 -0.0406 -0.5703  0.3870
  605TMC3     H 8969   2.765   3.834  16.747 -0.3027 -2.0112 -0.5241
  605TMC3    H1 8970   2.417   3.699  16.553  0.9731  0.9925 -1.7265
  605TMC3    H2 8971   2.411   4.052  16.807 -2.2822 -0.8638 -0.5114
  605TMC3    C7 8972   2.273   3.955  16.613 -0.1564 -0.0140 -0.2095
  605TMC3    C8 8973   2.668   4.011  16.880 -0.4740  0.4204  0.5745
  605TMC3    O1 8974   2.244   4.070  16.657 -0.1025 -0.5096 -0.1129
  605TMC3    O2 8975   2.750   3.938  16.937 -0.2752 -0.2342  0.3687
  606TMC3    C1 8976   4.159   2.368  17.002 -0.0342 -0.1987  0.2345
  606TMC3    C2 8977   4.175   2.377  17.139  0.7102 -0.1638 -0.0588
  606TMC3    C3 8978   4.138   2.267  17.215 -0.5539  0.3097  0.3003
  606TMC3    C4 8979   4.122   2.260  16.942  0.3414 -0.2866  0.0977
  606TMC3    C5 8980   4.077   2.157  17.019  0.1517 -0.2136  0.0764
  606TMC3    C6 8981   4.077   2.160  17.158 -0.5622 -1.0292  0.6038
  606TMC3     C 8982   4.186   2.485  16.918 -0.3913  0.1021  0.0307
  606TMC3     O 8983   4.116   2.489  16.820 -0.5069  0.7186  0.1313
  606TMC3     H 8984   4.217   2.462  17.193  0.6995  1.0826 -2.0270
  606TMC3    H1 8985   4.126   2.254  16.834  0.3708  1.2099  0.0169
  606TMC3    H2 8986   4.045   2.072  17.212 -0.1669 -0.1386  2.3012
  606TMC3    C7 8987   4.045   2.040  16.953 -0.7899 -0.6260  0.3711
  606TMC3    C8 8988   4.160   2.271  17.356 -0.6675  0.8379 -0.3160
  606TMC3    O1 8989   4.067   2.037  16.831 -0.2634 -0.4478  0.3409
  606TMC3    O2 8990   4.224   2.363  17.406 -0.0687 -0.5671  0.8890
  607MPD2     C 8991   1.447   0.381  11.545 -0.2543 -0.0094  0.1722
  607MPD2    C1 8992   1.446   0.499  11.608 -0.1132 -0.4869  0.6015
  607MPD2    C2 8993   1.364   0.526  11.715 -0.4608  0.3046 -0.0977
  607MPD2    C3 8994   1.281   0.430  11.759 -0.1872  0.0347  0.5114
  607MPD2    C4 8995   1.276   0.308  11.698  0.3468 -0.1942  0.2013
  607MPD2    C5 8996   1.364   0.281  11.592  1.0847 -0.1948 -0.1115
  607MPD2     H 8997   1.372   0.613  11.779 -0.6781  2.2695 -2.7749
  607MPD2    H1 8998   1.223   0.222  11.738 -3.1666  2.7070  1.7768
  607MPD2    H2 8999   1.521   0.373  11.466 -0.0494 -1.9733  0.5675
  607MPD2    H3 9000   1.365   0.189  11.535 -0.7096  0.1939 -0.7952
  607MPD2     N 9001   1.223   0.463  11.890 -0.0246 -0.2074  0.2694
  607MPD2    H5 9002   1.255   0.551  11.929  1.0966 -1.2502  1.7578
  607MPD2    N1 9003   1.534   0.607  11.569 -0.4986  0.1180 -0.2619
  607MPD2    H7 9004   1.532   0.690  11.627 -0.2756  0.9793 -1.5050
  608TMC3    C1 9005   1.688   0.741  11.484 -0.4743  0.0806  0.0605
  608TMC3    C2 9006   1.747   0.757  11.604  0.2965  0.2633 -0.1086
  608TMC3    C3 9007   1.829   0.868  11.627  0.6978 -1.0124  1.6786
  608TMC3    C4 9008   1.713   0.816  11.377 -0.6738  0.2327 -0.4421
  608TMC3    C5 9009   1.809   0.913  11.400  0.3285 -0.3021 -0.0443
  608TMC3    C6 9010   1.857   0.949  11.529  0.2138  0.4918 -0.2225
  608TMC3     C 9011   1.615   0.618  11.464  0.0704  0.3279 -0.5402
  608TMC3     O 9012   1.656   0.536  11.379 -0.2629  0.2322  0.3625
  608TMC3     H 9013   1.730   0.688  11.686  0.4671  0.3572  0.0068
  608TMC3    H1 9014   1.674   0.793  11.279  1.4637 -1.2542 -0.9331
  608TMC3    H2 9015   1.913   1.039  11.551 -0.2069  1.0796 -1.5591
  608TMC3    C7 9016   1.896   0.942  11.285  0.3588 -0.8401 -0.5904
  608TMC3    C8 9017   1.839   0.916  11.765  0.2166  0.6685 -0.7572
  608TMC3    O1 9018   1.845   0.923  11.173 -0.3497 -0.3977 -0.4275
  608TMC3    O2 9019   1.874   1.033  11.783  0.4983 -0.1963 -0.0399
  609TMC3    C1 9020   4.525   3.976   9.110  0.6692 -0.0443 -0.0414
  609TMC3    C2 9021   4.465   4.097   9.086  0.0985 -0.1037  0.5859
  609TMC3    C3 9022   4.544   4.200   9.066 -0.0646  0.1363  0.6479
  609TMC3    C4 9023   4.661   3.956   9.108 -0.6459  0.0026  0.1687
  609TMC3    C5 9024   0.008   4.064   9.066 -0.1256  0.4314 -0.5273
  609TMC3    C6 9025   4.680   4.191   9.047 -0.5231 -0.6638  0.5074
  609TMC3     C 9026   4.437   3.872   9.054 -0.7537  0.8306  0.5990
  609TMC3     O 9027   4.318   3.885   9.072 -0.0603  0.2074 -0.1009
  609TMC3     H 9028   4.357   4.108   9.081  0.3646  3.7514  2.8451
  609TMC3    H1 9029   4.698   3.855   9.114 -0.9001 -0.1678 -1.0356
  609TMC3    H2 9030   0.017   4.276   9.014 -1.7118  0.0635  0.2475
  609TMC3    C7 9031   0.153   4.063   9.081  0.0503  0.3474  0.5369
  609TMC3    C8 9032   4.469   4.327   9.062 -0.3844 -0.2269  0.4065
  609TMC3    O1 9033   0.203   3.967   9.141 -0.2669 -1.0209 -0.7664
  609TMC3    O2 9034   4.349   4.313   9.025 -0.0536 -0.6113 -0.0959
  610TMC3    C1 9035   1.754   0.360  12.524 -0.3546 -0.3071  0.1485
  610TMC3    C2 9036   1.831   0.425  12.434  0.3010 -0.3399  0.2601
  610TMC3    C3 9037   1.947   0.365  12.392  0.5594 -0.4233 -0.3387
  610TMC3    C4 9038   1.783   0.236  12.560 -0.2021  0.1006  0.0449
  610TMC3    C5 9039   1.897   0.174  12.517  0.8352 -0.5168 -0.0629
  610TMC3    C6 9040   1.981   0.243  12.437  0.6382  0.2814 -0.3691
  610TMC3     C 9041   1.655   0.422  12.605 -0.2499 -0.1752  0.1105
  610TMC3     O 9042   1.577   0.343  12.661 -0.3837 -0.0851 -0.3092
  610TMC3     H 9043   1.796   0.518  12.392  1.1509 -0.3619 -0.4922
  610TMC3    H1 9044   1.728   0.186  12.639 -1.0904  1.7863  0.5091
  610TMC3    H2 9045   2.076   0.195  12.414  1.2363  1.1372  0.2946
  610TMC3    C7 9046   1.918   0.035  12.529 -0.7770  1.1709  0.5289
  610TMC3    C8 9047   2.029   0.410  12.284 -0.8253  0.4454  0.5547
  610TMC3    O1 9048   2.028   4.704  12.501  0.1953  0.5619  0.1909
  610TMC3    O2 9049   2.126   0.340  12.256  0.7552 -0.1120 -0.0800
  611MPD2     C 9050   0.846   0.549  10.416  0.0449 -0.3492 -0.1499
  611MPD2    C1 9051   0.833   0.511  10.292 -0.1258 -0.5258 -0.5625
  611MPD2    C2 9052   0.942   0.530  10.208  0.3900  0.9891 -0.3854
  611MPD2    C3 9053   1.057   0.590  10.261  0.7160  0.3519  0.8263
  611MPD2    C4 9054   1.059   0.634  10.387 -0.0265 -0.0359 -0.2617
  611MPD2    C5 9055   0.951   0.621  10.465  0.6894  0.1965  0.5089
  611MPD2     H 9056   0.949   0.493  10.106  0.5626  0.8912 -0.3367
  611MPD2    H1 9057   1.150   0.682  10.421 -0.4067 -0.2855  1.1166
  611MPD2    H2 9058   0.768   0.519  10.486  0.3888  1.6579  1.1103
  611MPD2    H3 9059   0.951   0.646  10.570  3.1373  0.5532  0.4391
  611MPD2     N 9060   1.171   0.617  10.188  0.4735  0.4326 -0.2216
  611MPD2    H5 9061   1.246   0.667  10.234  0.9505 -0.3532 -0.1500
  611MPD2    N1 9062   0.724   0.431  10.257 -0.3508 -0.3128  0.3753
  611MPD2    H7 9063   0.650   0.427  10.326 -1.1881  2.1007 -0.3651
  612TMC3    C1 9064   1.311   0.657   9.994 -0.5988 -0.3656  0.2902
  612TMC3    C2 9065   1.408   0.705  10.085 -0.1900 -0.6502 -0.4766
  612TMC3    C3 9066   1.503   0.790  10.028 -0.5231 -0.6845 -1.2439
  612TMC3    C4 9067   1.301   0.696   9.864  0.2906 -0.3410 -0.1539
  612TMC3    C5 9068   1.401   0.783   9.823  0.2085  0.1243 -0.1802
  612TMC3    C6 9069   1.505   0.829   9.897 -0.3390 -0.2360  0.8808
  612TMC3     C 9070   1.192   0.594  10.052 -0.4774  0.1662  0.1744
  612TMC3     O 9071   1.131   0.518   9.984  0.5748  0.6594 -0.3474
  612TMC3     H 9072   1.418   0.667  10.186 -0.8577  1.0914  0.2594
  612TMC3    H1 9073   1.220   0.663   9.801 -0.0460 -3.1697  1.7647
  612TMC3    H2 9074   1.580   0.894   9.854 -0.7733 -0.5663 -0.3699
  612TMC3    C7 9075   1.368   0.864   9.704  0.2691 -0.2058 -0.2476
  612TMC3    C8 9076   1.624   0.824  10.102  0.1597  0.7232  0.6485
  612TMC3    O1 9077   1.456   0.938   9.662 -0.0033 -0.3277  0.2099
  612TMC3    O2 9078   1.728   0.850  10.042  0.2347  0.0162 -0.3963
  613MPD2     C 9079   0.599   2.329  16.933  0.3441  0.3137 -0.2472
  613MPD2    C1 9080   0.555   2.405  16.828 -0.1497  0.4965  0.2811
  613MPD2    C2 9081   0.431   2.387  16.777 -0.2517 -0.6104  0.3470
  613MPD2    C3 9082   0.370   2.265  16.810  0.0967  0.0996 -0.2090
  613MPD2    C4 9083   0.425   2.181  16.904  0.5279 -0.0388 -0.8003
  613MPD2    C5 9084   0.547   2.207  16.961  0.0530  0.0273  0.0779
  613MPD2     H 9085   0.385   2.461  16.713  0.9773  1.0912  1.4177
  613MPD2    H1 9086   0.387   2.080  16.912  1.2119 -0.3340 -1.2912
  613MPD2    H2 9087   0.693   2.351  16.982  1.4254 -2.4207 -1.1041
  613MPD2    H3 9088   0.596   2.139  17.029  2.4770  2.3379  0.6529
  613MPD2     N 9089   0.258   2.206  16.752  0.2191  0.3415 -0.6894
  613MPD2    H5 9090   0.237   2.110  16.777  1.1083  0.1074 -0.8310
  613MPD2    N1 9091   0.648   2.510  16.791 -0.1755  1.2368  0.3679
  613MPD2    H7 9092   0.722   2.519  16.859  0.2429  1.1429 -0.0770
  614TMC3    C1 9093   0.565   2.593  16.564  0.0973 -0.2529  0.1455
  614TMC3    C2 9094   0.567   2.468  16.509  0.5364  0.1590 -0.5198
  614TMC3    C3 9095   0.487   2.449  16.400  0.5499  0.3944 -0.3042
  614TMC3    C4 9096   0.499   2.700  16.503  0.5078 -0.5091 -0.4814
  614TMC3    C5 9097   0.418   2.678  16.400  0.1728 -0.7080 -0.1160
  614TMC3    C6 9098   0.411   2.551  16.344 -0.6339  0.7222 -0.6169
  614TMC3     C 9099   0.635   2.611  16.699 -0.5964 -0.9760 -0.2753
  614TMC3     O 9100   0.688   2.718  16.712 -0.1838  0.2962  0.2193
  614TMC3     H 9101   0.612   2.380  16.552 -0.9819  0.4216  1.6140
  614TMC3    H1 9102   0.511   2.796  16.552 -0.3333 -0.0862 -1.1170
  614TMC3    H2 9103   0.350   2.527  16.258  0.4025 -0.0392 -1.1507
  614TMC3    C7 9104   0.338   2.789  16.348 -0.0852 -1.1101  0.3649
  614TMC3    C8 9105   0.432   2.315  16.392 -0.1447 -0.0202  0.0892
  614TMC3    O1 9106   0.365   2.896  16.400  0.2909 -0.1544 -0.6723
  614TMC3    O2 9107   0.439   2.246  16.491 -0.4004  0.1851 -0.0857
  615MPD2     C 9108   4.347   3.974  16.223 -0.2222 -0.6929  0.2770
  615MPD2    C1 9109   4.236   4.056  16.209 -0.1799  0.0948 -0.3607
  615MPD2    C2 9110   4.151   4.047  16.097 -0.3409  0.7679  0.3593
  615MPD2    C3 9111   4.196   3.974  15.989 -0.5353  0.3253  0.6787
  615MPD2    C4 9112   4.308   3.896  16.005 -0.1388  0.0930  0.2274
  615MPD2    C5 9113   4.376   3.883  16.125 -0.6557 -0.3168 -0.0669
  615MPD2     H 9114   4.075   4.124  16.089 -0.6595  0.1536 -2.3935
  615MPD2    H1 9115   4.336   3.831  15.922  1.8425  1.7476 -0.3968
  615MPD2    H2 9116   4.412   3.971  16.309 -0.7139  3.5630  0.8156
  615MPD2    H3 9117   4.461   3.816  16.120 -1.8229 -1.8328  0.4998
  615MPD2     N 9118   4.137   3.981  15.863 -0.0186 -0.7420 -0.6189
  615MPD2    H5 9119   4.186   3.936  15.786  0.5712 -1.2914  0.0738
  615MPD2    N1 9120   4.206   4.160  16.300 -0.3912 -0.1125  0.3941
  615MPD2    H7 9121   4.117   4.208  16.289 -1.0631 -1.0523  1.6953
  616TMC3    C1 9122   4.242   4.327  16.452  0.3845  0.0264 -0.5658
  616TMC3    C2 9123   4.326   4.433  16.477  0.2930  0.2279 -0.0943
  616TMC3    C3 9124   4.273   4.535  16.552 -0.0923 -0.5157 -0.1047
  616TMC3    C4 9125   4.109   4.328  16.493  0.1338 -0.5783  0.8126
  616TMC3    C5 9126   4.057   4.441  16.556 -0.1937  0.7729 -0.0359
  616TMC3    C6 9127   4.141   4.539  16.604  0.1279 -0.2070  0.0826
  616TMC3     C 9128   4.298   4.211  16.388  0.1125  0.1335 -0.3057
  616TMC3     O 9129   4.412   4.180  16.407 -0.3168  0.7165  0.4900
  616TMC3     H 9130   4.429   4.436  16.443  0.7512 -0.0017  1.2825
  616TMC3    H1 9131   4.056   4.239  16.461 -1.2094  0.3821  0.3689
  616TMC3    H2 9132   4.113   4.622  16.669 -0.9786 -0.8676  0.4394
  616TMC3    C7 9133   3.916   4.451  16.587 -0.3039 -0.0371  0.1137
  616TMC3    C8 9134   4.349   4.656  16.565 -0.0527 -0.2781 -0.1143
  616TMC3    O1 9135   3.885   4.551  16.648  0.5862  0.3091 -0.0833
  616TMC3    O2 9136   4.294   0.028  16.623  0.7714 -0.0597  0.0665
  617MPD2     C 9137   2.830   2.017  13.781  0.1568 -0.9130  0.7274
  617MPD2    C1 9138   2.774   1.990  13.903  0.3411  0.3914 -0.3549
  617MPD2    C2 9139   2.633   2.005  13.912  0.0034 -0.1798 -0.0455
  617MPD2    C3 9140   2.558   2.030  13.795  0.0301  0.5860 -0.1454
  617MPD2    C4 9141   2.627   2.062  13.683 -0.0092  0.4268 -0.2588
  617MPD2    C5 9142   2.761   2.047  13.672  0.5044 -0.0823  0.0397
  617MPD2     H 9143   2.585   1.988  14.008  0.5443  0.3031  0.3081
  617MPD2    H1 9144   2.566   2.087  13.597  1.5685  1.3583 -1.1046
  617MPD2    H2 9145   2.938   2.005  13.772  0.1146 -1.0949  0.4767
  617MPD2    H3 9146   2.808   2.068  13.576 -0.4774  2.5349  0.1192
  617MPD2     N 9147   2.418   2.017  13.784  0.0177  0.7521  0.2100
  617MPD2    H5 9148   2.379   2.041  13.694  1.0658 -0.2179 -0.4898
  617MPD2    N1 9149   2.861   1.952  14.009 -1.2284 -0.1772  0.3488
  617MPD2    H7 9150   2.952   1.988  13.982 -1.1118 -1.1488 -0.5564
  618TMC3    C1 9151   2.946   1.887  14.209 -1.1491  0.1777 -0.6878
  618TMC3    C2 9152   3.005   1.762  14.187  0.8364 -0.7013  0.9094
  618TMC3    C3 9153   3.139   1.763  14.151  0.7922  0.6324 -0.0695
  618TMC3    C4 9154   3.019   2.004  14.199 -1.1383  0.2134  0.4264
  618TMC3    C5 9155   3.153   1.999  14.182 -0.2945  0.1830  0.2687
  618TMC3    C6 9156   3.212   1.878  14.154 -0.0463  0.1554 -0.1213
  618TMC3     C 9157   2.829   1.903  14.130 -0.5232 -0.4506 -1.0140
  618TMC3     O 9158   2.728   1.846  14.170  0.2643  0.0469  0.6806
  618TMC3     H 9159   2.939   1.682  14.157 -0.4144  0.3879  0.7372
  618TMC3    H1 9160   2.959   2.093  14.188 -0.0625  0.5547 -2.7227
  618TMC3    H2 9161   3.312   1.886  14.112  0.2888  0.1811  0.6711
  618TMC3    C7 9162   3.192   2.083  14.070 -0.1637 -0.7562 -0.8781
  618TMC3    C8 9163   3.176   1.667  14.055 -0.2555 -0.0962  0.0522
  618TMC3    O1 9164   3.124   2.063  13.969 -0.4972  0.2919 -0.1822
  618TMC3    O2 9165   3.120   1.561  14.059 -0.2152  0.1854 -0.6309
  619MPD2     C 9166   4.180   3.356  13.743  0.3798 -0.0675 -0.0265
  619MPD2    C1 9167   4.103   3.393  13.635  0.3378  0.5603  0.5867
  619MPD2    C2 9168   3.965   3.368  13.640 -0.3032  0.8698 -0.1233
  619MPD2    C3 9169   3.907   3.321  13.759  0.4132  0.2751  0.2455
  619MPD2    C4 9170   3.984   3.304  13.867  0.0335 -0.1437 -0.0391
  619MPD2    C5 9171   4.121   3.323  13.864 -0.2001 -0.1731 -0.3657
  619MPD2     H 9172   3.912   3.399  13.551  1.3480  2.2894 -0.5991
  619MPD2    H1 9173   3.938   3.279  13.963 -2.0762  1.3151 -0.6613
  619MPD2    H2 9174   4.285   3.379  13.738  0.9885 -3.0286 -1.1717
  619MPD2    H3 9175   4.181   3.313  13.954  0.9969 -2.5211 -1.4181
  619MPD2     N 9176   3.766   3.297  13.775 -0.0893 -0.5494 -0.4378
  619MPD2    H5 9177   3.733   3.261  13.864  0.5005 -0.9876 -0.3942
  619MPD2    N1 9178   4.155   3.445  13.513 -0.5967 -0.0368  1.0819
  619MPD2    H7 9179   4.085   3.481  13.448  0.0217 -1.1978 -0.2245
  620TMC3    C1 9180   4.293   3.519  13.341 -0.1904 -0.1695  0.1169
  620TMC3    C2 9181   4.186   3.495  13.263  0.4909  0.2843 -0.3642
  620TMC3    C3 9182   4.135   3.592  13.174 -0.0553 -0.4975 -0.0007
  620TMC3    C4 9183   4.348   3.644  13.333 -0.8743 -0.5156 -0.0187
  620TMC3    C5 9184   4.296   3.737  13.246 -0.8103  0.1279 -0.1558
  620TMC3    C6 9185   4.201   3.709  13.152  0.0258 -0.4382 -0.1893
  620TMC3     C 9186   4.286   3.482  13.482  0.7912  0.4396 -0.6178
  620TMC3     O 9187   4.390   3.490  13.546  0.6067  0.3127  0.0216
  620TMC3     H 9188   4.138   3.398  13.264 -0.5464  0.8070  0.5751
  620TMC3    H1 9189   4.433   3.672  13.394 -1.0944 -0.5532  0.3049
  620TMC3    H2 9190   4.167   3.789  13.088  0.6185  0.4315  0.5857
  620TMC3    C7 9191   4.287   3.873  13.291 -0.5773  0.1181  0.2778
  620TMC3    C8 9192   3.999   3.602  13.207 -0.1711  0.0358  0.0051
  620TMC3    O1 9193   4.186   3.928  13.257  0.0463  0.2847  0.0786
  620TMC3    O2 9194   3.960   3.531  13.295 -0.3205  0.1846 -0.2586
  621MPD2     C 9195   4.675   2.769   9.972  0.6651 -0.4594 -0.6615
  621MPD2    C1 9196   4.671   2.849   9.856 -0.0023 -0.1042 -0.3461
  621MPD2    C2 9197   0.003   2.977   9.880 -0.4960 -1.2635 -0.3250
  621MPD2    C3 9198   0.056   3.018   9.997 -0.2282 -0.5352  0.3992
  621MPD2    C4 9199   0.059   2.936  10.107 -0.1081 -0.2044  0.5149
  621MPD2    C5 9200   0.002   2.809  10.085  0.1824 -0.2674 -0.1270
  621MPD2     H 9201   0.008   3.045   9.796 -0.2102 -0.6050  0.2212
  621MPD2    H1 9202   0.099   2.969  10.202 -3.0632 -0.3627  1.8065
  621MPD2    H2 9203   4.616   2.679   9.972 -0.5974  0.3693 -0.3962
  621MPD2    H3 9204   0.001   2.737  10.166 -0.8354  1.0534  1.0456
  621MPD2     N 9205   0.107   3.147  10.023  0.4714  0.7502  0.1036
  621MPD2    H5 9206   0.141   3.167  10.116 -1.6107 -1.5241  1.3647
  621MPD2    N1 9207   4.620   2.810   9.725  0.3920  0.1543  0.4352
  621MPD2    H7 9208   4.633   2.868   9.643 -1.5651  0.0017  0.0079
  622TMC3    C1 9209   4.524   2.659   9.567 -0.3429 -0.2139  0.5957
  622TMC3    C2 9210   4.457   2.538   9.551 -0.0538 -0.5019  0.6519
  622TMC3    C3 9211   4.453   2.485   9.429  1.1038  0.2259 -0.3371
  622TMC3    C4 9212   4.591   2.716   9.461 -0.1509  0.7477 -0.8362
  622TMC3    C5 9213   4.595   2.645   9.344  0.7730 -0.0676 -0.4127
  622TMC3    C6 9214   4.526   2.531   9.319 -0.0250  0.3629 -0.0587
  622TMC3     C 9215   4.550   2.693   9.708 -0.0312 -0.3294 -0.2150
  622TMC3     O 9216   4.512   2.611   9.789  0.0250 -0.3005  0.0613
  622TMC3     H 9217   4.413   2.483   9.633 -2.5703 -0.6306 -0.7958
  622TMC3    H1 9218   4.650   2.805   9.479  0.5880 -0.3490  2.2442
  622TMC3    H2 9219   4.522   2.477   9.225  1.1147  0.7172 -0.3154
  622TMC3    C7 9220   4.647   2.717   9.224 -0.4759 -0.4812  1.0012
  622TMC3    C8 9221   4.367   2.374   9.395 -0.3445  0.0023  0.4477
  622TMC3    O1 9222   0.022   2.793   9.239 -0.3457 -0.0716 -0.0916
  622TMC3    O2 9223   4.373   2.325   9.286  0.4949  0.6651 -0.9826
  623MPD2     C 9224   3.094   3.899  16.342 -0.6049 -0.3792 -0.3674
  623MPD2    C1 9225   3.015   3.960  16.440 -0.2453 -0.0011  0.1551
  623MPD2    C2 9226   3.071   3.982  16.561 -0.1525 -0.3548  0.0891
  623MPD2    C3 9227   3.207   3.964  16.580 -0.3716  0.5026 -0.1193
  623MPD2    C4 9228   3.284   3.904  16.476 -0.9783 -0.1416 -0.6505
  623MPD2    C5 9229   3.223   3.880  16.360  0.1860 -0.0463 -0.0246
  623MPD2     H 9230   3.011   4.003  16.648 -2.8359  1.5909 -2.2274
  623MPD2    H1 9231   3.392   3.903  16.484 -1.0921  2.6920  1.2567
  623MPD2    H2 9232   3.058   3.870  16.244 -1.4440  0.1038 -0.2067
  623MPD2    H3 9233   3.274   3.849  16.270  0.9290  0.3812  0.2542
  623MPD2     N 9234   3.246   3.994  16.708 -0.7940 -0.1478 -0.4185
  623MPD2    H5 9235   3.175   4.049  16.756 -2.7263 -1.6752 -1.5182
  623MPD2    N1 9236   2.880   3.991  16.421  0.4896  1.2743 -0.8296
  623MPD2    H7 9237   2.835   3.962  16.335 -1.1991  0.0072  0.4798
  624TMC3    C1 9238   3.461   3.982  17.133  0.5034 -0.1524 -0.1521
  624TMC3    C2 9239   3.365   4.075  17.174  0.0587  0.4605  0.5458
  624TMC3    C3 9240   3.286   4.143  17.081 -0.3289 -0.0025  0.1187
  624TMC3    C4 9241   3.461   3.956  16.995  0.8661  0.6605 -0.4705
  624TMC3    C5 9242   3.389   4.027  16.904 -0.1158 -0.2536  0.1213
  624TMC3    C6 9243   3.292   4.118  16.946 -0.0794 -0.1774 -0.1043
  624TMC3     C 9244   3.566   3.932  17.214  0.4973 -0.5512 -0.0186
  624TMC3     O 9245   3.602   4.002  17.308  0.2799  0.4612  0.4848
  624TMC3     H 9246   3.364   4.113  17.275 -0.4193  1.3284  0.2119
  624TMC3    H1 9247   3.538   3.894  16.952  0.0931 -0.2767 -0.4931
  624TMC3    H2 9248   3.208   4.159  16.891 -0.5234  0.7869  1.2952
  624TMC3    C7 9249   3.371   3.967  16.765 -1.1718 -0.2669 -0.3945
  624TMC3    C8 9250   3.148   4.162  17.112  0.1621  0.4711  0.2206
  624TMC3    O1 9251   3.456   3.888  16.724 -0.0777  0.1487  0.1153
  624TMC3    O2 9252   3.098   4.051  17.133 -0.1135  0.1547 -0.5208
  625MPD2     C 9253   2.977   0.444   0.743 -0.5060  0.2491 -0.7335
  625MPD2    C1 9254   3.106   0.488   0.750 -0.1744  0.3657  0.1333
  625MPD2    C2 9255   3.160   0.504   0.871  0.3598  0.5632  0.7085
  625MPD2    C3 9256   3.096   0.471   0.990  0.1675  0.0021 -0.3733
  625MPD2    C4 9257   2.963   0.427   0.984 -0.2217 -0.4664  0.1926
  625MPD2    C5 9258   2.911   0.414   0.861  0.6922  0.2517  0.4008
  625MPD2     H 9259   3.260   0.546   0.876  1.0650 -1.0007 -0.2600
  625MPD2    H1 9260   2.911   0.393   1.072 -1.2400 -1.9231 -0.9724
  625MPD2    H2 9261   2.923   0.429   0.651 -5.0408  0.2180  1.9422
  625MPD2    H3 9262   2.807   0.384   0.849  1.2186 -0.8089 -1.5685
  625MPD2     N 9263   3.158   0.505   1.107 -0.4043  0.0165  0.4950
  625MPD2    H5 9264   3.248   0.549   1.087 -0.4046 -0.4643 -0.5307
  625MPD2    N1 9265   3.189   0.521   0.636  0.4019 -0.1990  0.0953
  625MPD2    H7 9266   3.287   0.544   0.647  0.2603  0.4385  0.0097
  626TMC3    C1 9267   3.235   0.590   0.415  0.0780  0.2577 -0.0758
  626TMC3    C2 9268   3.198   0.587   0.281 -0.2681 -0.7661  0.8595
  626TMC3    C3 9269   3.276   0.662   0.200  0.6170  0.3036  0.5165
  626TMC3    C4 9270   3.348   0.647   0.462  0.8235  0.0164  0.2627
  626TMC3    C5 9271   3.423   0.709   0.373  0.1960 -0.4029  0.1384
  626TMC3    C6 9272   3.388   0.727   0.247  1.0391  0.5620 -0.4920
  626TMC3     C 9273   3.144   0.523   0.506  0.1144  0.1468 -0.6645
  626TMC3     O 9274   3.055   0.467   0.448 -0.2965 -0.2900  0.6115
  626TMC3     H 9275   3.106   0.543   0.244  1.2425 -1.7093 -1.7664
  626TMC3    H1 9276   3.386   0.648   0.563 -1.0214  0.3751  0.9528
  626TMC3    H2 9277   3.436   0.798   0.181 -1.8485  1.4480 -1.6727
  626TMC3    C7 9278   3.525   0.792   0.428  0.0662 -0.0506  0.8612
  626TMC3    C8 9279   3.212   0.741   0.093 -0.9884  0.5382 -0.5648
  626TMC3    O1 9280   3.511   0.831   0.539  0.0783 -0.0200 -0.2206
  626TMC3    O2 9281   3.276   0.797   0.005 -0.0280 -0.0726 -0.4051
  627MPD2     C 9282   1.876   0.838  14.130  0.2524 -0.3254  0.1270
  627MPD2    C1 9283   1.961   0.756  14.198  0.0121  0.1663 -0.0392
  627MPD2    C2 9284   1.975   0.628  14.165  0.7451  0.1581 -0.8585
  627MPD2    C3 9285   1.900   0.574  14.071  0.6864  0.1833  0.2341
  627MPD2    C4 9286   1.809   0.647  13.997  0.5586  0.0222  0.1551
  627MPD2    C5 9287   1.803   0.787  14.028  0.6369  0.6137 -0.0845
  627MPD2     H 9288   2.060   0.579  14.211  0.5803  0.5187 -0.1714
  627MPD2    H1 9289   1.762   0.610  13.907 -0.7991  0.3574  0.7398
  627MPD2    H2 9290   1.868   0.945  14.145 -1.0725 -0.1224 -1.9574
  627MPD2    H3 9291   1.746   0.858  13.968 -0.5918  0.0862  0.4789
  627MPD2     N 9292   1.922   0.430  14.047 -0.5186 -0.0734 -0.2882
  627MPD2    H5 9293   1.989   0.385  14.108 -1.3477  1.9226  2.0934
  627MPD2    N1 9294   2.053   0.794  14.296  0.0793  0.7026  0.5646
  627MPD2    H7 9295   2.118   0.725  14.331 -0.7069 -0.6927 -0.6918
  628TMC3    C1 9296   2.170   0.938  14.428  0.4995  0.2468  0.3272
  628TMC3    C2 9297   2.269   0.842  14.452 -0.5601  0.7246 -0.3974
  628TMC3    C3 9298   2.396   0.888  14.494 -0.4610 -0.0905  0.1598
  628TMC3    C4 9299   2.208   1.070  14.450 -0.5251  0.7452 -0.7751
  628TMC3    C5 9300   2.339   1.107  14.486  0.7670  1.1242  0.0597
  628TMC3    C6 9301   2.435   1.020  14.505 -1.3173 -0.1953 -0.2164
  628TMC3     C 9302   2.057   0.920  14.345 -0.0312 -0.6671 -0.4173
  628TMC3     O 9303   1.976   1.010  14.327 -0.1045  0.1942 -0.2315
  628TMC3     H 9304   2.241   0.738  14.460  0.4921  0.5627  1.2152
  628TMC3    H1 9305   2.133   1.148  14.440  0.4695  1.9694  1.2133
  628TMC3    H2 9306   2.530   1.056  14.543 -1.9521  0.4750  0.7407
  628TMC3    C7 9307   2.381   1.247  14.495 -0.2104 -0.0915  0.5208
  628TMC3    C8 9308   2.494   0.789  14.465  0.5756  0.4838 -0.1691
  628TMC3    O1 9309   2.483   1.278  14.555  0.5578  0.0738  0.5888
  628TMC3    O2 9310   2.451   0.690  14.404 -0.4021 -0.1842 -0.1852
  629MPD2     C 9311   0.020   0.246  16.455  0.9523 -1.0070 -0.7599
  629MPD2    C1 9312   0.068   0.125  16.434 -0.3193 -0.5504 -0.6143
  629MPD2    C2 9313   4.700   0.013  16.461  0.6847 -0.9419 -0.1707
  629MPD2    C3 9314   4.567   0.033  16.496  0.2390  0.0810  0.3293
  629MPD2    C4 9315   4.523   0.162  16.509 -0.3911  0.6057 -0.1651
  629MPD2    C5 9316   4.615   0.268  16.492  0.4853 -0.4816 -0.2469
  629MPD2     H 9317   0.007   4.634  16.442 -0.7477 -1.3482 -0.2227
  629MPD2    H1 9318   4.419   0.189  16.521 -0.6135  0.2048 -1.1347
  629MPD2    H2 9319   0.085   0.331  16.438 -1.7412  1.1614 -0.2505
  629MPD2    H3 9320   4.574   0.368  16.502 -1.2971 -1.3071  0.7544
  629MPD2     N 9321   4.476   4.644  16.512 -0.0170 -0.2237 -0.7636
  629MPD2    H5 9322   4.510   4.554  16.481  1.1512  0.1530 -0.5432
  629MPD2    N1 9323   0.210   0.115  16.416  0.2979  0.0023 -0.1864
  629MPD2    H7 9324   0.253   0.206  16.404  0.4665  0.2101  2.1107
  630TMC3    C1 9325   0.419   0.016  16.421 -0.0737 -0.3071 -0.1512
  630TMC3    C2 9326   0.475   0.149  16.398 -0.2339 -0.0169 -0.4794
  630TMC3    C3 9327   0.609   0.161  16.361  0.0801  0.1177  0.2336
  630TMC3    C4 9328   0.499   4.633  16.404  0.2096 -0.3823  0.7539
  630TMC3    C5 9329   0.633   4.648  16.365  0.0189 -0.1617  0.0431
  630TMC3    C6 9330   0.694   0.049  16.347 -0.6398  0.1541  0.2211
  630TMC3     C 9331   0.280   4.722  16.442 -0.3983  0.3779  0.0349
  630TMC3     O 9332   0.241   4.605  16.452  0.0187 -0.3990  0.4271
  630TMC3     H 9333   0.418   0.240  16.412  1.6876  1.2371 -0.8258
  630TMC3    H1 9334   0.454   4.535  16.411  1.0201 -0.6226  2.4543
  630TMC3    H2 9335   0.799   0.062  16.325 -0.5474  0.9822  1.1407
  630TMC3    C7 9336   0.718   4.537  16.402  0.6187 -0.0870 -0.0502
  630TMC3    C8 9337   0.657   0.294  16.330 -0.1407  0.2706  0.9106
  630TMC3    O1 9338   0.686   4.459  16.491  0.3067  0.9812 -0.2530
  630TMC3    O2 9339   0.579   0.381  16.298  0.0380  0.2921  0.5183
  631MPD2     C 9340   3.259   4.382  15.556  0.2197 -0.0433  0.0716
  631MPD2    C1 9341   3.341   4.404  15.450  0.7503 -0.0600 -0.0130
  631MPD2    C2 9342   3.473   4.351  15.461 -0.3688  0.1140  0.1652
  631MPD2    C3 9343   3.509   4.261  15.565  0.6078  0.5642  0.2792
  631MPD2    C4 9344   3.421   4.244  15.668 -0.0812 -1.2591 -0.5474
  631MPD2    C5 9345   3.305   4.310  15.665 -0.6027  0.3819  0.0045
  631MPD2     H 9346   3.554   4.384  15.397  0.1340 -1.4361 -0.0118
  631MPD2    H1 9347   3.437   4.179  15.754  2.4812 -1.6172 -1.2957
  631MPD2    H2 9348   3.165   4.436  15.553 -0.2814 -0.8764  0.9129
  631MPD2    H3 9349   3.237   4.307  15.750  0.1885 -0.7418  0.5999
  631MPD2     N 9350   3.628   4.192  15.577 -0.2989  0.2566 -0.4659
  631MPD2    H5 9351   3.644   4.153  15.669 -0.7559 -0.6406 -0.7600
  631MPD2    N1 9352   3.313   4.494  15.340 -0.4753 -0.0829  0.5060
  631MPD2    H7 9353   3.237   4.561  15.352  0.4058  1.4051 -2.4121
  632TMC3    C1 9354   3.348   4.624  15.150  0.1375 -0.7905 -0.1133
  632TMC3    C2 9355   3.248   4.715  15.190 -0.8152 -0.4846  0.2697
  632TMC3    C3 9356   3.261   0.117  15.133  0.7476  0.2911 -0.1907
  632TMC3    C4 9357   3.439   4.655  15.055 -0.3110  0.5104  0.3211
  632TMC3    C5 9358   3.447   0.059  15.007  0.5914  0.5164 -1.0789
  632TMC3    C6 9359   3.355   0.158  15.041 -0.2861  0.2009  0.4365
  632TMC3     C 9360   3.381   4.500  15.221  0.4210  0.1532  0.8363
  632TMC3     O 9361   3.471   4.423  15.177  0.8643 -0.4238 -0.0690
  632TMC3     H 9362   3.174   4.688  15.264  1.2943  0.5858  2.7569
  632TMC3    H1 9363   3.512   4.584  15.016 -2.5468 -0.8545 -1.3998
  632TMC3    H2 9364   3.355   0.251  14.987 -0.2965 -0.5416 -0.8445
  632TMC3    C7 9365   3.550   0.097  14.916 -0.3325 -0.3587 -0.1723
  632TMC3    C8 9366   3.167   0.220  15.178  0.9337  0.6086  0.4888
  632TMC3    O1 9367   3.543   0.188  14.835 -0.2787  0.1405 -0.3383
  632TMC3    O2 9368   3.154   0.317  15.104  0.4689 -0.1137 -0.0360
  633MPD2     C 9369   3.500   2.139  17.377 -0.8870 -0.6737  0.1770
  633MPD2    C1 9370   3.427   2.092  17.265 -0.3515 -0.0860 -0.2125
  633MPD2    C2 9371   3.400   1.959  17.245  0.0347  0.2688 -0.1316
  633MPD2    C3 9372   3.450   1.866  17.336 -0.2459 -0.4850  0.4896
  633MPD2    C4 9373   3.519   1.909  17.447 -0.1123  0.0014  0.4638
  633MPD2    C5 9374   3.541   2.045  17.469 -0.1821 -0.0148  0.0906
  633MPD2     H 9375   3.341   1.921  17.162  0.1137  0.4947 -0.2927
  633MPD2    H1 9376   3.574   1.839  17.510 -0.1216 -1.1303 -0.7765
  633MPD2    H2 9377   3.531   2.241  17.394 -0.2190 -0.7978 -0.2669
  633MPD2    H3 9378   3.592   2.070  17.561 -0.1274  0.6037 -0.1055
  633MPD2     N 9379   3.439   1.726  17.308  0.3771  0.1118  0.2385
  633MPD2    H5 9380   3.471   1.664  17.382  1.6105  0.8714  0.3387
  633MPD2    N1 9381   3.381   2.182  17.164  0.6514 -0.0234  0.1045
  633MPD2    H7 9382   3.338   2.138  17.083  2.1481  0.1097 -0.7488
  634TMC3    C1 9383   3.410   2.368  17.028  0.4304  0.3709  0.7325
  634TMC3    C2 9384   3.426   2.285  16.922 -0.1530  0.5266  0.1680
  634TMC3    C3 9385   3.398   2.333  16.800 -0.0386  0.3450 -0.6240
  634TMC3    C4 9386   3.376   2.501  17.011  0.7716  0.5157  0.4675
  634TMC3    C5 9387   3.355   2.545  16.882 -0.0611 -0.4721  0.3123
  634TMC3    C6 9388   3.365   2.458  16.776 -0.1268 -0.5089  0.3477
  634TMC3     C 9389   3.401   2.315  17.163 -0.0264  0.1556 -0.1040
  634TMC3     O 9390   3.430   2.396  17.251  0.1444  0.1207  0.2116
  634TMC3     H 9391   3.461   2.182  16.932 -1.5685 -0.1030 -1.2327
  634TMC3    H1 9392   3.372   2.570  17.094 -0.2432 -1.1516  1.7938
  634TMC3    H2 9393   3.348   2.500  16.677 -0.9356  2.3466  1.7164
  634TMC3    C7 9394   3.367   2.689  16.850  0.1491 -0.0830  0.1628
  634TMC3    C8 9395   3.406   2.243  16.693  0.6644  0.3389 -0.5536
  634TMC3    O1 9396   3.416   2.714  16.740  0.3850 -0.1065 -0.4338
  634TMC3    O2 9397   3.440   2.131  16.724  0.5093 -0.4785  0.1235
  635TMC3    C1 9398   3.579   3.346   0.033  0.7280 -0.0208  0.2651
  635TMC3    C2 9399   3.616   3.391  17.606 -0.6594 -0.1192 -0.0775
  635TMC3    C3 9400   3.667   3.304  17.520 -0.1413 -0.0338  0.0978
  635TMC3    C4 9401   3.604   3.217   0.070  0.3260 -0.0138  0.5338
  635TMC3    C5 9402   3.671   3.131  17.682 -0.1791 -0.6835 -0.0507
  635TMC3    C6 9403   3.702   3.169  17.555 -0.7959  0.3992  0.5937
  635TMC3     C 9404   3.556   3.439   0.137 -0.6221  0.3474  0.8431
  635TMC3     O 9405   3.587   3.555   0.125  0.3190  0.1312  0.1856
  635TMC3     H 9406   3.589   3.491  17.576 -1.7465 -0.7352 -1.1540
  635TMC3    H1 9407   3.583   3.196   0.174 -0.1973  1.3396  0.7010
  635TMC3    H2 9408   3.740   3.099  17.482  0.5516  0.8311  0.8868
  635TMC3    C7 9409   3.698   2.997   0.041 -0.7841  0.2327 -0.1566
  635TMC3    C8 9410   3.664   3.333  17.376 -0.0271  0.9316  0.2369
  635TMC3    O1 9411   3.654   2.970   0.153  0.3252 -0.1182 -0.1719
  635TMC3    O2 9412   3.734   3.266  17.300  0.3000 -0.3589 -0.1498
  636MPD2     C 9413   4.344   2.646  16.125  0.1643  0.2570 -0.1613
  636MPD2    C1 9414   4.444   2.687  16.208  0.4449  0.1857 -0.1296
  636MPD2    C2 9415   4.528   2.592  16.266  0.3084 -0.4733 -0.8295
  636MPD2    C3 9416   4.501   2.461  16.249 -0.1539 -0.2898 -0.0248
  636MPD2    C4 9417   4.403   2.415  16.158  0.3721  0.8282  0.7888
  636MPD2    C5 9418   4.317   2.511  16.109 -0.7822  0.5693 -0.0763
  636MPD2     H 9419   4.613   2.628  16.322  0.1509  0.1857 -1.0095
  636MPD2    H1 9420   4.399   2.310  16.132 -2.4872  1.3262 -0.7434
  636MPD2    H2 9421   4.277   2.717  16.078 -0.1945  0.0635  0.0626
  636MPD2    H3 9422   4.240   2.481  16.039 -0.0592 -0.3109 -0.5050
  636MPD2     N 9423   4.595   2.375  16.309 -0.0606  0.2811 -0.7580
  636MPD2    H5 9424   4.666   2.414  16.370 -0.2532 -0.6461  0.0486
  636MPD2    N1 9425   4.464   2.822  16.239 -0.1693 -0.6167 -0.0930
  636MPD2    H7 9426   4.540   2.842  16.304  1.3098  1.3978 -2.4356
  637TMC3    C1 9427   4.683   2.178  16.392 -0.9482 -0.2350  0.4220
  637TMC3    C2 9428   0.004   2.249  16.500 -0.1291  0.3982 -0.0338
  637TMC3    C3 9429   0.085   2.188  16.595 -0.1358 -0.3386  0.7450
  637TMC3    C4 9430   4.708   2.047  16.378 -0.7871  0.0585  0.1187
  637TMC3    C5 9431   0.060   1.993  16.479 -0.6841 -0.0260  0.7324
  637TMC3    C6 9432   0.115   2.055  16.587 -0.8871 -0.1939 -0.0308
  637TMC3     C 9433   4.587   2.233  16.304 -0.2650 -0.0754 -0.5271
  637TMC3     O 9434   4.514   2.163  16.237  0.0213  0.0461 -0.3010
  637TMC3     H 9435   4.712   2.355  16.519 -0.5327  0.5226 -1.0275
  637TMC3    H1 9436   4.667   1.985  16.299 -0.6429 -0.5125  0.4907
  637TMC3    H2 9437   0.190   2.001  16.643 -1.3773 -0.2746  0.5547
  637TMC3    C7 9438   0.135   1.873  16.444  0.4916  0.6663  0.2797
  637TMC3    C8 9439   0.170   2.268  16.671  0.6157  0.4427 -0.5051
  637TMC3    O1 9440   0.111   1.787  16.527  0.1588  0.0274  0.2805
  637TMC3    O2 9441   0.176   2.383  16.631  0.1868  0.5711 -0.0220
  638MPD2     C 9442   4.451   1.602  14.883 -0.1464 -0.1430 -0.5648
  638MPD2    C1 9443   4.400   1.510  14.791  0.1847  0.1372 -0.1463
  638MPD2    C2 9444   4.366   1.391  14.839 -0.2952 -0.0978 -0.3723
  638MPD2    C3 9445   4.390   1.348  14.965  0.4656 -0.1788 -0.6820
  638MPD2    C4 9446   4.432   1.443  15.053  0.5053  0.4679 -0.7089
  638MPD2    C5 9447   4.470   1.572  15.013 -0.1719 -0.2983 -0.3660
  638MPD2     H 9448   4.316   1.322  14.772 -0.8006  1.0090 -1.1330
  638MPD2    H1 9449   4.457   1.418  15.155  2.7540  0.0574 -1.3613
  638MPD2    H2 9450   4.496   1.694  14.847  1.7203 -0.5915  0.6247
  638MPD2    H3 9451   4.511   1.647  15.080 -1.0546  0.0813 -0.2493
  638MPD2     N 9452   4.345   1.215  15.005 -0.2457  0.4241 -0.1456
  638MPD2    H5 9453   4.285   1.176  14.933  0.5501  0.6919 -0.9528
  638MPD2    N1 9454   4.375   1.557  14.659 -0.1971  0.2526 -0.3310
  638MPD2    H7 9455   4.404   1.652  14.637 -1.3024  0.1955 -2.0205
  639TMC3    C1 9456   4.325   1.023  15.148 -0.7567 -0.5113  0.4447
  639TMC3    C2 9457   4.237   0.973  15.062 -0.5512 -0.2150 -0.4413
  639TMC3    C3 9458   4.175   0.848  15.085 -0.2311  0.0390 -0.1264
  639TMC3    C4 9459   4.383   0.952  15.247  0.7199 -0.1107 -0.6982
  639TMC3    C5 9460   4.340   0.823  15.251  0.4852  0.0799  0.3299
  639TMC3    C6 9461   4.232   0.768  15.173 -0.1166 -0.5391  0.3570
  639TMC3     C 9462   4.370   1.165  15.130 -0.3101 -0.2845 -0.2156
  639TMC3     O 9463   4.447   1.212  15.216 -0.4252  0.3975 -0.3611
  639TMC3     H 9464   4.187   1.031  14.986  1.8110 -0.4520 -2.1767
  639TMC3    H1 9465   4.457   0.993  15.315  0.0491 -1.1468  0.6589
  639TMC3    H2 9466   4.200   0.665  15.178 -0.2054 -0.5577 -0.5939
  639TMC3    C7 9467   4.429   0.725  15.306  1.1999  0.6795  0.2655
  639TMC3    C8 9468   4.111   0.775  14.983  0.0964  0.5893  0.2604
  639TMC3    O1 9469   4.364   0.652  15.379  0.1279 -0.9144  0.2172
  639TMC3    O2 9470   4.157   0.797  14.874  0.1463 -0.1086 -0.0140
  640MPD2     C 9471   0.160   4.451  10.064 -0.4912  0.7030 -0.0832
  640MPD2    C1 9472   0.170   4.558   9.974  0.9777 -0.7781  0.3912
  640MPD2    C2 9473   0.084   4.671   9.995  0.3354  0.1843  0.3567
  640MPD2    C3 9474   0.003   4.675  10.105  0.3961  0.0503 -0.4249
  640MPD2    C4 9475   0.001   4.573  10.196 -0.1423 -0.0460 -0.2386
  640MPD2    C5 9476   0.079   4.461  10.173  0.4690 -0.2847 -0.4017
  640MPD2     H 9477   0.102   0.035   9.933  3.1247 -2.0718 -2.0160
  640MPD2    H1 9478   4.668   4.575  10.288  1.4027 -1.5322  0.7342
  640MPD2    H2 9479   0.225   4.364  10.059 -0.0625  1.0409 -0.3723
  640MPD2    H3 9480   0.080   4.383  10.249  0.6450 -0.5491 -0.6750
  640MPD2     N 9481   4.635   0.063  10.129  0.1021 -0.9001  0.4287
  640MPD2    H5 9482   4.567   0.047  10.203 -0.6552 -0.0069 -0.0742
  640MPD2    N1 9483   0.263   4.548   9.866 -0.2639 -0.6374  0.1190
  640MPD2    H7 9484   0.316   4.461   9.867  1.0866  0.1973  0.6382
  641TMC3    C1 9485   0.388   4.612   9.673  0.6444  0.2674  0.3144
  641TMC3    C2 9486   0.487   4.513   9.696 -0.2692  0.2256  0.0598
  641TMC3    C3 9487   0.584   4.489   9.604  0.0204 -0.4618 -0.2204
  641TMC3    C4 9488   0.377   4.675   9.553  0.6641 -0.1607 -0.0355
  641TMC3    C5 9489   0.474   4.643   9.458 -0.4365 -0.1357 -0.0815
  641TMC3    C6 9490   0.573   4.546   9.484  0.0029  0.4599 -0.7004
  641TMC3     C 9491   0.277   4.635   9.761 -0.1946 -0.1275 -0.4448
  641TMC3     O 9492   0.203   0.008   9.734 -0.0162 -0.6436  0.0499
  641TMC3     H 9493   0.506   4.473   9.794 -0.1432  0.0890 -0.0209
  641TMC3    H1 9494   0.296   0.022   9.539  0.6785 -0.0443  0.4357
  641TMC3    H2 9495   0.646   4.521   9.408  1.1627  0.3810  0.4509
  641TMC3    C7 9496   0.501   4.722   9.341 -0.0121 -0.1220 -0.4321
  641TMC3    C8 9497   0.681   4.386   9.609  0.0379  0.0702  0.0738
  641TMC3    O1 9498   0.612   0.009   9.288 -0.3645  0.4738 -0.1193
  641TMC3    O2 9499   0.769   4.375   9.526 -0.6427 -0.0529 -0.2700
  642TMC3    C1 9500   1.532   1.557  11.980  0.2853 -0.5478  0.6022
  642TMC3    C2 9501   1.669   1.555  11.973 -0.4696 -0.4211 -0.1513
  642TMC3    C3 9502   1.734   1.432  11.954  0.2044 -0.4976 -0.2344
  642TMC3    C4 9503   1.457   1.440  11.968  0.8486  0.5093  0.2593
  642TMC3    C5 9504   1.525   1.331  11.928  0.1400 -0.7996 -0.0817
  642TMC3    C6 9505   1.659   1.322  11.933  0.1152 -0.1862  0.1603
  642TMC3     C 9506   1.474   1.689  12.021  0.0325 -0.5420 -0.2446
  642TMC3     O 9507   1.525   1.789  11.970 -0.4175  0.3440 -0.7476
  642TMC3     H 9508   1.728   1.646  11.970 -0.8931 -0.1866 -1.3419
  642TMC3    H1 9509   1.348   1.438  11.965  0.8751  0.7781 -0.9789
  642TMC3    H2 9510   1.704   1.233  11.891 -0.0402 -0.5472  0.7609
  642TMC3    C7 9511   1.454   1.209  11.918 -0.1261 -0.2685  0.4823
  642TMC3    C8 9512   1.857   1.419  12.024 -0.0497 -0.7428  0.6748
  642TMC3    O1 9513   1.478   1.143  11.821 -0.1191  0.0729  0.1105
  642TMC3    O2 9514   1.902   1.306  12.012  0.4906  0.4441  0.3254
  643TMC3    C1 9515   0.718   0.258   0.387  0.1719 -0.4605 -0.5039
  643TMC3    C2 9516   0.581   0.247   0.401  0.3288 -0.1581 -0.7816
  643TMC3    C3 9517   0.500   0.242   0.296  0.7528 -0.2118  0.0586
  643TMC3    C4 9518   0.764   0.292   0.262  0.1361 -0.2113  0.1595
  643TMC3    C5 9519   0.682   0.265   0.152  0.2754  0.1357 -0.3539
  643TMC3    C6 9520   0.548   0.258   0.167  0.3849 -0.1586 -0.3841
  643TMC3     C 9521   0.779   0.303   0.512  0.7907  0.2075 -0.2065
  643TMC3     O 9522   0.711   0.305   0.613  0.0901  0.1607  0.6332
  643TMC3     H 9523   0.537   0.247   0.500  1.2514  0.0493 -0.3678
  643TMC3    H1 9524   0.871   0.306   0.254  0.1197 -1.1039 -1.7294
  643TMC3    H2 9525   0.483   0.247   0.081 -1.3403 -1.0305  1.0447
  643TMC3    C7 9526   0.749   0.270   0.020  0.1714 -0.7009 -0.2214
  643TMC3    C8 9527   0.365   0.273   0.303 -0.5321  0.2046  0.7036
  643TMC3    O1 9528   0.863   0.318   0.019 -0.2093  0.0724  0.0344
  643TMC3    O2 9529   0.281   0.219   0.370 -0.2760  0.0975 -0.4608
  644MPD2     C 9530   0.189   0.559   9.303  0.4081  0.1481  0.1209
  644MPD2    C1 9531   0.207   0.450   9.384  0.6172  0.4516  0.5925
  644MPD2    C2 9532   0.105   0.354   9.405 -0.1548 -0.6053  0.3267
  644MPD2    C3 9533   4.714   0.368   9.332  0.1253  0.7576  0.4668
  644MPD2    C4 9534   4.699   0.473   9.248 -0.9601 -1.0002  0.6189
  644MPD2    C5 9535   0.064   0.571   9.242 -0.3813 -0.4732  0.7423
  644MPD2     H 9536   0.117   0.272   9.475  1.2962 -0.4578  0.2469
  644MPD2    H1 9537   4.609   0.483   9.189  0.5682  2.2123 -1.1838
  644MPD2    H2 9538   0.262   0.639   9.297  0.9218 -0.2349  1.1221
  644MPD2    H3 9539   0.046   0.657   9.179 -0.7103  0.2184  1.7720
  644MPD2     N 9540   4.623   0.266   9.346  0.7965  0.1877  0.1096
  644MPD2    H5 9541   4.655   0.196   9.412  2.1605  0.4424 -0.2857
  644MPD2    N1 9542   0.336   0.445   9.449  0.7157 -0.1002 -0.7446
  644MPD2    H7 9543   0.410   0.507   9.418 -0.5997  1.5952 -0.4942
  645TMC3    C1 9544   4.425   0.143   9.343  0.4592  0.0495  0.3478
  645TMC3    C2 9545   4.288   0.142   9.328 -0.4874 -0.0165  0.1524
  645TMC3    C3 9546   4.221   0.019   9.336  0.3539 -0.3481  0.3156
  645TMC3    C4 9547   4.497   0.030   9.372  0.1930 -0.3809 -0.1408
  645TMC3    C5 9548   4.431   4.631   9.369 -0.2090  0.0732  0.3407
  645TMC3    C6 9549   4.291   4.624   9.357 -0.0670  0.1759 -0.5628
  645TMC3     C 9550   4.488   0.268   9.310 -0.0876 -0.6981  0.2167
  645TMC3     O 9551   4.424   0.357   9.257 -0.4459 -0.4443  0.1571
  645TMC3     H 9552   4.231   0.234   9.329 -0.3962  0.0627 -1.0837
  645TMC3    H1 9553   4.605   0.035   9.377  0.1435  0.3631  0.1908
  645TMC3    H2 9554   4.237   4.530   9.353  1.0338 -0.4916  0.4148
  645TMC3    C7 9555   4.514   4.506   9.392 -0.0218 -0.1322  0.4155
  645TMC3    C8 9556   4.071   0.026   9.342  0.5317  0.0606  0.2446
  645TMC3    O1 9557   4.636   4.520   9.406 -0.1122  0.3574  0.0032
  645TMC3    O2 9558   4.019   0.130   9.303 -0.7169 -0.0661 -0.2361
  646MPD2     C 9559   0.047   0.216  14.445 -0.6781 -0.2874 -0.0067
  646MPD2    C1 9560   4.690   0.197  14.549  0.2723 -0.7524 -0.0579
  646MPD2    C2 9561   4.549   0.207  14.528  0.3118 -0.1865  0.1664
  646MPD2    C3 9562   4.497   0.248  14.406  0.8790 -0.2523 -0.1070
  646MPD2    C4 9563   4.584   0.264  14.303  0.0243  0.6363  0.2618
  646MPD2    C5 9564   4.719   0.239  14.318 -0.6418 -1.2442  0.6061
  646MPD2     H 9565   4.481   0.200  14.612 -1.4377  2.0827 -1.0566
  646MPD2    H1 9566   4.556   0.292  14.203  1.1652  1.3769  0.1442
  646MPD2    H2 9567   0.154   0.204  14.456 -0.7027 -1.8452 -1.5274
  646MPD2    H3 9568   0.065   0.246  14.235  0.0956 -0.1321  1.3132
  646MPD2     N 9569   4.356   0.289  14.404  0.1088  0.0138  0.2392
  646MPD2    H5 9570   4.291   0.264  14.477 -0.5975  1.0984 -0.0121
  646MPD2    N1 9571   0.023   0.162  14.673  0.1121 -0.1553  0.1704
  646MPD2    H7 9572   0.123   0.177  14.678  0.3218 -1.1684 -1.2146
  647TMC3    C1 9573   0.048   0.088  14.896 -0.1675 -0.5961 -0.1578
  647TMC3    C2 9574   4.709   0.032  15.006 -0.1642  0.3815  0.4464
  647TMC3    C3 9575   0.062   4.697  15.107 -0.4248  0.3081  0.3331
  647TMC3    C4 9576   0.181   0.059  14.871  0.3623 -0.3473 -0.3384
  647TMC3    C5 9577   0.245   4.710  14.968 -0.2187 -0.2873  0.4785
  647TMC3    C6 9578   0.194   4.668  15.087  0.4176  0.3602  0.6066
  647TMC3     C 9579   4.681   0.126  14.782 -0.7812  0.7073  0.2857
  647TMC3     O 9580   4.563   0.133  14.800  0.2803  0.2721  0.6081
  647TMC3     H 9581   4.600   0.033  15.013  0.0124 -1.2051  3.5092
  647TMC3    H1 9582   0.223   0.057  14.771 -0.3809 -1.1638 -0.6312
  647TMC3    H2 9583   0.246   4.604  15.158  0.5923  0.2163  0.3467
  647TMC3    C7 9584   0.387   4.704  14.965 -0.2501  0.2017  0.2681
  647TMC3    C8 9585   4.718   4.594  15.188  0.0879 -0.0291  0.4752
  647TMC3    O1 9586   0.430   4.632  15.053  0.1160 -0.2910 -0.1933
  647TMC3    O2 9587   0.029   4.477  15.175 -0.3283 -0.6432 -0.3502
  648TMC3    C1 9588   3.716   2.350  16.157 -0.1321  0.1910  0.4143
  648TMC3    C2 9589   3.654   2.242  16.118  0.1316  0.6670  0.7696
  648TMC3    C3 9590   3.616   2.234  15.987  0.3508 -0.5719 -0.0390
  648TMC3    C4 9591   3.715   2.464  16.087  0.0361 -0.1498 -0.0214
  648TMC3    C5 9592   3.671   2.455  15.955 -0.1483  0.1827  0.2721
  648TMC3    C6 9593   3.628   2.339  15.902 -0.4106 -0.0023  0.7745
  648TMC3     C 9594   3.746   2.366  16.298 -0.6865 -0.3005  0.4775
  648TMC3     O 9595   3.749   2.480  16.340  0.1872  0.4145 -0.0380
  648TMC3     H 9596   3.623   2.164  16.186 -1.1074  0.7552  0.3032
  648TMC3    H1 9597   3.750   2.558  16.127 -2.9693 -0.5383  3.4280
  648TMC3    H2 9598   3.621   2.326  15.795 -0.7945 -1.0432  0.9200
  648TMC3    C7 9599   3.653   2.574  15.879  0.3973  0.5126  0.0777
  648TMC3    C8 9600   3.582   2.103  15.933  0.4246 -0.1151 -1.1186
  648TMC3    O1 9601   3.653   2.568  15.758  0.0669  0.1045 -0.6358
  648TMC3    O2 9602   3.484   2.099  15.861 -0.0053 -0.3813  0.2802
  649TMC3    C1 9603   2.660   3.347  13.170  0.1129  0.4345 -0.6214
  649TMC3    C2 9604   2.795   3.355  13.168  0.1167  0.7550  0.1785
  649TMC3    C3 9605   2.858   3.312  13.284 -0.3012 -0.2101 -0.8487
  649TMC3    C4 9606   2.593   3.298  13.283  0.5976  0.0001 -0.1302
  649TMC3    C5 9607   2.657   3.258  13.396 -0.5808  0.4031  0.1512
  649TMC3    C6 9608   2.786   3.276  13.402  0.6188 -0.1620  0.3172
  649TMC3     C 9609   2.568   3.388  13.064 -1.1203 -0.5829 -0.7262
  649TMC3     O 9610   2.445   3.389  13.078 -0.0677 -0.4959 -0.0712
  649TMC3     H 9611   2.858   3.396  13.090  1.7244 -1.5202  0.2673
  649TMC3    H1 9612   2.486   3.284  13.280  0.5789 -0.2068  1.4130
  649TMC3    H2 9613   2.843   3.262  13.493  1.2853 -0.4905 -0.1497
  649TMC3    C7 9614   2.587   3.167  13.495 -0.1416  0.1733  0.4101
  649TMC3    C8 9615   3.000   3.315  13.291 -0.4333  0.0934  0.2550
  649TMC3    O1 9616   2.464   3.169  13.505  0.2782  0.2955  0.0499
  649TMC3    O2 9617   3.048   3.209  13.330  0.1271 -0.0112 -0.2309
  650TMC3    C1 9618   0.966   0.433  12.482 -0.8116  0.0742 -0.3831
  650TMC3    C2 9619   0.973   0.576  12.488  0.1621 -0.6678 -0.1189
  650TMC3    C3 9620   0.884   0.646  12.419  0.9521 -0.4677  0.8396
  650TMC3    C4 9621   0.869   0.363  12.411 -0.6542  0.7199  0.1088
  650TMC3    C5 9622   0.777   0.448  12.354 -0.6406 -0.6515 -0.1342
  650TMC3    C6 9623   0.783   0.584  12.349  0.6290 -0.1375 -0.1584
  650TMC3     C 9624   1.067   0.362  12.559  0.5063  0.3954 -0.3639
  650TMC3     O 9625   1.128   0.423  12.644 -0.2145 -0.8882 -0.4068
  650TMC3     H 9626   1.057   0.624  12.538  1.2408 -2.8345  0.1488
  650TMC3    H1 9627   0.835   0.261  12.426  2.9436 -0.2875  1.4055
  650TMC3    H2 9628   0.713   0.648  12.296 -0.9588  0.3557  2.5801
  650TMC3    C7 9629   0.655   0.384  12.294 -0.5712 -0.1165 -0.2670
  650TMC3    C8 9630   0.846   0.781  12.454 -0.1671 -0.2685 -0.9030
  650TMC3    O1 9631   0.604   0.288  12.354  0.1103 -0.4167  0.8071
  650TMC3    O2 9632   0.939   0.852  12.494 -0.3150 -0.5079 -0.7419
  651MPD2     C 9633   4.079   2.232  10.226 -0.1055 -0.2470 -0.9040
  651MPD2    C1 9634   4.088   2.339  10.310 -0.1381 -0.1021 -0.7413
  651MPD2    C2 9635   4.211   2.413  10.321  0.6325  0.5455 -0.0864
  651MPD2    C3 9636   4.326   2.364  10.255 -0.1593  0.3012  0.6424
  651MPD2    C4 9637   4.313   2.252  10.174  0.4691  0.3674  0.3597
  651MPD2    C5 9638   4.195   2.187  10.172  0.5226  0.6179  0.1451
  651MPD2     H 9639   4.217   2.490  10.397  2.7236 -0.6863  1.0228
  651MPD2    H1 9640   4.402   2.205  10.136  0.7707 -0.3441  1.9368
  651MPD2    H2 9641   3.986   2.182  10.201 -1.9682  2.0106  1.5632
  651MPD2    H3 9642   4.195   2.095  10.115  0.0672 -0.7873  2.3975
  651MPD2     N 9643   4.452   2.419  10.285  0.0814 -0.0189 -0.9947
  651MPD2    H5 9644   4.461   2.496  10.351  1.7196  0.5723 -1.8681
  651MPD2    N1 9645   3.979   2.385  10.385  0.1922  0.4540 -0.1418
  651MPD2    H7 9646   3.989   2.476  10.428  1.0783 -0.8175  2.2835
  652TMC3    C1 9647   0.165   2.544  10.275  0.7767  0.2574 -0.5090
  652TMC3    C2 9648   0.065   2.469  10.215  0.3874 -0.4901  0.0096
  652TMC3    C3 9649   4.685   2.435  10.293  0.7279 -0.3926  0.8571
  652TMC3    C4 9650   0.160   2.576  10.407 -0.5897  0.7328 -0.4281
  652TMC3    C5 9651   0.061   2.517  10.483 -0.3711  0.0573 -0.0978
  652TMC3    C6 9652   4.685   2.451  10.429 -0.1750 -0.3521  0.4204
  652TMC3     C 9653   0.294   2.566  10.201 -0.9548  0.6106  0.7624
  652TMC3     O 9654   0.290   2.552  10.082  0.3230  1.0129  0.0609
  652TMC3     H 9655   0.072   2.446  10.109 -1.3499  3.0883 -0.8593
  652TMC3    H1 9656   0.241   2.614  10.468 -0.8126  0.3825  0.0939
  652TMC3    H2 9657   4.593   2.432  10.483 -0.0729  1.2160  1.1591
  652TMC3    C7 9658   0.060   2.541  10.624 -0.5320 -0.3492 -0.4765
  652TMC3    C8 9659   4.569   2.392  10.219 -0.1213  0.5862 -0.9819
  652TMC3    O1 9660   0.013   2.446  10.684 -0.5316  0.2505 -0.6049
  652TMC3    O2 9661   4.592   2.336  10.112  0.2942 -0.2646  0.4944
  653MPD2     C 9662   3.188   2.192  17.684 -0.0432 -0.5024 -0.5568
  653MPD2    C1 9663   3.113   2.304  17.638  0.2109 -0.1708 -0.0522
  653MPD2    C2 9664   3.055   2.296  17.515 -0.0263  0.0311 -0.0825
  653MPD2    C3 9665   3.057   2.185  17.435  0.1665 -0.2587 -0.5593
  653MPD2    C4 9666   3.109   2.073  17.494 -0.0189 -0.2944 -0.4685
  653MPD2    C5 9667   3.175   2.074  17.607  0.5852 -0.2895  0.6953
  653MPD2     H 9668   3.007   2.387  17.480  1.0363  1.0241  1.0138
  653MPD2    H1 9669   3.092   1.974  17.453 -1.2760  0.3454 -1.4672
  653MPD2    H2 9670   3.236   2.191   0.088  1.7072 -0.0838 -1.4130
  653MPD2    H3 9671   3.224   1.990  17.656  1.4460 -0.3810 -0.3168
  653MPD2     N 9672   2.972   2.193  17.320  0.3342  0.0845 -0.5559
  653MPD2    H5 9673   2.917   2.278  17.315  0.3603  0.0875 -0.8037
  653MPD2    N1 9674   3.102   2.424   0.017 -0.5953 -0.2901 -0.8526
  653MPD2    H7 9675   3.040   2.492  17.666 -0.4843 -1.4181 -2.7214
  654TMC3    C1 9676   2.856   2.109  17.126  0.5619  0.3037 -0.2888
  654TMC3    C2 9677   2.804   2.236  17.106 -0.0235  0.4475  0.0541
  654TMC3    C3 9678   2.702   2.242  17.021 -0.3177 -0.2346 -0.1509
  654TMC3    C4 9679   2.820   1.996  17.062 -0.7209  0.3705  0.4621
  654TMC3    C5 9680   2.701   2.013  16.985 -0.0159 -0.2319 -0.5296
  654TMC3    C6 9681   2.647   2.131  16.966  0.1867  0.4740 -0.0956
  654TMC3     C 9682   2.966   2.094  17.221 -0.2001 -0.4311  0.1371
  654TMC3     O 9683   3.022   1.987  17.222  0.3478  0.3119 -0.0489
  654TMC3     H 9684   2.835   2.330  17.151  3.1405 -0.8736  0.6422
  654TMC3    H1 9685   2.853   1.897  17.093 -3.6883 -0.1662  1.9018
  654TMC3    H2 9686   2.563   2.145  16.900  1.2870  0.9517 -1.4044
  654TMC3    C7 9687   2.671   1.917  16.884  0.0226  0.2323 -0.3663
  654TMC3    C8 9688   2.626   2.366  17.005 -0.2959  0.3009 -0.1965
  654TMC3    O1 9689   2.628   1.948  16.774 -0.0482  0.6045 -0.4739
  654TMC3    O2 9690   2.638   2.449  17.090  0.0081 -0.5414 -0.1620
  655MPD2     C 9691   4.035   2.671  15.841  0.1324 -0.0662 -0.4547
  655MPD2    C1 9692   4.022   2.780  15.761 -0.5136  0.3185  0.2433
  655MPD2    C2 9693   4.005   2.757  15.626  0.0076  0.1449  1.2391
  655MPD2    C3 9694   4.036   2.638  15.567  0.2252 -1.2614  0.7006
  655MPD2    C4 9695   4.068   2.533  15.650 -0.2555  0.9949  0.1699
  655MPD2    C5 9696   4.058   2.544  15.788  0.1086 -0.4127  0.1781
  655MPD2     H 9697   3.999   2.849  15.570  2.2210  0.1290  0.9798
  655MPD2    H1 9698   4.109   2.445  15.600 -1.1118 -0.1179  1.4204
  655MPD2    H2 9699   4.052   2.681  15.947 -1.8044  1.6231 -0.3158
  655MPD2    H3 9700   4.085   2.457  15.847 -1.9763 -1.5336 -0.5233
  655MPD2     N 9701   4.043   2.609  15.432  0.2333 -0.5448  0.6371
  655MPD2    H5 9702   4.073   2.522  15.389  0.6814 -1.5295  2.9462
  655MPD2    N1 9703   4.005   2.908  15.810  0.2792 -0.1527 -0.7414
  655MPD2    H7 9704   4.010   2.976  15.734 -0.3992  0.0071 -0.6399
  656TMC3    C1 9705   4.010   3.092  15.961 -0.9287 -0.7295  0.3197
  656TMC3    C2 9706   3.978   3.127  16.092  0.1049 -0.6152 -0.0169
  656TMC3    C3 9707   3.931   3.248  16.115 -1.2300  0.1072  0.1531
  656TMC3    C4 9708   3.966   3.165  15.861  0.5065  0.0165  0.4122
  656TMC3    C5 9709   3.901   3.287  15.890 -0.0511 -0.1662 -0.5448
  656TMC3    C6 9710   3.881   3.331  16.023  0.4560  0.3381 -0.1653
  656TMC3     C 9711   4.016   2.952  15.941  0.3731  0.1120  0.0165
  656TMC3     O 9712   3.998   2.885  16.041  0.3099 -0.7336  0.6739
  656TMC3     H 9713   4.018   3.064  16.171 -0.9416 -2.0711 -0.6609
  656TMC3    H1 9714   4.008   3.146  15.764 -1.1435 -2.1094  0.1071
  656TMC3    H2 9715   3.813   3.409  16.053  0.4974  0.2549  0.1547
  656TMC3    C7 9716   3.855   3.368  15.781 -0.3651 -0.3934 -0.7556
  656TMC3    C8 9717   3.861   3.257  16.245  1.1235  0.6023  0.2339
  656TMC3    O1 9718   3.918   3.347  15.673  0.1612 -0.2484 -0.0974
  656TMC3    O2 9719   3.850   3.365  16.306 -0.1895  0.3108 -0.1695
  657TMC3    C1 9720   2.950   2.043  15.005  0.4620  0.5537 -0.0552
  657TMC3    C2 9721   2.987   2.115  15.109  0.5972 -0.1196 -0.6539
  657TMC3    C3 9722   2.954   2.248  15.111 -0.2314  0.3459  0.4301
  657TMC3    C4 9723   2.881   2.104  14.899  0.2538  0.6626 -0.3709
  657TMC3    C5 9724   2.853   2.241  14.906  0.1246  0.0603  0.0471
  657TMC3    C6 9725   2.888   2.317  15.013  0.3348  0.2614 -0.4472
  657TMC3     C 9726   3.022   1.927  14.955 -0.1888  0.1213 -0.6221
  657TMC3     O 9727   2.987   1.873  14.851  0.1954 -0.0143  0.1217
  657TMC3     H 9728   3.043   2.062  15.185 -0.4176  3.1307  2.3636
  657TMC3    H1 9729   2.870   2.068  14.798  0.6200 -1.6274  0.4055
  657TMC3    H2 9730   2.867   2.423  15.018  1.2988  0.4329  0.0566
  657TMC3    C7 9731   2.765   2.289  14.800  0.2345  0.7992  0.8092
  657TMC3    C8 9732   2.978   2.331  15.224 -0.2121  0.2535 -0.2159
  657TMC3    O1 9733   2.743   2.223  14.700  0.2025 -0.6557  0.7481
  657TMC3    O2 9734   2.903   2.426  15.240 -0.1170  0.2883  0.2452
  658MPD2     C 9735   4.503   2.780  14.978  0.0447 -0.3166  0.0341
  658MPD2    C1 9736   4.408   2.704  14.912 -0.1260  0.9497 -0.0348
  658MPD2    C2 9737   4.419   2.699  14.774 -0.4697  0.4525 -0.2299
  658MPD2    C3 9738   4.511   2.780  14.704  0.3180  0.3338  0.0123
  658MPD2    C4 9739   4.594   2.864  14.770  0.4129 -0.2315  0.4677
  658MPD2    C5 9740   4.583   2.859  14.907 -0.1470 -0.8216  0.6592
  658MPD2     H 9741   4.342   2.648  14.716 -1.8659  1.0202  1.1392
  658MPD2    H1 9742   4.659   2.937  14.722  0.1551  0.6909  1.5111
  658MPD2    H2 9743   4.499   2.785  15.086 -0.8241 -0.0087 -0.0130
  658MPD2    H3 9744   4.638   2.926  14.972  1.6480 -0.2416 -1.4752
  658MPD2     N 9745   4.497   2.777  14.567 -0.2179 -0.5042  0.0754
  658MPD2    H5 9746   4.420   2.718  14.536  0.5476 -0.9251 -1.0041
  658MPD2    N1 9747   4.309   2.638  14.994 -0.8473  0.1446 -0.4339
  658MPD2    H7 9748   4.309   2.667  15.091 -0.1772  1.0723 -0.7100
  659TMC3    C1 9749   4.093   2.568  15.024  0.8155 -0.1906 -0.4310
  659TMC3    C2 9750   4.102   2.616  15.156 -0.0106 -0.2573  0.5432
  659TMC3    C3 9751   3.980   2.648  15.210 -0.2381 -0.5546 -0.0969
  659TMC3    C4 9752   3.974   2.535  14.962 -0.2001 -0.8356 -0.2893
  659TMC3    C5 9753   3.861   2.582  15.023  0.4528 -0.3343  0.1594
  659TMC3    C6 9754   3.866   2.637  15.141  0.4872 -0.4791  0.2909
  659TMC3     C 9755   4.207   2.569  14.942  0.5470  0.2285 -0.2914
  659TMC3     O 9756   4.202   2.505  14.838  0.4997  0.3400 -0.4590
  659TMC3     H 9757   4.196   2.654  15.196  0.3721  0.3822 -0.9589
  659TMC3    H1 9758   3.974   2.497  14.860  1.9332  1.9083 -1.3020
  659TMC3    H2 9759   3.777   2.648  15.201  0.3525 -1.0659  0.1973
  659TMC3    C7 9760   3.733   2.540  14.972  0.4285 -0.2834 -0.1306
  659TMC3    C8 9761   3.969   2.688  15.351  0.2037 -0.2450 -0.2093
  659TMC3    O1 9762   3.640   2.580  15.043 -0.1746 -0.5019 -0.0951
  659TMC3    O2 9763   3.878   2.763  15.379 -0.6156 -0.3572 -0.5031
  660MPD2     C 9764   2.898   1.215  12.297 -0.3758  0.2740  0.3079
  660MPD2    C1 9765   2.785   1.290  12.286 -0.2646 -0.2700 -0.7772
  660MPD2    C2 9766   2.666   1.241  12.349 -0.5158  0.5977 -0.2855
  660MPD2    C3 9767   2.668   1.128  12.424 -0.0465  0.4478 -0.5160
  660MPD2    C4 9768   2.777   1.046  12.416 -0.7602 -0.2541  0.5778
  660MPD2    C5 9769   2.889   1.091  12.351  0.1126  0.4529  0.0493
  660MPD2     H 9770   2.570   1.290  12.337 -1.8477 -2.1208 -0.7692
  660MPD2    H1 9771   2.773   0.947  12.460  1.1969 -1.0687 -1.1136
  660MPD2    H2 9772   2.990   1.232  12.244 -0.2130 -0.4295  0.3554
  660MPD2    H3 9773   2.979   1.031  12.354 -1.8241 -2.4568 -0.0587
  660MPD2     N 9774   2.544   1.094  12.488  0.1112 -0.0358  0.2347
  660MPD2    H5 9775   2.471   1.161  12.469 -0.7142 -1.1465 -0.5153
  660MPD2    N1 9776   2.787   1.410  12.207  0.2809  0.7455  0.3711
  660MPD2    H7 9777   2.872   1.432  12.156  0.6424 -0.9509  0.2322
  661TMC3    C1 9778   2.692   1.602  12.106 -0.7266 -0.5553  0.2013
  661TMC3    C2 9779   2.780   1.586  11.998 -0.5676  0.3192  0.2575
  661TMC3    C3 9780   2.740   1.634  11.878 -0.1616  0.3234  0.3527
  661TMC3    C4 9781   2.590   1.693  12.105 -0.1181 -0.0253 -0.5001
  661TMC3    C5 9782   2.555   1.739  11.983 -0.2197 -0.4609 -0.3480
  661TMC3    C6 9783   2.625   1.704  11.873 -0.3560  0.5372  0.8119
  661TMC3     C 9784   2.697   1.504  12.217 -0.1445 -0.5306 -0.7207
  661TMC3     O 9785   2.600   1.512  12.293 -0.1781  0.1859  0.4711
  661TMC3     H 9786   2.869   1.525  12.001  1.4973  3.3069  0.6451
  661TMC3    H1 9787   2.511   1.696  12.180 -0.1502 -4.3765 -0.3594
  661TMC3    H2 9788   2.602   1.752  11.778 -1.0240  0.7300  1.0685
  661TMC3    C7 9789   2.412   1.778  11.968 -0.5526 -0.1774 -0.5023
  661TMC3    C8 9790   2.829   1.609  11.768  0.4460 -0.4400 -0.2392
  661TMC3    O1 9791   2.377   1.874  12.036 -0.1863  0.1610  0.0515
  661TMC3    O2 9792   2.925   1.538  11.789  0.3959 -0.2582  1.1542
  662MPD2     C 9793   2.381   1.180  17.001 -0.0759  0.5606  0.1166
  662MPD2    C1 9794   2.452   1.164  17.120 -0.0221 -0.2887 -0.2869
  662MPD2    C2 9795   2.466   1.270  17.201 -0.3872 -0.1214 -0.2139
  662MPD2    C3 9796   2.419   1.393  17.169  0.7035  0.1415 -0.8066
  662MPD2    C4 9797   2.331   1.405  17.064 -0.0164  0.7459  0.5561
  662MPD2    C5 9798   2.320   1.296  16.980  0.1525 -0.3607  0.6589
  662MPD2     H 9799   2.515   1.254  17.297 -2.6589  0.0310  0.9606
  662MPD2    H1 9800   2.280   1.497  17.038 -0.2825  1.0611  2.2280
  662MPD2    H2 9801   2.360   1.099  16.932 -1.0594  1.2805 -0.4316
  662MPD2    H3 9802   2.267   1.306  16.886 -1.3348 -1.5814  1.3678
  662MPD2     N 9803   2.419   1.505  17.263  0.5424 -0.3774 -0.1950
  662MPD2    H5 9804   2.361   1.584  17.239 -1.3728 -1.6623  0.2774
  662MPD2    N1 9805   2.503   1.038  17.155 -0.1749 -0.1609 -0.1748
  662MPD2    H7 9806   2.537   1.032  17.250 -2.4152  0.6119  0.6882
  663TMC3    C1 9807   2.568   0.818  17.142  0.0787  0.1127  0.2756
  663TMC3    C2 9808   2.560   0.835  17.278 -0.4601  0.1798  0.8318
  663TMC3    C3 9809   2.639   0.767  17.371  0.0573  0.0711  0.8224
  663TMC3    C4 9810   2.650   0.726  17.088 -0.1871  0.1314 -0.4462
  663TMC3    C5 9811   2.721   0.652  17.171 -0.8935  0.3427 -0.2143
  663TMC3    C6 9812   2.711   0.665  17.311  0.4735  0.6288  0.3525
  663TMC3     C 9813   2.516   0.927  17.071  0.2454 -0.1539 -0.3501
  663TMC3     O 9814   2.512   0.920  16.950  0.5051  0.1387 -0.3019
  663TMC3     H 9815   2.467   0.866  17.324 -0.2887  0.8284  0.7360
  663TMC3    H1 9816   2.646   0.708  16.981  1.5131 -1.4314 -0.2299
  663TMC3    H2 9817   2.770   0.599  17.373 -0.5075  1.7884  2.5195
  663TMC3    C7 9818   2.755   0.521  17.120 -0.2805  0.1915  0.3936
  663TMC3    C8 9819   2.576   0.698  17.483 -0.2568  0.3143 -0.3640
  663TMC3    O1 9820   2.777   0.518  16.998 -0.0490  0.8719 -0.8360
  663TMC3    O2 9821   2.583   0.573  17.490 -0.0153 -0.7828  0.1295
  664MPD2     C 9822   0.731   4.081  17.360  0.7322 -0.9667 -0.5781
  664MPD2    C1 9823   0.837   4.170  17.379 -0.6162  0.0085 -0.4431
  664MPD2    C2 9824   0.848   4.213  17.510 -0.1853 -1.4442 -0.1463
  664MPD2    C3 9825   0.771   4.169  17.616 -0.0715 -0.2127  0.6735
  664MPD2    C4 9826   0.678   4.069  17.588  0.6537 -0.2373  0.4324
  664MPD2    C5 9827   0.660   4.025  17.462  0.0680  0.3167 -0.5622
  664MPD2     H 9828   0.927   4.283  17.532 -0.6037 -1.1929  0.5269
  664MPD2    H1 9829   0.612   4.021  17.659 -2.2417  0.2018 -1.9282
  664MPD2    H2 9830   0.696   4.052  17.262  0.7602  1.8918 -1.4184
  664MPD2    H3 9831   0.579   3.955  17.444 -1.1429  1.4194  0.5975
  664MPD2     N 9832   0.790   4.227   0.050  0.0180  0.4080 -0.1615
  664MPD2    H5 9833   0.867   4.291   0.063  0.4142  0.1404 -1.2029
  664MPD2    N1 9834   0.923   4.217  17.272 -0.0308  0.7572  0.3536
  664MPD2    H7 9835   0.991   4.286  17.304  1.3951 -1.1142  1.3303
  665TMC3    C1 9836   0.749   4.263   0.283  0.6072  0.0999 -0.2645
  665TMC3    C2 9837   0.706   4.214   0.401 -0.0521 -0.6134 -0.1376
  665TMC3    C3 9838   0.774   4.260   0.514 -0.4507  0.7499 -0.3905
  665TMC3    C4 9839   0.860   4.352   0.281  0.3994 -0.2151 -0.4198
  665TMC3    C5 9840   0.929   4.381   0.396 -0.3996 -0.3709  0.0546
  665TMC3    C6 9841   0.892   4.330   0.515 -0.0293 -0.1084 -0.1777
  665TMC3     C 9842   0.728   4.183   0.164 -0.4798 -0.1826  0.5028
  665TMC3     O 9843   0.640   4.102   0.181 -0.4663 -0.2391  0.2569
  665TMC3     H 9844   0.624   4.145   0.418  1.3695 -2.1540  0.6333
  665TMC3    H1 9845   0.875   4.401   0.185  2.5109 -1.4152 -0.7012
  665TMC3    H2 9846   0.945   4.354   0.607  0.1078 -1.5834  0.1306
  665TMC3    C7 9847   1.041   4.463   0.392 -0.0526  0.2320  0.0101
  665TMC3    C8 9848   0.743   4.213   0.645  0.2000  0.0682 -0.7866
  665TMC3    O1 9849   1.094   4.473   0.284  0.1875  0.1001  0.0100
  665TMC3    O2 9850   0.838   4.201   0.725 -0.1825 -0.2766  0.4477
  666TMC3    C1 9851   0.160   3.367   9.998 -0.8732 -0.2952 -0.5409
  666TMC3    C2 9852   0.245   3.339  10.103  0.0313  0.6880  0.0500
  666TMC3    C3 9853   0.289   3.445  10.166 -0.3779 -0.1882 -0.4244
  666TMC3    C4 9854   0.115   3.497   9.967 -0.4284  0.3878 -0.5483
  666TMC3    C5 9855   0.163   3.597  10.051 -0.3791 -0.0228  0.6561
  666TMC3    C6 9856   0.250   3.577  10.149  0.2592  0.4278  0.0635
  666TMC3     C 9857   0.090   3.259   9.941 -0.2685 -0.7086  0.3201
  666TMC3     O 9858   0.033   3.282   9.833  0.4543 -0.1432 -0.7576
  666TMC3     H 9859   0.282   3.243  10.138 -0.0010  0.3137 -0.9300
  666TMC3    H1 9860   0.038   3.517   9.893 -1.9045  1.9411  1.4156
  666TMC3    H2 9861   0.282   3.656  10.217 -2.3655  0.0450  1.7306
  666TMC3    C7 9862   0.071   3.702  10.079 -0.3276  0.3761 -0.0827
  666TMC3    C8 9863   0.395   3.420  10.264 -0.2980 -0.3172 -0.0363
  666TMC3    O1 9864   0.067   3.738  10.195 -0.0573 -0.0518  0.2776
  666TMC3    O2 9865   0.408   3.308  10.317 -0.4205  0.1556  0.3789
  667MPD2     C 9866   1.820   3.662  14.623  0.7040 -0.3697 -0.1881
  667MPD2    C1 9867   1.773   3.727  14.741  0.2321 -0.1382 -0.6918
  667MPD2    C2 9868   1.670   3.669  14.814  0.0544  0.1263 -0.6589
  667MPD2    C3 9869   1.608   3.554  14.768  0.0445 -0.2594 -0.1698
  667MPD2    C4 9870   1.650   3.503  14.645 -0.4643 -0.7743 -0.4339
  667MPD2    C5 9871   1.760   3.547  14.577  0.7478  0.7981  0.4591
  667MPD2     H 9872   1.644   3.710  14.911  0.8530  1.1984 -0.9010
  667MPD2    H1 9873   1.617   3.405  14.615 -1.2273 -1.3471  2.2706
  667MPD2    H2 9874   1.902   3.700  14.564 -1.5854  1.8285 -1.9937
  667MPD2    H3 9875   1.790   3.499  14.484  1.1382  0.4374  0.7731
  667MPD2     N 9876   1.510   3.478  14.830  0.1193  0.5860  0.0577
  667MPD2    H5 9877   1.470   3.403  14.774  0.8071  1.3080 -1.4276
  667MPD2    N1 9878   1.824   3.856  14.778  0.5330 -0.6164 -0.0062
  667MPD2    H7 9879   1.760   3.897  14.845 -0.7346 -0.2507 -1.4156
  668TMC3    C1 9880   1.953   4.050  14.784  0.1034 -0.3018  0.1861
  668TMC3    C2 9881   2.046   4.133  14.726  0.5525  0.1694  0.2637
  668TMC3    C3 9882   2.085   4.244  14.796 -0.0813  0.1223 -0.0430
  668TMC3    C4 9883   1.915   4.062  14.914 -0.5130  0.3501  0.2616
  668TMC3    C5 9884   1.976   4.167  14.977 -0.4020 -0.7034  0.6329
  668TMC3    C6 9885   2.051   4.264  14.923 -0.8219 -0.0821  0.2579
  668TMC3     C 9886   1.924   3.930  14.714 -0.6621 -0.6244 -0.4004
  668TMC3     O 9887   2.015   3.892  14.639 -0.7702 -0.3085  0.6327
  668TMC3     H 9888   2.069   4.115  14.622 -0.5280 -1.7325  0.3536
  668TMC3    H1 9889   1.882   3.976  14.970  0.3177  0.2846  0.6532
  668TMC3    H2 9890   2.070   4.354  14.981 -1.2650  2.1877 -3.1198
  668TMC3    C7 9891   1.987   4.155  15.122 -0.6913  0.6442 -0.3036
  668TMC3    C8 9892   2.162   4.350  14.734 -0.0771 -0.2060 -1.0686
  668TMC3    O1 9893   2.073   4.227  15.173  0.4256 -0.1738 -0.0306
  668TMC3    O2 9894   2.126   4.403  14.633  0.5997  0.3847  0.1408
  669TMC3    C1 9895   4.442   3.851  14.602 -0.9897 -0.4571 -0.2678
  669TMC3    C2 9896   4.363   3.850  14.490  0.6633  0.4296 -0.4137
  669TMC3    C3 9897   4.362   3.956  14.405  0.2000  0.3544 -0.3199
  669TMC3    C4 9898   4.511   3.961  14.640  0.9432 -0.4589  0.0044
  669TMC3    C5 9899   4.512   4.070  14.554  0.0986 -0.6993 -0.0699
  669TMC3    C6 9900   4.437   4.068  14.433  0.6182 -0.2865 -0.3157
  669TMC3     C 9901   4.385   3.775  14.709 -0.4842  0.5319  0.1390
  669TMC3     O 9902   4.265   3.751  14.712  0.0243 -0.1524  0.4659
  669TMC3     H 9903   4.302   3.763  14.469  2.2484 -0.3558 -1.7529
  669TMC3    H1 9904   4.562   3.968  14.735  1.3361  1.4883 -0.3578
  669TMC3    H2 9905   4.438   4.158  14.371 -1.5176 -0.3654 -0.4596
  669TMC3    C7 9906   4.628   4.148  14.558 -0.0175 -0.4471  0.6728
  669TMC3    C8 9907   4.275   3.951  14.291 -0.0845 -0.4645 -0.0303
  669TMC3    O1 9908   4.634   4.248  14.485  0.0895  0.8783  0.0582
  669TMC3    O2 9909   4.200   3.860  14.283  0.1747  0.1184  0.1923
  670MPD2     C 9910   2.759   2.051  13.213  0.0814 -0.7891  0.2686
  670MPD2    C1 9911   2.846   2.007  13.308  0.4345 -0.0535 -0.0736
  670MPD2    C2 9912   2.810   1.900  13.389 -0.5136 -1.3317 -0.2221
  670MPD2    C3 9913   2.682   1.856  13.388 -0.3306  0.0764  0.7011
  670MPD2    C4 9914   2.588   1.914  13.308 -0.0264  0.1121 -0.3756
  670MPD2    C5 9915   2.627   2.010  13.217  0.1660  0.4063 -0.8488
  670MPD2     H 9916   2.883   1.860  13.459  0.3023  0.3843 -0.0956
  670MPD2    H1 9917   2.484   1.884  13.308 -0.1252  0.4510  0.1527
  670MPD2    H2 9918   2.771   2.138  13.150  0.4193 -1.0275  0.0080
  670MPD2    H3 9919   2.551   2.046  13.148 -0.9860 -0.4493 -0.0400
  670MPD2     N 9920   2.653   1.779  13.501 -0.1842  0.3297  0.4063
  670MPD2    H5 9921   2.732   1.760  13.562 -0.8170  1.2926  1.5329
  670MPD2    N1 9922   2.978   2.062  13.318  0.2747  0.4429 -0.1752
  670MPD2    H7 9923   3.026   2.036  13.404  1.8953  0.7601 -0.9858
  671TMC3    C1 9924   2.543   1.669  13.674  0.3903 -0.2080 -0.3812
  671TMC3    C2 9925   2.640   1.697  13.762  0.1241 -0.2629  0.6298
  671TMC3    C3 9926   2.613   1.649  13.895 -0.2989 -0.6964  0.6012
  671TMC3    C4 9927   2.425   1.617  13.712  0.6773  0.1068 -0.4826
  671TMC3    C5 9928   2.393   1.588  13.840  0.3160 -0.2643  0.0833
  671TMC3    C6 9929   2.490   1.612  13.938 -0.3694  0.0168  0.1785
  671TMC3     C 9930   2.530   1.731  13.543 -0.4838  0.8258  0.0326
  671TMC3     O 9931   2.416   1.767  13.505 -0.3283  0.2176  0.1289
  671TMC3     H 9932   2.740   1.715  13.724  1.5780 -2.4917  3.3696
  671TMC3    H1 9933   2.356   1.581  13.636 -1.5368  2.6915  0.2990
  671TMC3    H2 9934   2.471   1.579  14.039 -0.9718  1.0586  0.4055
  671TMC3    C7 9935   2.326   1.462  13.855 -0.4075 -0.4613  0.3532
  671TMC3    C8 9936   2.718   1.568  13.954 -0.0536  0.3031 -0.0433
  671TMC3    O1 9937   2.220   1.441  13.802  0.5918 -0.1383  0.3341
  671TMC3    O2 9938   2.767   1.494  13.870 -0.6777  0.4392  0.3251
  672MPD2     C 9939   2.777   1.266   1.318  0.9025 -0.4027 -0.2520
  672MPD2    C1 9940   2.702   1.378   1.287 -0.2076 -0.3377  0.3765
  672MPD2    C2 9941   2.607   1.428   1.371  0.9581  0.3571  0.6498
  672MPD2    C3 9942   2.588   1.375   1.497 -0.4689 -0.1097 -0.5989
  672MPD2    C4 9943   2.666   1.256   1.524  0.1609  0.5204 -0.6025
  672MPD2    C5 9944   2.753   1.203   1.433  0.5402  0.6370  0.1252
  672MPD2     H 9945   2.547   1.507   1.328  0.4226 -0.2077  0.3673
  672MPD2    H1 9946   2.657   1.198   1.615  0.6427 -0.6440 -1.2940
  672MPD2    H2 9947   2.847   1.215   1.253  0.5515  0.5363 -1.3647
  672MPD2    H3 9948   2.794   1.103   1.444 -1.8979 -0.2855  0.6829
  672MPD2     N 9949   2.504   1.432   1.590  0.4107  0.2985 -0.3556
  672MPD2    H5 9950   2.501   1.389   1.682  0.3330  3.5542  1.1874
  672MPD2    N1 9951   2.723   1.447   1.169 -0.0374 -0.1598  0.3992
  672MPD2    H7 9952   2.659   1.526   1.160  1.2160  0.7378 -0.6526
  673TMC3    C1 9953   2.846   1.545   0.988  0.6747 -0.2624  0.5811
  673TMC3    C2 9954   2.973   1.572   0.943  0.4081  0.6343 -0.4601
  673TMC3    C3 9955   2.996   1.699   0.889 -0.0564  0.1830  0.4309
  673TMC3    C4 9956   2.742   1.630   0.962  0.4985  0.1781 -0.6339
  673TMC3    C5 9957   2.769   1.758   0.907 -0.6395  0.4428 -0.5657
  673TMC3    C6 9958   2.894   1.792   0.876  0.0786  0.0943  0.7820
  673TMC3     C 9959   2.829   1.436   1.085 -0.7399  0.2859 -0.1148
  673TMC3     O 9960   2.912   1.346   1.076  0.2193  0.0639  0.1800
  673TMC3     H 9961   3.057   1.510   0.974  0.1581  0.8981  0.7579
  673TMC3    H1 9962   2.647   1.598   1.004 -0.1278  4.3612  1.1307
  673TMC3    H2 9963   2.918   1.886   0.829  2.2488 -1.6218 -1.5346
  673TMC3    C7 9964   2.655   1.844   0.894 -0.5384  0.3687 -0.2277
  673TMC3    C8 9965   3.131   1.739   0.873  0.1313  0.1493 -0.2267
  673TMC3    O1 9966   2.558   1.806   0.964  0.0506 -0.2989 -0.4406
  673TMC3    O2 9967   3.165   1.831   0.796  0.3348 -0.1018  0.3344
  674MPD2     C 9968   2.711   2.076  17.482 -0.0942 -0.1421 -0.2510
  674MPD2    C1 9969   2.712   2.009  17.603  0.0112  0.4302  0.0910
  674MPD2    C2 9970   2.654   2.055   0.023  0.3817  0.2496 -0.3931
  674MPD2    C3 9971   2.585   2.175   0.025 -0.7113  0.3053  0.3797
  674MPD2    C4 9972   2.575   2.238  17.595  0.0411  0.1438  0.0488
  674MPD2    C5 9973   2.644   2.197  17.482 -0.1030 -0.1260  0.4014
  674MPD2     H 9974   2.658   2.005   0.119 -1.9054  1.6011  0.4281
  674MPD2    H1 9975   2.523   2.330  17.571 -0.3649  0.4009  1.8728
  674MPD2    H2 9976   2.754   2.032  17.392 -0.6515  0.6962 -0.9208
  674MPD2    H3 9977   2.638   2.255  17.391  1.3287  0.3795  0.6230
  674MPD2     N 9978   2.519   2.215   0.146 -0.7129  0.3114 -0.2203
  674MPD2    H5 9979   2.534   2.153   0.225 -1.4543  1.2203  0.6301
  674MPD2    N1 9980   2.776   1.882  17.624 -0.4168 -0.4271  0.4060
  674MPD2    H7 9981   2.768   1.839   0.022 -1.3575 -1.0514  0.0319
  675TMC3    C1 9982   2.934   1.711  17.609  0.1021 -0.9164 -1.0346
  675TMC3    C2 9983   2.924   1.696   0.054  0.5077 -0.5575 -0.3336
  675TMC3    C3 9984   3.027   1.648   0.132  0.6037  0.6286  0.2684
  675TMC3    C4 9985   3.039   1.671  17.541  0.1867  0.2452 -0.4425
  675TMC3    C5 9986   3.136   1.610  17.622  0.0272 -0.4315 -0.7601
  675TMC3    C6 9987   3.131   1.594   0.061 -0.5619 -0.7561 -0.6121
  675TMC3     C 9988   2.842   1.805  17.531 -0.1649 -0.7007  0.1224
  675TMC3     O 9989   2.862   1.825  17.410 -0.3096 -0.2438  0.5897
  675TMC3     H 9990   2.840   1.732   0.113  0.8395 -1.8059  0.8929
  675TMC3    H1 9991   3.048   1.679  17.433 -2.2078  1.4503 -0.5397
  675TMC3    H2 9992   3.194   1.523   0.113 -0.2967 -0.8299 -1.0384
  675TMC3    C7 9993   3.229   1.527  17.549 -0.5560  0.1334 -0.2100
  675TMC3    C8 9994   2.991   1.586   0.259 -0.1197  0.1248 -0.4385
  675TMC3    O1 9995   3.188   1.482  17.444 -0.1756  0.3645 -0.5922
  675TMC3    O2 9996   2.876   1.550   0.273 -1.1289 -0.0978  0.5257
  676MPD2     C 9997   0.289   0.313  10.918  0.0030  0.0386  0.3537
  676MPD2    C1 9998   0.266   0.212  11.008  0.5454  0.2867  0.1460
  676MPD2    C2 9999   0.272   0.081  10.971  0.1179  0.0215 -0.2166
  676MPD2    C310000   0.298   0.043  10.837 -0.7985 -0.4770  0.2082
  676MPD2    C410001   0.311   0.145  10.747 -0.3869 -0.9174  0.4079
  676MPD2    C510002   0.306   0.273  10.788 -0.4380 -0.2719 -0.2330
  676MPD2     H10003   0.270   0.001  11.045  1.4507  0.1644 -0.0138
  676MPD2    H110004   0.327   0.117  10.644 -0.0188 -0.4523  0.3428
  676MPD2    H210005   0.285   0.419  10.941 -0.4697  0.1757 -0.3319
  676MPD2    H310006   0.350   0.342  10.717 -0.3406 -0.3892 -0.2870
  676MPD2     N10007   0.321   4.630  10.796 -0.0783 -0.2836 -0.2761
  676MPD2    H510008   0.349   4.615  10.699 -0.3172 -1.4273 -0.1687
  676MPD2    N110009   0.260   0.245  11.144 -0.8336  0.4596 -0.7722
  676MPD2    H710010   0.274   0.161  11.200  0.8638  0.8525 -0.6065
  677TMC3    C110011   0.283   0.358  11.342  1.2275  0.1966  0.1365
  677TMC3    C210012   0.296   0.239  11.410  0.1169 -0.1197  0.3945
  677TMC3    C310013   0.320   0.239  11.548  0.4073 -0.3093  0.3704
  677TMC3    C410014   0.287   0.473  11.414  0.5377  0.5248 -0.3563
  677TMC3    C510015   0.315   0.471  11.548 -1.0286 -0.3313 -0.0153
  677TMC3    C610016   0.320   0.356  11.621 -0.6842 -0.5671 -0.1170
  677TMC3     C10017   0.254   0.366  11.198  0.4267  0.7406 -0.4597
  677TMC3     O10018   0.225   0.476  11.151  0.4596  0.0700  0.9177
  677TMC3     H10019   0.304   0.142  11.361  0.3141  2.0344 -3.7725
  677TMC3    H110020   0.277   0.566  11.358  2.5488  2.2908  2.2304
  677TMC3    H210021   0.343   0.370  11.726 -0.1578  0.3483 -0.3502
  677TMC3    C710022   0.423   0.561  11.596 -0.6115  0.4041 -0.3899
  677TMC3    C810023   0.425   0.149  11.575 -0.5898  0.4412 -0.2687
  677TMC3    O110024   0.429   0.564  11.717 -0.3043 -0.2186  0.4944
  677TMC3    O210025   0.505   0.136  11.480 -0.1240  0.0320 -0.4964
  678MPD2     C10026   1.936   1.061   1.644 -0.2775 -1.0155  0.0943
  678MPD2    C110027   2.013   0.963   1.577  0.4208 -0.0679 -0.6316
  678MPD2    C210028   1.950   0.847   1.532  0.3111  0.2801 -0.2676
  678MPD2    C310029   1.814   0.816   1.563 -0.2335 -0.5098  0.2090
  678MPD2    C410030   1.745   0.916   1.632 -0.6519  0.2785  0.6415
  678MPD2    C510031   1.805   1.030   1.674 -0.8956 -0.0034 -0.8266
  678MPD2     H10032   2.008   0.770   1.481 -2.1437 -0.4009 -2.0206
  678MPD2    H110033   1.640   0.896   1.653 -0.4196  1.3183  2.7948
  678MPD2    H210034   1.970   1.159   1.672 -1.2968 -0.7077  0.2719
  678MPD2    H310035   1.744   1.109   1.714  0.2885  1.0785 -1.1640
  678MPD2     N10036   1.766   0.693   1.520  0.3313 -0.0741  0.2004
  678MPD2    H510037   1.826   0.642   1.455 -1.0688  0.1198 -1.2525
  678MPD2    N110038   2.149   0.974   1.540  0.7043  0.2591  0.2624
  678MPD2    H710039   2.196   0.896   1.495  1.3438  1.0799 -0.5047
  679TMC3    C110040   2.455   0.880   1.421  0.0857  0.1867 -0.0084
  679TMC3    C210041   2.385   0.951   1.521  0.1023  0.2838  0.5144
  679TMC3    C310042   2.345   1.083   1.510  0.5519 -0.0680 -0.2793
  679TMC3    C410043   2.476   0.947   1.305  0.2115 -0.3850 -0.5805
  679TMC3    C510044   2.442   1.080   1.297 -0.5939  0.4045  0.2716
  679TMC3    C610045   2.374   1.151   1.399 -0.7620 -0.3175  0.8518
  679TMC3     C10046   2.431   0.739   1.407  0.3525 -0.3176  0.1816
  679TMC3     O10047   2.339   0.686   1.471  0.4746  0.8093 -0.1495
  679TMC3     H10048   2.360   0.895   1.610  0.8462  0.4018  0.7984
  679TMC3    H110049   2.508   0.898   1.213 -0.1984 -2.2050  0.2511
  679TMC3    H210050   2.346   1.255   1.391 -1.7691 -0.7447 -1.3074
  679TMC3    C710051   2.465   1.149   1.171 -0.6530  1.2811  0.0199
  679TMC3    C810052   2.214   1.096   1.554 -0.3804 -0.5850 -0.8405
  679TMC3    O110053   2.403   1.254   1.155  0.5779  0.1886  0.0662
  679TMC3    O210054   2.165   1.206   1.562 -0.4795 -0.0169  0.0196
  680MPD2     C10055   1.843   3.436  13.762  0.3144 -0.9915  0.0052
  680MPD2    C110056   1.945   3.407  13.846 -0.5255 -0.1980 -0.5210
  680MPD2    C210057   2.028   3.512  13.881  0.8286 -0.9299 -0.2758
  680MPD2    C310058   2.007   3.639  13.832  0.5867 -0.1296  0.2220
  680MPD2    C410059   1.902   3.665  13.756  0.3409 -0.8398 -0.3925
  680MPD2    C510060   1.818   3.564  13.720 -0.4076  0.2474  0.1484
  680MPD2     H10061   2.116   3.496  13.942  1.2160 -0.8836 -0.8222
  680MPD2    H110062   1.886   3.767  13.721 -1.8188 -1.7076 -1.9547
  680MPD2    H210063   1.778   3.354  13.732  0.7400 -2.2386  2.4572
  680MPD2    H310064   1.732   3.589  13.659 -0.2815 -0.1350 -0.1845
  680MPD2     N10065   2.088   3.745  13.872 -0.0764 -0.1376  0.5903
  680MPD2    H510066   2.045   3.833  13.846  0.7412  0.1420  0.1991
  680MPD2    N110067   1.980   3.280  13.898  0.1151  0.3890 -1.0071
  680MPD2    H710068   2.068   3.278  13.948 -0.1343 -2.6620 -0.7309
  681TMC3    C110069   1.951   3.067  13.985  0.1938 -0.1369  0.2078
  681TMC3    C210070   1.911   3.091  14.119  0.5231 -0.1216 -0.5932
  681TMC3    C310071   1.997   3.088  14.227 -0.8056 -0.2017  0.6845
  681TMC3    C410072   2.081   3.041  13.972 -0.1067 -0.1374  0.6268
  681TMC3    C510073   2.162   3.025  14.076  0.7096  0.5279 -0.1268
  681TMC3    C610074   2.126   3.041  14.206 -0.3042 -0.4009  0.4203
  681TMC3     C10075   1.895   3.172  13.906  0.2102 -0.0933  0.1013
  681TMC3     O10076   1.774   3.171  13.893  0.5170 -0.1849  0.6662
  681TMC3     H10077   1.812   3.132  14.135  0.3608 -1.6047  2.2297
  681TMC3    H110078   2.115   3.023  13.871 -0.8525 -0.8006  0.5007
  681TMC3    H210079   2.202   3.024  14.281 -0.9899 -1.8957  0.7815
  681TMC3    C710080   2.304   2.999  14.061  0.2334  0.3821 -0.3641
  681TMC3    C810081   1.969   3.173  14.343  0.0401 -0.2632  0.2525
  681TMC3    O110082   2.359   2.934  14.145 -0.1342  0.7130 -0.2091
  681TMC3    O210083   1.860   3.211  14.351 -0.2893 -0.0843 -0.3624
  682MPD2     C10084   4.424   0.251  10.467  0.1802  0.1427 -0.6341
  682MPD2    C110085   4.382   0.151  10.557 -0.8983  0.2079 -0.2206
  682MPD2    C210086   4.342   0.186  10.687 -0.3471  0.0890  0.3612
  682MPD2    C310087   4.339   0.324  10.723 -0.4922 -0.6087 -0.6357
  682MPD2    C410088   4.346   0.418  10.621  0.1587 -0.4406  0.5941
  682MPD2    C510089   4.386   0.376  10.499  0.2632 -0.5205  0.0768
  682MPD2     H10090   4.314   0.102  10.749 -2.2784 -0.8681 -1.8107
  682MPD2    H110091   4.323   0.523  10.638  0.0834 -0.5847  1.3708
  682MPD2    H210092   4.459   0.229  10.366 -1.0657 -0.1656 -1.0041
  682MPD2    H310093   4.388   0.456  10.426 -2.2973  0.2868  0.8830
  682MPD2     N10094   4.313   0.383  10.855  0.1523  0.2639 -0.4322
  682MPD2    H510095   4.308   0.484  10.865  0.4672  0.1264  1.1567
  682MPD2    N110096   4.384   0.007  10.540  0.2428  0.0172 -0.0252
  682MPD2    H710097   4.344   4.677  10.617 -1.1204 -1.3928 -1.7248
  683TMC3    C110098   4.299   0.612  11.180  0.3081 -0.0886 -0.7288
  683TMC3    C210099   4.254   0.563  11.299  0.4279  0.3305 -0.2917
  683TMC3    C310100   4.218   0.434  11.304  0.1737 -0.2554 -0.0580
  683TMC3    C410101   4.325   0.527  11.073  0.3639  0.0016  0.5037
  683TMC3    C510102   4.284   0.399  11.085  0.3361 -0.3582 -0.5609
  683TMC3    C610103   4.235   0.341  11.197  0.0868  0.1584  0.2356
  683TMC3     C10104   4.298   0.757  11.173  0.5672  0.0979  0.0668
  683TMC3     O10105   4.275   0.829  11.271 -0.0909  0.7841 -0.8096
  683TMC3     H10106   4.234   0.633  11.379  0.0934 -0.4339  0.2918
  683TMC3    H110107   4.377   0.568  10.988  0.0660  0.4130  0.5186
  683TMC3    H210108   4.221   0.233  11.198  0.3553  0.1207 -0.9316
  683TMC3    C710109   4.301   0.310  10.971 -0.1164 -0.2675 -0.4679
  683TMC3    C810110   4.178   0.381  11.437  0.2684 -0.1065  0.7826
  683TMC3    O110111   4.322   0.193  10.986 -0.4509  0.2626 -0.3175
  683TMC3    O210112   4.119   0.468  11.499  0.6658 -0.1720  0.0822
  684MPD2     C10113   2.272   4.605  16.588  0.0456  0.1461  0.2509
  684MPD2    C110114   2.336   4.556  16.476  0.6246 -0.4873  0.2017
  684MPD2    C210115   2.366   4.645  16.377 -0.6987 -0.9450 -0.9161
  684MPD2    C310116   2.339   0.061  16.383 -0.0233  0.0202 -0.1261
  684MPD2    C410117   2.275   0.105  16.498 -0.0822 -0.1325 -0.6587
  684MPD2    C510118   2.247   0.019  16.603  0.3452 -0.4004  0.5702
  684MPD2     H10119   2.426   4.613  16.292 -0.3159 -2.5440 -0.0497
  684MPD2    H110120   2.254   0.210  16.513  1.9548  0.1768 -0.0465
  684MPD2    H210121   2.250   4.550  16.679  0.0995  0.4320  0.4370
  684MPD2    H310122   2.199   0.054  16.694 -2.5881 -1.9052 -0.3837
  684MPD2     N10123   2.392   0.164  16.302 -0.0333 -0.0637  0.1207
  684MPD2    H510124   2.390   0.261  16.333 -1.5696 -0.4287  1.1749
  684MPD2    N110125   2.371   4.424  16.465 -0.1143  0.8273  0.3560
  684MPD2    H710126   2.406   4.394  16.374 -0.2812 -0.5530  0.7556
  685TMC3    C110127   2.472   4.224  16.499 -0.1190  0.1525 -1.0003
  685TMC3    C210128   2.407   4.159  16.399 -0.7348  0.6071  0.1350
  685TMC3    C310129   2.474   4.065  16.328  0.6003 -0.1967 -0.4996
  685TMC3    C410130   2.606   4.204  16.530  0.0047 -0.1680  0.7313
  685TMC3    C510131   2.667   4.097  16.461  0.0398 -0.0589  0.2243
  685TMC3    C610132   2.608   4.038  16.350  0.3338  0.8609 -0.7479
  685TMC3     C10133   2.410   4.340  16.559 -0.8734 -0.3459 -0.0130
  685TMC3     O10134   2.422   4.365  16.677 -0.3762  0.2823 -0.1875
  685TMC3     H10135   2.304   4.178  16.369 -0.9939 -0.6307  0.2457
  685TMC3    H110136   2.661   4.263  16.602 -1.3584  0.5103  1.2123
  685TMC3    H210137   2.670   3.985  16.278  0.9309  0.3208  0.1694
  685TMC3    C710138   2.809   4.073  16.501 -0.4400 -0.3708 -0.4608
  685TMC3    C810139   2.418   4.012  16.202 -0.3617  0.7004 -0.8509
  685TMC3    O110140   2.847   4.139  16.595 -0.5329  0.1599 -0.0345
  685TMC3    O210141   2.423   3.897  16.167  0.0529 -0.1081  0.0173
  686MPD2     C10142   3.956   4.652  15.536 -0.4558 -0.7303 -0.4093
  686MPD2    C110143   3.986   4.545  15.617  0.5501 -0.4354 -0.4959
  686MPD2    C210144   4.064   4.449  15.561 -0.0395  0.5187  0.0878
  686MPD2    C310145   4.104   4.444  15.428  0.3222 -0.1681  0.0429
  686MPD2    C410146   4.067   4.548  15.346  0.6061  0.2100  0.2162
  686MPD2    C510147   3.994   4.655  15.399 -0.3742 -0.2436 -0.0646
  686MPD2     H10148   4.087   4.369  15.632  0.3221  0.1045 -0.4965
  686MPD2    H110149   4.100   4.550  15.242 -2.0741 -1.6730 -0.6718
  686MPD2    H210150   3.884   0.002  15.572  0.9762  0.7136 -0.4959
  686MPD2    H310151   3.979   0.019  15.336 -0.3028  1.1690  1.8872
  686MPD2     N10152   4.165   4.334  15.370  0.0688  0.0670 -0.3925
  686MPD2    H510153   4.202   4.347  15.276  0.6020 -2.2606 -0.5105
  686MPD2    N110154   3.910   4.527  15.732 -0.1564  0.8613  0.0648
  686MPD2    H710155   3.841   4.600  15.746 -1.2212 -0.2113  0.4637
  687TMC3    C110156   4.082   4.150  15.500 -0.1079 -0.3833 -0.1579
  687TMC3    C210157   3.953   4.166  15.454  0.5946 -0.5624 -0.2849
  687TMC3    C310158   3.851   4.140  15.539  0.0419 -0.4238  0.0191
  687TMC3    C410159   4.105   4.075  15.613 -0.0778 -0.1454  0.0645
  687TMC3    C510160   3.999   4.054  15.695 -0.8760  0.0317  0.2188
  687TMC3    C610161   3.867   4.085  15.662 -0.5187  0.1382  0.4651
  687TMC3     C10162   4.184   4.208  15.428  0.1881  0.0023  1.1628
  687TMC3     O10163   4.260   4.126  15.380  0.0895  0.2620 -0.6259
  687TMC3     H10164   3.941   4.231  15.368 -1.6245  2.7696  2.5063
  687TMC3    H110165   4.208   4.078  15.645 -0.5255 -2.7012  1.7779
  687TMC3    H210166   3.792   4.066  15.737 -0.4527 -0.8749  0.2727
  687TMC3    C710167   4.021   4.044  15.836  0.2665 -0.1597  0.1544
  687TMC3    C810168   3.722   4.164  15.482  0.6967 -0.5098  0.3544
  687TMC3    O110169   3.928   4.055  15.914  0.7885  0.4036 -0.5271
  687TMC3    O210170   3.718   4.189  15.366  0.0450  0.4035  0.3553
  688MPD2     C10171   3.277   3.085  17.522  0.2443 -0.1471  0.1207
  688MPD2    C110172   3.291   2.951  17.526 -0.0480 -0.1521 -0.5448
  688MPD2    C210173   3.383   2.892  17.446  0.6529  0.7857  0.9808
  688MPD2    C310174   3.447   2.961  17.345  0.1648 -0.1153 -0.0475
  688MPD2    C410175   3.404   3.092  17.330  0.4068 -0.4726 -0.0048
  688MPD2    C510176   3.329   3.154  17.418  0.0723  0.3678  0.0305
  688MPD2     H10177   3.415   2.790  17.467  0.5432  0.5020 -0.2504
  688MPD2    H110178   3.446   3.159  17.256  2.1220 -0.1598  1.2435
  688MPD2    H210179   3.217   3.146  17.588  1.6224  2.3687 -0.9425
  688MPD2    H310180   3.319   3.261  17.404 -0.7946 -0.2211 -3.7085
  688MPD2     N10181   3.541   2.909  17.257 -0.1376  0.0403  0.1587
  688MPD2    H510182   3.569   2.973  17.183  0.7477 -0.1042  0.3792
  688MPD2    N110183   3.247   2.876  17.637 -0.2622  0.0929 -0.3701
  688MPD2    H710184   3.297   2.790  17.654  0.0656  0.6266  1.4294
  689TMC3    C110185   3.137   2.808   0.140  0.9238 -0.3129 -0.1459
  689TMC3    C210186   3.117   2.833   0.273  0.5025  0.1025  0.6675
  689TMC3    C310187   3.069   2.731   0.358  0.0625 -0.0529 -0.0933
  689TMC3    C410188   3.142   2.686   0.093 -0.5363 -1.0589  0.2986
  689TMC3    C510189   3.113   2.585   0.178  0.1793  0.4813  0.2223
  689TMC3    C610190   3.064   2.606   0.306 -0.4407 -0.3109  0.2737
  689TMC3     C10191   3.165   2.917   0.047 -0.3919 -0.9907  0.3465
  689TMC3     O10192   3.102   3.021   0.058 -0.2495  0.5317  0.2446
  689TMC3     H10193   3.129   2.934   0.311 -0.2491 -0.8571  3.4591
  689TMC3    H110194   3.179   2.663  17.688  2.3433 -0.0201  1.1447
  689TMC3    H210195   3.023   2.522   0.361  0.9186 -0.1588  1.5257
  689TMC3    C710196   3.146   2.454   0.142  0.3538 -0.0393  0.3494
  689TMC3    C810197   3.025   2.761   0.492  0.5883 -0.1096 -0.0500
  689TMC3    O110198   3.185   2.387   0.234  0.3856 -0.4909 -0.6240
  689TMC3    O210199   2.987   2.665   0.563  0.5500  0.0458  0.2694
  690MPD2     C10200   1.061   0.314  15.633 -0.5147 -0.2486 -0.1028
  690MPD2    C110201   1.029   0.299  15.495 -0.8806  0.4866  0.7924
  690MPD2    C210202   1.115   0.335  15.391 -1.0011  0.4092  0.1503
  690MPD2    C310203   1.248   0.377  15.424  0.2768 -0.1777 -0.2368
  690MPD2    C410204   1.281   0.383  15.562  0.1927 -0.1537  0.3198
  690MPD2    C510205   1.183   0.360  15.660 -0.3021  0.4994 -0.1339
  690MPD2     H10206   1.081   0.313  15.290 -1.3728  1.9854 -0.0702
  690MPD2    H110207   1.374   0.411  15.610  1.8056 -0.2867 -2.7047
  690MPD2    H210208   0.992   0.302  15.715 -0.5481  0.1840 -0.0707
  690MPD2    H310209   1.213   0.380  15.762 -0.8115  1.0664 -0.0956
  690MPD2     N10210   1.341   0.409  15.319 -0.2398  0.1451 -0.1272
  690MPD2    H510211   1.329   0.367  15.227  1.3970 -1.2396  0.3047
  690MPD2    N110212   0.903   0.248  15.464 -0.3554 -0.1628  0.3634
  690MPD2    H710213   0.891   0.231  15.365 -2.2365  1.6172  0.2856
  691TMC3    C110214   0.678   0.167  15.473  0.5438 -0.2270  0.1254
  691TMC3    C210215   0.556   0.194  15.531  0.0462 -0.3383 -0.2057
  691TMC3    C310216   0.452   0.130  15.475 -0.1608 -0.5064 -0.2254
  691TMC3    C410217   0.706   0.085  15.373  0.2123  0.9645  0.0056
  691TMC3    C510218   0.599   0.028  15.311  0.0265  0.1773 -0.5373
  691TMC3    C610219   0.468   0.050  15.358 -0.0745 -0.2255  0.4836
  691TMC3     C10220   0.792   0.231  15.543  0.1314  0.5829 -0.0651
  691TMC3     O10221   0.788   0.251  15.664  0.4452  0.1315  0.4561
  691TMC3     H10222   0.534   0.255  15.618 -0.1406 -0.3536 -0.2418
  691TMC3    H110223   0.808   0.066  15.342 -0.2816 -1.8533  0.1081
  691TMC3    H210224   0.382   0.010  15.306 -0.7925  1.9173  0.0122
  691TMC3    C710225   0.616   4.608  15.295  0.4929  0.7094  0.5932
  691TMC3    C810226   0.365   0.066  15.561 -0.4583  0.5740  0.7161
  691TMC3    O110227   0.726   4.571  15.251  0.3653  0.4750 -0.6037
  691TMC3    O210228   0.384   4.671  15.560  0.3197 -0.2566 -0.3428
  692TMC3    C110229   2.159   1.236  15.715  0.6139 -0.2579  0.1760
  692TMC3    C210230   2.295   1.239  15.697 -0.4324 -0.5354  0.2008
  692TMC3    C310231   2.362   1.136  15.634 -0.6665 -0.3533 -0.0562
  692TMC3    C410232   2.090   1.128  15.679 -0.3333 -0.2621  0.4853
  692TMC3    C510233   2.154   1.029  15.608  0.2939  0.0726 -0.4474
  692TMC3    C610234   2.289   1.038  15.582 -0.1118  0.5680  0.2221
  692TMC3     C10235   2.091   1.338  15.796 -0.2990 -0.4956 -0.1245
  692TMC3     O10236   2.000   1.300  15.869  0.0834  0.5340  0.1339
  692TMC3     H10237   2.344   1.334  15.712  0.0178 -0.7917  0.3537
  692TMC3    H110238   1.982   1.133  15.687 -0.3017 -0.1878  0.8667
  692TMC3    H210239   2.338   0.967  15.516  2.3498  1.1449  1.4074
  692TMC3    C710240   2.113   0.892  15.626  1.2492 -0.3627 -0.4292
  692TMC3    C810241   2.454   1.075  15.722 -0.4106  0.3473  0.4475
  692TMC3    O110242   1.994   0.859  15.618  0.2796  0.2101 -0.0787
  692TMC3    O210243   2.461   0.954  15.711 -0.1882  0.3080 -0.4370
  693MPD2     C10244   1.374   4.361  10.898  0.5434  0.3941 -0.1965
  693MPD2    C110245   1.357   4.253  10.821  0.0189 -0.3591 -0.5603
  693MPD2    C210246   1.463   4.170  10.784 -0.5540 -0.6647  0.4534
  693MPD2    C310247   1.587   4.190  10.829 -0.0569  0.4306 -0.4793
  693MPD2    C410248   1.599   4.294  10.921 -0.1596 -0.3526  0.3934
  693MPD2    C510249   1.499   4.382  10.958  0.0758 -0.6632  0.2748
  693MPD2     H10250   1.439   4.085  10.722  1.0249  0.0603 -1.1377
  693MPD2    H110251   1.691   4.315  10.974 -0.0049  0.4253 -0.1947
  693MPD2    H210252   1.294   4.426  10.932 -1.1426 -0.4554 -2.5603
  693MPD2    H310253   1.516   4.458  11.033  0.5873  0.8250 -1.3562
  693MPD2     N10254   1.701   4.115  10.796 -0.0207 -0.3681 -0.4677
  693MPD2    H510255   1.786   4.128  10.849  1.2221 -0.6582 -2.3880
  693MPD2    N110256   1.232   4.235  10.751  0.0530  0.3032 -0.0818
  693MPD2    H710257   1.170   4.315  10.743 -2.2242 -1.5678 -1.0878
  694TMC3    C110258   1.228   3.994  10.732  0.1814 -0.4827 -1.4457
  694TMC3    C210259   1.214   3.898  10.639 -0.1880  0.5748  0.4154
  694TMC3    C310260   1.199   3.769  10.690 -0.3234  0.4777  0.5568
  694TMC3    C410261   1.227   3.979  10.867 -0.8859  0.5532 -0.7679
  694TMC3    C510262   1.209   3.850  10.913 -0.4668 -0.0949  0.6387
  694TMC3    C610263   1.205   3.738  10.825  0.3855  0.0825 -0.0457
  694TMC3     C10264   1.189   4.129  10.681  0.4115 -0.4449  0.0063
  694TMC3     O10265   1.099   4.129  10.594  0.3526 -0.2678 -0.7014
  694TMC3     H10266   1.212   3.926  10.535  0.2085  1.9016  0.7602
  694TMC3    H110267   1.230   4.067  10.931 -0.2758 -0.0934  0.0957
  694TMC3    H210268   1.222   3.634  10.851  1.8515  0.1982 -0.5606
  694TMC3    C710269   1.181   3.827  11.055 -0.0658  0.1985  0.6626
  694TMC3    C810270   1.152   3.661  10.606 -0.3244 -0.1234 -0.3709
  694TMC3    O110271   1.143   3.925  11.119  0.2032  0.3953  0.1055
  694TMC3    O210272   1.091   3.570  10.665  0.4830  0.1044 -0.3825
  695MPD2     C10273   2.684   0.532  13.769 -0.2432  0.1053  0.4399
  695MPD2    C110274   2.663   0.661  13.802  0.3137  0.3529  0.6459
  695MPD2    C210275   2.547   0.731  13.762 -0.0203  0.2606 -0.6831
  695MPD2    C310276   2.448   0.671  13.678  0.1884 -0.2083 -0.3767
  695MPD2    C410277   2.477   0.538  13.637 -0.4519 -0.2573 -0.1792
  695MPD2    C510278   2.590   0.470  13.681 -0.2224  0.2101  0.9849
  695MPD2     H10279   2.532   0.833  13.794  1.0576  0.7763 -1.8247
  695MPD2    H110280   2.415   0.487  13.564  1.3919 -1.1698 -1.1254
  695MPD2    H210281   2.765   0.470  13.804  1.6376  1.5210 -1.4496
  695MPD2    H310282   2.594   0.363  13.663  2.5559  0.3875  0.5591
  695MPD2     N10283   2.338   0.754  13.649 -0.6007  0.7662  0.4803
  695MPD2    H510284   2.332   0.846  13.691 -1.2114  2.7512 -3.9735
  695MPD2    N110285   2.758   0.734  13.885 -0.7230  0.3616  0.2654
  695MPD2    H710286   2.740   0.833  13.888 -2.0131  0.1285  0.4367
  696TMC3    C110287   2.119   0.786  13.585  0.9210 -0.1805 -0.0915
  696TMC3    C210288   2.082   0.801  13.717 -0.4053  0.4225 -0.8145
  696TMC3    C310289   1.994   0.902  13.748  0.3452 -0.0681 -0.1518
  696TMC3    C410290   2.065   0.853  13.480 -0.1578  0.4008  0.5796
  696TMC3    C510291   1.964   0.945  13.509 -0.0989  0.0198  0.3474
  696TMC3    C610292   1.940   0.974  13.644 -0.4206 -1.0371  0.4004
  696TMC3     C10293   2.240   0.716  13.560  0.1901 -0.5567 -0.0367
  696TMC3     O10294   2.250   0.641  13.461  0.1074  1.1536  0.2222
  696TMC3     H10295   2.127   0.741  13.795  0.5787  3.0349  0.5947
  696TMC3    H110296   2.107   0.850  13.380 -0.7288 -0.1097  0.3559
  696TMC3    H210297   1.859   1.035  13.684  1.6964  2.1982 -0.3461
  696TMC3    C710298   1.936   1.055  13.423  0.0080 -1.0221  1.0456
  696TMC3    C810299   2.052   0.996  13.832  0.4841  0.0814  0.6706
  696TMC3    O110300   1.930   1.049  13.300  0.2396 -0.2372  0.4451
  696TMC3    O210301   2.012   1.106  13.809 -0.3743 -0.3217 -0.6702
  697MPD2     C10302   2.031   2.757  15.859 -0.2972  0.1497 -0.4247
  697MPD2    C110303   2.009   2.718  15.730 -0.4423  0.3734 -0.5288
  697MPD2    C210304   2.025   2.808  15.624  0.5024 -0.0171  0.6279
  697MPD2    C310305   2.064   2.940  15.645 -0.2955  0.0391 -0.2444
  697MPD2    C410306   2.096   2.974  15.774 -0.1818 -0.2923 -0.1812
  697MPD2    C510307   2.082   2.886  15.877  0.6961 -0.5208 -0.3541
  697MPD2     H10308   1.999   2.785  15.521  0.3672 -0.6531  0.8040
  697MPD2    H110309   2.121   3.073  15.810 -3.3636  0.7371 -0.7174
  697MPD2    H210310   2.018   2.690  15.942  3.9460  0.0796  0.2030
  697MPD2    H310311   2.085   2.919  15.980 -1.0073  1.8657 -1.0773
  697MPD2     N10312   2.059   3.030  15.537 -0.1243  0.9189 -0.3884
  697MPD2    H510313   2.032   2.989  15.449 -1.0328 -3.4086  1.8892
  697MPD2    N110314   1.972   2.582  15.697 -0.1016 -1.2697 -0.2022
  697MPD2    H710315   1.940   2.573  15.601  1.8631  2.4778 -1.2564
  698TMC3    C110316   2.139   3.223  15.421  0.1439 -0.5190 -0.3124
  698TMC3    C210317   2.197   3.346  15.444  1.0397  0.5544 -0.7603
  698TMC3    C310318   2.288   3.385  15.352  0.2091  0.7290  0.5144
  698TMC3    C410319   2.171   3.149  15.316  0.1967  0.2154  0.9707
  698TMC3    C510320   2.249   3.200  15.222  0.1426  0.1918 -0.1040
  698TMC3    C610321   2.321   3.316  15.237 -0.8586  0.9793 -0.4437
  698TMC3     C10322   2.106   3.165  15.541 -0.0758  0.4867  0.7849
  698TMC3     O10323   2.142   3.228  15.634  0.0701  0.0761 -0.3823
  698TMC3     H10324   2.165   3.415  15.521 -1.4423  0.2915 -1.5485
  698TMC3    H110325   2.135   3.048  15.296  0.0372  0.4268  0.1926
  698TMC3    H210326   2.369   3.361  15.151 -0.9330  0.2565 -0.8598
  698TMC3    C710327   2.227   3.146  15.097  0.8796  0.1056 -0.3209
  698TMC3    C810328   2.376   3.489  15.408  0.2459 -0.5844 -0.0289
  698TMC3    O110329   2.112   3.103  15.082 -0.2571 -0.1960 -0.0709
  698TMC3    O210330   2.353   3.527  15.524 -0.2192  0.0162  0.0616
  699TMC3    C110331   2.404   0.956  12.630  0.0970 -0.8070  0.0903
  699TMC3    C210332   2.390   0.824  12.666 -1.0749 -0.5413  0.1722
  699TMC3    C310333   2.276   0.808  12.744 -0.2704  0.0284 -0.7137
  699TMC3    C410334   2.320   1.060  12.672  0.7133 -0.5793 -0.0363
  699TMC3    C510335   2.208   1.023  12.732 -0.4841  0.4887  0.5875
  699TMC3    C610336   2.181   0.898  12.769 -0.4867  0.2323  0.3892
  699TMC3     C10337   2.530   0.973  12.560 -0.5741  0.3440  0.5374
  699TMC3     O10338   2.615   0.892  12.588 -0.0797  0.3099  0.0097
  699TMC3     H10339   2.432   0.735  12.622 -2.7244 -1.5459  0.6620
  699TMC3    H110340   2.338   1.163  12.642  0.8507 -0.2374  1.2450
  699TMC3    H210341   2.079   0.871  12.796 -0.7870  0.2883 -0.7064
  699TMC3    C710342   2.116   1.135  12.760 -0.6772  0.4690  0.0072
  699TMC3    C810343   2.267   0.687  12.828  0.1378 -0.5035  1.4440
  699TMC3    O110344   2.132   1.245  12.710  0.8591 -0.4739 -0.4163
  699TMC3    O210345   2.162   0.658  12.882  0.0515 -0.2219 -0.5495
  700TMC3    C110346   1.337   3.658  17.579 -0.1849  0.0813 -0.2350
  700TMC3    C210347   1.413   3.552  17.607 -0.0138 -0.7326  0.2088
  700TMC3    C310348   1.513   3.558   0.007 -0.1277  0.7464  0.2723
  700TMC3    C410349   1.355   3.780  17.641  0.2805  1.0604 -0.0486
  700TMC3    C510350   1.455   3.782   0.043 -0.7119  0.5626  0.3424
  700TMC3    C610351   1.536   3.678   0.077 -0.1734  0.5831 -0.2800
  700TMC3     C10352   1.272   3.652  17.445  0.3221  0.4188  0.8879
  700TMC3     O10353   1.217   3.548  17.417  0.3247  0.1668 -0.6778
  700TMC3     H10354   1.393   3.458  17.557 -1.8590  0.8258 -1.9877
  700TMC3    H110355   1.296   3.869  17.622 -1.0899 -0.5360 -3.2006
  700TMC3    H210356   1.616   3.688   0.150  0.4418  0.7971 -0.9844
  700TMC3    C710357   1.494   3.922   0.073  0.2599 -0.7132  0.0378
  700TMC3    C810358   1.591   3.444   0.037  0.7018 -0.1431 -0.2640
  700TMC3    O110359   1.443   4.006  17.692  0.3349  0.5973 -0.0325
  700TMC3    O210360   1.649   3.451   0.143 -0.6549  1.0426  0.2879
  701TMC3    C110361   1.245   2.149  15.641 -0.1074  0.5276 -0.9640
  701TMC3    C210362   1.227   2.096  15.514  0.0216 -0.3867  0.7229
  701TMC3    C310363   1.343   2.100  15.441  0.7277  0.1982 -0.0385
  701TMC3    C410364   1.365   2.169  15.699  0.0490 -0.0274  0.1305
  701TMC3    C510365   1.477   2.169  15.620 -0.1280 -0.2210  0.2691
  701TMC3    C610366   1.465   2.137  15.493  0.7137  0.1437 -0.3317
  701TMC3     C10367   1.138   2.143  15.737  0.1193  0.4018  0.0635
  701TMC3     O10368   1.142   2.211  15.841 -0.1130  0.0295  0.3456
  701TMC3     H10369   1.130   2.099  15.466 -0.0126  0.1681  0.8173
  701TMC3    H110370   1.362   2.211  15.799 -0.5267 -1.5671  0.7584
  701TMC3    H210371   1.548   2.143  15.424  0.3510  0.1781 -0.7645
  701TMC3    C710372   1.561   2.288  15.637 -0.0964  0.1648 -0.4122
  701TMC3    C810373   1.326   2.128  15.302  0.4074 -0.7463 -0.3516
  701TMC3    O110374   1.630   2.331  15.545 -0.1175  0.7598 -0.5033
  701TMC3    O210375   1.419   2.185  15.254  0.1374 -0.4034 -0.6355
  702MPD2     C10376   0.626   4.261  10.266 -0.4182 -0.3192  0.5179
  702MPD2    C110377   0.525   4.338  10.316  0.0305  0.7297  0.2208
  702MPD2    C210378   0.495   4.444  10.238  0.8824  0.3135  0.0151
  702MPD2    C310379   0.559   4.482  10.116  0.3891 -0.3687  0.4684
  702MPD2    C410380   0.657   4.396  10.068  0.7010  0.4660 -0.7320
  702MPD2    C510381   0.690   4.287  10.141 -0.5941  0.3641  0.3700
  702MPD2     H10382   0.417   4.503  10.284  0.6561  0.7761 -0.9586
  702MPD2    H110383   0.711   4.413   9.976  0.6113 -2.8899 -1.3818
  702MPD2    H210384   0.667   4.179  10.325  2.0248  0.6460  0.1486
  702MPD2    H310385   0.781   4.233  10.113 -0.6667  0.3433  0.1697
  702MPD2     N10386   0.540   4.618  10.064 -0.1130  0.8728  0.2627
  702MPD2    H510387   0.593   4.649   9.983  1.0412  1.2341  1.1520
  702MPD2    N110388   0.461   4.322  10.438 -0.1562 -0.8397 -0.4897
  702MPD2    H710389   0.401   4.401  10.461  0.7668 -0.2512 -0.0577
  703TMC3    C110390   0.453   0.118  10.051  0.3229  0.0805 -0.2691
  703TMC3    C210391   0.341   0.181  10.095 -0.5690 -0.4004  0.2627
  703TMC3    C310392   0.350   0.285  10.179 -0.2473 -0.1017  0.4861
  703TMC3    C410393   0.576   0.174  10.066  0.0644  0.0834  0.4866
  703TMC3    C510394   0.583   0.281  10.144  1.0378 -0.3660 -0.2757
  703TMC3    C610395   0.475   0.339  10.205 -0.2635 -0.0511  0.1344
  703TMC3     C10396   0.447   4.711  10.106  0.5735  0.3220 -0.0223
  703TMC3     O10397   0.357   4.699  10.189  0.4537  0.0210 -0.3548
  703TMC3     H10398   0.243   0.147  10.063 -0.6950  1.3867 -1.2321
  703TMC3    H110399   0.664   0.124  10.026 -2.4439 -1.9863 -2.4127
  703TMC3    H210400   0.484   0.440  10.245 -0.1612 -0.0384  0.0788
  703TMC3    C710401   0.705   0.359  10.144  0.0943  0.1629 -0.6328
  703TMC3    C810402   0.251   0.308  10.286 -1.1043 -0.3946 -0.7220
  703TMC3    O110403   0.770   0.356  10.045  0.1903  0.4551 -0.1250
  703TMC3    O210404   0.254   0.409  10.356 -0.5201  0.2861  0.2653
  704TMC3    C110405   2.718   3.035  12.259 -0.5030  0.1616 -0.2208
  704TMC3    C210406   2.845   3.094  12.240 -0.3526 -0.1556 -0.1248
  704TMC3    C310407   2.948   3.048  12.320  0.3334 -0.5746  0.3812
  704TMC3    C410408   2.701   2.943  12.357  0.2264 -0.3590  0.0286
  704TMC3    C510409   2.806   2.900  12.434 -0.3269  0.2930  0.7702
  704TMC3    C610410   2.930   2.958  12.420  0.4587  0.0471 -0.7682
  704TMC3     C10411   2.608   3.084  12.183  0.1498 -0.1979 -0.6801
  704TMC3     O10412   2.496   3.058  12.223  0.3154  0.0100 -0.3345
  704TMC3     H10413   2.854   3.174  12.168  0.0346  1.0798  1.3105
  704TMC3    H110414   2.603   2.902  12.379 -0.7293  1.8896 -0.1096
  704TMC3    H210415   3.019   2.910  12.459 -0.2087  0.8529  1.7162
  704TMC3    C710416   2.819   2.751  12.438  0.0767 -0.0578  0.7654
  704TMC3    C810417   3.084   3.072  12.266  0.1508 -0.4482 -0.1242
  704TMC3    O110418   2.932   2.703  12.427 -0.4816  0.1540  0.0076
  704TMC3    O210419   3.087   3.091  12.146  1.2546  0.1915 -0.0095
  705MPD2     C10420   2.970   0.821  16.572  0.0231 -0.5852 -0.1249
  705MPD2    C110421   2.890   0.833  16.459 -0.4683  0.0647 -0.0079
  705MPD2    C210422   2.758   0.848  16.493 -0.9383  0.1357  1.1344
  705MPD2    C310423   2.710   0.843  16.623 -0.9228 -0.4313  0.0291
  705MPD2    C410424   2.787   0.822  16.734 -0.3347  0.0055 -0.0744
  705MPD2    C510425   2.919   0.809  16.703  0.3794  0.8638  0.6619
  705MPD2     H10426   2.684   0.844  16.414 -0.1737  0.1050  0.4116
  705MPD2    H110427   2.738   0.820  16.831 -0.8174 -1.2065 -0.3412
  705MPD2    H210428   3.078   0.812  16.565  0.0336 -0.0321 -0.6269
  705MPD2    H310429   2.993   0.813  16.783  2.2577  0.2009 -1.0355
  705MPD2     N10430   2.575   0.874  16.651 -0.6933  0.2427  0.2012
  705MPD2    H510431   2.546   0.890  16.747  1.9728 -0.0769  1.0383
  705MPD2    N110432   2.936   0.834  16.321  0.6526  0.5690 -0.7956
  705MPD2    H710433   2.871   0.840  16.244  0.0780 -2.9152 -0.5515
  706TMC3    C110434   3.083   0.775  15.913  0.0594 -0.4755  0.1845
  706TMC3    C210435   2.993   0.869  15.859 -0.0356  0.0311 -0.4116
  706TMC3    C310436   2.938   0.955  15.951  0.0341 -0.3141  0.1650
  706TMC3    C410437   3.104   0.758  16.048  0.5958  1.1928  0.2524
  706TMC3    C510438   3.050   0.846  16.138 -0.0314 -0.3604 -0.1203
  706TMC3    C610439   2.955   0.936  16.094 -0.3712  0.1468  0.4007
  706TMC3     C10440   3.165   0.690  15.828 -0.1902 -0.3361 -0.8684
  706TMC3     O10441   3.263   0.642  15.881 -0.3255 -0.1769  0.4021
  706TMC3     H10442   3.002   0.905  15.757 -0.3840  1.3577  0.0261
  706TMC3    H110443   3.187   0.697  16.081  0.2966  0.0777 -1.0397
  706TMC3    H210444   2.915   1.008  16.164 -1.2644  1.1394 -1.1218
  706TMC3    C710445   3.062   0.826  16.276 -0.2309 -0.1361  0.5639
  706TMC3    C810446   2.901   1.088  15.896 -0.2942 -0.2168  0.5405
  706TMC3    O110447   3.174   0.835  16.330 -0.2490 -0.3033  0.2354
  706TMC3    O210448   2.886   1.102  15.776 -0.4208 -0.5184  0.0652
  707TMC3    C110449   0.147   0.330   1.484 -0.2574  0.3234 -0.5800
  707TMC3    C210450   0.250   0.368   1.565  0.0847  1.2126 -0.2010
  707TMC3    C310451   0.231   0.412   1.695  0.4000 -0.5425 -0.2918
  707TMC3    C410452   0.019   0.331   1.546 -0.4637  0.1821 -0.2022
  707TMC3    C510453   0.013   0.367   1.681  0.4382 -0.8151  0.7005
  707TMC3    C610454   0.116   0.408   1.761 -0.1160  0.1217  0.0727
  707TMC3     C10455   0.192   0.259   1.363 -0.0301  0.0479 -0.3982
  707TMC3     O10456   0.307   0.266   1.326 -0.8204 -0.5246 -0.1578
  707TMC3     H10457   0.351   0.362   1.527  0.3102 -2.1438  0.8880
  707TMC3    H110458   4.655   0.294   1.494  0.5100 -0.9302 -1.0426
  707TMC3    H210459   0.092   0.436   1.862 -0.6505 -0.5097  0.1281
  707TMC3    C710460   4.607   0.356   1.754  0.6622 -0.5747 -0.5315
  707TMC3    C810461   0.349   0.399   1.777  0.4719  0.3107 -0.3525
  707TMC3    O110462   4.581   0.443   1.835 -0.4784  0.2957 -0.3908
  707TMC3    O210463   0.358   0.451   1.890 -0.2179  0.6061 -0.2590
  708MPD2     C10464   1.222   3.386  13.707 -0.5803  0.7081  0.1313
  708MPD2    C110465   1.204   3.511  13.658 -0.7196 -0.6300 -0.3928
  708MPD2    C210466   1.149   3.613  13.736  0.7192  0.1757 -0.1450
  708MPD2    C310467   1.100   3.575  13.863  0.0404  0.7742 -0.3927
  708MPD2    C410468   1.135   3.449  13.916 -0.2929 -0.1225  0.2361
  708MPD2    C510469   1.201   3.357  13.835  0.2770  0.1546  0.5814
  708MPD2     H10470   1.128   3.712  13.698  2.2287  0.7183  0.4588
  708MPD2    H110471   1.130   3.421  14.021  2.9748  1.3008  0.7775
  708MPD2    H210472   1.286   3.321  13.648 -0.1996  0.6989  0.5564
  708MPD2    H310473   1.236   3.265  13.881 -1.4603 -0.2986  0.9883
  708MPD2     N10474   1.038   3.680  13.936  0.5121  0.1374 -0.3892
  708MPD2    H510475   1.042   3.770  13.889  0.1267  0.0428 -0.6062
  708MPD2    N110476   1.259   3.553  13.534  0.3723  0.0959  0.2156
  708MPD2    H710477   1.243   3.652  13.518 -1.5351 -0.6282 -2.4486
  709TMC3    C110478   1.352   3.564  13.314 -0.1032  0.3183  0.4871
  709TMC3    C210479   1.275   3.528  13.213 -0.3885 -0.4466  0.0814
  709TMC3    C310480   1.214   3.628  13.138  0.4623 -0.2703  0.3647
  709TMC3    C410481   1.361   3.690  13.366  0.0310  1.0975  0.4923
  709TMC3    C510482   1.288   3.789  13.294 -0.1966  0.0525  0.1863
  709TMC3    C610483   1.223   3.757  13.176  0.1828 -0.6096  0.4052
  709TMC3     C10484   1.314   3.482  13.434  0.4261 -0.2633  0.0689
  709TMC3     O10485   1.345   3.363  13.433 -0.1424 -0.5109 -0.8825
  709TMC3     H10486   1.281   3.424  13.182  0.4390 -0.9909  2.1009
  709TMC3    H110487   1.416   3.709  13.457 -1.1683  0.5242  1.3436
  709TMC3    H210488   1.157   3.823  13.122 -1.7576 -0.9575  2.3619
  709TMC3    C710489   1.222   3.883  13.381 -0.8213  0.6731 -0.2869
  709TMC3    C810490   1.162   3.593  13.008 -0.1264 -0.5597  0.1058
  709TMC3    O110491   1.245   3.859  13.500  0.7730  0.5439  0.7709
  709TMC3    O210492   1.130   3.476  12.994  0.2579  0.4217 -0.2735
  710TMC3    C110493   1.983   1.103   0.478 -0.6399 -0.0598 -0.6785
  710TMC3    C210494   2.037   1.090   0.355  0.9912  0.3358 -0.3157
  710TMC3    C310495   2.162   1.120   0.332  0.6822  0.7779 -0.6423
  710TMC3    C410496   2.062   1.147   0.585 -0.3107  0.3461  0.1780
  710TMC3    C510497   2.198   1.178   0.559  0.0996 -0.0792 -0.4734
  710TMC3    C610498   2.245   1.171   0.433  0.3023 -0.6859  0.2226
  710TMC3     C10499   1.840   1.105   0.483  0.3902  0.0224 -0.6871
  710TMC3     O10500   1.780   1.113   0.375  0.3682 -0.0881 -0.0371
  710TMC3     H10501   1.971   1.060   0.275  0.0168  1.9560 -0.1066
  710TMC3    H110502   2.023   1.155   0.686  1.0504 -0.9158  0.8093
  710TMC3    H210503   2.346   1.203   0.410  0.2846 -0.9310 -0.1858
  710TMC3    C710504   2.286   1.195   0.671  0.0293  0.0428  0.0357
  710TMC3    C810505   2.226   1.054   0.219 -0.9237  0.5951 -0.0503
  710TMC3    O110506   2.230   1.191   0.778  0.3582  0.2392 -0.2490
  710TMC3    O210507   2.323   1.115   0.184 -0.0331 -0.3309 -0.3911
  711TMC3    C110508   1.528   1.886  14.969 -0.1045 -0.6379 -0.4010
  711TMC3    C210509   1.500   1.887  15.103  0.6711  0.0317  0.2525
  711TMC3    C310510   1.602   1.945  15.176 -0.1336  0.5143  0.2231
  711TMC3    C410511   1.634   1.933  14.906 -0.1523 -0.4923  0.3092
  711TMC3    C510512   1.719   2.014  14.982 -0.0374 -0.3331  0.3391
  711TMC3    C610513   1.704   2.022  15.121  0.4112  0.6244  0.2459
  711TMC3     C10514   1.458   1.782  14.889 -0.0385 -0.4898  0.2678
  711TMC3     O10515   1.510   1.738  14.791 -0.7695  0.4704  0.2226
  711TMC3     H10516   1.420   1.834  15.152  2.2090 -1.8381  0.7603
  711TMC3    H110517   1.667   1.892  14.811 -1.0974  1.0127 -0.6761
  711TMC3    H210518   1.787   2.067  15.176  1.0267  1.5399 -1.4440
  711TMC3    C710519   1.854   1.996  14.949 -0.0156 -0.3527 -0.6780
  711TMC3    C810520   1.639   1.865  15.286  0.1302 -0.2385 -0.0828
  711TMC3    O110521   1.929   1.956  15.039  0.7587 -0.0022  0.2396
  711TMC3    O210522   1.542   1.812  15.343  0.2934  0.4295  0.8230
  712MPD2     C10523   3.300   2.507  13.634 -0.6081  0.3022  0.4045
  712MPD2    C110524   3.210   2.594  13.584  0.2788 -0.1210 -0.1457
  712MPD2    C210525   3.230   2.732  13.597  0.0512  0.6135  1.0609
  712MPD2    C310526   3.355   2.779  13.646  0.5177  0.2555  0.1383
  712MPD2    C410527   3.452   2.688  13.686 -0.4232 -0.4631 -0.0010
  712MPD2    C510528   3.425   2.548  13.679  0.6048 -0.0770 -1.3575
  712MPD2     H10529   3.153   2.799  13.561 -0.8516 -1.2280 -0.4389
  712MPD2    H110530   3.547   2.711  13.734 -0.6141  1.0822 -0.3666
  712MPD2    H210531   3.280   2.402  13.618 -0.0910 -0.0329  2.0126
  712MPD2    H310532   3.506   2.481  13.707 -0.3165 -0.9719 -0.8679
  712MPD2     N10533   3.386   2.910  13.657  0.5923 -0.0173  0.2654
  712MPD2    H510534   3.481   2.924  13.688 -0.0502 -1.1473  2.7809
  712MPD2    N110535   3.083   2.552  13.544 -0.3689 -0.0368 -0.5471
  712MPD2    H710536   3.021   2.625  13.510 -0.3733  0.7775  1.1926
  713TMC3    C110537   3.361   3.152  13.673  1.0227  0.3917 -0.2913
  713TMC3    C210538   3.492   3.165  13.697  0.2332 -0.4645  1.2536
  713TMC3    C310539   3.542   3.290  13.727 -0.5432 -0.3094 -0.1467
  713TMC3    C410540   3.277   3.261  13.675  0.2903  0.7389 -0.5482
  713TMC3    C510541   3.331   3.377  13.695 -0.2459 -0.5730  0.4777
  713TMC3    C610542   3.465   3.396  13.728  0.4706 -0.7066  0.1858
  713TMC3     C10543   3.304   3.020  13.635  0.4515  0.3838 -0.0123
  713TMC3     O10544   3.189   3.024  13.593  0.5894 -0.0546 -0.0267
  713TMC3     H10545   3.562   3.082  13.697  0.2667 -0.4222 -2.2053
  713TMC3    H110546   3.183   3.258  13.620 -1.0174  0.6201  1.6848
  713TMC3    H210547   3.511   3.492  13.746 -1.3727 -0.1589  1.9324
  713TMC3    C710548   3.255   3.496  13.671 -0.9171 -0.3244 -0.4524
  713TMC3    C810549   3.673   3.328  13.680  0.0215  0.6577 -0.2371
  713TMC3    O110550   3.329   3.595  13.651  0.1307  0.2422  0.1008
  713TMC3    O210551   3.674   3.394  13.577  0.0941 -0.3615 -0.2962
  714MPD2     C10552   0.768   1.398   0.953  0.4310  0.1670  0.3760
  714MPD2    C110553   0.743   1.331   1.065  0.7154  0.1506  0.4839
  714MPD2    C210554   0.611   1.325   1.107  0.1139  0.0610 -0.5487
  714MPD2    C310555   0.510   1.381   1.029  0.1640 -0.4104 -0.2108
  714MPD2    C410556   0.539   1.466   0.926 -0.1795 -0.2756  0.1420
  714MPD2    C510557   0.672   1.469   0.889  0.5937  0.4236 -0.4318
  714MPD2     H10558   0.574   1.285   1.201  2.8486  1.2539  1.0236
  714MPD2    H110559   0.464   1.516   0.865 -0.3816 -0.0815  0.5479
  714MPD2    H210560   0.871   1.419   0.926  0.3533 -2.0223 -1.5566
  714MPD2    H310561   0.695   1.543   0.814  0.4918 -0.1969 -1.0802
  714MPD2     N10562   0.377   1.379   1.078 -0.2139 -0.3838  0.0644
  714MPD2    H510563   0.363   1.336   1.169  0.5926  0.3856  0.5403
  714MPD2    N110564   0.842   1.271   1.141 -0.4803  0.2366 -0.0729
  714MPD2    H710565   0.933   1.279   1.098  0.8782 -1.6922  2.4026
  715TMC3    C110566   0.952   1.144   1.301 -0.7477 -0.6123  0.1937
  715TMC3    C210567   1.057   1.105   1.227  0.0302 -0.0457  0.2946
  715TMC3    C310568   1.168   1.053   1.292  0.3238 -1.2126 -0.4023
  715TMC3    C410569   0.945   1.125   1.435 -0.2996 -0.2329  0.0098
  715TMC3    C510570   1.050   1.063   1.495 -0.2483  0.2728  0.9545
  715TMC3    C610571   1.165   1.034   1.425  0.1090  0.7357  0.4560
  715TMC3     C10572   0.826   1.188   1.245 -0.5445  0.1605  1.4345
  715TMC3     O10573   0.721   1.138   1.287 -0.6623 -0.3227 -0.0967
  715TMC3     H10574   1.038   1.104   1.120 -1.1902  2.6677  0.4774
  715TMC3    H110575   0.847   1.142   1.476 -1.2929  0.1476 -2.5030
  715TMC3    H210576   1.251   1.001   1.482  0.3076 -1.7597 -1.2962
  715TMC3    C710577   1.055   1.105   1.634  0.1555  0.2364  0.4218
  715TMC3    C810578   1.293   1.038   1.218 -0.0856  0.4115 -0.1837
  715TMC3    O110579   0.961   1.178   1.667  0.0190 -0.3831  0.8833
  715TMC3    O210580   1.274   1.073   1.101  0.2514  0.2071 -0.7030
  716MPD2     C10581   0.684   4.108   9.832 -0.5634 -0.6135  0.1812
  716MPD2    C110582   0.721   4.178   9.723  0.1775  0.3209 -0.1510
  716MPD2    C210583   0.812   4.121   9.636 -0.8709 -0.5404  0.2683
  716MPD2    C310584   0.859   3.997   9.659  0.1666 -0.0857  0.4060
  716MPD2    C410585   0.828   3.934   9.777 -0.3169  0.7694  0.7208
  716MPD2    C510586   0.737   3.989   9.862  0.6144  0.0776  0.5038
  716MPD2     H10587   0.831   4.167   9.540 -0.3764  0.0050  0.6285
  716MPD2    H110588   0.860   3.832   9.798  0.9489  1.1296  0.5062
  716MPD2    H210589   0.609   4.149   9.899 -0.1009  0.8069 -0.1571
  716MPD2    H310590   0.701   3.950   9.957  0.9602 -2.2530 -0.3329
  716MPD2     N10591   0.924   3.927   9.559  0.3156 -0.0776  0.3364
  716MPD2    H510592   0.920   3.827   9.572  0.6208  0.0748  1.6120
  716MPD2    N110593   0.668   4.303   9.715 -0.4521 -0.1239 -0.7817
  716MPD2    H710594   0.594   4.316   9.783 -0.5218  0.2157 -0.9244
  717TMC3    C110595   0.969   3.894   9.339  0.1388 -0.1500  0.0365
  717TMC3    C210596   0.886   3.947   9.245 -0.1617 -0.1362  0.0296
  717TMC3    C310597   0.795   3.869   9.182 -0.3553  0.0131  0.3591
  717TMC3    C410598   0.970   3.763   9.356 -0.7131 -0.4333 -0.1081
  717TMC3    C510599   0.884   3.682   9.285  0.6030  0.2020  0.2330
  717TMC3    C610600   0.799   3.734   9.193  0.1113  0.2742  0.2866
  717TMC3     C10601   0.984   3.984   9.447 -0.4311  0.2188 -0.3853
  717TMC3     O10602   1.012   4.101   9.419 -0.6263 -0.4380  0.1612
  717TMC3     H10603   0.868   4.054   9.248  0.9329  0.0312  0.3342
  717TMC3    H110604   1.032   3.721   9.434 -0.7551 -2.4405 -1.1591
  717TMC3    H210605   0.719   3.676   9.149  1.5047 -0.0072 -1.8598
  717TMC3    C710606   0.907   3.543   9.276  0.3926  0.3306  0.2322
  717TMC3    C810607   0.673   3.925   9.132 -0.3128  0.2868 -0.1510
  717TMC3    O110608   0.827   3.487   9.199 -0.2388 -0.5211 -0.1189
  717TMC3    O210609   0.568   3.861   9.130 -1.3459  0.2209 -1.0877
  718MPD2     C10610   4.710   3.495  12.585  0.3223  0.1158 -0.3747
  718MPD2    C110611   4.604   3.580  12.539  0.6570  0.3376  0.2933
  718MPD2    C210612   4.491   3.505  12.495 -0.5708  0.9400  0.2426
  718MPD2    C310613   4.488   3.371  12.489  0.2249 -0.1651 -0.7777
  718MPD2    C410614   4.600   3.296  12.520  0.3469  0.3276  0.3085
  718MPD2    C510615   4.705   3.362  12.571  0.4516  1.1915  0.3378
  718MPD2     H10616   4.411   3.558  12.445 -0.7392 -0.0338 -0.5140
  718MPD2    H110617   4.592   3.187  12.519 -1.5224  0.4715 -0.7815
  718MPD2    H210618   0.080   3.541  12.616  0.3883 -1.1050  1.2717
  718MPD2    H310619   0.068   3.302  12.600  1.3386  2.2639 -0.1044
  718MPD2     N10620   4.368   3.314  12.437  0.5210  0.0560  0.2348
  718MPD2    H510621   4.287   3.375  12.441  0.8201  0.4260  0.5822
  718MPD2    N110622   4.609   3.720  12.560  0.3883 -0.0698 -0.3980
  718MPD2    H710623   4.696   3.768  12.580  1.9454 -4.3175  3.0382
  719TMC3    C110624   4.509   3.938  12.544  0.0400  0.5153 -0.3477
  719TMC3    C210625   4.387   3.984  12.492  0.8051  0.4279  0.3035
  719TMC3    C310626   4.382   4.020  12.360 -0.9026 -0.7363 -0.2863
  719TMC3    C410627   4.628   3.967  12.479 -0.0837  0.5002  0.1293
  719TMC3    C510628   4.621   4.040  12.367  0.7307 -0.0863 -0.1850
  719TMC3    C610629   4.500   4.053  12.306 -0.3759 -0.1323 -0.4638
  719TMC3     C10630   4.494   3.801  12.576  0.0437  0.1515 -0.1401
  719TMC3     O10631   4.379   3.755  12.574 -0.1087  0.4473 -0.7209
  719TMC3     H10632   4.300   3.956  12.551  1.5933  0.0769  1.2923
  719TMC3    H110633   0.005   3.955  12.518 -0.7887 -0.8148  1.5086
  719TMC3    H210634   4.488   4.073  12.200 -1.5511  2.3184  0.1465
  719TMC3    C710635   0.016   4.050  12.280  0.0312  0.0751 -0.2129
  719TMC3    C810636   4.295   3.938  12.283  0.1571  0.2473 -0.3564
  719TMC3    O110637   0.118   3.990  12.312  0.0790  0.0647 -0.0536
  719TMC3    O210638   4.339   3.865  12.198 -0.8680 -0.1713 -0.1917
  720MPD2     C10639   3.134   0.005  13.979 -0.3536  0.1201  0.1194
  720MPD2    C110640   3.199   0.123  13.946 -0.2711  0.2223 -0.0467
  720MPD2    C210641   3.335   0.137  13.973 -0.0794  0.2999  0.5463
  720MPD2    C310642   3.402   0.036  14.037  0.3742 -0.0082 -0.3445
  720MPD2    C410643   3.339   4.637  14.051 -0.0925 -0.1782  0.2070
  720MPD2    C510644   3.209   4.623  14.023 -0.1865  0.0557 -0.2073
  720MPD2     H10645   3.381   0.234  13.957 -0.3158  0.4805  0.9649
  720MPD2    H110646   3.391   4.546  14.077  0.2389 -0.8376 -2.7436
  720MPD2    H210647   3.031   4.711  13.949  0.3934 -1.4208 -1.5718
  720MPD2    H310648   3.172   4.521  14.025  0.8732 -0.3145  1.0663
  720MPD2     N10649   3.542   0.046  14.059 -0.0234 -0.6799 -0.2044
  720MPD2    H510650   3.587   0.136  14.051 -5.5356  1.8978 -2.5876
  720MPD2    N110651   3.128   0.216  13.875 -0.2813 -0.3822  0.3467
  720MPD2    H710652   3.041   0.191  13.828  0.9281  0.5263 -2.3580
  721TMC3    C110653   3.744   0.007  14.159 -0.4393  0.1558  0.2593
  721TMC3    C210654   3.802   4.670  14.267  0.8549 -0.3354 -0.1886
  721TMC3    C310655   3.936   4.701  14.289  0.6578 -0.2865  0.0725
  721TMC3    C410656   3.817   0.095  14.075  0.2241  0.8362  0.3445
  721TMC3    C510657   3.949   0.121  14.112 -0.8521 -0.0983  0.3834
  721TMC3    C610658   4.006   0.057  14.211 -0.1126  0.6426  0.1555
  721TMC3     C10659   3.614   4.675  14.125 -0.4663  0.5938 -0.0941
  721TMC3     O10660   3.580   4.570  14.183  0.8522  0.5394 -0.2883
  721TMC3     H10661   3.753   4.584  14.313 -2.0463  0.6873 -1.3320
  721TMC3    H110662   3.780   0.143  13.986 -0.1216 -1.8370 -0.9691
  721TMC3    H210663   4.113   0.064  14.229  0.0925  2.0151 -1.5654
  721TMC3    C710664   4.030   0.160  14.006 -0.2269  0.0034 -0.0982
  721TMC3    C810665   3.981   4.688  14.433 -0.2026  0.2650  0.7270
  721TMC3    O110666   4.029   0.275  13.967 -0.1555 -0.1344 -0.3449
  721TMC3    O210667   4.098   4.721  14.448 -0.5365  0.3595 -0.0867
  722MPD2     C10668   1.983   3.059  13.551  0.0175 -0.2411 -0.1444
  722MPD2    C110669   1.970   3.190  13.513  0.1789 -0.4159 -0.4992
  722MPD2    C210670   1.859   3.231  13.439  0.1030  0.9001  0.1239
  722MPD2    C310671   1.758   3.140  13.411  0.3531 -0.0494 -0.2842
  722MPD2    C410672   1.777   3.008  13.445  0.0870 -0.1457 -0.1836
  722MPD2    C510673   1.884   2.969  13.525 -0.2279  0.2927 -0.0886
  722MPD2     H10674   1.843   3.330  13.398  1.2778  1.3847  0.8436
  722MPD2    H110675   1.713   2.925  13.416  1.9452 -1.2318 -1.1883
  722MPD2    H210676   2.068   3.024  13.609 -0.6713  0.5080  1.3380
  722MPD2    H310677   1.902   2.867  13.556 -2.5794  0.4320  1.7748
  722MPD2     N10678   1.654   3.181  13.329  0.2383 -0.3171  0.5582
  722MPD2    H510679   1.658   3.281  13.312 -1.0116 -0.1696  1.1115
  722MPD2    N110680   2.070   3.286  13.542  0.1201  1.0015  0.3795
  722MPD2    H710681   2.063   3.369  13.484 -0.3811  0.4666 -0.3364
  723TMC3    C110682   1.472   3.172  13.186  0.6709  0.1640  0.1175
  723TMC3    C210683   1.360   3.106  13.139 -0.8471  0.1864  0.1587
  723TMC3    C310684   1.300   3.160  13.031  1.0020 -0.7609  0.0370
  723TMC3    C410685   1.528   3.275  13.110 -0.0181 -0.6380  0.2178
  723TMC3    C510686   1.468   3.322  12.996 -0.0020  0.3025 -0.3421
  723TMC3    C610687   1.353   3.264  12.958  0.2005 -0.0610  0.2572
  723TMC3     C10688   1.551   3.104  13.282 -0.2114  0.3541  0.0234
  723TMC3     O10689   1.538   2.985  13.294  0.2385 -0.2159 -0.5230
  723TMC3     H10690   1.310   3.041  13.209  1.5930  1.1193  2.7572
  723TMC3    H110691   1.627   3.317  13.126 -1.5961  2.8548  0.8122
  723TMC3    H210692   1.304   3.299  12.868 -0.3135  0.1916  0.6347
  723TMC3    C710693   1.525   3.429  12.907 -0.1810 -0.3348 -0.1820
  723TMC3    C810694   1.206   3.073  12.959  0.7411 -0.0871  0.9394
  723TMC3    O110695   1.492   3.416  12.786 -0.1875  0.3580  0.2402
  723TMC3    O210696   1.096   3.118  12.934 -0.2532  0.5732 -0.6455
  724TMC3    C110697   3.241   1.709   9.669  0.0507  0.1650 -0.7060
  724TMC3    C210698   3.112   1.675   9.693  0.7782  0.5886  0.4360
  724TMC3    C310699   3.027   1.666   9.589 -0.6076  0.6394  0.0872
  724TMC3    C410700   3.280   1.727   9.535  0.3854 -0.0360 -0.0847
  724TMC3    C510701   3.194   1.704   9.432  0.1195 -0.2815 -0.0519
  724TMC3    C610702   3.065   1.662   9.460  0.2454  0.3312  0.4843
  724TMC3     C10703   3.329   1.727   9.778  0.6352  1.2633 -0.8675
  724TMC3     O10704   3.446   1.749   9.745  0.2163 -0.3611  0.3391
  724TMC3     H10705   3.067   1.699   9.788  0.8178  1.3568  0.2580
  724TMC3    H110706   3.385   1.750   9.520  0.8631 -1.9144  0.2764
  724TMC3    H210707   2.994   1.644   9.380  1.5328 -0.8146 -0.3975
  724TMC3    C710708   3.204   1.775   9.310  0.8674 -0.0402 -0.4254
  724TMC3    C810709   2.881   1.633   9.622  0.1320 -0.3021 -0.5199
  724TMC3    O110710   3.114   1.760   9.227  0.0944  0.1307  0.0804
  724TMC3    O210711   2.848   1.577   9.723 -0.1841  0.0610  0.3667
  725TMC3    C110712   4.237   0.820  12.433  0.6366 -0.2054  0.2464
  725TMC3    C210713   4.247   0.803  12.297  0.8633  0.0049  0.1943
  725TMC3    C310714   4.213   0.677  12.255  0.0232 -0.4089  0.2421
  725TMC3    C410715   4.186   0.724  12.520  0.1764  0.8604 -0.4144
  725TMC3    C510716   4.154   0.604  12.470  0.6445  0.2708 -0.7208
  725TMC3    C610717   4.172   0.575  12.337  0.1366  0.3524  0.6070
  725TMC3     C10718   4.316   0.925  12.484  0.1023  0.3343  0.2760
  725TMC3     O10719   4.294   1.033  12.423 -0.0773 -0.0009 -0.2577
  725TMC3     H10720   4.293   0.881  12.238  1.1006 -1.0379 -1.0077
  725TMC3    H110721   4.182   0.744  12.626 -0.5682  1.1440 -0.4981
  725TMC3    H210722   4.147   0.477  12.299 -0.3104  1.0361 -0.8340
  725TMC3    C710723   4.115   0.491  12.559  0.4044  0.7457  0.7933
  725TMC3    C810724   4.241   0.651  12.117  0.3434  0.8579  0.1070
  725TMC3    O110725   4.106   0.380  12.507 -0.1127  0.0918  0.3807
  725TMC3    O210726   4.280   0.539  12.087 -0.6129 -0.1127 -0.3785
  726MPD2     C10727   1.988   1.944  10.364  0.8279  0.2670 -0.2903
  726MPD2    C110728   1.903   2.017  10.286 -0.4268  0.1122  0.1336
  726MPD2    C210729   1.767   2.013  10.321 -0.3348  0.7083 -0.6177
  726MPD2    C310730   1.726   1.957  10.440  0.1224 -0.2916 -0.4060
  726MPD2    C410731   1.821   1.907  10.521  0.5081  0.4172  1.0227
  726MPD2    C510732   1.951   1.891  10.486 -0.5750 -0.2356  0.1338
  726MPD2     H10733   1.701   2.061  10.249 -1.2115 -0.0055 -0.2904
  726MPD2    H110734   1.797   1.866  10.619  0.3154 -4.2552 -0.9938
  726MPD2    H210735   2.094   1.939  10.342  0.8927  0.2051  0.0346
  726MPD2    H310736   2.022   1.835  10.545  0.1038  0.6157  0.1164
  726MPD2     N10737   1.591   1.938  10.484 -0.3107  0.1270 -0.0150
  726MPD2    H510738   1.582   1.880  10.567  0.4928 -0.1380 -0.1123
  726MPD2    N110739   1.946   2.083  10.162  0.6761 -0.3724  0.2825
  726MPD2    H710740   1.872   2.125  10.108  1.4725  0.9678  0.2379
  727TMC3    C110741   2.107   2.192  10.018  0.0079 -0.8661 -0.5553
  727TMC3    C210742   2.236   2.242  10.013  0.7050 -0.2321 -0.9558
  727TMC3    C310743   2.267   2.323   9.909 -0.3112  0.1175 -0.1727
  727TMC3    C410744   2.021   2.190   9.908  0.2713 -1.1633 -0.8581
  727TMC3    C510745   2.062   2.270   9.806  0.0264 -0.3575 -0.1134
  727TMC3    C610746   2.177   2.336   9.804 -0.3854  0.3262  0.1696
  727TMC3     C10747   2.082   2.109  10.136  0.1051 -0.6781 -0.3551
  727TMC3     O10748   2.176   2.091  10.212 -0.1047 -0.7759 -1.1203
  727TMC3     H10749   2.312   2.243  10.091 -1.6377 -0.0095  1.2958
  727TMC3    H110750   1.925   2.140   9.915 -1.2877  2.0053  0.3101
  727TMC3    H210751   2.196   2.404   9.722  1.4612 -0.6378 -0.1911
  727TMC3    C710752   1.983   2.273   9.692  0.0404  0.4864 -0.1064
  727TMC3    C810753   2.406   2.342   9.881 -0.0504  0.4046 -0.0472
  727TMC3    O110754   2.013   2.356   9.607  0.0617  0.6200  0.3819
  727TMC3    O210755   2.478   2.328   9.980 -0.4615  0.1181 -0.0634
  728TMC3    C110756   1.560   0.462  15.229 -0.2189  0.2302  0.1569
  728TMC3    C210757   1.687   0.504  15.249 -0.2267  0.1443  0.0829
  728TMC3    C310758   1.781   0.478  15.155  0.4251 -0.8026 -0.0216
  728TMC3    C410759   1.522   0.403  15.114  0.5477 -0.8014  0.5337
  728TMC3    C510760   1.619   0.387  15.016  0.7315  0.0438 -0.4018
  728TMC3    C610761   1.750   0.422  15.036  0.3774  0.0488 -0.5077
  728TMC3     C10762   1.467   0.463  15.343 -0.3435 -0.5516 -0.2495
  728TMC3     O10763   1.513   0.505  15.450 -0.4571  0.2377 -0.5299
  728TMC3     H10764   1.706   0.556  15.342 -0.7616 -0.8612  0.7525
  728TMC3    H110765   1.424   0.368  15.084  0.2945 -1.4637  2.1194
  728TMC3    H210766   1.823   0.441  14.958 -0.7065  2.7318 -0.8506
  728TMC3    C710767   1.558   0.426  14.891 -0.0372  0.1562 -0.4962
  728TMC3    C810768   1.911   0.543  15.174  0.3194 -0.0267 -0.4224
  728TMC3    O110769   1.462   0.497  14.896 -0.2246  0.3283 -0.0031
  728TMC3    O210770   1.928   0.618  15.271 -0.8652 -0.6231 -0.3358
  729MPD2     C10771   3.037   1.527  16.504  0.1747  0.0008 -0.1308
  729MPD2    C110772   3.161   1.471  16.511 -0.2711  0.6852  0.1509
  729MPD2    C210773   3.207   1.424  16.629  0.3037  0.0153 -0.3591
  729MPD2    C310774   3.127   1.425  16.741 -0.3568  0.4876 -0.0092
  729MPD2    C410775   2.999   1.475  16.731 -0.0405 -0.3394 -0.7875
  729MPD2    C510776   2.951   1.522  16.612 -0.0543  0.2464  0.1354
  729MPD2     H10777   3.315   1.408  16.624  0.2238 -0.1719 -1.4570
  729MPD2    H110778   2.934   1.485  16.817 -0.2992 -1.1229 -0.8881
  729MPD2    H210779   3.014   1.569  16.407  0.1683  0.2225 -0.0331
  729MPD2    H310780   2.854   1.572  16.608  0.0985  0.4744 -0.6572
  729MPD2     N10781   3.180   1.395  16.868 -0.1763  0.3185 -0.5527
  729MPD2    H510782   3.118   1.404  16.947 -0.5302  1.0554 -0.9118
  729MPD2    N110783   3.246   1.496  16.399 -0.1100  0.4109 -0.7901
  729MPD2    H710784   3.215   1.574  16.342 -0.5418  0.2193 -0.8181
  730TMC3    C110785   3.367   1.361  17.004  0.1001 -0.1778 -0.2299
  730TMC3    C210786   3.499   1.320  17.014 -0.0937 -0.3341 -0.0134
  730TMC3    C310787   3.591   1.383  17.094 -0.1129 -0.5066  0.6943
  730TMC3    C410788   3.327   1.470  17.079  0.2559 -0.6351  0.6424
  730TMC3    C510789   3.413   1.522  17.169 -0.2964 -0.6829 -0.8010
  730TMC3    C610790   3.546   1.482  17.181  0.6314 -0.0124  0.4973
  730TMC3     C10791   3.303   1.333  16.883 -0.4105 -0.2688  0.4888
  730TMC3     O10792   3.364   1.283  16.791  0.3318 -0.1120  0.0981
  730TMC3     H10793   3.530   1.241  16.948 -1.0037 -1.5686  1.0487
  730TMC3    H110794   3.224   1.501  17.087  1.4712  3.6975 -0.3171
  730TMC3    H210795   3.616   1.532  17.246  1.9690  0.1104 -1.0513
  730TMC3    C710796   3.386   1.668  17.193  0.0564  0.1879 -0.3047
  730TMC3    C810797   3.725   1.397  17.036 -0.1052 -0.5940  0.1426
  730TMC3    O110798   3.324   1.724  17.102  0.1138 -0.0490 -0.1855
  730TMC3    O210799   3.748   1.328  16.936 -0.0097  0.1844 -0.1064
  731MPD2     C10800   3.738   0.284  12.599 -0.1009 -0.1990 -0.3561
  731MPD2    C110801   3.667   0.180  12.546 -0.3427  0.3459 -0.1288
  731MPD2    C210802   3.545   0.147  12.613 -0.2765 -0.6625  0.0585
  731MPD2    C310803   3.503   0.218  12.723  0.6001 -0.0554  0.0940
  731MPD2    C410804   3.582   0.320  12.777  0.2801  0.0311 -0.2770
  731MPD2    C510805   3.692   0.356  12.705 -0.1243 -0.4921 -0.2980
  731MPD2     H10806   3.482   0.065  12.581 -1.3310 -0.3339  1.3260
  731MPD2    H110807   3.563   0.385  12.862  1.3170 -1.7875  1.3502
  731MPD2    H210808   3.827   0.316  12.546 -0.6480 -1.1629 -1.8533
  731MPD2    H310809   3.749   0.442  12.738 -0.3679 -0.3661 -0.2012
  731MPD2     N10810   3.380   0.174  12.789 -0.2931  0.8582 -0.1683
  731MPD2    H510811   3.337   0.090  12.753 -0.8554 -0.1319  2.8059
  731MPD2    N110812   3.713   0.104  12.443  0.7346  0.0610 -0.5435
  731MPD2    H710813   3.793   0.147  12.397  0.8201 -0.5762 -0.9872
  732TMC3    C110814   3.737   4.684  12.266 -0.5850 -0.5052  0.5001
  732TMC3    C210815   3.672   4.653  12.152  0.2261 -0.5379 -0.4340
  732TMC3    C310816   3.742   4.626  12.038  0.1206  0.3230 -0.4589
  732TMC3    C410817   3.875   4.690  12.270 -0.4529 -0.3004 -0.8496
  732TMC3    C510818   3.941   4.656  12.153 -0.7808 -0.7900 -0.5588
  732TMC3    C610819   3.876   4.631  12.036 -0.0101  0.6170  0.3667
  732TMC3     C10820   3.659   0.001  12.377 -0.5613 -0.6780  0.6414
  732TMC3     O10821   3.562   4.653  12.402  0.2794  0.2589 -0.0346
  732TMC3     H10822   3.565   4.636  12.160  0.2033  0.1808  0.7544
  732TMC3    H110823   3.932   4.720  12.357  0.6673 -2.0507 -0.9638
  732TMC3    H210824   3.934   4.583  11.958  0.6961  0.8845  0.7340
  732TMC3    C710825   4.074   4.597  12.165 -0.1264 -0.4964 -0.4613
  732TMC3    C810826   3.690   4.531  11.935 -0.1708 -0.1028 -0.4618
  732TMC3    O110827   4.134   4.570  12.059  0.2624 -0.5478  0.4489
  732TMC3    O210828   3.774   4.479  11.862  0.0791 -0.0904 -0.1027
  733TMC3    C110829   4.041   3.066  12.362  0.6869 -0.7144  0.3650
  733TMC3    C210830   4.171   3.073  12.396  0.7733 -0.0558  0.5699
  733TMC3    C310831   4.231   3.171  12.332  0.0414 -0.3474  0.7282
  733TMC3    C410832   3.974   3.157  12.283  0.0269  0.4787 -0.6950
  733TMC3    C510833   4.046   3.252  12.215  0.2535 -0.0865 -0.0367
  733TMC3    C610834   4.181   3.261  12.237 -0.2294 -0.7117 -0.2617
  733TMC3     C10835   3.951   3.050  12.473  0.5235 -0.9774  0.7214
  733TMC3     O10836   3.898   3.154  12.514 -0.5672  0.1352 -0.0612
  733TMC3     H10837   4.220   3.009  12.469  3.7680  2.4897  0.8166
  733TMC3    H110838   3.866   3.153  12.292  0.1567 -3.0369 -0.7233
  733TMC3    H210839   4.245   3.340  12.200  1.3739 -1.4184  0.9990
  733TMC3    C710840   3.964   3.374  12.191  0.0704 -0.2853  0.6493
  733TMC3    C810841   4.356   3.191  12.387  0.3210 -0.3809  0.1216
  733TMC3    O110842   3.841   3.365  12.201  0.1245 -0.2828 -0.1846
  733TMC3    O210843   4.426   3.092  12.393  0.5570 -0.0399  0.4205
  734MPD2     C10844   1.578   0.961  12.217  0.2704 -0.0349 -1.2116
  734MPD2    C110845   1.528   0.847  12.145 -0.3582 -0.8225  0.5290
  734MPD2    C210846   1.599   0.817  12.028 -0.0620 -0.6842  0.0816
  734MPD2    C310847   1.703   0.885  11.974  0.0443 -0.0112 -0.0800
  734MPD2    C410848   1.742   0.993  12.047  0.3377 -0.6841  0.5497
  734MPD2    C510849   1.678   1.032  12.160 -0.7819 -0.0221  0.7557
  734MPD2     H10850   1.560   0.731  11.976 -1.1404 -0.3892  0.4123
  734MPD2    H110851   1.825   1.054  12.012  0.1387 -1.0152 -0.4749
  734MPD2    H210852   1.531   1.011  12.300  0.3355 -0.5676 -0.8521
  734MPD2    H310853   1.719   1.122  12.205  2.1761 -1.5010  1.0046
  734MPD2     N10854   1.762   0.839  11.853 -0.0673 -0.1411 -0.7279
  734MPD2    H510855   1.732   0.748  11.819  1.1310 -0.8221  0.0577
  734MPD2    N110856   1.419   0.773  12.196 -0.2300 -0.4012  0.2997
  734MPD2    H710857   1.378   0.790  12.287 -4.0695  0.0779 -1.4989
  735TMC3    C110858   1.238   0.612  12.199  0.3316 -0.7265  0.3619
  735TMC3    C210859   1.148   0.558  12.111  0.7943 -0.0824 -0.0026
  735TMC3    C310860   1.145   0.423  12.105  0.7408  0.6990  0.5339
  735TMC3    C410861   1.295   0.534  12.293  0.1167 -0.2504 -0.3327
  735TMC3    C510862   1.274   0.399  12.294 -0.1116  0.2909 -0.4518
  735TMC3    C610863   1.198   0.336  12.195  0.1842 -0.4444  0.1024
  735TMC3     C10864   1.338   0.685  12.121 -0.3089  0.2581  0.5538
  735TMC3     O10865   1.332   0.671  12.003  0.1832  0.1166  0.2078
  735TMC3     H10866   1.099   0.625  12.041 -1.3968  0.4792  2.0767
  735TMC3    H110867   1.356   0.586  12.366  0.7758 -0.9438 -0.3815
  735TMC3    H210868   1.194   0.232  12.166 -0.6787 -0.9988  2.2395
  735TMC3    C710869   1.403   0.335  12.318 -0.0768  0.4928 -0.8261
  735TMC3    C810870   1.162   0.366  11.969 -0.4448 -0.4748  0.3420
  735TMC3    O110871   1.503   0.403  12.303 -0.1352  0.5963 -0.6940
  735TMC3    O210872   1.111   0.259  11.948 -0.1714  0.4160 -0.5510
  736MPD2     C10873   1.451   4.703  12.365  0.2290 -0.2678  0.4899
  736MPD2    C110874   1.481   0.107  12.317 -1.1050 -0.2057 -0.3836
  736MPD2    C210875   1.604   0.122  12.252 -1.5216  0.9261 -0.2975
  736MPD2    C310876   1.699   0.013  12.240  0.4151 -0.2124  0.4449
  736MPD2    C410877   1.664   4.615  12.299 -0.4714  0.3434 -0.0882
  736MPD2    C510878   1.546   4.604  12.366  0.5176  0.5443  0.3445
  736MPD2     H10879   1.626   0.220  12.209 -2.2949  1.5070  0.6113
  736MPD2    H110880   1.733   4.532  12.303  0.1866  0.8851 -0.3209
  736MPD2    H210881   1.354   4.677  12.407 -0.8083  0.3372 -1.5154
  736MPD2    H310882   1.517   4.520  12.429 -0.5892  0.7929  0.1745
  736MPD2     N10883   1.815   0.023  12.162 -0.2729 -0.1399 -0.1790
  736MPD2    H510884   1.889   4.678  12.181 -0.0758  0.1574  0.1149
  736MPD2    N110885   1.376   0.201  12.327  0.5888 -0.2581 -0.6219
  736MPD2    H710886   1.282   0.175  12.354  0.3083  2.8960  1.4284
  737TMC3    C110887   1.975   0.141  12.012 -0.1321 -0.1674 -0.0785
  737TMC3    C210888   1.991   0.265  11.951 -0.0975  0.2533 -0.2490
  737TMC3    C310889   2.058   0.283  11.831 -0.1195 -0.5557  0.3630
  737TMC3    C410890   2.028   0.030  11.952  0.1305 -0.2568  0.2837
  737TMC3    C510891   2.092   0.044  11.835 -0.6480 -0.0538 -0.2745
  737TMC3    C610892   2.098   0.168  11.771 -0.0656  0.4232 -0.5288
  737TMC3     C10893   1.839   0.124  12.065 -0.4810 -0.2315  0.5986
  737TMC3     O10894   1.763   0.210  12.017  0.0610  1.0034  0.0552
  737TMC3     H10895   1.935   0.353  11.983  0.9760  1.6236 -2.1723
  737TMC3    H110896   2.028   4.658  12.004  1.4358 -2.0404 -2.9855
  737TMC3    H210897   2.130   0.193  11.671  0.1250  0.1286 -0.5410
  737TMC3    C710898   2.148   4.645  11.777 -0.4029  0.5641 -0.2301
  737TMC3    C810899   2.019   0.392  11.742 -0.0651  0.1105  0.1813
  737TMC3    O110900   2.111   4.536  11.822 -0.3846 -0.1933 -0.3661
  737TMC3    O210901   1.892   0.405  11.735  0.0430 -0.3060  0.2415
  738MPD2     C10902   2.616   3.625  15.478  0.1692 -0.6268 -0.7689
  738MPD2    C110903   2.573   3.614  15.350 -0.2462  0.9696  0.0039
  738MPD2    C210904   2.648   3.667  15.246 -0.4692 -0.7142 -0.2655
  738MPD2    C310905   2.768   3.733  15.267  0.6302 -0.7687  0.2414
  738MPD2    C410906   2.826   3.721  15.393  0.0207  1.4663  0.5708
  738MPD2    C510907   2.741   3.675  15.495  0.1752  0.1276 -0.6848
  738MPD2     H10908   2.614   3.654  15.144  0.1233 -1.7998 -0.3286
  738MPD2    H110909   2.929   3.741  15.416  0.2640  1.0253 -0.1360
  738MPD2    H210910   2.568   3.582  15.565 -1.3721  2.5219 -0.0638
  738MPD2    H310911   2.789   3.669  15.592 -3.9813 -1.0256  1.3027
  738MPD2     N10912   2.849   3.781  15.160  0.0180  0.2433  0.6368
  738MPD2    H510913   2.947   3.789  15.182 -0.0386  0.2730  0.8733
  738MPD2    N110914   2.465   3.532  15.318  0.0444 -0.1557  0.2684
  738MPD2    H710915   2.436   3.514  15.223 -0.3678 -0.9865  0.5496
  739TMC3    C110916   2.899   3.838  14.933 -0.0998 -0.5122 -0.2906
  739TMC3    C210917   2.874   3.911  14.816 -0.5000  0.7344 -0.4788
  739TMC3    C310918   2.940   3.881  14.699  0.2333  0.6498 -0.8021
  739TMC3    C410919   3.003   3.744  14.924  0.7523  0.2350  0.3244
  739TMC3    C510920   3.054   3.705  14.802  0.0423  0.3112  0.3871
  739TMC3    C610921   3.036   3.784  14.692 -0.2914  0.4777  0.9012
  739TMC3     C10922   2.800   3.818  15.033  0.8347  0.7739 -0.2336
  739TMC3     O10923   2.688   3.849  14.997  0.6656 -0.1624  0.7296
  739TMC3     H10924   2.791   3.980  14.815 -0.5508  0.7006  0.7447
  739TMC3    H110925   3.023   3.678  15.008 -0.5852 -0.1765  0.3153
  739TMC3    H210926   3.091   3.761  14.601  0.3980 -0.5713  1.5819
  739TMC3    C710927   3.170   3.626  14.807  0.1189  0.1998  1.0987
  739TMC3    C810928   2.882   3.933  14.572  0.4111  0.0420 -0.1232
  739TMC3    O110929   3.168   3.533  14.890 -0.1986 -0.2777 -0.2562
  739TMC3    O210930   2.767   3.975  14.576 -0.1178 -0.3611  0.4742
  740TMC3    C110931   3.235   0.278  14.378 -0.4303 -0.3574 -1.0243
  740TMC3    C210932   3.283   0.179  14.460  0.3594 -0.8898 -0.3448
  740TMC3    C310933   3.415   0.146  14.443 -0.5616  0.3847  0.2256
  740TMC3    C410934   3.302   0.331  14.267 -0.3688  0.0477  0.6408
  740TMC3    C510935   3.442   0.302  14.270 -0.2938  0.8083 -0.7796
  740TMC3    C610936   3.497   0.216  14.365  0.4497 -0.3366 -0.6158
  740TMC3     C10937   3.087   0.300  14.378  0.1935 -0.9280  0.2019
  740TMC3     O10938   3.029   0.312  14.270  0.3880  0.0993 -0.8484
  740TMC3     H10939   3.224   0.121  14.530  0.5368 -0.3766  0.2309
  740TMC3    H110940   3.245   0.377  14.188 -2.0331  0.7706  2.2426
  740TMC3    H210941   3.601   0.186  14.357  0.5946  0.3461 -1.2485
  740TMC3    C710942   3.538   0.357  14.182 -0.4147  0.4184 -0.0304
  740TMC3    C810943   3.475   0.023  14.508  0.3589  0.1943  0.6422
  740TMC3    O110944   3.654   0.321  14.201  0.0100 -0.5840  0.2285
  740TMC3    O210945   3.591   0.010  14.489 -0.4164 -0.8503 -0.3578
  741TMC3    C110946   2.559   4.208  14.577 -0.5656 -0.2109  0.3750
  741TMC3    C210947   2.474   4.146  14.490 -0.0533 -0.0898 -0.1598
  741TMC3    C310948   2.390   4.050  14.545  0.3269  0.6696  0.1628
  741TMC3    C410949   2.564   4.180  14.710  0.4429 -0.2301  0.0065
  741TMC3    C510950   2.470   4.087  14.761 -0.1105  0.1267  0.2035
  741TMC3    C610951   2.383   4.031  14.679 -0.0084  0.4747 -0.5513
  741TMC3     C10952   2.654   4.304  14.530 -0.4304  0.2781 -0.8874
  741TMC3     O10953   2.763   4.309  14.585 -0.2863 -0.1390  0.4643
  741TMC3     H10954   2.474   4.158  14.382  1.0736  1.3473 -0.0028
  741TMC3    H110955   2.637   4.232  14.770 -1.8188 -0.3312  2.8267
  741TMC3    H210956   2.298   3.969  14.703 -0.8094  1.4314 -0.9050
  741TMC3    C710957   2.447   4.079  14.897 -0.3846  0.1853  0.2064
  741TMC3    C810958   2.281   3.996  14.464  0.3100  0.0513 -0.1371
  741TMC3    O110959   2.481   4.174  14.969 -0.0991  0.2318  0.7307
  741TMC3    O210960   2.205   4.068  14.401  0.3708 -0.0028  0.4162
  742TMC3    C110961   2.255   2.676  15.418  0.0620  0.1172  0.6501
  742TMC3    C210962   2.187   2.713  15.310  0.4627  0.9316  0.1502
  742TMC3    C310963   2.252   2.786  15.211 -0.5931 -0.3099  0.2738
  742TMC3    C410964   2.390   2.714  15.427  0.2833  0.6751  0.1566
  742TMC3    C510965   2.451   2.777  15.319 -0.3417  0.0799  0.5357
  742TMC3    C610966   2.386   2.828  15.216 -0.1505  0.0417 -0.4093
  742TMC3     C10967   2.234   2.536  15.450 -0.5628  0.1046 -0.1414
  742TMC3     O10968   2.153   2.482  15.381 -0.4306  0.0040 -0.2164
  742TMC3     H10969   2.088   2.679  15.280  0.1676 -0.6003  2.8105
  742TMC3    H110970   2.454   2.660  15.496  0.1403  2.9191  2.0158
  742TMC3    H210971   2.441   2.884  15.142 -0.4930 -0.4146 -1.0129
  742TMC3    C710972   2.598   2.770  15.312  0.0908 -0.3144 -0.1689
  742TMC3    C810973   2.200   2.760  15.075  0.2413 -0.0109 -0.3455
  742TMC3    O110974   2.648   2.759  15.201  0.2676 -0.3794 -0.0238
  742TMC3    O210975   2.290   2.746  14.990 -0.0872  0.0540  0.1962
  743MPD2     C10976   1.313   4.433   1.745 -0.1324 -0.7834  0.7990
  743MPD2    C110977   1.280   4.374   1.626  0.3440  0.1478 -0.1210
  743MPD2    C210978   1.381   4.323   1.553 -0.3660  0.0684 -0.3099
  743MPD2    C310979   1.506   4.317   1.609 -0.2495  0.0424 -0.4068
  743MPD2    C410980   1.536   4.378   1.728 -0.3197  0.1034 -0.2783
  743MPD2    C510981   1.436   4.439   1.793  0.3439 -0.3571  0.8416
  743MPD2     H10982   1.362   4.284   1.454  1.5460 -1.1768 -0.1959
  743MPD2    H110983   1.631   4.376   1.780 -0.8641 -2.2924  0.6467
  743MPD2    H210984   1.230   4.464   1.808 -0.1565  0.5551  0.0946
  743MPD2    H310985   1.443   4.483   1.892  1.5265 -1.8989  1.4368
  743MPD2     N10986   1.613   4.252   1.542  0.1915 -0.1396  0.0922
  743MPD2    H510987   1.597   4.214   1.449  1.7180 -0.5165 -0.0023
  743MPD2    N110988   1.145   4.386   1.586  0.1522 -0.3769  0.2068
  743MPD2    H710989   1.088   4.434   1.654  0.5943  1.3418 -0.6280
  744TMC3    C110990   0.967   4.404   1.437  0.2570  0.2135 -1.1053
  744TMC3    C210991   0.932   4.519   1.492  0.0696  0.2960 -0.2434
  744TMC3    C310992   0.810   4.571   1.440 -0.9062 -0.4379  0.0790
  744TMC3    C410993   0.903   4.335   1.342 -0.2680 -0.2468  0.5055
  744TMC3    C510994   0.779   4.388   1.306 -0.4827  0.0464 -0.3159
  744TMC3    C610995   0.735   4.510   1.336  0.4785  0.5375  0.1924
  744TMC3     C10996   1.092   4.338   1.476 -0.4357 -0.0346  0.2577
  744TMC3     O10997   1.133   4.250   1.404  0.5814  0.1079 -1.2495
  744TMC3     H10998   0.995   4.581   1.554  0.3674 -0.5187  0.2593
  744TMC3    H110999   0.950   4.258   1.282  0.8019 -0.3424  1.4735
  744TMC3    H211000   0.646   4.559   1.296 -0.0546 -1.2895 -0.8454
  744TMC3    C711001   0.732   4.345   1.174 -0.4531 -0.7295 -0.1028
  744TMC3    C811002   0.744   4.680   1.502  0.6590 -0.1992 -0.2332
  744TMC3    O111003   0.822   4.290   1.113  0.2178  0.5073  0.3085
  744TMC3    O211004   0.658   0.014   1.436 -0.1742  0.2600 -0.7044
  745TMC3    C111005   2.875   2.427  13.533 -0.3732  0.7913 -0.4400
  745TMC3    C211006   2.796   2.367  13.631 -0.1272  0.3798 -0.3933
  745TMC3    C311007   2.666   2.406  13.647  0.0968 -0.1819 -0.5513
  745TMC3    C411008   2.819   2.518  13.447  0.4112 -0.1213 -0.2810
  745TMC3    C511009   2.687   2.549  13.467  0.2329  0.1468  0.2965
  745TMC3    C611010   2.608   2.502  13.563  0.6484  0.2802 -0.8247
  745TMC3     C11011   3.019   2.429  13.571  0.2120  0.1634  0.7734
  745TMC3     O11012   3.061   2.332  13.628 -0.2652 -0.1973 -0.2216
  745TMC3     H11013   2.844   2.310  13.710 -0.4452  1.2939  0.4604
  745TMC3    H111014   2.875   2.546  13.358 -0.3667  0.6372 -0.5254
  745TMC3    H211015   2.522   2.556  13.603  1.0843 -0.8074  1.5872
  745TMC3    C711016   2.630   2.656  13.395  0.2237  0.4312 -0.1650
  745TMC3    C811017   2.645   2.441  13.783 -0.9066 -0.2880  0.0832
  745TMC3    O111018   2.507   2.667  13.406  0.3942 -0.2913  0.2074
  745TMC3    O211019   2.543   2.412  13.848  0.7902 -0.4466 -0.8839
  746TMC3    C111020   0.351   4.396  10.815 -0.0299  0.6687 -0.0868
  746TMC3    C211021   0.359   4.372  10.678  0.7267  0.8473  0.1212
  746TMC3    C311022   0.389   4.243  10.638  0.4101 -0.1350  0.0811
  746TMC3    C411023   0.374   4.296  10.906 -0.1460  0.7319  0.6977
  746TMC3    C511024   0.396   4.174  10.867  0.8891  0.5869 -0.3209
  746TMC3    C611025   0.399   4.147  10.734  0.4284 -0.2078  0.3965
  746TMC3     C11026   0.308   4.523  10.876 -0.2165  0.0248 -0.2107
  746TMC3     O11027   0.268   4.521  10.993 -0.5261  0.4592  0.1681
  746TMC3     H11028   0.372   4.460  10.615  2.1946  0.7419  0.2800
  746TMC3    H111029   0.374   4.321  11.011  1.9597  1.7007  0.4691
  746TMC3    H211030   0.408   4.041  10.709 -0.1864  0.1546 -1.4177
  746TMC3    C711031   0.318   4.076  10.935 -0.2211  0.0637 -0.4875
  746TMC3    C811032   0.480   4.220  10.528 -0.0687  0.0069  0.3076
  746TMC3    O111033   0.233   4.014  10.877 -0.1138  0.0534 -0.2795
  746TMC3    O211034   0.556   4.123  10.527 -0.5171  0.9498 -0.0538
  747TMC3    C111035   2.746   0.026  10.951 -0.2225 -0.0052  0.4055
  747TMC3    C211036   2.633   4.679  10.980  0.8915 -0.2686  0.2877
  747TMC3    C311037   2.581   4.679  11.098  0.8509  0.2514  0.0495
  747TMC3    C411038   2.809   0.098  11.053 -0.3693  0.1728  0.1895
  747TMC3    C511039   2.766   0.083  11.184  0.3035  0.7384 -0.5129
  747TMC3    C611040   2.651   0.007  11.202 -0.3328 -0.3050  0.0531
  747TMC3     C11041   2.792   0.048  10.812 -0.6066 -0.5610 -0.0317
  747TMC3     O11042   2.881   0.133  10.800  0.4472 -0.0900  0.4624
  747TMC3     H11043   2.569   4.631  10.906 -0.1939 -1.0757  1.7655
  747TMC3    H111044   2.912   0.131  11.039  0.3229 -1.2649  2.0177
  747TMC3    H211045   2.613   4.718  11.303 -0.2685  1.1513  0.2462
  747TMC3    C711046   2.876   0.054  11.270 -0.2498 -0.1827  0.3042
  747TMC3    C811047   2.463   4.601  11.127  0.6771  0.2243  1.0812
  747TMC3    O111048   2.974   0.131  11.270  0.4069  0.2726  0.2712
  747TMC3    O211049   2.442   4.502  11.055  0.4300  0.2473  0.7487
  748MPD2     C11050   4.248   0.434   1.568 -0.0976  0.6583 -0.0983
  748MPD2    C111051   4.328   0.528   1.621  0.3997 -0.1589 -0.5768
  748MPD2    C211052   4.425   0.584   1.533  0.4912  0.3948 -0.1655
  748MPD2    C311053   4.452   0.517   1.413  0.7224 -0.1524  0.1611
  748MPD2    C411054   4.376   0.412   1.365 -0.2665  0.2159 -0.6552
  748MPD2    C511055   4.262   0.374   1.445  0.2312 -0.2235  0.3499
  748MPD2     H11056   4.491   0.665   1.562 -0.7320  1.0421  0.8079
  748MPD2    H111057   4.404   0.350   1.280 -1.5839  0.1891 -1.0697
  748MPD2    H211058   4.167   0.394   1.628 -0.1336  0.1560 -0.4810
  748MPD2    H311059   4.205   0.285   1.421  2.1498 -0.9334 -1.5702
  748MPD2     N11060   4.572   0.564   1.362 -0.2225 -0.2714 -0.5797
  748MPD2    H511061   4.609   0.650   1.400 -2.7320 -0.3498  2.0790
  748MPD2    N111062   4.304   0.575   1.754  0.4143  0.2604 -0.3956
  748MPD2    H711063   4.215   0.544   1.792  0.4554  0.6129 -0.0128
  749TMC3    C111064   0.034   0.584   1.209 -0.0976 -0.1862  0.4426
  749TMC3    C211065   0.115   0.631   1.308  1.0387 -0.2191 -0.0030
  749TMC3    C311066   0.237   0.667   1.279  0.3178  0.3822  0.1221
  749TMC3    C411067   0.078   0.559   1.081 -0.4442  0.1295 -0.1014
  749TMC3    C511068   0.205   0.613   1.053 -0.3779 -0.3821  0.5663
  749TMC3    C611069   0.291   0.659   1.150 -0.7880  0.2680 -0.2893
  749TMC3     C11070   4.637   0.504   1.251 -0.0162 -0.2449  0.0844
  749TMC3     O11071   4.605   0.406   1.183 -0.0762 -0.1334 -0.0695
  749TMC3     H11072   0.094   0.629   1.414  1.1840  2.0167  0.0695
  749TMC3    H111073   0.005   0.534   1.005 -0.9276 -0.2383  0.4866
  749TMC3    H211074   0.391   0.696   1.128 -0.3183 -1.7213 -1.6194
  749TMC3    C711075   0.221   0.673   0.920  0.4092 -0.2583 -0.4575
  749TMC3    C811076   0.333   0.654   1.383 -0.7281 -0.1227 -0.5089
  749TMC3    O111077   0.305   0.760   0.906 -0.0991 -0.9944  0.0258
  749TMC3    O211078   0.306   0.697   1.499 -0.1967  0.5741  0.6954
  750MPD2     C11079   1.066   1.853  11.206 -0.6244  0.4932  0.7261
  750MPD2    C111080   1.033   1.739  11.270  0.3821  0.0577 -0.2357
  750MPD2    C211081   0.959   1.648  11.194  0.5297 -0.0091  0.0074
  750MPD2    C311082   0.932   1.668  11.058  0.1038 -0.2629  0.2058
  750MPD2    C411083   0.969   1.782  10.996 -0.0218  0.5704  0.4820
  750MPD2    C511084   1.034   1.875  11.075 -0.2504  0.6984  0.2404
  750MPD2     H11085   0.937   1.548  11.231  0.4955 -0.1305 -0.3458
  750MPD2    H111086   0.975   1.811  10.892 -3.1032 -0.6211 -0.0172
  750MPD2    H211087   1.122   1.932  11.254  2.2904 -1.7904  1.0692
  750MPD2    H311088   1.081   1.967  11.041  0.9557  0.0749  0.2294
  750MPD2     N11089   0.866   1.569  10.972 -0.1674  0.6035  0.0210
  750MPD2    H511090   0.868   1.581  10.871  0.3084 -0.7713 -0.1232
  750MPD2    N111091   1.081   1.722  11.400  0.3576  0.0359 -0.5191
  750MPD2    H711092   1.147   1.793  11.432 -0.0959  1.0360 -1.7768
  751TMC3    C111093   0.739   1.379  10.920  0.1994 -0.5226  0.2276
  751TMC3    C211094   0.616   1.321  10.954  0.0457 -0.3119 -0.1470
  751TMC3    C311095   0.553   1.251  10.857 -0.3898  0.2684 -0.7472
  751TMC3    C411096   0.789   1.374  10.792 -0.6114  0.4819 -0.2527
  751TMC3    C511097   0.713   1.313  10.699 -0.0389 -0.0505  0.4097
  751TMC3    C611098   0.595   1.252  10.724  0.9227 -0.4006  0.4958
  751TMC3     C11099   0.800   1.459  11.019 -0.4387 -0.0008 -0.3608
  751TMC3     O11100   0.772   1.428  11.131  0.0248 -0.1530  0.0303
  751TMC3     H11101   0.566   1.335  11.050  1.3080 -0.6519  0.5683
  751TMC3    H111102   0.884   1.422  10.768 -1.0627  0.0454 -2.8123
  751TMC3    H211103   0.535   1.213  10.643  0.2215 -0.5444  1.0851
  751TMC3    C711104   0.786   1.281  10.577 -0.3242  0.2750 -0.5146
  751TMC3    C811105   0.418   1.206  10.878  0.5721  0.0289 -0.2598
  751TMC3    O111106   0.872   1.359  10.540  0.0450 -0.7549  0.2325
  751TMC3    O211107   0.368   1.128  10.796 -0.2164  0.0063 -0.0180
  752TMC3    C111108   4.229   1.047  16.750 -0.5203  0.1708 -1.2382
  752TMC3    C211109   4.281   0.930  16.700  0.2255  0.0705 -0.5013
  752TMC3    C311110   4.280   0.820  16.783  0.1414  0.2677 -0.6467
  752TMC3    C411111   4.161   1.057  16.865 -0.2090 -0.0474  0.3565
  752TMC3    C511112   4.159   0.948  16.947  0.0916 -0.2204 -0.5840
  752TMC3    C611113   4.217   0.829  16.907  0.1538 -0.2955 -0.4584
  752TMC3     C11114   4.252   1.161  16.665 -0.9442  0.0204 -0.9667
  752TMC3     O11115   4.357   1.170  16.602  0.6752 -0.1192 -0.1292
  752TMC3     H11116   4.316   0.931  16.598  0.9646  0.0228 -0.2494
  752TMC3    H111117   4.126   1.154  16.898 -0.2719  0.3383 -0.8266
  752TMC3    H211118   4.215   0.743  16.972 -2.1051 -0.8068 -1.1843
  752TMC3    C711119   4.080   0.960  17.062  0.3519 -0.6662  0.0974
  752TMC3    C811120   4.369   0.710  16.759 -0.2591  0.5116  0.1081
  752TMC3    O111121   4.009   1.060  17.067 -0.8196 -0.6596  0.1897
  752TMC3    O211122   4.393   0.631  16.845 -0.2613 -0.0254  0.3354
  753TMC3    C111123   1.331   2.417  13.595 -0.1031 -0.2549 -0.0863
  753TMC3    C211124   1.374   2.408  13.728  0.0202 -1.0248  0.2246
  753TMC3    C311125   1.409   2.283  13.768  0.6183  0.7297 -1.4217
  753TMC3    C411126   1.317   2.316  13.509 -0.0573 -0.2975 -0.6184
  753TMC3    C511127   1.348   2.193  13.561 -0.0818  0.1114  0.1481
  753TMC3    C611128   1.391   2.170  13.685  0.0821 -0.7378  0.0367
  753TMC3     C11129   1.285   2.545  13.540  0.3780 -0.7659  0.0693
  753TMC3     O11130   1.246   2.538  13.423  0.4261  0.3663  0.0343
  753TMC3     H11131   1.373   2.498  13.788 -1.6744 -0.7430 -0.2195
  753TMC3    H111132   1.273   2.324  13.411  2.7474  0.0202 -1.8597
  753TMC3    H211133   1.419   2.072  13.722  1.3725 -1.4163 -2.7743
  753TMC3    C711134   1.336   2.074  13.478 -0.3781 -0.5389 -0.0878
  753TMC3    C811135   1.438   2.250  13.907 -0.5177 -0.3495  0.1851
  753TMC3    O111136   1.431   1.988  13.486  0.3923 -0.0559 -0.2355
  753TMC3    O211137   1.392   2.142  13.941 -0.1685  0.4208  0.0418
  754MPD2     C11138   0.250   1.945  13.285 -0.4280  0.7489  0.5387
  754MPD2    C111139   0.253   1.809  13.248 -0.4396  0.1342  0.3168
  754MPD2    C211140   0.166   1.776  13.152  0.3664 -0.2658 -0.0762
  754MPD2    C311141   0.075   1.868  13.098  0.1706  0.6399  0.2096
  754MPD2    C411142   0.081   2.000  13.133  0.2387 -0.2243  0.3341
  754MPD2    C511143   0.170   2.045  13.232 -0.5189  0.2894  0.7387
  754MPD2     H11144   0.155   1.671  13.125  0.5954 -0.3582  0.1838
  754MPD2    H111145   0.010   2.074  13.100 -1.4275 -0.7127  2.7814
  754MPD2    H211146   0.325   1.968  13.360  1.3882 -1.0784 -0.7076
  754MPD2    H311147   0.177   2.147  13.270 -3.4842  1.1559 -1.0658
  754MPD2     N11148   4.703   1.841  12.997  0.4246 -0.0403  1.0941
  754MPD2    H511149   4.640   1.914  12.967 -0.0887  0.9143  4.4752
  754MPD2    N111150   0.336   1.714  13.302 -0.4321  0.4735  0.1073
  754MPD2    H711151   0.353   1.729  13.401 -1.7436 -1.2672  0.6071
  755MPD2     C11152   3.758   1.725  12.838  0.1317  0.3920 -0.6731
  755MPD2    C111153   3.844   1.800  12.915 -0.6711  0.8043 -0.1676
  755MPD2    C211154   3.976   1.812  12.875 -0.7203  0.0674  0.8334
  755MPD2    C311155   4.018   1.762  12.754 -0.4639  0.1104 -0.4069
  755MPD2    C411156   3.933   1.676  12.684 -0.5304 -0.4833 -1.3034
  755MPD2    C511157   3.810   1.656  12.726 -0.1193  0.5413 -0.2551
  755MPD2     H11158   4.051   1.869  12.928  0.0027  0.1555 -0.2747
  755MPD2    H111159   3.972   1.618  12.601  0.4705 -2.1890  0.3560
  755MPD2    H211160   3.657   1.697  12.863  0.0687  0.0904 -1.2737
  755MPD2    H311161   3.753   1.589  12.663  2.7423 -0.0686 -2.1670
  755MPD2     N11162   4.154   1.739  12.725 -0.2335 -0.4848  0.3428
  755MPD2    H511163   4.180   1.669  12.656  0.4740  0.6396 -0.5340
  755MPD2    N111164   3.814   1.846  13.041  0.2671 -0.1070  0.2216
  755MPD2    H711165   3.888   1.904  13.079  0.2261 -0.2502  0.5201
  756MPD2     C11166   0.720   2.068   9.597  0.2409 -0.1210 -0.0390
  756MPD2    C111167   0.673   2.026   9.722 -0.9267 -0.0324 -0.8415
  756MPD2    C211168   0.610   1.907   9.738  0.8084 -0.3816 -0.2013
  756MPD2    C311169   0.569   1.842   9.623 -0.2111  0.2291  0.4159
  756MPD2    C411170   0.614   1.885   9.496 -0.1634  0.6976 -0.0592
  756MPD2    C511171   0.700   1.987   9.490 -0.5404 -0.1424  0.3936
  756MPD2     H11172   0.592   1.863   9.836  1.8003 -1.4896 -0.5125
  756MPD2    H111173   0.602   1.837   9.399  4.3190  0.7909 -0.6559
  756MPD2    H211174   0.766   2.162   9.571  0.0352  0.3970  1.5284
  756MPD2    H311175   0.739   2.006   9.391  0.1496  1.2782  0.9446
  756MPD2     N11176   0.484   1.732   9.644 -0.1820  0.1064 -0.1259
  756MPD2    H511177   0.459   1.714   9.741 -0.1342 -3.0658 -0.7148
  756MPD2    N111178   0.685   2.111   9.834 -0.3643  0.1909  0.2468
  756MPD2    H711179   0.644   2.080   9.921 -0.4955 -1.5134 -0.4327
  757MPD2     C11180   0.245   0.685   9.672 -0.1712 -0.2684  0.2265
  757MPD2    C111181   0.122   0.740   9.627 -0.2223  0.1211 -0.4853
  757MPD2    C211182   0.110   0.869   9.589 -0.2455 -0.1344  0.2089
  757MPD2    C311183   0.225   0.949   9.590 -0.4133 -0.6030  0.0655
  757MPD2    C411184   0.351   0.889   9.618  0.1742  0.3953  0.1883
  757MPD2    C511185   0.362   0.757   9.645  0.0855  0.0265  1.0391
  757MPD2     H11186   0.013   0.916   9.574  0.1454 -0.5494 -3.5000
  757MPD2    H111187   0.448   0.933   9.635 -0.6786  2.6275 -0.6764
  757MPD2    H211188   0.248   0.578   9.689 -2.3727 -0.4774 -0.7566
  757MPD2    H311189   0.456   0.709   9.669  0.5568 -0.0666 -0.9651
  757MPD2     N11190   0.204   1.091   9.582 -0.1234  0.0064  0.1057
  757MPD2    H511191   0.107   1.120   9.572  0.1649  0.7886 -0.3660
  757MPD2    N111192   0.008   0.661   9.626  0.1814  0.1016  0.5791
  757MPD2    H711193   0.018   0.575   9.680 -0.6668  0.6789  1.6595
  758MPD2     C11194   4.592   1.289  16.090  0.8638 -0.8031  0.3789
  758MPD2    C111195   4.671   1.181  16.108 -0.2286 -0.0176 -0.6552
  758MPD2    C211196   4.674   1.111  16.226  0.8050  0.0052  0.1630
  758MPD2    C311197   4.594   1.158  16.326 -0.5158  0.2007 -0.4454
  758MPD2    C411198   4.499   1.256  16.303 -0.4936 -0.4209  0.6322
  758MPD2    C511199   4.494   1.326  16.182  0.2505  0.0334 -0.3591
  758MPD2     H11200   0.018   1.029  16.247  0.6260  0.2882  1.8220
  758MPD2    H111201   4.434   1.286  16.385  0.1644  1.0030  0.6453
  758MPD2    H211202   4.593   1.338  15.993 -0.9732 -1.5173 -0.0033
  758MPD2    H311203   4.438   1.415  16.156 -1.8078 -0.3638  2.6750
  758MPD2     N11204   4.605   1.120  16.460  0.0376  0.3766  0.5349
  758MPD2    H511205   4.527   1.148  16.519 -1.2701  0.2752 -1.1774
  758MPD2    N111206   0.049   1.162  16.005 -0.0065 -0.4517 -0.3218
  758MPD2    H711207   0.061   1.241  15.944  0.5299  0.6953  1.2677
  759MPD2     C11208   4.046   2.894   9.936  0.2964 -0.4332  0.0182
  759MPD2    C111209   3.935   2.851   9.865 -0.4916  0.4420  0.5128
  759MPD2    C211210   3.913   2.897   9.742  0.2499 -0.3501  1.0929
  759MPD2    C311211   3.992   2.993   9.688  0.0910 -0.1622  0.2514
  759MPD2    C411212   4.101   3.043   9.762 -0.1379 -0.3050  0.8383
  759MPD2    C511213   4.131   2.988   9.886 -0.5883  0.0277  0.7594
  759MPD2     H11214   3.831   2.863   9.679  1.6892  0.2681 -1.0910
  759MPD2    H111215   4.173   3.114   9.722  1.0348 -1.5808  0.6751
  759MPD2    H211216   4.082   2.843  10.025  0.5587 -0.9312 -0.3787
  759MPD2    H311217   4.212   3.034   9.942  1.3776 -1.0018 -1.2426
  759MPD2     N11218   3.955   3.043   9.558 -0.1617  0.1969 -0.1622
  759MPD2    H511219   3.876   2.999   9.511 -0.0369  1.2657 -1.3714
  759MPD2    N111220   3.853   2.737   9.895  0.3115  0.3503 -0.6048
  759MPD2    H711221   3.778   2.722   9.828  2.1905 -0.2033 -2.5759
  760MPD2     C11222   3.564   1.500  11.906  0.1950  0.4573 -0.3270
  760MPD2    C111223   3.636   1.588  11.829  0.0497 -0.4684  0.1688
  760MPD2    C211224   3.747   1.546  11.758  0.3743 -0.2843  0.0541
  760MPD2    C311225   3.782   1.408  11.762  1.0451 -0.3183  0.4792
  760MPD2    C411226   3.723   1.331  11.855 -0.7533 -0.3790 -0.7288
  760MPD2    C511227   3.618   1.378  11.927  0.4260 -0.5835 -0.9468
  760MPD2     H11228   3.808   1.618  11.705  0.8304 -0.7474 -0.0548
  760MPD2    H111229   3.758   1.229  11.857 -1.5193 -0.6575 -1.6416
  760MPD2    H211230   3.476   1.520  11.965 -1.0353 -1.4118 -1.5342
  760MPD2    H311231   3.560   1.309  11.987 -0.1894 -1.2436 -2.2932
  760MPD2     N11232   3.884   1.351  11.683  0.3681 -0.3718 -0.7825
  760MPD2    H511233   3.915   1.257  11.707  0.5734 -0.0376  0.2446
  760MPD2    N111234   3.600   1.721  11.812 -0.1893 -0.3786 -0.3281
  760MPD2    H711235   3.654   1.779  11.749 -1.7577  0.8319 -0.5908
  761MPD2     C11236   0.003   1.166  11.183  0.7607  0.4057  0.4076
  761MPD2    C111237   0.046   1.085  11.079  0.5431  0.6105 -0.7348
  761MPD2    C211238   0.156   1.121  11.009  0.3264  0.6760 -0.6937
  761MPD2    C311239   0.219   1.246  11.027 -0.1864 -0.4112  0.7632
  761MPD2    C411240   0.168   1.334  11.115 -0.4766 -0.2815 -0.1959
  761MPD2    C511241   0.059   1.288  11.191  0.2010 -0.3542  0.3573
  761MPD2     H11242   0.192   1.060  10.927  0.9978  0.6894 -0.4085
  761MPD2    H111243   0.207   1.435  11.121 -0.7063 -0.2233  0.3071
  761MPD2    H211244   4.639   1.153  11.246 -0.9128  0.0653 -1.9763
  761MPD2    H311245   0.024   1.357  11.267 -1.8803 -1.8371  0.7420
  761MPD2     N11246   0.344   1.275  10.974  0.1475  0.2262 -0.0727
  761MPD2    H511247   0.392   1.352  11.018 -0.1678  0.2426  0.2382
  761MPD2    N111248   4.692   0.972  11.046  0.4748 -0.4160 -0.2633
  761MPD2    H711249   4.626   0.949  11.120  0.8626 -2.0306 -0.4201
  762MPD2     C11250   4.714   0.098  10.674  0.0109  0.0220 -0.3152
  762MPD2    C111251   0.003   0.228  10.636 -0.0654 -0.4033  0.4065
  762MPD2    C211252   0.067   0.256  10.517 -0.1198  0.2173 -0.8486
  762MPD2    C311253   0.119   0.156  10.430  0.1636  0.6351 -0.7338
  762MPD2    C411254   0.086   0.031  10.466  0.5155 -1.1276 -0.1539
  762MPD2    C511255   0.020   4.718  10.585  0.2026 -0.3058  0.0725
  762MPD2     H11256   0.092   0.360  10.501 -0.0751 -0.1136 -3.0354
  762MPD2    H111257   0.134   4.673  10.411  0.1960 -0.6454 -1.1590
  762MPD2    H211258   4.668   0.071  10.768  0.2723  0.0549 -0.1777
  762MPD2    H311259   0.006   4.615  10.613 -0.5656 -0.0011  0.8119
  762MPD2     N11260   0.201   0.182  10.315  0.4096  0.3359  0.5366
  762MPD2    H511261   0.228   0.100  10.263 -0.7628 -1.4087  2.6862
  762MPD2    N111262   4.681   0.325  10.730 -0.6946  1.1861  0.4627
  762MPD2    H711263   4.649   0.278  10.814 -1.3027 -0.0547 -0.4525
  763MPD2     C11264   2.240   0.564  16.033 -0.1700  0.2478 -0.4267
  763MPD2    C111265   2.137   0.646  15.991  0.5041 -0.4065 -0.6862
  763MPD2    C211266   2.133   0.778  16.047  0.0935 -0.4056 -0.4613
  763MPD2    C311267   2.230   0.825  16.127 -0.1976 -0.6273 -0.0547
  763MPD2    C411268   2.333   0.745  16.157  0.3232  0.4722 -0.5869
  763MPD2    C511269   2.343   0.620  16.107 -0.2274  0.2134 -0.5587
  763MPD2     H11270   2.048   0.837  16.017  0.1939  1.0644  2.0877
  763MPD2    H111271   2.407   0.784  16.226 -0.6873  1.5067 -0.1046
  763MPD2    H211272   2.251   0.458  16.013  2.3000  0.8176 -1.9633
  763MPD2    H311273   2.411   0.558  16.164  0.1104 -1.1815 -2.5046
  763MPD2     N11274   2.238   0.960  16.175 -0.8655  0.2741  0.0890
  763MPD2    H511275   2.332   0.981  16.207 -0.3336  0.3793 -1.5014
  763MPD2    N111276   2.030   0.588  15.913  0.1036  0.4151 -0.2786
  763MPD2    H711277   1.959   0.651  15.875 -0.4250 -0.1844 -0.2881
  764MPD2     C11278   0.447   2.490  17.591 -0.2976  0.3749 -0.2111
  764MPD2    C111279   0.332   2.452  17.528 -0.3077  0.3390  0.2503
  764MPD2    C211280   0.237   2.381  17.597  0.5610 -0.4052  0.2620
  764MPD2    C311281   0.268   2.333   0.027 -0.3161 -0.7157 -0.2896
  764MPD2    C411282   0.388   2.363   0.088  0.8615  0.0694  0.4429
  764MPD2    C511283   0.479   2.445   0.024 -0.7767 -0.6483  0.6361
  764MPD2     H11284   0.145   2.356  17.544 -0.0250  2.1348  0.0875
  764MPD2    H111285   0.416   2.325   0.186  0.4530  2.8381  1.6555
  764MPD2    H211286   0.524   2.555  17.551 -0.9755  1.0380 -0.4442
  764MPD2    H311287   0.582   2.457   0.058 -0.4649  1.0739 -0.9383
  764MPD2     N11288   0.166   2.255   0.088 -0.4498 -0.0324  0.6281
  764MPD2    H511289   0.093   2.212   0.032 -0.4848  0.6400  0.1553
  764MPD2    N111290   0.313   2.471  17.391 -0.1790  0.5371  0.5176
  764MPD2    H711291   0.219   2.455  17.355 -0.3357 -0.7532  1.4934
  765MPD2     C11292   4.603   0.018  15.713 -0.1147  0.0140  0.5849
  765MPD2    C111293   4.634   0.155  15.705  0.4000 -0.1018  0.1723
  765MPD2    C211294   0.043   0.195  15.674 -0.3973  0.5962  0.2447
  765MPD2    C311295   0.140   0.100  15.646 -1.3909 -1.0586 -0.1901
  765MPD2    C411296   0.106   4.692  15.656  0.2006 -0.1465 -0.3812
  765MPD2    C511297   4.707   4.650  15.692 -0.8623 -0.4039 -0.0911
  765MPD2     H11298   0.074   0.298  15.668  0.1034  0.5325  1.8237
  765MPD2    H111299   0.178   4.613  15.636  0.5073  0.3249 -1.1584
  765MPD2    H211300   4.503   4.704  15.735  0.7712 -2.2170  0.8772
  765MPD2    H311301   4.682   4.546  15.709  1.2613 -0.8931  0.0050
  765MPD2     N11302   0.264   0.148  15.608 -0.4162  0.1294  0.3300
  765MPD2    H511303   0.277   0.248  15.597  0.2356  0.1898  1.6236
  765MPD2    N111304   4.532   0.247  15.726 -0.0254 -0.3936  0.3383
  765MPD2    H711305   4.443   0.204  15.748 -1.4594  2.6362  0.5512
  766MPD2     C11306   4.022   0.283  15.285 -0.3163 -0.5037  0.2484
  766MPD2    C111307   4.132   0.358  15.308 -1.2708  1.0344  0.0329
  766MPD2    C211308   4.223   0.370  15.205 -0.1210 -0.1333 -0.4984
  766MPD2    C311309   4.194   0.323  15.083  0.4380 -0.3936 -0.0676
  766MPD2    C411310   4.083   0.245  15.060  0.0914  0.7163 -0.5599
  766MPD2    C511311   3.994   0.222  15.165 -0.2377  0.2291  0.1947
  766MPD2     H11312   4.304   0.440  15.226  0.1859 -0.9281  0.9471
  766MPD2    H111313   4.059   0.190  14.970 -1.7375 -0.7629  0.8280
  766MPD2    H211314   3.954   0.263  15.366 -0.0631  0.5482  0.7114
  766MPD2    H311315   3.911   0.154  15.149 -0.6431  0.9808 -0.9122
  766MPD2     N11316   4.276   0.341  14.969  0.4324 -0.1440 -0.2049
  766MPD2    H511317   4.238   0.312  14.880 -1.1194 -1.3335  0.8347
  766MPD2    N111318   4.166   0.420  15.429  0.0455 -0.8417 -0.0106
  766MPD2    H711319   4.255   0.469  15.430  0.4267 -1.5422  1.1540
  767MPD2     C11320   3.831   0.540  15.017 -0.4046  0.0891 -0.1418
  767MPD2    C111321   3.931   0.607  14.954 -1.0698 -0.7936 -0.2871
  767MPD2    C211322   3.960   0.576  14.826 -0.0257  0.3390  0.0159
  767MPD2    C311323   3.901   0.466  14.766  0.1338  0.3317  0.3355
  767MPD2    C411324   3.807   0.395  14.834  1.0294 -0.0343  0.0043
  767MPD2    C511325   3.765   0.437  14.955 -0.2643 -0.3811 -0.5005
  767MPD2     H11326   4.037   0.636  14.777 -0.9641 -0.3112 -2.2655
  767MPD2    H111327   3.773   0.301  14.793 -0.4570  0.8908 -0.8721
  767MPD2    H211328   3.803   0.571  15.117  2.0123  1.2312  0.1665
  767MPD2    H311329   3.680   0.385  14.998 -0.0113 -0.3431  0.0397
  767MPD2     N11330   3.942   0.428  14.634  0.6879 -0.1092  0.4006
  767MPD2    H511331   4.030   0.470  14.608  0.7809 -1.2375 -1.1357
  767MPD2    N111332   4.006   0.697  15.030  0.0824 -0.2017  0.1305
  767MPD2    H711333   3.986   0.706  15.129  1.6791 -0.4776  0.4731
  768MPD2     C11334   0.145   3.527  10.674 -0.3811  0.7895 -0.3338
  768MPD2    C111335   0.140   3.518  10.812 -0.0079  0.2651 -0.6563
  768MPD2    C211336   0.257   3.545  10.887  0.4755  0.5558  0.0228
  768MPD2    C311337   0.369   3.591  10.830 -0.0261  0.1170 -0.6946
  768MPD2    C411338   0.369   3.607  10.696 -0.6198  0.2283 -0.5426
  768MPD2    C511339   0.266   3.565  10.615 -0.5948  0.4923  0.3963
  768MPD2     H11340   0.251   3.554  10.994  1.8845  0.1158  0.1394
  768MPD2    H111341   0.463   3.637  10.650 -1.0846  0.5495 -1.2853
  768MPD2    H211342   0.060   3.515  10.608 -1.3286  1.3098  0.7973
  768MPD2    H311343   0.275   3.562  10.507 -0.2989 -2.2204  0.5135
  768MPD2     N11344   0.483   3.628  10.901 -0.5313  0.6318  0.3954
  768MPD2    H511345   0.550   3.685  10.850 -1.9900  1.5913 -0.4608
  768MPD2    N111346   0.022   3.495  10.884  0.1060 -0.3463  0.0157
  768MPD2    H711347   0.029   3.497  10.985  1.2727  3.0642 -0.1251
  769MPD2     C11348   1.165   2.007  14.829 -0.3347  0.3398 -1.1103
  769MPD2    C111349   1.087   1.939  14.919  0.5908  0.4823 -0.3970
  769MPD2    C211350   1.110   1.959  15.058  0.2994  0.0367 -0.1763
  769MPD2    C311351   1.201   2.044  15.103  0.4359 -0.2747  0.7953
  769MPD2    C411352   1.258   2.132  15.010 -0.9391  0.2908 -0.3429
  769MPD2    C511353   1.251   2.107  14.876 -0.1657  0.7281  0.0830
  769MPD2     H11354   1.063   1.892  15.129 -0.7851  0.5058 -0.4593
  769MPD2    H111355   1.326   2.210  15.043 -1.9794  0.8200  0.5759
  769MPD2    H211356   1.152   1.993  14.722  2.3380 -1.0860 -1.2388
  769MPD2    H311357   1.295   2.176  14.805 -1.6060  2.6822  1.0849
  769MPD2     N11358   1.221   2.057  15.241 -0.3524  0.3564 -0.0778
  769MPD2    H511359   1.165   2.007  15.309  1.0525  0.3683  1.0871
  769MPD2    N111360   0.989   1.846  14.871  0.4455 -0.6451  0.1219
  769MPD2    H711361   1.004   1.818  14.774 -0.9131  0.9598 -0.5436
  770MPD2     C11362   0.275   1.004  14.991  0.2895  0.7576  0.9820
  770MPD2    C111363   0.392   0.973  14.915  0.3029  0.2865 -0.3790
  770MPD2    C211364   0.479   1.081  14.904  0.1679  0.4641 -0.0586
  770MPD2    C311365   0.462   1.207  14.955  0.0082  0.3536 -0.2818
  770MPD2    C411366   0.343   1.233  15.026 -0.2132 -0.2765  0.5801
  770MPD2    C511367   0.252   1.130  15.045  1.0416 -0.5124  0.9101
  770MPD2     H11368   0.564   1.075  14.836  0.6327  2.0042  0.3906
  770MPD2    H111369   0.313   1.335  15.048  1.9763  1.3027 -3.8264
  770MPD2    H211370   0.206   0.924  15.015  2.2120 -1.6745 -1.6185
  770MPD2    H311371   0.162   1.153  15.102 -0.0509  1.1457 -1.4997
  770MPD2     N11372   0.560   1.306  14.911  0.3665  0.4190  0.0838
  770MPD2    H511373   0.618   1.282  14.831  0.1565  0.6443 -0.1371
  770MPD2    N111374   0.427   0.843  14.865  0.2385 -0.0760 -0.4694
  770MPD2    H711375   0.521   0.834  14.829  0.1055 -1.0088 -0.5630
  771MPD2     C11376   2.033   4.471  13.730  0.4243  0.1580  0.2947
  771MPD2    C111377   1.944   4.564  13.675  0.3050  0.6522 -0.5874
  771MPD2    C211378   1.820   4.515  13.638 -0.1216 -0.0943 -0.5120
  771MPD2    C311379   1.784   4.381  13.635  0.3372  0.2256 -0.1963
  771MPD2    C411380   1.880   4.295  13.674  1.2173  0.5170  0.0741
  771MPD2    C511381   1.999   4.338  13.726  0.0841  0.7047 -0.4455
  771MPD2     H11382   1.752   4.589  13.599 -1.3110 -1.5213 -1.1727
  771MPD2    H111383   1.859   4.188  13.670  0.8514  0.6289 -1.1539
  771MPD2    H211384   2.137   4.501  13.737 -0.1552  2.3067 -0.1595
  771MPD2    H311385   2.080   4.270  13.748  0.1727  1.3222  1.1234
  771MPD2     N11386   1.668   4.348  13.558 -0.5546  0.1649 -0.4282
  771MPD2    H511387   1.594   4.416  13.542 -1.3438 -0.3948  0.8189
  771MPD2    N111388   1.969   4.701  13.664  0.5574 -0.2121 -0.2009
  771MPD2    H711389   1.887   0.030  13.631 -0.1853 -2.0365 -1.1802
  772MPD2     C11390   1.557   0.411  13.454 -0.1576 -0.0429  0.4207
  772MPD2    C111391   1.601   0.437  13.580  0.3864  0.3843  0.5837
  772MPD2    C211392   1.517   0.462  13.687  0.1894  0.8844 -0.0199
  772MPD2    C311393   1.381   0.471  13.667 -0.1352 -0.3224  0.3098
  772MPD2    C411394   1.340   0.455  13.540 -0.0735  0.1787 -0.7036
  772MPD2    C511395   1.419   0.431  13.434  0.1722  0.2472 -0.3168
  772MPD2     H11396   1.563   0.467  13.785  0.0700 -1.0688  0.1429
  772MPD2    H111397   1.232   0.465  13.528 -0.0854  0.4475 -0.3879
  772MPD2    H211398   1.627   0.392  13.373 -0.1922  1.6757 -0.0221
  772MPD2    H311399   1.378   0.421  13.334  0.4315  0.0208 -0.4005
  772MPD2     N11400   1.285   0.486  13.770  0.0523 -0.1469 -0.0602
  772MPD2    H511401   1.189   0.501  13.739 -0.3924 -1.0497  0.8828
  772MPD2    N111402   1.738   0.417  13.612 -0.2506 -0.2498 -0.2224
  772MPD2    H711403   1.767   0.397  13.707  1.2315 -0.0062 -0.6157
  773MPD2     C11404   0.481   1.305   0.151  0.5860  0.2180 -0.4840
  773MPD2    C111405   0.446   1.178   0.109  0.4617  0.2237  0.5976
  773MPD2    C211406   0.504   1.075   0.181  0.0534 -0.5398  0.8886
  773MPD2    C311407   0.602   1.095   0.276  0.1231  0.0264 -0.4923
  773MPD2    C411408   0.639   1.224   0.313 -0.1236 -0.4104 -0.5451
  773MPD2    C511409   0.577   1.328   0.250 -0.4709 -0.2556 -0.3221
  773MPD2     H11410   0.464   0.976   0.163 -2.1827  1.0295 -2.5854
  773MPD2    H111411   0.731   1.238   0.370 -1.1828 -1.2491  1.3295
  773MPD2    H211412   0.450   1.394   0.098  4.0122  1.1270 -0.9895
  773MPD2    H311413   0.622   1.427   0.253 -1.2249  0.0937 -0.6354
  773MPD2     N11414   0.667   0.982   0.325 -0.4912 -0.1121  0.2832
  773MPD2    H511415   0.631   0.897   0.283 -1.6018  1.2368 -1.4854
  773MPD2    N111416   0.342   1.136   0.019  0.0847  0.0527  0.6099
  773MPD2    H711417   0.314   1.038   0.022 -0.8436  0.3848  2.7762
  774MPD2     C11418   4.608   0.802  13.458  0.3635  1.1562 -0.0720
  774MPD2    C111419   4.669   0.838  13.576 -0.1775 -0.8837  0.2138
  774MPD2    C211420   0.052   0.930  13.570  0.8291  0.5266 -0.0545
  774MPD2    C311421   0.084   0.992  13.455  0.3618  0.3352  0.3679
  774MPD2    C411422   0.026   0.955  13.338 -0.0358 -0.2955 -0.1535
  774MPD2    C511423   4.657   0.854  13.337 -0.1556  0.2032  0.2047
  774MPD2     H11424   0.097   0.974  13.659 -1.1629  0.5439  0.9423
  774MPD2    H111425   0.047   1.002  13.243 -0.5601  1.7187  0.7389
  774MPD2    H211426   4.532   0.725  13.449  1.0691  0.1532  2.4123
  774MPD2    H311427   4.621   0.832  13.237  0.6136 -0.9634  0.1943
  774MPD2     N11428   0.177   1.102  13.461  0.6158 -0.0940 -0.3145
  774MPD2    H511429   0.210   1.119  13.556 -0.9086  1.4474 -0.0512
  774MPD2    N111430   4.632   0.767  13.697 -0.4686  0.0022  0.4643
  774MPD2    H711431   4.565   0.692  13.682 -2.7586  2.2916 -1.0301
  775MPD2     C11432   1.377   1.822  15.800 -0.1111  0.7195 -0.2961
  775MPD2    C111433   1.425   1.916  15.884 -0.2933  0.7414 -0.1754
  775MPD2    C211434   1.562   1.949  15.866  0.3964 -0.1075  0.1456
  775MPD2    C311435   1.635   1.899  15.761 -0.0003  0.1335 -0.1879
  775MPD2    C411436   1.571   1.816  15.671  0.5395  0.0114 -0.0425
  775MPD2    C511437   1.448   1.772  15.697 -0.0390 -0.2481 -0.3498
  775MPD2     H11438   1.603   2.022  15.935  0.7548  0.0330 -0.2134
  775MPD2    H111439   1.620   1.781  15.581  1.0332  0.7879 -0.0775
  775MPD2    H211440   1.276   1.783  15.808  0.3126 -0.0722  1.1396
  775MPD2    H311441   1.402   1.700  15.630 -2.5328  0.5807  0.4544
  775MPD2     N11442   1.759   1.952  15.730  0.0910  0.0693 -0.2313
  775MPD2    H511443   1.795   1.914  15.643  0.2186  1.6768 -0.8765
  775MPD2    N111444   1.340   1.968  15.987 -0.0939  0.3399  0.3358
  775MPD2    H711445   1.253   1.922  16.012  0.1294 -0.2358  0.0557
  776MPD2     C11446   1.231   2.215  11.953  0.1938 -0.1074 -0.1411
  776MPD2    C111447   1.283   2.136  11.844  0.7660 -0.3659  0.9677
  776MPD2    C211448   1.364   2.192  11.750  0.4182 -0.5748  0.6450
  776MPD2    C311449   1.411   2.325  11.763  0.1297 -0.1061  0.3566
  776MPD2    C411450   1.372   2.397  11.876  0.4436 -0.1550  0.3642
  776MPD2    C511451   1.285   2.338  11.968  1.0137  0.1931 -0.2401
  776MPD2     H11452   1.384   2.127  11.666  2.1493 -0.6175  1.0884
  776MPD2    H111453   1.409   2.495  11.903  0.9444 -0.1791 -0.2306
  776MPD2    H211454   1.150   2.182  12.017  1.3630 -0.0523  1.3544
  776MPD2    H311455   1.248   2.391  12.055 -1.7690  0.5612 -1.6793
  776MPD2     N11456   1.503   2.381  11.675 -0.0250 -0.3169  0.0610
  776MPD2    H511457   1.558   2.461  11.705  0.6773 -0.8570  0.2175
  776MPD2    N111458   1.248   1.999  11.832 -0.1556  0.5983  0.6357
  776MPD2    H711459   1.179   1.961  11.895  1.3931 -0.0937  1.9281
  777MPD2     C11460   1.344   0.103   0.587 -0.3702  0.0542 -0.1388
  777MPD2    C111461   1.244   0.088   0.674 -0.3987  0.5920 -0.2491
  777MPD2    C211462   1.148   4.711   0.647  0.2038 -0.9947 -0.0629
  777MPD2    C311463   1.155   4.635   0.529 -1.0536 -0.0565  0.0205
  777MPD2    C411464   1.261   4.657   0.448  0.1704 -0.0472  0.5725
  777MPD2    C511465   1.350   0.025   0.475 -0.2385  0.1989  0.0987
  777MPD2     H11466   1.061   4.706   0.711  1.9294 -1.4216  2.2284
  777MPD2    H111467   1.271   4.601   0.356  0.7461 -1.6931  1.6313
  777MPD2    H211468   1.417   0.180   0.607  2.4375 -2.4528 -0.7037
  777MPD2    H311469   1.428   0.059   0.408 -1.0743 -0.5306 -1.2149
  777MPD2     N11470   1.049   4.542   0.507 -0.1811  0.3706  0.9836
  777MPD2    H511471   0.970   4.538   0.571  0.8381 -1.7668  2.0924
  777MPD2    N111472   1.237   0.177   0.783  0.6960 -0.3142  0.4660
  777MPD2    H711473   1.323   0.228   0.802  0.8761 -0.6849  0.6383
  778MPD2     C11474   2.379   4.533  14.644 -0.4972 -0.1285 -1.3445
  778MPD2    C111475   2.379   4.464  14.759 -0.7186  0.8094 -0.8223
  778MPD2    C211476   2.491   4.469  14.837 -0.5777  0.2022 -0.1276
  778MPD2    C311477   2.608   4.528  14.796  1.1577 -1.2046  0.1453
  778MPD2    C411478   2.609   4.606  14.681 -0.0339  0.1116 -1.2171
  778MPD2    C511479   2.493   4.602  14.603 -0.3549 -0.7929 -0.0488
  778MPD2     H11480   2.485   4.414  14.930  2.5476 -1.7694 -1.0680
  778MPD2    H111481   2.697   4.659  14.647 -1.8832  2.1276 -2.8384
  778MPD2    H211482   2.294   4.542  14.577 -1.7233  1.0026  0.3628
  778MPD2    H311483   2.494   4.663  14.514 -1.0143 -1.4567 -0.5162
  778MPD2     N11484   2.732   4.531  14.852 -0.4530  0.9580 -0.2062
  778MPD2    H511485   2.816   4.554  14.800 -1.1664  0.1856 -1.6794
  778MPD2    N111486   2.273   4.387  14.810  0.8198  0.7330 -0.2959
  778MPD2    H711487   2.289   4.347  14.902 -0.7102  1.0295  0.1122
  779MPD2     C11488   1.392   3.251  14.554  0.0983 -0.8315  0.8570
  779MPD2    C111489   1.482   3.230  14.448  0.4286  0.1912  0.4322
  779MPD2    C211490   1.484   3.317  14.334 -0.4797  0.2560  0.1427
  779MPD2    C311491   1.413   3.434  14.338 -0.1127 -0.1552  0.1322
  779MPD2    C411492   1.323   3.458  14.443 -0.5273 -0.2845  0.7617
  779MPD2    C511493   1.309   3.363  14.547 -0.0825 -0.0492 -0.4139
  779MPD2     H11494   1.543   3.296  14.245  1.6820 -0.5191  1.7478
  779MPD2    H111495   1.264   3.549  14.446  0.7677  0.5434  1.0164
  779MPD2    H211496   1.386   3.185  14.639  0.5619  0.1889  1.6821
  779MPD2    H311497   1.231   3.374  14.621  0.1411 -1.8952  0.0872
  779MPD2     N11498   1.442   3.526  14.234  0.7126 -0.1712  0.5810
  779MPD2    H511499   1.520   3.514  14.171 -0.0289  2.6202 -0.8667
  779MPD2    N111500   1.569   3.119  14.449 -0.1496 -0.2915  0.2826
  779MPD2    H711501   1.613   3.099  14.360  0.2939  0.6856  0.2798
  780MPD2     C11502   0.256   3.018  17.560  0.3402  0.3525  0.4111
  780MPD2    C111503   0.348   3.012  17.664  0.7285 -0.2145 -0.2309
  780MPD2    C211504   0.453   3.100  17.671 -0.4667 -0.4160 -0.2452
  780MPD2    C311505   0.475   3.193  17.571  0.1392 -0.6462 -0.1429
  780MPD2    C411506   0.384   3.200  17.472 -0.7060  0.3487 -0.4128
  780MPD2    C511507   0.283   3.110  17.459 -0.2632  0.9181  0.2925
  780MPD2     H11508   0.530   3.086   0.052  1.8370  0.4729 -2.4513
  780MPD2    H111509   0.389   3.276  17.394 -1.6207 -0.3042 -1.1126
  780MPD2    H211510   0.169   2.956  17.540 -0.1530  1.4166 -0.7514
  780MPD2    H311511   0.211   3.124  17.380 -1.1404  1.0434  1.1182
  780MPD2     N11512   0.597   3.269  17.564  0.5640  0.2218 -0.3068
  780MPD2    H511513   0.675   3.233  17.617 -0.1414  2.1108  2.0032
  780MPD2    N111514   0.326   2.913   0.066 -0.4892 -0.1839 -0.3451
  780MPD2    H711515   0.239   2.861   0.060 -1.2615  0.8092  2.2598
  781MPD2     C11516   3.757   0.480  12.135 -0.1852  0.1240  0.2959
  781MPD2    C111517   3.664   0.382  12.129 -0.1598  0.1360  0.1680
  781MPD2    C211518   3.653   0.299  12.014 -1.0720  0.2392 -0.5462
  781MPD2    C311519   3.734   0.325  11.904 -0.4307  0.5894 -0.0112
  781MPD2    C411520   3.818   0.435  11.912  0.1293  0.2817  0.9614
  781MPD2    C511521   3.833   0.505  12.027 -0.5460 -0.0508  0.3999
  781MPD2     H11522   3.589   0.213  12.004  0.1053 -0.6034 -0.8757
  781MPD2    H111523   3.872   0.465  11.823 -2.2618  0.6095 -0.3920
  781MPD2    H211524   3.773   0.547  12.219  1.6257  1.1917 -0.8913
  781MPD2    H311525   3.897   0.592  12.037 -1.4261  0.8512 -1.8449
  781MPD2     N11526   3.729   0.246  11.785 -0.0937  0.1509  0.2394
  781MPD2    H511527   3.780   0.290  11.709 -0.0695  0.3888  0.3950
  781MPD2    N111528   3.577   0.382  12.239 -0.2454  0.0013 -0.2188
  781MPD2    H711529   3.587   0.460  12.302 -0.7373 -0.7996  0.8437
  782MPD2     C11530   0.885   1.639   9.952  0.0648 -0.3331 -0.4395
  782MPD2    C111531   1.021   1.623   9.971  0.5678 -1.1292  0.5106
  782MPD2    C211532   1.078   1.708  10.056  0.4066  0.5754 -0.2737
  782MPD2    C311533   1.005   1.792  10.140 -0.1666 -0.5053 -0.0816
  782MPD2    C411534   0.872   1.810  10.123  0.2553  0.0551  0.2421
  782MPD2    C511535   0.814   1.731  10.025  0.2609 -0.2128  0.1215
  782MPD2     H11536   1.184   1.707  10.079  0.6147 -0.1634 -1.2832
  782MPD2    H111537   0.806   1.868  10.187  0.5810  1.3255 -0.5734
  782MPD2    H211538   0.827   1.580   9.882 -1.7156  2.4598 -1.3140
  782MPD2    H311539   0.706   1.732  10.012  0.3565  0.1402 -0.6226
  782MPD2     N11540   1.080   1.861  10.242 -0.6941  1.0776 -0.0197
  782MPD2    H511541   1.179   1.838  10.245 -1.0144 -0.1295  1.1180
  782MPD2    N111542   1.096   1.527   9.895 -0.2220  0.1829  0.0089
  782MPD2    H711543   1.048   1.469   9.827 -0.4024 -1.6864  1.7115
  783MPD2     C11544   0.753   0.965  10.380  0.0070  0.2564 -0.0562
  783MPD2    C111545   0.803   1.089  10.414 -0.1774  0.4528 -0.8402
  783MPD2    C211546   0.906   1.136  10.330 -0.5465 -0.2631 -0.2529
  783MPD2    C311547   0.945   1.058  10.218 -0.3400  0.6162 -0.2729
  783MPD2    C411548   0.898   0.934  10.205 -0.0107  0.2535 -0.3463
  783MPD2    C511549   0.802   0.883  10.281  0.0366 -0.3299  0.0579
  783MPD2     H11550   0.941   1.238  10.342 -0.7006 -0.4605  2.0038
  783MPD2    H111551   0.933   0.870  10.124  0.0043  0.3757 -0.4368
  783MPD2    H211552   0.669   0.941  10.445 -0.3235  2.2872  0.2833
  783MPD2    H311553   0.754   0.788  10.261 -0.4188 -0.2909  0.9387
  783MPD2     N11554   1.032   1.127  10.130 -0.5032 -0.2578 -0.1522
  783MPD2    H511555   1.042   1.228  10.135 -0.3694 -0.2471 -0.7072
  783MPD2    N111556   0.743   1.165  10.524  0.0344 -0.9085 -0.3615
  783MPD2    H711557   0.663   1.115  10.562  1.5472 -1.6858  1.7750
  784MPD2     C11558   3.622   1.701   1.009 -0.3119 -0.3499  0.4379
  784MPD2    C111559   3.543   1.639   1.106 -0.2628 -0.1809  0.0878
  784MPD2    C211560   3.407   1.635   1.079  0.1331  0.4703  0.3876
  784MPD2    C311561   3.356   1.681   0.961 -0.5644  0.2306  1.0371
  784MPD2    C411562   3.432   1.737   0.865 -0.0547  0.1357 -0.3694
  784MPD2    C511563   3.573   1.735   0.882  0.1132 -0.2669  0.0805
  784MPD2     H11564   3.340   1.598   1.157  0.1753  3.8998  2.0467
  784MPD2    H111565   3.397   1.782   0.773  0.2465  0.9018 -0.1142
  784MPD2    H211566   3.725   1.722   1.033  0.0148 -1.0191 -0.3804
  784MPD2    H311567   3.642   1.768   0.804  1.4446 -1.5123  0.7391
  784MPD2     N11568   3.216   1.673   0.955 -0.0340  0.1239 -0.1163
  784MPD2    H511569   3.182   1.600   1.017  0.6100 -1.2073 -1.3308
  784MPD2    N111570   3.587   1.589   1.234 -0.2840 -0.4784 -0.5775
  784MPD2    H711571   3.522   1.546   1.299  1.1962  0.7010  1.6852
  785MPD2     C11572   3.209   4.114  10.489 -0.2388  0.2277  0.0374
  785MPD2    C111573   3.324   4.144  10.568  0.6361  0.5922  0.4898
  785MPD2    C211574   3.318   4.209  10.693 -0.2706  0.5974 -0.2535
  785MPD2    C311575   3.192   4.237  10.737  0.2376 -0.4361  0.4250
  785MPD2    C411576   3.077   4.203  10.663 -0.2127 -0.4251 -0.7087
  785MPD2    C511577   3.087   4.142  10.541 -0.8340  0.0193 -0.1099
  785MPD2     H11578   3.396   4.235  10.763  1.0482 -1.7036 -0.8605
  785MPD2    H111579   2.978   4.237  10.691 -0.8685 -1.4788 -1.7282
  785MPD2    H211580   3.212   4.072  10.389  0.9065 -1.4007  0.7615
  785MPD2    H311581   2.998   4.113  10.487 -0.7945 -0.8036  0.2750
  785MPD2     N11582   3.189   4.295  10.870 -0.0084 -0.1895  0.1225
  785MPD2    H511583   3.261   4.277  10.939  0.4618  1.6898  0.1041
  785MPD2    N111584   3.452   4.104  10.519 -0.2458 -0.5400  0.3943
  785MPD2    H711585   3.460   4.065  10.426 -0.4842 -0.3172  0.2822
  786MPD2     C11586   1.831   2.651  14.744  0.6082  0.1116  1.1426
  786MPD2    C111587   1.963   2.609  14.748 -0.5267  0.2357  0.3458
  786MPD2    C211588   2.043   2.648  14.848  0.4335 -0.5870 -0.2590
  786MPD2    C311589   1.990   2.712  14.955  0.1892 -0.4760 -0.0697
  786MPD2    C411590   1.859   2.758  14.952 -0.1218  0.7569 -0.0151
  786MPD2    C511591   1.777   2.724  14.849  0.4178 -0.6470  0.2566
  786MPD2     H11592   2.146   2.612  14.852 -0.1321 -2.0806  1.3383
  786MPD2    H111593   1.818   2.803  15.042 -3.3657 -0.0944 -1.0322
  786MPD2    H211594   1.763   2.604  14.675  0.1498  0.7852  1.1335
  786MPD2    H311595   1.671   2.747  14.853  0.3518 -0.5549 -2.0403
  786MPD2     N11596   2.061   2.757  15.065 -0.5994  0.0579  0.6417
  786MPD2    H511597   2.020   2.798  15.148 -0.7786  0.4137  0.3806
  786MPD2    N111598   2.017   2.510  14.656  0.0813 -0.3299  0.3870
  786MPD2    H711599   2.115   2.486  14.670  0.3796 -0.5575 -2.1247
  787MPD2     C11600   2.418   2.082  14.834  0.0112  0.6553  0.0100
  787MPD2    C111601   2.418   2.058  14.704  0.6537  0.3568  0.0625
  787MPD2    C211602   2.508   1.961  14.650 -0.3380 -0.5910  0.3056
  787MPD2    C311603   2.594   1.899  14.742 -0.0900 -0.6546  0.3221
  787MPD2    C411604   2.589   1.927  14.880  0.6833  0.5070  0.4588
  787MPD2    C511605   2.493   2.006  14.920 -0.2890  0.0388  0.3046
  787MPD2     H11606   2.525   1.951  14.544  0.9853  1.7779  0.3068
  787MPD2    H111607   2.658   1.888  14.955  2.1277  1.3823 -0.4099
  787MPD2    H211608   2.362   2.161  14.881 -1.4062  0.1520 -0.8406
  787MPD2    H311609   2.490   2.036  15.024  2.9770 -1.1462  0.7600
  787MPD2     N11610   2.692   1.813  14.696  0.4831 -0.9336 -0.0979
  787MPD2    H511611   2.713   1.813  14.597 -0.0657 -0.0894 -0.2143
  787MPD2    N111612   2.339   2.145  14.624  0.6884 -0.4252  0.5908
  787MPD2    H711613   2.283   2.205  14.684  0.7429 -0.3445  0.5603
  788MPD2     C11614   3.786   0.861   1.293  0.0647  0.2500 -0.2603
  788MPD2    C111615   3.720   0.764   1.213 -0.0559 -0.3379 -0.6922
  788MPD2    C211616   3.775   0.738   1.091 -0.2642 -0.8900  0.0962
  788MPD2    C311617   3.899   0.787   1.053  0.0734  0.0561 -0.0381
  788MPD2    C411618   3.958   0.883   1.124 -0.4948 -0.1807 -0.3974
  788MPD2    C511619   3.899   0.920   1.243 -0.0893  0.1949 -0.6224
  788MPD2     H11620   3.723   0.664   1.030  1.0996 -2.7967  1.2339
  788MPD2    H111621   4.042   0.941   1.088  1.1121 -2.5367 -0.4401
  788MPD2    H211622   3.757   0.893   1.393 -1.2489  2.1529 -1.2457
  788MPD2    H311623   3.940   0.996   1.308  0.7642  0.7949 -1.8568
  788MPD2     N11624   3.959   0.750   0.932  0.2800  0.2520 -0.0948
  788MPD2    H511625   4.050   0.788   0.906  0.6040  0.7685  1.8479
  788MPD2    N111626   3.599   0.698   1.248 -0.6022 -0.0162 -0.1106
  788MPD2    H711627   3.553   0.645   1.175  2.0394 -1.3986 -0.7482
  789MPD2     C11628   4.516   0.800  16.040  0.4251 -0.6809 -0.3095
  789MPD2    C111629   4.469   0.704  16.123  0.3452  0.6148  0.8132
  789MPD2    C211630   4.369   0.751  16.217 -0.3812 -0.1405 -0.1234
  789MPD2    C311631   4.317   0.885  16.216  0.1224 -0.5922 -0.5761
  789MPD2    C411632   4.366   0.969  16.121  0.2298 -0.3379  0.3146
  789MPD2    C511633   4.466   0.923  16.038  0.1591 -0.3362  0.2255
  789MPD2     H11634   4.315   0.678  16.277  2.5733 -2.2961 -0.0726
  789MPD2    H111635   4.335   1.073  16.115 -0.8530 -0.6436  0.5471
  789MPD2    H211636   4.599   0.783  15.972  0.6502 -2.7333  0.4803
  789MPD2    H311637   4.510   1.006  15.983 -0.2392  1.4771  2.6627
  789MPD2     N11638   4.203   0.923  16.290  0.2128  1.0965 -0.5315
  789MPD2    H511639   4.157   1.013  16.281 -0.3866  0.9065  0.6743
  789MPD2    N111640   4.517   0.568  16.130  0.7067  0.0202 -0.5489
  789MPD2    H711641   4.483   0.514  16.209  0.9063  1.0583  0.2381
  790MPD2     C11642   0.861   2.513  13.375  0.4704  0.8919 -0.7686
  790MPD2    C111643   0.832   2.384  13.412  0.2154  0.6880  0.0173
  790MPD2    C211644   0.753   2.314  13.325 -0.0744  0.6492  0.8461
  790MPD2    C311645   0.718   2.360  13.201  0.4929 -0.4801 -0.3329
  790MPD2    C411646   0.741   2.492  13.173  0.4604  0.2832 -0.0928
  790MPD2    C511647   0.813   2.570  13.261 -0.2198 -0.0473  0.5794
  790MPD2     H11648   0.725   2.212  13.350 -1.4069  1.3660  2.2039
  790MPD2    H111649   0.707   2.529  13.077  0.8178  0.4963 -0.1374
  790MPD2    H211650   0.915   2.579  13.443  0.1946 -1.3614  1.6515
  790MPD2    H311651   0.827   2.668  13.217 -0.2332 -0.4045 -0.2255
  790MPD2     N11652   0.677   2.281  13.097  0.1148  0.2583  0.9261
  790MPD2    H511653   0.690   2.304  12.999 -0.1085 -1.9200  0.3866
  790MPD2    N111654   0.887   2.322  13.523 -0.1362  0.2644 -0.1813
  790MPD2    H711655   0.886   2.221  13.528 -1.1679  0.2196 -1.4663
  791MPD2     C11656   4.722   2.337  12.861  0.3743  1.0934 -0.2620
  791MPD2    C111657   0.038   2.217  12.808  0.1315  0.1783 -0.1301
  791MPD2    C211658   4.671   2.144  12.750 -0.5351  0.0665 -0.2369
  791MPD2    C311659   4.540   2.185  12.723  0.8770 -0.6397  0.4501
  791MPD2    C411660   4.500   2.303  12.782  0.4362  0.4665 -0.1847
  791MPD2    C511661   4.591   2.383  12.847  0.2620 -0.2795  0.5273
  791MPD2     H11662   4.703   2.043  12.725 -1.0540 -0.7166  2.1867
  791MPD2    H111663   4.403   2.351  12.771 -0.3930 -0.6302  2.3491
  791MPD2    H211664   0.076   2.397  12.909 -0.9007  0.3867  2.6681
  791MPD2    H311665   4.559   2.482  12.878 -0.9449 -0.4088 -0.3303
  791MPD2     N11666   4.446   2.116  12.652  0.9722 -0.8648 -0.6764
  791MPD2    H511667   4.348   2.143  12.656  1.5077  0.8552  1.0257
  791MPD2    N111668   0.170   2.179  12.826 -0.4647  0.3911 -0.3861
  791MPD2    H711669   0.226   2.252  12.869  2.2631 -1.5086 -0.7081
  792MPD2     C11670   0.912   2.232  11.202  0.7551 -0.0115 -0.4845
  792MPD2    C111671   0.851   2.261  11.089  0.7649 -0.4585  0.2113
  792MPD2    C211672   0.738   2.197  11.055 -0.2144  0.2502  0.0540
  792MPD2    C311673   0.688   2.095  11.134 -0.1616  0.6495  0.7343
  792MPD2    C411674   0.758   2.057  11.249 -0.2852 -0.3312 -0.4428
  792MPD2    C511675   0.871   2.128  11.279 -0.4383 -0.4930 -0.1792
  792MPD2     H11676   0.688   2.223  10.962  1.1601 -2.6106 -1.5083
  792MPD2    H111677   0.736   1.969  11.308  1.4807 -0.0506  0.6300
  792MPD2    H211678   0.999   2.291  11.225 -0.0273  0.3720  1.5151
  792MPD2    H311679   0.929   2.092  11.364 -1.8041 -0.6271  0.6905
  792MPD2     N11680   0.572   2.024  11.106 -0.4164 -0.1933  0.2353
  792MPD2    H511681   0.555   1.937  11.156 -0.8412  0.6201  1.5130
  792MPD2    N111682   0.905   2.373  11.016  0.5876 -0.7269 -0.5115
  792MPD2    H711683   0.973   2.432  11.062 -1.8315  1.1950  0.6293
  793MPD2     C11684   0.173   2.155  10.337 -0.9786 -0.0845 -0.3046
  793MPD2    C111685   0.302   2.150  10.388 -0.5973 -0.4320  0.5060
  793MPD2    C211686   0.319   2.092  10.516  0.1245 -0.2377  0.2266
  793MPD2    C311687   0.216   2.026  10.574  0.4539 -0.1514  0.6201
  793MPD2    C411688   0.094   2.024  10.513 -0.7753  0.2688  0.6466
  793MPD2    C511689   0.074   2.090  10.394 -0.4071  0.3608  0.1767
  793MPD2     H11690   0.419   2.081  10.556 -0.5472 -0.9336  1.7205
  793MPD2    H111691   0.005   1.971  10.547 -0.1658 -0.1273  1.6115
  793MPD2    H211692   0.144   2.191  10.239  0.7838 -0.9342 -1.1327
  793MPD2    H311693   4.703   2.075  10.342 -0.0135  1.4078 -0.8171
  793MPD2     N11694   0.240   1.964  10.698  0.5119 -0.0451 -0.4434
  793MPD2    H511695   0.337   1.973  10.730 -0.0699 -1.2338  1.7033
  793MPD2    N111696   0.422   2.203  10.321  0.4956 -0.3696 -0.1822
  793MPD2    H711697   0.510   2.197  10.371  1.7707 -0.8408 -2.4854
  794MPD2     C11698   0.203   1.153  16.938 -0.6549 -0.0537 -0.3924
  794MPD2    C111699   0.129   1.228  17.030  0.0386 -0.2145  0.2596
  794MPD2    C211700   0.075   1.348  16.987  0.7997  0.4164 -0.2977
  794MPD2    C311701   0.081   1.392  16.853  0.6876  0.0528  0.6105
  794MPD2    C411702   0.165   1.326  16.770  0.7001  0.3863  0.5641
  794MPD2    C511703   0.223   1.209  16.812 -0.1161 -0.3785 -0.0808
  794MPD2     H11704   4.718   1.393  17.046  0.7124  2.2606 -1.8137
  794MPD2    H111705   0.185   1.359  16.669 -1.6680  0.7870  0.2424
  794MPD2    H211706   0.249   1.056  16.953  0.6371  0.7530  0.8848
  794MPD2    H311707   0.292   1.157  16.747  1.8275  0.0852  1.5875
  794MPD2     N11708   4.717   1.488  16.798  0.1575  0.2763  0.6381
  794MPD2    H511709   0.022   1.514  16.703  1.0016 -2.4623  0.1213
  794MPD2    N111710   0.101   1.196  17.164  0.0346 -0.3171  0.1712
  794MPD2    H711711   0.044   1.260  17.217 -0.4828 -1.4480  0.9891
  795MPD2     C11712   2.832   3.680  13.455 -0.4900 -0.0006 -0.8739
  795MPD2    C111713   2.797   3.600  13.560 -0.9285 -0.6346  0.3151
  795MPD2    C211714   2.894   3.536  13.635 -0.0582 -0.7881  0.5310
  795MPD2    C311715   3.030   3.556  13.610 -0.7449 -0.4785  0.1335
  795MPD2    C411716   3.068   3.621  13.497  0.9089 -0.5620  0.9276
  795MPD2    C511717   2.969   3.688  13.425  0.9639  0.1071 -0.1162
  795MPD2     H11718   2.869   3.465  13.714  2.7229 -3.3254 -0.8584
  795MPD2    H111719   3.172   3.622  13.465  0.3059 -1.2700 -1.0679
  795MPD2    H211720   2.755   3.736  13.403  2.1678  2.3389 -2.3443
  795MPD2    H311721   2.984   3.743  13.333  0.2620 -1.0646 -0.9301
  795MPD2     N11722   3.123   3.482  13.691  0.4521  0.4374 -0.2917
  795MPD2    H511723   3.086   3.422  13.764  0.7032  1.0337  0.3238
  795MPD2    N111724   2.657   3.598  13.585 -0.2645 -0.5135 -0.1072
  795MPD2    H711725   2.601   3.662  13.530  2.1594  2.7417  1.2138
  796MPD2     C11726   2.282   0.407  15.604  0.2463 -0.0451  0.5377
  796MPD2    C111727   2.364   0.482  15.688  0.4345 -0.3182  0.3483
  796MPD2    C211728   2.342   0.617  15.701 -0.0425  1.0542  0.1664
  796MPD2    C311729   2.240   0.678  15.639  0.4937 -0.8329 -0.7106
  796MPD2    C411730   2.151   0.604  15.557 -0.1047 -0.6576  0.0329
  796MPD2    C511731   2.183   0.474  15.542 -0.1534 -0.9521  0.5791
  796MPD2     H11732   2.418   0.673  15.754  1.7799 -1.8010  0.5637
  796MPD2    H111733   2.068   0.652  15.507 -0.3470  2.2721  3.2413
  796MPD2    H211734   2.300   0.301  15.585 -0.7942  0.1710 -1.6123
  796MPD2    H311735   2.123   0.421  15.469  0.0393 -2.4542  1.5108
  796MPD2     N11736   2.220   0.817  15.655 -0.2208 -0.1133 -0.0773
  796MPD2    H511737   2.297   0.864  15.702  0.2007  0.9263 -1.8201
  796MPD2    N111738   2.461   0.406  15.760  0.4886 -0.2432  0.3594
  796MPD2    H711739   2.434   0.309  15.776 -0.7882 -0.2071 -1.5382
  797MPD2     C11740   3.173   0.030  17.341  0.3548 -0.1297  0.2439
  797MPD2    C111741   3.232   0.155  17.372 -0.0452 -0.5012 -0.3056
  797MPD2    C211742   3.209   0.257  17.286 -0.5996 -0.2703 -0.0131
  797MPD2    C311743   3.138   0.243  17.171  0.1897  0.1552 -0.0655
  797MPD2    C411744   3.076   0.117  17.143 -0.6287  0.2252  0.3056
  797MPD2    C511745   3.092   0.017  17.225  0.8665 -0.0894  0.0345
  797MPD2     H11746   3.263   0.349  17.304  1.7976 -1.1057 -2.8515
  797MPD2    H111747   3.023   0.105  17.049 -0.6459 -0.2559  0.3785
  797MPD2    H211748   3.190   4.671  17.409  0.0094 -0.1284  0.3339
  797MPD2    H311749   3.034   4.652  17.198  1.0277 -0.6234  1.4290
  797MPD2     N11750   3.128   0.356  17.088 -0.7246  0.2136  0.0390
  797MPD2    H511751   3.177   0.434  17.130  0.3440  0.4746 -1.6980
  797MPD2    N111752   3.323   0.171  17.481  0.1322 -0.0293 -0.5163
  797MPD2    H711753   3.367   0.261  17.492  0.0024  0.1965 -1.8697
  798MPD2     C11754   3.804   0.547  17.072 -0.2968  0.7966 -0.8899
  798MPD2    C111755   3.671   0.541  17.119 -0.2695  0.4196  0.7769
  798MPD2    C211756   3.652   0.486  17.250 -0.4576 -0.0321 -0.3715
  798MPD2    C311757   3.751   0.422  17.322  0.3624 -0.2087 -0.0206
  798MPD2    C411758   3.877   0.430  17.264  0.4683  0.2393 -0.6769
  798MPD2    C511759   3.909   0.496  17.148 -0.3149  0.5236  0.5156
  798MPD2     H11760   3.552   0.487  17.293  0.0964 -0.8739  0.9329
  798MPD2    H111761   3.965   0.390  17.314  0.4903  0.4245 -0.5675
  798MPD2    H211762   3.830   0.588  16.975  2.6961  0.2787 -0.3135
  798MPD2    H311763   4.012   0.485  17.117 -1.3473 -2.2056 -1.9743
  798MPD2     N11764   3.721   0.356  17.438  0.1402 -0.0337  0.8006
  798MPD2    H511765   3.622   0.346  17.458 -0.1781 -0.5270 -1.0195
  798MPD2    N111766   3.572   0.588  17.028  0.8695  0.0333  0.1141
  798MPD2    H711767   3.608   0.620  16.938  0.1260  0.7295  0.0664
  799MPD2     C11768   2.435   1.539  14.448  0.3331  0.0430 -0.5289
  799MPD2    C111769   2.331   1.470  14.392  0.7778  0.2739  0.3791
  799MPD2    C211770   2.250   1.543  14.298  0.1042  0.5744 -0.0601
  799MPD2    C311771   2.281   1.679  14.269  0.1714  0.2407 -0.3016
  799MPD2    C411772   2.396   1.737  14.323 -0.2529 -0.2223  0.1387
  799MPD2    C511773   2.464   1.669  14.421  0.1404 -0.1353 -0.1280
  799MPD2     H11774   2.165   1.491  14.255 -0.1941 -1.0597  2.4809
  799MPD2    H111775   2.424   1.838  14.298 -2.4431  0.1846 -0.6466
  799MPD2    H211776   2.501   1.499  14.525  0.0732  1.0139  0.2052
  799MPD2    H311777   2.535   1.723  14.483 -0.9218  2.9424 -1.5949
  799MPD2     N11778   2.217   1.754  14.167 -0.5310  0.2550  0.8356
  799MPD2    H511779   2.266   1.830  14.120  0.5318  0.3529  2.1126
  799MPD2    N111780   2.304   1.336  14.422  0.1559  0.7414  0.2225
  799MPD2    H711781   2.223   1.295  14.377 -0.0360  1.4543 -0.0827
  800MPD2     C11782   2.859   2.703  14.180 -0.6213 -0.3224 -0.3252
  800MPD2    C111783   2.915   2.737  14.065 -0.2121  0.7601  0.0792
  800MPD2    C211784   2.875   2.672  13.950  0.0985  0.0255  0.1249
  800MPD2    C311785   2.766   2.587  13.950  0.2695 -1.1154 -0.6505
  800MPD2    C411786   2.707   2.558  14.068 -0.0098  0.7937 -0.3678
  800MPD2    C511787   2.760   2.604  14.184 -0.2656 -0.9132 -0.6499
  800MPD2     H11788   2.932   2.675  13.858 -0.1980  0.7966 -0.0255
  800MPD2    H111789   2.630   2.481  14.075  0.0590  0.9253  1.9338
  800MPD2    H211790   2.884   2.752  14.273 -1.7321 -2.6443  1.1855
  800MPD2    H311791   2.711   2.577  14.277  0.4289 -1.7710 -0.5356
  800MPD2     N11792   2.744   2.532  13.820  0.0786  0.0164 -0.1898
  800MPD2    H511793   2.807   2.562  13.746 -2.0786 -0.4046 -2.1864
  800MPD2    N111794   3.022   2.828  14.063  0.0053  0.4298 -0.4557
  800MPD2    H711795   3.061   2.854  14.153  1.0842  2.0983 -1.4217
  801MPD2     C11796   2.974   3.585  14.087 -0.4452 -0.2876 -0.1539
  801MPD2    C111797   3.020   3.484  14.179  0.6068  0.0070 -0.0148
  801MPD2    C211798   2.971   3.480  14.305  0.4623  0.0781  0.5773
  801MPD2    C311799   2.866   3.564  14.341  0.1347  0.2650  0.4345
  801MPD2    C411800   2.808   3.649  14.253  0.3397 -0.1959 -0.6444
  801MPD2    C511801   2.869   3.666  14.129  0.0637  0.4696 -0.2302
  801MPD2     H11802   3.023   3.406  14.365  1.4796 -0.7680 -1.3191
  801MPD2    H111803   2.717   3.693  14.292  1.3498  2.6142 -1.4837
  801MPD2    H211804   3.012   3.605  13.988  0.3568 -1.7752 -0.1393
  801MPD2    H311805   2.832   3.735  14.054 -0.3724 -0.9653 -1.3328
  801MPD2     N11806   2.821   3.565  14.475  0.1582  0.3689  0.0934
  801MPD2    H511807   2.732   3.612  14.482 -0.7305 -1.0236 -2.1519
  801MPD2    N111808   3.112   3.385  14.136 -0.7122  0.2415  0.1615
  801MPD2    H711809   3.166   3.331  14.203  1.2740  1.4299 -0.4941
  802MPD2     C11810   1.957   3.428   0.650 -0.1974 -0.7478 -0.2967
  802MPD2    C111811   1.892   3.484   0.539 -0.4233  0.1971 -0.0647
  802MPD2    C211812   1.930   3.463   0.408  0.1271 -0.0888 -0.2027
  802MPD2    C311813   2.034   3.373   0.385  0.0086  0.5470  0.1304
  802MPD2    C411814   2.076   3.294   0.490  0.1156  0.3400 -0.2346
  802MPD2    C511815   2.032   3.320   0.613 -0.6012  0.5491 -0.2912
  802MPD2     H11816   1.877   3.512   0.327 -0.8527 -0.2507  0.3487
  802MPD2    H111817   2.158   3.225   0.476 -0.5537 -0.2188 -1.4763
  802MPD2    H211818   1.928   3.430   0.754  1.9561  2.6189  0.2644
  802MPD2    H311819   2.079   3.269   0.696  1.3164 -0.3938 -1.9444
  802MPD2     N11820   2.081   3.367   0.259  0.1024 -1.0536 -0.6383
  802MPD2    H511821   2.044   3.431   0.190  0.7737  0.9367  0.8418
  802MPD2    N111822   1.793   3.578   0.556 -0.1772  0.6513  0.1797
  802MPD2    H711823   1.763   3.635   0.478  0.7642 -0.5916 -1.0995
  803MPD2     C11824   3.291   2.400  11.707  0.8399  0.2384 -0.4731
  803MPD2    C111825   3.368   2.425  11.818 -0.2341  0.1554 -0.2504
  803MPD2    C211826   3.341   2.345  11.931 -0.3591 -0.1168 -0.3702
  803MPD2    C311827   3.231   2.258  11.931  0.3274  0.1135 -0.1257
  803MPD2    C411828   3.151   2.243  11.829  0.0218 -0.8736 -0.3498
  803MPD2    C511829   3.193   2.308  11.720  0.0040 -1.2176 -0.3092
  803MPD2     H11830   3.409   2.355  12.015 -0.1539  0.1196 -0.5674
  803MPD2    H111831   3.074   2.167  11.820 -1.2059  0.4049 -0.7258
  803MPD2    H211832   3.312   2.439  11.607 -0.9010  1.4065 -0.3900
  803MPD2    H311833   3.131   2.288  11.633 -1.3441 -0.2078  0.4086
  803MPD2     N11834   3.199   2.185  12.052 -0.0257  0.0679  0.0225
  803MPD2    H511835   3.121   2.121  12.051  0.3359 -0.3853  0.5249
  803MPD2    N111836   3.475   2.520  11.823 -0.1018 -0.1929  0.1603
  803MPD2    H711837   3.521   2.528  11.914  0.8169 -0.0220 -0.3237
  804MPD2     C11838   3.028   3.610  17.228  0.2303  0.8142  0.5166
  804MPD2    C111839   3.042   3.552  17.351  1.1671  0.1529 -0.2644
  804MPD2    C211840   3.083   3.639  17.460  0.5604 -0.4552 -0.3425
  804MPD2    C311841   3.129   3.760  17.436  1.1723 -0.2809 -0.3517
  804MPD2    C411842   3.133   3.809  17.311  0.3305  0.0511 -0.4730
  804MPD2    C511843   3.075   3.734  17.213 -0.1759 -0.2714  0.1004
  804MPD2     H11844   3.089   3.587  17.555  0.3787 -0.9947 -0.6277
  804MPD2    H111845   3.170   3.904  17.276  2.3772 -0.6794 -0.2895
  804MPD2    H211846   2.986   3.562  17.140 -0.5167 -0.2213  1.4350
  804MPD2    H311847   3.086   3.782  17.116  0.6343  3.4537  2.0319
  804MPD2     N11848   3.188   3.828  17.543 -0.1171  0.3309  0.0154
  804MPD2    H511849   3.197   3.785  17.634  1.0824 -1.0969 -0.7673
  804MPD2    N111850   3.023   3.414  17.378 -0.2175  0.2879 -0.1697
  804MPD2    H711851   3.024   3.386  17.475 -0.6004 -0.7098 -0.4522
  805MPD2     C11852   1.796   1.653  15.432  0.0114  0.1285 -0.0747
  805MPD2    C111853   1.853   1.770  15.379  0.9814  0.3695 -0.0575
  805MPD2    C211854   1.993   1.778  15.373 -0.4403 -0.1189  0.1875
  805MPD2    C311855   2.073   1.678  15.430  0.2288  0.6657 -0.4923
  805MPD2    C411856   2.016   1.563  15.480  0.2947 -0.2930 -0.3786
  805MPD2    C511857   1.876   1.553  15.473 -0.3496 -0.3622 -0.3908
  805MPD2     H11858   2.024   1.866  15.319 -1.9409  0.7594  0.7665
  805MPD2    H111859   2.072   1.484  15.529 -0.1098 -0.4411 -0.1565
  805MPD2    H211860   1.690   1.634  15.437  0.1029 -0.3201  0.1720
  805MPD2    H311861   1.834   1.463  15.516  2.0486 -0.5834  1.4729
  805MPD2     N11862   2.210   1.689  15.410 -0.1827  0.7373  0.1561
  805MPD2    H511863   2.232   1.781  15.373 -2.4870 -0.1732 -3.5397
  805MPD2    N111864   1.777   1.860  15.304 -0.5520 -0.6194  0.6291
  805MPD2    H711865   1.835   1.906  15.235 -0.6509  1.1678  1.7298
  806MPD2     C11866   3.158   1.378   0.699  0.5078  0.4548  0.3053
  806MPD2    C111867   3.262   1.434   0.637  0.6207 -0.3634 -0.2737
  806MPD2    C211868   3.234   1.502   0.520  0.6332 -0.1297 -0.4275
  806MPD2    C311869   3.111   1.498   0.461  0.7819  0.1618  0.5298
  806MPD2    C411870   3.011   1.422   0.513 -0.5837  0.3249 -0.2116
  806MPD2    C511871   3.030   1.375   0.639 -0.1624 -0.1408 -0.4354
  806MPD2     H11872   3.312   1.563   0.476 -0.8777  2.8217  0.9899
  806MPD2    H111873   2.914   1.416   0.466  0.0364  2.7147 -1.8115
  806MPD2    H211874   3.163   1.345   0.802 -0.5187  1.6291  0.7331
  806MPD2    H311875   2.950   1.324   0.690  0.3164 -0.2417  0.2177
  806MPD2     N11876   3.102   1.562   0.339 -0.1483 -0.2185  0.2416
  806MPD2    H511877   3.182   1.617   0.313 -0.1363 -0.4651 -0.2542
  806MPD2    N111878   3.384   1.433   0.710 -0.6532  0.3578 -0.4234
  806MPD2    H711879   3.396   1.381   0.796  0.4615  2.1385  0.5035
  807MPD2     C11880   3.638   1.184   1.329 -0.1006  0.5798  0.3201
  807MPD2    C111881   3.565   1.158   1.217  0.2101  0.3098  0.0166
  807MPD2    C211882   3.445   1.086   1.238 -0.4423 -1.2279 -0.3875
  807MPD2    C311883   3.406   1.037   1.358  0.1615 -0.0235  0.1190
  807MPD2    C411884   3.485   1.063   1.466 -0.1346  0.3241 -0.0784
  807MPD2    C511885   3.598   1.135   1.450  0.2924 -0.0572  0.6497
  807MPD2     H11886   3.386   1.059   1.151 -2.9953 -4.9679  2.4868
  807MPD2    H111887   3.460   1.034   1.567  2.6897 -0.1132  0.4884
  807MPD2    H211888   3.730   1.241   1.339  1.9580 -2.7684  0.4835
  807MPD2    H311889   3.662   1.144   1.537  2.2709  1.4280 -0.9743
  807MPD2     N11890   3.284   0.967   1.360 -0.1303 -0.3210  0.0977
  807MPD2    H511891   3.240   0.962   1.269  0.0424  0.6286 -0.0356
  807MPD2    N111892   3.584   1.219   1.090  0.0463 -0.1355  0.2123
  807MPD2    H711893   3.510   1.218   1.021  0.7211 -3.0934 -0.4631
  808MPD2     C11894   2.602   2.312   8.628 -0.0987 -0.7738 -0.2282
  808MPD2    C111895   2.632   2.251   8.744  0.2826  0.7430  1.0929
  808MPD2    C211896   2.738   2.301   8.815 -0.0413  0.0150 -0.7392
  808MPD2    C311897   2.821   2.403   8.766 -0.7624  0.2512 -0.6643
  808MPD2    C411898   2.792   2.458   8.643  0.5738 -0.7565 -0.1739
  808MPD2    C511899   2.676   2.419   8.577  0.5781  0.4402  0.2934
  808MPD2     H11900   2.751   2.265   8.916  0.5249 -0.9293 -1.1459
  808MPD2    H111901   2.846   2.543   8.602 -1.4610 -0.3330 -1.9452
  808MPD2    H211902   2.520   2.282   8.565  0.3639 -1.0218 -0.7072
  808MPD2    H311903   2.651   2.471   8.485  2.4956 -0.4934 -0.7535
  808MPD2     N11904   2.932   2.462   8.832  0.2336  0.6206  0.1445
  808MPD2    H511905   2.984   2.527   8.775 -0.1805  0.7312 -0.1090
  808MPD2    N111906   2.556   2.150   8.805 -0.2391  0.2973  0.4184
  808MPD2    H711907   2.586   2.110   8.893 -0.2428  0.4997  0.5114
  809MPD2     C11908   3.590   2.862   8.464 -0.3212  0.2463  0.6100
  809MPD2    C111909   3.660   2.778   8.550  0.0863  1.2076 -0.2478
  809MPD2    C211910   3.580   2.714   8.651 -0.1832  0.7238  0.2021
  809MPD2    C311911   3.447   2.744   8.674  0.5531 -0.5015 -0.2518
  809MPD2    C411912   3.382   2.836   8.588 -0.5211  0.0464 -0.0735
  809MPD2    C511913   3.458   2.887   8.481  0.0120 -0.7183 -0.9052
  809MPD2     H11914   3.629   2.641   8.716  0.7732  1.8104  0.6989
  809MPD2    H111915   3.276   2.855   8.598 -0.8728 -2.7864  1.4656
  809MPD2    H211916   3.645   2.904   8.381  0.0177  0.8730  1.1482
  809MPD2    H311917   3.420   2.951   8.403 -0.2227  0.9841  0.5944
  809MPD2     N11918   3.372   2.688   8.781 -0.3592  0.3893 -0.1698
  809MPD2    H511919   3.276   2.717   8.795 -0.9880 -1.0238 -1.5583
  809MPD2    N111920   3.798   2.753   8.541  0.4358 -0.7126 -0.2418
  809MPD2    H711921   3.834   2.695   8.616  2.6527 -0.3496 -1.0431
  810MPD2     C11922   3.001   2.096   9.430 -0.0432 -0.2746 -1.3746
  810MPD2    C111923   2.994   2.041   9.555  0.2437 -0.5556 -0.6078
  810MPD2    C211924   3.107   2.053   9.639  0.2446  0.3213 -0.0016
  810MPD2    C311925   3.222   2.116   9.600  0.3753  0.5007 -0.2068
  810MPD2    C411926   3.214   2.164   9.472  0.2685  1.1482  0.6791
  810MPD2    C511927   3.115   2.159   9.383  0.5308 -0.3164  0.3065
  810MPD2     H11928   3.107   1.999   9.733 -0.4989  0.4502  0.0749
  810MPD2    H111929   3.306   2.212   9.441 -0.1071  1.5039  0.1168
  810MPD2    H211930   2.916   2.108   9.363  1.5342  1.4419 -3.0548
  810MPD2    H311931   3.126   2.199   9.283  0.1434 -1.9046 -0.3725
  810MPD2     N11932   3.341   2.138   9.674  0.9419  0.3036 -0.2798
  810MPD2    H511933   3.424   2.163   9.620  1.1598 -0.5849 -0.3439
  810MPD2    N111934   2.870   1.985   9.597  0.0644  0.3477  0.0972
  810MPD2    H711935   2.801   1.988   9.523 -0.5792 -1.9876  0.5897
  811MPD2     C11936   2.424   2.178   9.277 -0.8307 -0.3312  0.8822
  811MPD2    C111937   2.361   2.171   9.395 -0.2996 -0.9607  0.3499
  811MPD2    C211938   2.254   2.256   9.415  0.6248  0.0114  0.4813
  811MPD2    C311939   2.212   2.348   9.318  0.5436  0.1518  0.0749
  811MPD2    C411940   2.270   2.342   9.197  1.0672  0.0760  0.3948
  811MPD2    C511941   2.378   2.261   9.177  0.2203 -0.2499 -0.3710
  811MPD2     H11942   2.215   2.258   9.516 -0.0258 -0.0079  0.2308
  811MPD2    H111943   2.244   2.403   9.110 -0.5601 -0.8995  0.2043
  811MPD2    H211944   2.507   2.110   9.263 -0.4880  0.0686  0.9525
  811MPD2    H311945   2.406   2.256   9.073  1.1412 -0.5043 -0.1068
  811MPD2     N11946   2.117   2.438   9.354 -0.8713 -0.3622 -0.6107
  811MPD2    H511947   2.081   2.432   9.449  0.1858  0.6721 -0.1500
  811MPD2    N111948   2.422   2.087   9.498  0.1630  0.1018  0.7288
  811MPD2    H711949   2.507   2.039   9.471 -0.3231 -0.9440  1.0642
  812MPD2     C11950   1.686   2.184  12.114 -0.0667 -0.2654  0.4718
  812MPD2    C111951   1.593   2.190  12.218 -0.2763  0.3257  0.1292
  812MPD2    C211952   1.580   2.079  12.300  0.1560 -0.3009  0.6144
  812MPD2    C311953   1.645   1.961  12.270  0.5659  0.2774 -0.5762
  812MPD2    C411954   1.729   1.954  12.159 -0.3026  0.0224  0.0919
  812MPD2    C511955   1.750   2.066  12.081  0.1798  0.2677 -0.1035
  812MPD2     H11956   1.517   2.076  12.389 -0.1481 -1.4058  0.3649
  812MPD2    H111957   1.787   1.866  12.131  0.2949  0.7526 -0.9360
  812MPD2    H211958   1.704   2.263  12.042  1.3180 -0.0503  1.0350
  812MPD2    H311959   1.812   2.065  11.992 -0.2500  0.0445 -0.4009
  812MPD2     N11960   1.614   1.851  12.355 -0.5429 -0.2361  0.0056
  812MPD2    H511961   1.544   1.877  12.424 -0.7473 -1.2669  0.1880
  812MPD2    N111962   1.538   2.315  12.247 -0.5843 -0.1411  0.7645
  812MPD2    H711963   1.578   2.396  12.201  1.1833 -2.2352 -1.4209
  813MPD2     C11964   0.838   3.752  12.800  0.1249  0.4874  0.1077
  813MPD2    C111965   0.783   3.880  12.793  1.3318 -0.1617 -0.0011
  813MPD2    C211966   0.740   3.945  12.906 -0.8047 -0.0343  0.4141
  813MPD2    C311967   0.736   3.874  13.026 -0.9380  0.2058 -0.3660
  813MPD2    C411968   0.766   3.735  13.024 -0.0318  0.4788  0.2167
  813MPD2    C511969   0.831   3.681  12.920  0.3134  0.4418  0.7640
  813MPD2     H11970   0.687   4.040  12.901  0.7316  0.8303  0.6052
  813MPD2    H111971   0.767   3.669  13.111  0.3325 -1.8950 -1.5897
  813MPD2    H211972   0.887   3.705  12.716 -2.8715 -3.4499  0.5548
  813MPD2    H311973   0.862   3.578  12.936 -2.0965 -0.5800 -1.0602
  813MPD2     N11974   0.678   3.943  13.133 -0.0033 -0.0558  0.1112
  813MPD2    H511975   0.661   4.043  13.124  2.0887  0.1672 -1.3105
  813MPD2    N111976   0.814   3.950  12.670  0.9019  0.3084  0.2462
  813MPD2    H711977   0.890   3.916  12.612 -0.5600 -0.5175 -1.1685
  814MPD2     C11978   1.058   0.921  12.041 -0.6686  0.6946 -0.7590
  814MPD2    C111979   1.118   0.947  11.920 -0.2062 -0.1594 -0.1819
  814MPD2    C211980   1.224   1.031  11.915 -0.3855 -0.4357  0.1663
  814MPD2    C311981   1.264   1.100  12.031 -0.3005  0.0732 -0.2462
  814MPD2    C411982   1.201   1.071  12.148  0.0202 -0.1896 -0.4981
  814MPD2    C511983   1.100   0.986  12.156  0.6453 -0.9226 -0.1960
  814MPD2     H11984   1.278   1.048  11.823  0.3700  0.3519  0.7650
  814MPD2    H111985   1.225   1.129  12.237  0.5807  0.2787 -0.9579
  814MPD2    H211986   0.987   0.841  12.055  1.1386 -0.7565 -0.0046
  814MPD2    H311987   1.051   0.974  12.252 -1.6684 -2.3110 -1.5444
  814MPD2     N11988   1.371   1.193  12.028 -0.3477 -0.4395 -0.8177
  814MPD2    H511989   1.384   1.255  12.107 -1.1805 -0.0512 -0.9862
  814MPD2    N111990   1.085   0.878  11.801  0.4990 -0.0506  0.6376
  814MPD2    H711991   1.120   0.922  11.716 -0.0644 -0.7266  0.0564
  815MPD2     C11992   1.463   4.164  11.644  0.8213 -0.8416 -0.3579
  815MPD2    C111993   1.412   4.038  11.627  0.3822 -0.0527  0.0537
  815MPD2    C211994   1.289   4.009  11.692  1.1642 -0.3344  0.5967
  815MPD2    C311995   1.233   4.096  11.780  0.3122  0.0856 -0.7925
  815MPD2    C411996   1.290   4.219  11.801  0.1205  0.0899 -0.4984
  815MPD2    C511997   1.402   4.244  11.734  0.0127 -0.5863  0.6532
  815MPD2     H11998   1.232   3.919  11.676  1.2379 -0.1075 -0.9114
  815MPD2    H111999   1.266   4.285  11.883  0.4722 -0.0507 -0.2796
  815MPD2    H212000   1.559   4.189  11.602  1.7519 -0.1890  2.1904
  815MPD2    H312001   1.453   4.336  11.758  0.4505 -0.5396 -0.4554
  815MPD2     N12002   1.111   4.054  11.843  0.2457  0.0283  0.2661
  815MPD2    H512003   1.070   3.964  11.822  2.2448 -0.4243 -1.6961
  815MPD2    N112004   1.472   3.953  11.537 -0.0582  0.2502  0.0345
  815MPD2    H712005   1.529   3.998  11.468  0.6562 -1.8403 -0.7520
  816MPD2     C12006   1.773   3.213   0.045  0.4004 -0.2636 -0.0918
  816MPD2    C112007   1.738   3.283  17.620  0.7804  0.0866  0.4309
  816MPD2    C212008   1.801   3.241  17.508 -0.5084  0.3977  0.4958
  816MPD2    C312009   1.906   3.154  17.509  0.2294  0.2719 -0.0256
  816MPD2    C412010   1.948   3.100  17.628  0.6279 -0.0729 -0.0594
  816MPD2    C512011   1.876   3.127   0.047 -0.1581  0.3964  0.1516
  816MPD2     H12012   1.756   3.284  17.419 -1.1667  0.5447  0.9067
  816MPD2    H112013   2.025   3.025  17.638  0.3376 -0.2077  1.2025
  816MPD2    H212014   1.723   3.234   0.139  0.9052  0.1766  0.0728
  816MPD2    H312015   1.906   3.079   0.140 -0.5867  0.4020  0.2895
  816MPD2     N12016   1.985   3.141  17.393 -0.0445  0.4246  0.1885
  816MPD2    H512017   1.965   3.191  17.308  1.9209  0.6237 -0.1444
  816MPD2    N112018   1.636   3.386  17.617  0.4547  0.1272 -0.5434
  816MPD2    H712019   1.610   3.424  17.526  0.5814 -0.3168 -0.7651
  817MPD2     C12020   1.006   4.463   9.935 -0.2000  0.4275  0.0542
  817MPD2    C112021   1.021   4.451   9.803  0.6006 -0.6214  0.0319
  817MPD2    C212022   0.963   4.548   9.731  0.2691 -0.0901  0.2251
  817MPD2    C312023   0.884   4.653   9.781 -0.3285 -0.0361 -0.2618
  817MPD2    C412024   0.867   4.659   9.918 -0.3110  0.6839  0.0073
  817MPD2    C512025   0.926   4.561   9.992 -0.7569  0.0273  0.0219
  817MPD2     H12026   0.974   4.541   9.624 -0.6472 -1.2591  0.2030
  817MPD2    H112027   0.819   0.020   9.968 -1.6591 -1.0867  1.6494
  817MPD2    H212028   1.045   4.381   9.994  2.6970  0.1852 -2.1804
  817MPD2    H312029   0.915   4.570  10.099 -1.0835 -2.7063  0.2055
  817MPD2     N12030   0.816   0.026   9.698 -0.1133 -1.3100 -0.0284
  817MPD2    H512031   0.853   0.048   9.606 -0.8983 -1.0203 -0.2726
  817MPD2    N112032   1.096   4.346   9.733  0.6030 -0.3324  0.2660
  817MPD2    H712033   1.089   4.349   9.632 -2.4666  0.0129  0.4916
  818MPD2     C12034   4.519   4.106   9.937  0.7640  0.5520 -0.2338
  818MPD2    C112035   4.546   4.065  10.071  0.1690  0.8813  0.1610
  818MPD2    C212036   4.625   3.949  10.081 -0.5327  0.1509  0.7007
  818MPD2    C312037   4.664   3.876   9.966 -0.0018 -0.4666  0.2404
  818MPD2    C412038   4.628   3.921   9.846 -0.5132  0.4308  0.5184
  818MPD2    C512039   4.564   4.040   9.826 -0.0237 -0.4500 -0.0731
  818MPD2     H12040   4.632   3.897  10.176  0.2284  0.1530  0.6440
  818MPD2    H112041   4.648   3.860   9.759  0.9647  0.3001  0.9558
  818MPD2    H212042   4.451   4.189   9.923  0.4303  0.3323  0.1118
  818MPD2    H312043   4.534   4.074   9.727  1.1659 -0.1944 -0.3528
  818MPD2     N12044   0.012   3.751   9.966  0.5056 -0.0455  0.0237
  818MPD2    H512045   0.044   3.713   9.878 -1.1191  1.5786 -1.3009
  818MPD2    N112046   4.509   4.144  10.183 -0.1169 -0.1553 -0.1450
  818MPD2    H712047   4.521   4.104  10.276  2.1638  0.3890 -0.1988
  819MPD2     C12048   2.852   1.710  15.246 -0.2549 -0.3216 -0.2437
  819MPD2    C112049   2.786   1.585  15.248  0.2739 -0.4853  0.1114
  819MPD2    C212050   2.832   1.488  15.340  0.9659 -0.3402 -0.4758
  819MPD2    C312051   2.935   1.520  15.429  0.4220 -0.1118 -0.1143
  819MPD2    C412052   2.988   1.656  15.433  0.1878  0.1279 -0.2916
  819MPD2    C512053   2.942   1.748  15.342  0.0974  0.0247  0.0870
  819MPD2     H12054   2.813   1.382  15.341  0.2568 -0.2114 -0.5452
  819MPD2    H112055   3.073   1.680  15.496 -0.1671  0.8279 -0.0813
  819MPD2    H212056   2.831   1.773  15.161  0.5116 -0.6583 -0.6773
  819MPD2    H312057   2.994   1.843  15.342 -1.1965  0.7238  1.3384
  819MPD2     N12058   2.986   1.424  15.512  0.3392 -0.5018  0.3060
  819MPD2    H512059   2.935   1.337  15.503  0.5353 -0.3229 -2.2764
  819MPD2    N112060   2.688   1.565  15.152  0.2139  0.1578  0.0927
  819MPD2    H712061   2.682   1.626  15.071 -0.2646 -0.8120 -0.6077
  820MPD2     C12062   1.985   2.000  14.603  0.0209 -0.2350 -0.3577
  820MPD2    C112063   1.986   1.965  14.738  0.5170  0.0610 -0.1265
  820MPD2    C212064   2.081   1.876  14.788  0.2962  0.2686  0.2787
  820MPD2    C312065   2.172   1.821  14.696 -0.3740 -0.1530 -0.8289
  820MPD2    C412066   2.161   1.847  14.554 -0.5744  0.4564 -0.3069
  820MPD2    C512067   2.066   1.934  14.512 -0.2167 -1.1615  0.5940
  820MPD2     H12068   2.078   1.843  14.892 -3.7894 -1.6287 -0.4544
  820MPD2    H112069   2.229   1.801  14.484  0.0353  0.8099  0.0519
  820MPD2    H212070   1.911   2.066  14.559 -1.6012 -0.3006  2.2954
  820MPD2    H312071   2.068   1.956  14.406  0.8590 -0.2436  0.8070
  820MPD2     N12072   2.261   1.720  14.732  0.1915 -1.0979  0.5721
  820MPD2    H512073   2.288   1.652  14.661 -1.2857 -2.3480  1.2110
  820MPD2    N112074   1.873   2.015  14.812 -0.1196 -0.7359 -0.0302
  820MPD2    H712075   1.803   2.072  14.766  1.8603 -0.8269 -3.1218
  821MPD2     C12076   2.574   2.880  13.198  0.4604  0.6238 -0.8454
  821MPD2    C112077   2.692   2.847  13.250  0.1479 -0.2634 -0.0456
  821MPD2    C212078   2.811   2.905  13.212 -0.8168  0.0899 -0.1888
  821MPD2    C312079   2.814   2.992  13.108 -0.2840  0.3552 -0.1761
  821MPD2    C412080   2.692   3.034  13.059  0.6536 -0.8029 -0.9118
  821MPD2    C512081   2.570   2.986  13.108 -0.6347  0.1722 -0.8736
  821MPD2     H12082   2.902   2.875  13.261 -0.9343  1.2501  0.7288
  821MPD2    H112083   2.689   3.106  12.978  1.2790  0.6901  0.3879
  821MPD2    H212084   2.481   2.839  13.235  0.9853  0.8410  0.6999
  821MPD2    H312085   2.478   3.033  13.076 -1.1888 -0.6311 -0.4551
  821MPD2     N12086   2.933   3.050  13.047 -0.1564 -0.3138 -0.0811
  821MPD2    H512087   2.922   3.122  12.977  0.8075 -0.0879  0.0110
  821MPD2    N112088   2.719   2.739  13.342  0.3818 -0.2754  0.4801
  821MPD2    H712089   2.815   2.727  13.372  0.6521  2.4244  0.6589
  822MPD2     C12090   3.606   2.860  15.785 -0.3165  0.0042  0.0019
  822MPD2    C112091   3.585   2.810  15.912 -0.7121 -0.2111  0.0831
  822MPD2    C212092   3.541   2.893  16.015  0.8484  0.4171  0.1621
  822MPD2    C312093   3.537   3.031  15.993  0.2923 -0.0186  0.6761
  822MPD2    C412094   3.579   3.085  15.876  0.3867  0.1363 -0.0222
  822MPD2    C512095   3.614   3.000  15.773  0.2526  0.3054 -0.4161
  822MPD2     H12096   3.516   2.851  16.112 -0.2555  0.0244 -0.2872
  822MPD2    H112097   3.575   3.190  15.852 -0.0087 -0.1445 -1.1788
  822MPD2    H212098   3.631   2.792  15.705 -0.4151  1.6845 -1.4543
  822MPD2    H312099   3.657   3.053  15.689 -0.7940 -1.0376 -1.7885
  822MPD2     N12100   3.497   3.108  16.103 -0.5550  0.7445  0.0264
  822MPD2    H512101   3.464   3.062  16.188 -2.9539  0.1879 -1.2245
  822MPD2    N112102   3.615   2.681  15.954  0.0416  0.4223 -0.2763
  822MPD2    H712103   3.596   2.665  16.053 -0.4385 -0.9387 -0.5821
  823MPD2     C12104   3.280   3.188  16.928  0.3035  0.4277  0.2590
  823MPD2    C112105   3.319   3.122  16.812  0.4374 -0.2521  0.3003
  823MPD2    C212106   3.322   2.978  16.815 -0.3434 -0.1796 -0.7516
  823MPD2    C312107   3.308   2.911  16.933 -0.2961  0.5640 -0.0919
  823MPD2    C412108   3.266   2.986  17.046  0.2419 -0.8333  0.5885
  823MPD2    C512109   3.251   3.118  17.040  0.3103 -0.4966 -0.4440
  823MPD2     H12110   3.337   2.916  16.726  0.1817 -0.7374 -0.2757
  823MPD2    H112111   3.247   2.933  17.139 -0.9257  0.1174  0.8900
  823MPD2    H212112   3.275   3.297  16.930 -0.9716  0.2961  2.9420
  823MPD2    H312113   3.221   3.172  17.130  1.2172 -0.1807 -0.3289
  823MPD2     N12114   3.331   2.770  16.948  0.4280 -0.3439  0.0385
  823MPD2    H512115   3.312   2.730  17.040 -0.6499  1.8824  0.7837
  823MPD2    N112116   3.331   3.192  16.693 -0.3435  0.7538 -0.3823
  823MPD2    H712117   3.317   3.293  16.693  0.5254  0.8751  0.6609
  824MPD2     C12118   3.611   1.846  15.788  0.2588 -0.7130 -0.6902
  824MPD2    C112119   3.704   1.907  15.857  0.2979 -0.5903 -1.4237
  824MPD2    C212120   3.834   1.870  15.852 -0.1296 -0.0754  0.0925
  824MPD2    C312121   3.880   1.761  15.780 -0.6596 -0.0694 -0.8691
  824MPD2    C412122   3.790   1.692  15.709  0.1725  0.5020  0.0868
  824MPD2    C512123   3.654   1.736  15.716  0.3921 -0.8172 -0.4551
  824MPD2     H12124   3.909   1.928  15.904 -0.7512  1.1907 -0.4474
  824MPD2    H112125   3.816   1.610  15.643  0.0050 -0.7671  1.5978
  824MPD2    H212126   3.504   1.862  15.797  0.5045 -0.4153  1.6096
  824MPD2    H312127   3.575   1.684  15.663 -1.7086 -0.6727  2.5176
  824MPD2     N12128   4.021   1.734  15.768 -0.1806  0.0998 -0.1600
  824MPD2    H512129   4.083   1.808  15.801 -0.8483  0.8134 -0.4974
  824MPD2    N112130   3.693   2.024  15.936  0.0598  0.0820 -0.1687
  824MPD2    H712131   3.770   2.061  15.990 -1.9622  1.0820  2.0504
  825MPD2     C12132   0.002   2.054  15.873  1.1236 -0.0954 -0.2414
  825MPD2    C112133   4.617   2.051  15.788 -1.2717 -0.1354  0.2699
  825MPD2    C212134   4.556   2.178  15.752 -0.7512  0.2321 -0.7341
  825MPD2    C312135   4.615   2.297  15.798 -0.1848 -0.0389  0.4861
  825MPD2    C412136   0.003   2.291  15.881  0.1931 -0.1254  0.1677
  825MPD2    C512137   0.055   2.170  15.917  0.5722 -0.9761 -0.5744
  825MPD2     H12138   4.483   2.185  15.673 -2.1770 -3.9117  0.1814
  825MPD2    H112139   0.055   2.380  15.915 -1.2010  0.5318  0.5786
  825MPD2    H212140   0.047   1.960  15.902  0.3278  0.1223  1.6551
  825MPD2    H312141   0.139   2.167  15.986 -1.0033 -3.7363  1.1735
  825MPD2     N12142   4.573   2.430  15.767  0.0471 -0.2412 -0.0064
  825MPD2    H512143   4.629   2.502  15.809  1.6852 -0.5324 -1.6697
  825MPD2    N112144   4.567   1.931  15.733 -0.4746 -0.0286 -0.0789
  825MPD2    H712145   4.619   1.847  15.756  0.5877  1.1549  1.7737
  826MPD2     C12146   4.229   2.166  14.195  0.1256  0.0675 -0.8699
  826MPD2    C112147   4.183   2.158  14.065  0.2657  0.3493  0.4175
  826MPD2    C212148   4.126   2.273  14.010  0.0253  0.1961  0.1029
  826MPD2    C312149   4.108   2.383  14.094  0.2258  0.5256 -1.0101
  826MPD2    C412150   4.140   2.377  14.228 -0.1955  0.7627  0.1707
  826MPD2    C512151   4.209   2.273  14.270  0.7572 -0.4345  0.8796
  826MPD2     H12152   4.089   2.283  13.909  0.3067  1.6613  0.1426
  826MPD2    H112153   4.113   2.450  14.304 -4.2023 -1.3405  0.7232
  826MPD2    H212154   4.278   2.079  14.238 -0.6263 -0.2522 -0.6631
  826MPD2    H312155   4.238   2.255  14.373  1.5418 -5.0491 -0.1704
  826MPD2     N12156   4.043   2.501  14.050 -0.1380  0.0820 -0.0777
  826MPD2    H512157   4.015   2.573  14.116  0.4669 -0.1664  0.4410
  826MPD2    N112158   4.234   2.045  13.994  0.2277 -1.2239  0.0241
  826MPD2    H712159   4.280   1.974  14.050  0.2676 -1.3484 -0.1688
  827MPD2     C12160   0.487   3.297   9.799 -0.0707 -0.1327 -0.4139
  827MPD2    C112161   0.479   3.178   9.867 -0.2719 -0.0974 -0.1182
  827MPD2    C212162   0.428   3.066   9.808  0.5247  0.4141 -0.6137
  827MPD2    C312163   0.381   3.063   9.681 -0.2357 -0.5171  0.3755
  827MPD2    C412164   0.382   3.183   9.611  0.3111  0.2961 -0.3962
  827MPD2    C512165   0.426   3.301   9.671 -0.2024 -0.1722  0.0963
  827MPD2     H12166   0.448   2.969   9.851 -0.4053  1.2536  1.7248
  827MPD2    H112167   0.362   3.186   9.504 -0.0989  2.0092 -0.2717
  827MPD2    H212168   0.528   3.388   9.841  1.4243 -2.2749  2.8340
  827MPD2    H312169   0.434   3.394   9.617 -3.3011  0.4125  0.6468
  827MPD2     N12170   0.352   2.933   9.626 -0.2042  0.3872  0.4814
  827MPD2    H512171   0.367   2.853   9.687 -0.9130 -0.4981 -0.5081
  827MPD2    N112172   0.530   3.176  10.000  0.0830 -0.3042 -0.1635
  827MPD2    H712173   0.591   3.255  10.019  1.0163 -0.8415 -0.9214
  828MPD2     C12174   3.298   3.424  12.405  0.4192  0.5608  0.1980
  828MPD2    C112175   3.254   3.397  12.279  0.6228  0.6567  0.5083
  828MPD2    C212176   3.344   3.366  12.181 -0.3341  0.4627  0.1894
  828MPD2    C312177   3.480   3.363  12.194  0.0798  0.1725 -0.0108
  828MPD2    C412178   3.526   3.389  12.323  0.1778 -0.1967  0.9824
  828MPD2    C512179   3.437   3.424  12.422  0.3430 -0.3325 -0.6902
  828MPD2     H12180   3.299   3.358  12.083  1.0822  2.7186 -0.6407
  828MPD2    H112181   3.629   3.379  12.354  0.3469  0.3975  0.6155
  828MPD2    H212182   3.236   3.453  12.489  0.9706  0.9117  0.4810
  828MPD2    H312183   3.479   3.450  12.518 -0.2299 -1.1115 -0.2269
  828MPD2     N12184   3.567   3.334  12.085  0.0012 -0.2804  0.5218
  828MPD2    H512185   3.664   3.349  12.112 -0.1118  0.4731  0.4934
  828MPD2    N112186   3.118   3.414  12.243 -0.7904 -0.2059  0.0364
  828MPD2    H712187   3.103   3.397  12.144 -3.3588  1.6541  0.1151
  829MPD2     C12188   3.081   3.763  11.561  0.7434 -0.7010 -0.5485
  829MPD2    C112189   2.954   3.801  11.588  0.3283  0.2092  0.1931
  829MPD2    C212190   2.889   3.728  11.686  0.1127  0.4331  0.6197
  829MPD2    C312191   2.946   3.636  11.766  0.2748 -0.2437  0.5539
  829MPD2    C412192   3.068   3.605  11.738  0.1937  0.0761  0.3381
  829MPD2    C512193   3.136   3.662  11.639  0.4095 -0.2293 -0.1759
  829MPD2     H12194   2.786   3.746  11.717  0.1254 -1.7499  1.8991
  829MPD2    H112195   3.125   3.538  11.802  1.1266  1.3346  0.8107
  829MPD2    H212196   3.142   3.801  11.480 -0.7370  0.9738 -0.8878
  829MPD2    H312197   3.237   3.626  11.618 -0.0862 -0.8477 -1.5093
  829MPD2     N12198   2.894   3.581  11.885  0.6446 -0.1874  0.0443
  829MPD2    H512199   2.951   3.519  11.942  0.0276  0.6012  1.5091
  829MPD2    N112200   2.888   3.898  11.511  0.2638  0.0737 -0.0005
  829MPD2    H712201   2.936   3.934  11.429 -1.0603  0.5030 -0.5854
  830MPD2     C12202   3.693   1.082  15.717  1.3043 -0.4424 -0.1505
  830MPD2    C112203   3.601   1.132  15.621  0.4357 -0.0020  0.4220
  830MPD2    C212204   3.642   1.237  15.541  0.0500 -0.4159 -0.3408
  830MPD2    C312205   3.771   1.287  15.553 -0.3005  0.7487  0.7124
  830MPD2    C412206   3.853   1.248  15.659  0.3126 -0.1805 -0.6485
  830MPD2    C512207   3.807   1.149  15.741 -0.2789  0.0309  0.1387
  830MPD2     H12208   3.570   1.281  15.473  0.4646  2.1001  0.8455
  830MPD2    H112209   3.946   1.297  15.681 -0.2132 -0.5976  2.4351
  830MPD2    H212210   3.665   1.004  15.786 -3.2419  1.8003  0.5466
  830MPD2    H312211   3.866   1.136  15.831  0.2083  0.3546 -0.1329
  830MPD2     N12212   3.821   1.387  15.469 -0.4584 -0.5376  0.3698
  830MPD2    H512213   3.911   1.428  15.491 -0.3235  0.0482 -1.2344
  830MPD2    N112214   3.466   1.085  15.628  0.6028 -0.1867  0.1808
  830MPD2    H712215   3.433   1.033  15.709 -0.2781  2.4096  1.4639
  831MPD2     C12216   3.751   3.171  16.512  0.4945  0.4014  0.0717
  831MPD2    C112217   3.742   3.094  16.393  0.2078 -0.5998 -0.1369
  831MPD2    C212218   3.682   2.974  16.393 -0.2210  0.3493  0.0975
  831MPD2    C312219   3.620   2.933  16.505  0.0309  0.2850  0.2484
  831MPD2    C412220   3.625   3.006  16.622  0.3657 -0.2309  0.2066
  831MPD2    C512221   3.697   3.120  16.626  0.4873  0.1672  0.8676
  831MPD2     H12222   3.694   2.917  16.301 -0.0052 -1.8462  1.4832
  831MPD2    H112223   3.587   2.973  16.718 -1.2858  0.8531 -0.0733
  831MPD2    H212224   3.813   3.260  16.510  1.0059  0.0448  0.2726
  831MPD2    H312225   3.696   3.182  16.716  1.9358 -0.2754  1.1991
  831MPD2     N12226   3.544   2.816  16.505 -0.1025 -0.3203 -0.2528
  831MPD2    H512227   3.486   2.804  16.587 -0.7987 -1.1955 -0.8714
  831MPD2    N112228   3.817   3.126  16.275  0.3223  0.1856 -0.7175
  831MPD2    H712229   3.824   3.055  16.203 -2.8970 -0.6296 -0.2368
  832MPD2     C12230   1.838   4.447  17.641  0.0786 -0.1737  0.8000
  832MPD2    C112231   1.936   4.454  17.548 -0.2497 -0.0317  0.0717
  832MPD2    C212232   1.909   4.404  17.420  0.0137 -0.1573  0.4207
  832MPD2    C312233   1.785   4.350  17.390 -0.1040  0.4171  1.1222
  832MPD2    C412234   1.689   4.341  17.491 -0.2815  0.4647 -0.1393
  832MPD2    C512235   1.714   4.401  17.607  0.1449  0.3124  0.3976
  832MPD2     H12236   1.977   4.418  17.337  0.8782  0.2437  1.1967
  832MPD2    H112237   1.590   4.299  17.479  0.0283 -0.0193 -1.0060
  832MPD2    H212238   1.837   4.491   0.047  0.6973  0.1040  0.6806
  832MPD2    H312239   1.648   4.387  17.691 -0.0365  1.0732  0.3744
  832MPD2     N12240   1.753   4.308  17.256 -0.0845 -0.9350  0.3648
  832MPD2    H512241   1.658   4.275  17.245  0.2013 -1.5727 -0.1844
  832MPD2    N112242   2.062   4.509  17.583  0.2137  0.0898 -0.7441
  832MPD2    H712243   2.063   4.549  17.676  1.7885 -1.4785 -0.0667
  833MPD2     C12244   4.342   1.185  12.051  1.0293 -0.3214  0.2035
  833MPD2    C112245   4.262   1.296  12.007 -1.0835  0.0815 -0.6233
  833MPD2    C212246   4.301   1.358  11.892  0.0101  0.2095 -0.0523
  833MPD2    C312247   4.403   1.306  11.807 -0.2542  0.2174 -0.3175
  833MPD2    C412248   4.468   1.198  11.846 -0.2016  0.7899 -0.3071
  833MPD2    C512249   4.438   1.135  11.970 -0.3659  0.0009 -0.6765
  833MPD2     H12250   4.234   1.437  11.859 -0.9650 -0.4054  0.4631
  833MPD2    H112251   4.546   1.157  11.782 -0.8317  2.8254 -2.3397
  833MPD2    H212252   4.325   1.140  12.148 -0.2375 -0.2817  0.0016
  833MPD2    H312253   4.481   1.037  11.986  1.1333  0.6862 -0.5665
  833MPD2     N12254   4.431   1.366  11.683  0.2157  0.4163 -0.3587
  833MPD2    H512255   4.509   1.320  11.636  0.7940 -0.0645  1.0668
  833MPD2    N112256   4.169   1.350  12.093  0.2293  0.0299  0.3655
  833MPD2    H712257   4.143   1.296  12.175  0.4453 -0.4955  0.0895
  834MPD2     C12258   4.332   0.972  10.881  0.1518  0.4208  0.1718
  834MPD2    C112259   4.346   0.943  11.015  0.2743 -0.2541  0.0516
  834MPD2    C212260   4.354   1.047  11.113 -0.0915 -0.2695 -0.1852
  834MPD2    C312261   4.360   1.177  11.078  0.4935  0.3813  0.4552
  834MPD2    C412262   4.378   1.207  10.943 -1.2050 -0.2654 -0.4389
  834MPD2    C512263   4.358   1.104  10.852  0.3721  0.9265 -0.8152
  834MPD2     H12264   4.353   1.033  11.221 -1.7096 -0.6083 -0.2484
  834MPD2    H112265   4.401   1.308  10.909  0.4923 -0.1759  0.9917
  834MPD2    H212266   4.301   0.902  10.804  0.3593  0.1861  0.3020
  834MPD2    H312267   4.372   1.114  10.745  0.9814  1.2686 -0.6988
  834MPD2     N12268   4.378   1.270  11.182  0.3365 -0.2211  0.2592
  834MPD2    H512269   4.392   1.233  11.276 -2.4002  1.0868  1.1723
  834MPD2    N112270   4.321   0.811  11.049 -0.8135  0.1554 -0.0173
  834MPD2    H712271   4.309   0.751  10.968  1.5060  0.1383 -0.3636
  835MPD2     C12272   4.353   3.148  11.112 -0.9943 -0.1050 -0.3643
  835MPD2    C112273   4.268   3.260  11.108 -0.3292  0.3901  0.1435
  835MPD2    C212274   4.245   3.327  11.228 -0.1051  0.2141 -0.3391
  835MPD2    C312275   4.290   3.280  11.350 -0.0025  0.0594  0.4466
  835MPD2    C412276   4.368   3.174  11.355  0.7417 -0.3636  0.6302
  835MPD2    C512277   4.398   3.107  11.238 -0.2378  0.2339 -0.5195
  835MPD2     H12278   4.185   3.416  11.222  0.6258  0.7386  0.1972
  835MPD2    H112279   4.414   3.138  11.446  0.0272  0.2340  1.2322
  835MPD2    H212280   4.389   3.111  11.017 -1.0824 -1.2707  0.0524
  835MPD2    H312281   4.482   3.039  11.250 -0.2443  0.2972 -0.1201
  835MPD2     N12282   4.253   3.345  11.474 -0.6703 -0.0969  0.8918
  835MPD2    H512283   4.282   3.301  11.560  0.1366 -0.9035  0.2123
  835MPD2    N112284   4.227   3.313  10.977  0.2524  0.6460 -0.9163
  835MPD2    H712285   4.269   3.266  10.897  2.0974  0.1346  0.3803
  836MPD2     C12286   3.626   3.816  11.605  0.2122 -0.2441 -0.1423
  836MPD2    C112287   3.688   3.779  11.718 -0.0432 -0.4538 -0.0713
  836MPD2    C212288   3.620   3.783  11.841  0.5152  0.0482 -0.0118
  836MPD2    C312289   3.486   3.821  11.845  0.7083  0.3600  0.1485
  836MPD2    C412290   3.425   3.848  11.727 -0.6985 -0.5678  0.4951
  836MPD2    C512291   3.498   3.849  11.611  0.1362 -0.0822 -0.5316
  836MPD2     H12292   3.674   3.750  11.930 -0.9956 -2.1827  0.0972
  836MPD2    H112293   3.320   3.871  11.713 -0.7807 -0.0760  1.8876
  836MPD2    H212294   3.669   3.806  11.505 -0.9812 -2.0996 -0.4633
  836MPD2    H312295   3.443   3.880  11.522 -0.5750 -0.4901 -0.2350
  836MPD2     N12296   3.403   3.822  11.963 -0.4295 -0.4446  0.4450
  836MPD2    H512297   3.303   3.829  11.952 -0.3278 -1.8203 -1.3770
  836MPD2    N112298   3.820   3.731  11.704  0.0122  0.3635 -0.7327
  836MPD2    H712299   3.855   3.716  11.611  3.0580  0.9045  0.3402
  837MPD2     C12300   2.056   3.029   9.853 -1.2648 -0.6504 -0.2767
  837MPD2    C112301   2.015   3.059   9.722 -0.0074  0.3556 -0.3539
  837MPD2    C212302   1.985   3.189   9.685  0.1337 -0.6819  0.4620
  837MPD2    C312303   1.991   3.285   9.779 -0.1796  0.2971  0.3125
  837MPD2    C412304   2.032   3.259   9.905  0.5772 -0.1140 -0.3565
  837MPD2    C512305   2.068   3.130   9.937  0.2825  0.0421 -0.4000
  837MPD2     H12306   1.934   3.205   9.591  2.5051  1.5215 -0.4545
  837MPD2    H112307   2.050   3.344   9.970  1.4670  0.2929 -1.1387
  837MPD2    H212308   2.087   2.932   9.891 -1.5567 -0.0928  1.3609
  837MPD2    H312309   2.123   3.112  10.029  1.4039 -0.3608 -1.1413
  837MPD2     N12310   1.928   3.410   9.738 -0.0541  0.4158  0.7049
  837MPD2    H512311   1.903   3.418   9.640  0.6227  0.2998  0.5263
  837MPD2    N112312   1.985   2.967   9.623 -0.5800 -0.0769 -0.0081
  837MPD2    H712313   1.970   2.997   9.528 -2.7425 -1.6019 -0.1433
  838MPD2     C12314   0.474   0.865  11.021 -0.4327 -0.1783  0.3128
  838MPD2    C112315   0.559   0.946  11.091  0.0557 -0.0989 -0.6762
  838MPD2    C212316   0.523   0.983  11.222 -0.4429  0.0302  0.2919
  838MPD2    C312317   0.402   0.945  11.277  0.1423 -0.2997  0.0109
  838MPD2    C412318   0.313   0.875  11.193  0.2088  0.5271 -0.0949
  838MPD2    C512319   0.349   0.831  11.070 -0.1169  1.2730  1.2738
  838MPD2     H12320   0.589   1.041  11.285 -2.3892  0.2874  2.0912
  838MPD2    H112321   0.218   0.840  11.231  1.0473 -1.3701  0.2810
  838MPD2    H212322   0.505   0.833  10.923 -1.7207 -0.6704  0.0691
  838MPD2    H312323   0.278   0.764  11.023  1.1195  0.6606  0.2977
  838MPD2     N12324   0.384   0.970  11.411  0.1277  0.2152 -0.5249
  838MPD2    H512325   0.448   1.036  11.453 -1.7821  1.5229  0.3577
  838MPD2    N112326   0.682   0.991  11.040 -0.3409 -0.1102  0.0486
  838MPD2    H712327   0.740   1.040  11.108  0.3904 -1.2743  0.2678
  839MPD2     C12328   0.617   0.780  11.634 -0.2758  0.2968 -0.0760
  839MPD2    C112329   0.590   0.722  11.509  0.4130  0.4190  0.3239
  839MPD2    C212330   0.661   0.755  11.398  0.2164 -0.1772  0.5378
  839MPD2    C312331   0.775   0.838  11.414 -0.2386  0.1708  0.5004
  839MPD2    C412332   0.787   0.909  11.537 -0.5686  1.2894 -0.1963
  839MPD2    C512333   0.717   0.876  11.650 -0.4768 -0.1209  0.6790
  839MPD2     H12334   0.641   0.705  11.304  1.0131 -0.8750  0.7363
  839MPD2    H112335   0.876   0.968  11.555  1.5484 -0.7624 -3.9069
  839MPD2    H212336   0.551   0.777  11.720  0.5777 -1.8819  0.5110
  839MPD2    H312337   0.722   0.937  11.739  0.4003  0.2423  0.3867
  839MPD2     N12338   0.855   0.853  11.304 -0.0687 -0.5428 -0.6434
  839MPD2    H512339   0.833   0.801  11.220 -1.4326  0.5846 -0.9840
  839MPD2    N112340   0.495   0.621  11.494 -0.3880  0.2982  0.2109
  839MPD2    H712341   0.472   0.589  11.401  0.9362 -0.1434  0.0364
  840MPD2     C12342   1.086   3.456  10.135 -0.5322 -0.3031  0.4580
  840MPD2    C112343   1.025   3.430  10.250 -0.5220 -0.0300  0.6834
  840MPD2    C212344   1.062   3.495  10.367  0.2822  0.0260  0.3843
  840MPD2    C312345   1.158   3.598  10.360 -0.1554 -0.1182 -0.2921
  840MPD2    C412346   1.220   3.626  10.245  0.2919 -0.4618  0.6169
  840MPD2    C512347   1.181   3.552  10.136  0.4955 -0.5637 -0.2612
  840MPD2     H12348   1.008   3.471  10.458  1.6776 -0.5583  1.0549
  840MPD2    H112349   1.278   3.716  10.233  1.9814 -1.4559  1.3123
  840MPD2    H212350   1.067   3.393  10.049 -0.7438  0.4057 -0.0142
  840MPD2    H312351   1.237   3.565  10.044 -1.4424 -1.1284 -1.5160
  840MPD2     N12352   1.193   3.673  10.477 -0.5123 -0.4964 -0.0807
  840MPD2    H512353   1.261   3.748  10.469 -0.0147 -0.9137  0.2587
  840MPD2    N112354   0.917   3.335  10.251 -0.0735  0.4392 -0.2107
  840MPD2    H712355   0.874   3.306  10.164 -0.7265 -1.5824  0.8050
  841MPD2     C12356   0.535   3.384  14.625 -0.3753 -0.2801  0.1448
  841MPD2    C112357   0.554   3.291  14.725  0.3408  0.6583 -0.1229
  841MPD2    C212358   0.671   3.292  14.799 -0.1006  0.1610  0.4942
  841MPD2    C312359   0.775   3.383  14.777  0.4264 -0.4364 -0.7786
  841MPD2    C412360   0.750   3.476  14.674  0.0532  0.0981 -0.2275
  841MPD2    C512361   0.632   3.479  14.599  0.1896 -0.1054  0.3268
  841MPD2     H12362   0.685   3.209  14.868 -0.7245  0.9229  1.5193
  841MPD2    H112363   0.821   3.551  14.643  0.1014  0.4373  0.6806
  841MPD2    H212364   0.442   3.401  14.571 -0.7464  0.7512  1.1002
  841MPD2    H312365   0.621   3.556  14.523  0.8758  0.3288  0.6602
  841MPD2     N12366   0.889   3.372  14.859 -0.3159  1.1848  0.8784
  841MPD2    H512367   0.882   3.309  14.938  0.9046 -0.9056 -0.6439
  841MPD2    N112368   0.449   3.196  14.751 -0.3672  0.5812  0.7240
  841MPD2    H712369   0.456   3.130  14.827 -0.2516 -3.3015 -2.6934
  842MPD2     C12370   1.061   4.511  16.259  0.3241 -0.4970  0.4340
  842MPD2    C112371   0.955   4.478  16.344  0.0857  0.2241 -0.7334
  842MPD2    C212372   0.978   4.405  16.464  0.6115  0.2777 -0.2481
  842MPD2    C312373   1.108   4.353  16.480  0.4144 -0.0302  0.0744
  842MPD2    C412374   1.215   4.376  16.396  0.1439 -0.0370 -0.2457
  842MPD2    C512375   1.190   4.461  16.282 -0.4720  0.1378 -0.3471
  842MPD2     H12376   0.916   4.405  16.553  2.3474 -0.6801  0.9656
  842MPD2    H112377   1.318   4.346  16.411 -0.4396 -1.8552  0.1205
  842MPD2    H212378   1.042   4.573  16.172 -0.1772  1.9495  2.3023
  842MPD2    H312379   1.264   4.495  16.211  0.6256  0.1734  0.8120
  842MPD2     N12380   1.143   4.298  16.611  0.0014  0.1431  0.2957
  842MPD2    H512381   1.241   4.292  16.634  0.5073  0.6634 -1.7038
  842MPD2    N112382   0.838   4.545  16.323  0.1181  0.3647 -0.0680
  842MPD2    H712383   0.841   4.607  16.243 -0.4347 -0.8499 -1.0240
  843MPD2     C12384   2.676   4.373   0.113 -0.3995  0.0077 -0.1051
  843MPD2    C112385   2.681   4.406   0.240 -1.0142  0.1378 -0.0127
  843MPD2    C212386   2.741   4.524   0.287  0.7631 -0.3571 -0.0591
  843MPD2    C312387   2.816   4.607   0.199 -0.0301  0.7676  0.2718
  843MPD2    C412388   2.814   4.567   0.071  0.3900 -0.4239  0.2998
  843MPD2    C512389   2.752   4.450   0.033  0.1775  0.0643  0.3135
  843MPD2     H12390   2.730   4.556   0.389 -0.1328 -1.4505  0.1925
  843MPD2    H112391   2.865   4.631   0.000  2.4400 -1.8816  0.4863
  843MPD2    H212392   2.630   4.280   0.080  1.3224 -1.1521  0.7520
  843MPD2    H312393   2.747   4.428  17.620  2.1755 -3.0032  0.8445
  843MPD2     N12394   2.902   4.713   0.239 -0.2665 -0.5563  0.3335
  843MPD2    H512395   2.968   0.025   0.170 -1.9394 -1.6065 -1.7908
  843MPD2    N112396   2.601   4.319   0.319  0.0785  0.0540 -0.7897
  843MPD2    H712397   2.557   4.236   0.280  0.8130 -0.5368 -0.3570
  844MPD2     C12398   1.693   4.020  16.584 -0.7502  0.1082  0.3085
  844MPD2    C112399   1.772   3.915  16.642 -0.4802  0.2451 -0.1522
  844MPD2    C212400   1.878   3.957  16.721 -0.3936  0.1685 -0.3144
  844MPD2    C312401   1.901   4.092  16.746  0.6356  0.6984 -0.1196
  844MPD2    C412402   1.822   4.194  16.690 -0.2579 -0.7401 -0.3322
  844MPD2    C512403   1.719   4.154  16.611  0.1736 -0.0821 -0.1966
  844MPD2     H12404   1.947   3.894  16.776 -1.4427  1.6375  2.6652
  844MPD2    H112405   1.831   4.298  16.718 -0.2290 -0.6269 -0.7565
  844MPD2    H212406   1.604   3.991  16.530  1.3891 -1.7432 -2.2320
  844MPD2    H312407   1.659   4.232  16.565 -2.1073 -2.8981 -2.0037
  844MPD2     N12408   2.005   4.122  16.838 -0.4685 -0.5623 -0.3358
  844MPD2    H512409   2.064   4.041  16.854  0.0399 -0.1088  0.0727
  844MPD2    N112410   1.755   3.778  16.612  0.0834  0.2706 -0.3023
  844MPD2    H712411   1.813   3.706  16.652  0.9931  0.5902 -1.0421
  845MPD2     C12412   2.493   0.203  16.812  1.3154  0.4925 -0.0764
  845MPD2    C112413   2.434   0.183  16.935  0.0032 -0.0746  0.1263
  845MPD2    C212414   2.419   0.052  16.980  0.5713 -0.3373  0.6797
  845MPD2    C312415   2.466   4.666  16.899 -0.2448 -0.2207  0.2778
  845MPD2    C412416   2.524   4.689  16.778  0.5846 -0.5010  0.2736
  845MPD2    C512417   2.546   0.096  16.734 -0.1598  0.0500 -0.2373
  845MPD2     H12418   2.377   0.038  17.079 -1.2269 -1.4354 -0.2512
  845MPD2    H112419   2.546   4.607  16.711  0.6594  0.8924 -1.3894
  845MPD2    H212420   2.487   0.305  16.777  0.0280  0.3470 -0.2911
  845MPD2    H312421   2.581   0.119  16.635 -0.8282 -1.7284 -0.8836
  845MPD2     N12422   2.448   4.531  16.934  0.0917 -0.8800 -0.4943
  845MPD2    H512423   2.440   4.464  16.858 -4.5676 -1.9052  0.8962
  845MPD2    N112424   2.396   0.294  17.007  0.1449 -0.4401  0.5057
  845MPD2    H712425   2.410   0.383  16.961 -0.6346 -0.3678  0.4109
  846MPD2     C12426   3.682   0.487  13.704  0.4013 -0.5591  0.2195
  846MPD2    C112427   3.566   0.559  13.738  0.2275 -0.2806 -0.1987
  846MPD2    C212428   3.504   0.535  13.861  0.8338  0.0843  0.5147
  846MPD2    C312429   3.565   0.454  13.959 -0.3779 -0.3409 -0.7114
  846MPD2    C412430   3.690   0.401  13.934 -0.1037 -0.0870 -0.2238
  846MPD2    C512431   3.745   0.420  13.806 -0.0170 -0.2469 -0.6600
  846MPD2     H12432   3.411   0.586  13.882  0.0458 -0.9772 -0.3596
  846MPD2    H112433   3.749   0.345  14.007  0.6039 -1.6626 -1.9921
  846MPD2    H212434   3.745   0.505  13.617 -2.8585  0.0924 -2.0300
  846MPD2    H312435   3.834   0.360  13.787  0.8480  1.4052 -1.7878
  846MPD2     N12436   3.492   0.422  14.074  0.3894 -0.0967 -0.2777
  846MPD2    H512437   3.396   0.451  14.087 -0.5655 -2.4747 -2.0090
  846MPD2    N112438   3.502   0.643  13.643  0.5745 -0.0781 -0.2062
  846MPD2    H712439   3.423   0.700  13.674  0.7755 -0.4938  1.0904
  847MPD2     C12440   3.677   1.326  14.308  0.0399 -0.7677  0.0386
  847MPD2    C112441   3.764   1.302  14.415  0.0321  0.2449 -0.4381
  847MPD2    C212442   3.759   1.191  14.489 -0.6384 -0.1582 -0.2214
  847MPD2    C312443   3.663   1.100  14.463 -0.0398 -0.4569 -0.2548
  847MPD2    C412444   3.583   1.117  14.354 -0.1533  0.4757 -0.0709
  847MPD2    C512445   3.586   1.230  14.274 -0.5308  0.2196 -0.0311
  847MPD2     H12446   3.823   1.179  14.576 -0.1393 -0.6822 -0.6592
  847MPD2    H112447   3.506   1.047  14.322 -1.2250  0.6315  2.1870
  847MPD2    H212448   3.699   1.406  14.239 -0.4849  0.0199  0.7954
  847MPD2    H312449   3.527   1.218  14.184 -0.4260  4.7156 -0.6901
  847MPD2     N12450   3.637   0.996  14.558  0.2693  0.4182  0.4549
  847MPD2    H512451   3.704   0.997  14.634  1.2767  1.5786 -0.4531
  847MPD2    N112452   3.866   1.390  14.450  0.1531 -0.1827 -0.3571
  847MPD2    H712453   3.914   1.359  14.534 -0.7631 -0.8246 -0.0659
  848MPD2     C12454   1.536   4.528  16.501 -0.7037 -0.0749  1.1639
  848MPD2    C112455   1.562   4.593  16.616 -0.1139  0.5625 -0.1415
  848MPD2    C212456   1.572   0.010  16.610  1.0697  0.3033 -0.5280
  848MPD2    C312457   1.568   0.079  16.491 -0.4687 -0.2677  0.1947
  848MPD2    C412458   1.539   0.011  16.380  0.3929 -0.4069 -0.0758
  848MPD2    C512459   1.524   4.599  16.386 -0.6578  0.9179 -0.1593
  848MPD2     H12460   1.587   0.060  16.705 -1.8538  0.1429  0.0255
  848MPD2    H112461   1.529   0.061  16.284  0.1782  2.7527  1.6018
  848MPD2    H212462   1.520   4.421  16.502  0.6108 -0.2892 -0.2373
  848MPD2    H312463   1.501   4.539  16.299 -1.2317 -0.3540  0.8552
  848MPD2     N12464   1.578   0.217  16.474  0.5185  0.4178 -0.2022
  848MPD2    H512465   1.555   0.260  16.385  3.4779 -0.8372 -1.5823
  848MPD2    N112466   1.573   4.529  16.743 -0.0311  0.1544  0.2645
  848MPD2    H712467   1.626   4.579  16.814  0.2799 -1.8790  1.4664
  849MPD2     C12468   0.983   4.168  13.336 -0.0381 -0.2922 -0.2282
  849MPD2    C112469   1.052   4.064  13.397  1.0689  0.1333  0.3260
  849MPD2    C212470   1.029   4.059  13.537 -0.1550 -0.0339 -0.5664
  849MPD2    C312471   0.943   4.139  13.606 -0.8309 -0.5482  0.5454
  849MPD2    C412472   0.869   4.232  13.541 -0.0927 -0.8066 -0.1613
  849MPD2    C512473   0.902   4.249  13.410 -0.4751  0.5149  0.4747
  849MPD2     H12474   1.077   3.981  13.595 -0.2944 -0.1059 -0.5498
  849MPD2    H112475   0.793   4.293  13.587 -0.5382 -1.0386 -0.5880
  849MPD2    H212476   1.001   4.194  13.233  0.7857  1.7468  0.4217
  849MPD2    H312477   0.858   4.336  13.365 -0.6679 -0.9230 -2.1059
  849MPD2     N12478   0.919   4.118  13.749 -0.0468  0.2074 -0.5470
  849MPD2    H512479   0.854   4.181  13.793  1.6128 -0.5510  3.0163
  849MPD2    N112480   1.144   3.986  13.325 -0.8436  0.2168  0.3900
  849MPD2    H712481   1.156   4.011  13.227  0.5631 -1.8428  0.0285
  850MPD2     C12482   3.381   2.362  14.662  0.7492 -0.2142 -0.3759
  850MPD2    C112483   3.371   2.432  14.782 -0.3816 -0.3103 -0.0535
  850MPD2    C212484   3.487   2.473  14.838 -0.1988  0.3237 -0.4989
  850MPD2    C312485   3.612   2.418  14.799 -0.0855 -0.0379  0.0689
  850MPD2    C412486   3.612   2.335  14.691 -0.4014 -0.6559 -0.4889
  850MPD2    C512487   3.501   2.312  14.618 -0.2146  0.1494  0.7231
  850MPD2     H12488   3.475   2.544  14.919 -1.2433  0.9501 -1.1858
  850MPD2    H112489   3.703   2.283  14.663  0.3037 -0.4017  1.3355
  850MPD2    H212490   3.294   2.322  14.610  0.1082  1.4070 -0.5644
  850MPD2    H312491   3.503   2.258  14.524  1.1058  0.8490  0.3527
  850MPD2     N12492   3.734   2.456  14.860 -0.2915  0.5643  0.0582
  850MPD2    H512493   3.819   2.418  14.819 -0.6664  0.2367 -0.4140
  850MPD2    N112494   3.239   2.470  14.824  0.1755 -0.6188  0.2924
  850MPD2    H712495   3.167   2.451  14.754 -0.6043  0.9417  0.6563
  851MPD2     C12496   3.747   2.327  15.522  0.1369 -0.0672 -0.4974
  851MPD2    C112497   3.668   2.279  15.412  0.8197 -0.3970 -0.5606
  851MPD2    C212498   3.681   2.153  15.362 -0.4773  0.2101 -0.5905
  851MPD2    C312499   3.771   2.067  15.425 -0.7822 -0.4059 -0.2779
  851MPD2    C412500   3.832   2.099  15.544 -0.1403 -0.2792  0.0414
  851MPD2    C512501   3.822   2.229  15.583 -0.5504  0.4387  0.0230
  851MPD2     H12502   3.627   2.110  15.278 -0.7298 -1.7827  0.5852
  851MPD2    H112503   3.894   2.023  15.589  1.0421  1.1874  0.8928
  851MPD2    H212504   3.751   2.425  15.568 -1.0291 -0.6030  0.7218
  851MPD2    H312505   3.877   2.255  15.674  2.6031  0.1215 -1.7813
  851MPD2     N12506   3.796   1.945  15.362 -0.2453  0.1718  0.2985
  851MPD2    H512507   3.735   1.925  15.283 -0.8705 -1.0600  1.0981
  851MPD2    N112508   3.587   2.375  15.343  0.0273 -0.1583 -0.3297
  851MPD2    H712509   3.580   2.467  15.384  0.5509 -0.5432  0.6273
  852MPD2     C12510   3.210   0.347  11.011  0.8813  0.3169 -0.0516
  852MPD2    C112511   3.205   0.230  10.935  0.4113  0.6149  0.0138
  852MPD2    C212512   3.220   0.249  10.798 -0.3622  0.2696 -0.0353
  852MPD2    C312513   3.248   0.367  10.737 -0.1786 -0.0225 -0.7877
  852MPD2    C412514   3.243   0.481  10.812 -0.2159 -0.1030 -0.0770
  852MPD2    C512515   3.227   0.470  10.947  0.0136 -0.7584  0.3242
  852MPD2     H12516   3.213   0.158  10.740 -2.8582  1.2708 -1.2817
  852MPD2    H112517   3.258   0.573  10.755 -0.5033 -0.7710 -1.2358
  852MPD2    H212518   3.195   0.357  11.118  0.5552 -0.6266 -0.0123
  852MPD2    H312519   3.226   0.559  11.008 -1.7170 -0.0938 -0.6612
  852MPD2     N12520   3.280   0.354  10.597 -0.5385 -0.0171  0.0387
  852MPD2    H512521   3.241   0.272  10.552 -1.0055  0.5442 -0.5768
  852MPD2    N112522   3.197   0.096  10.980 -0.4115  0.3669  0.1345
  852MPD2    H712523   3.176   0.028  10.908  2.5473 -0.4830  0.0867
  853MPD2     C12524   0.686   4.585  12.217 -0.1273 -0.0895  0.4185
  853MPD2    C112525   0.555   4.619  12.211  0.0712  0.4648 -0.2962
  853MPD2    C212526   0.484   4.599  12.086  0.5160 -0.2336  0.1128
  853MPD2    C312527   0.551   4.546  11.974 -0.6663  0.1246  0.1936
  853MPD2    C412528   0.684   4.512  11.991 -0.0504 -0.4367 -0.4852
  853MPD2    C512529   0.753   4.530  12.108  0.1244  0.4479 -0.1477
  853MPD2     H12530   0.378   4.615  12.076  1.0586  3.7050  0.5318
  853MPD2    H112531   0.739   4.466  11.909 -1.1397  1.7905 -2.4732
  853MPD2    H212532   0.742   4.596  12.309  0.3149 -0.7016  0.2255
  853MPD2    H312533   0.855   4.493  12.110  0.6596  1.9805  0.9197
  853MPD2     N12534   0.491   4.539  11.843 -0.0606 -0.9822  0.0065
  853MPD2    H512535   0.555   4.509  11.770  1.2899 -0.7436  1.0940
  853MPD2    N112536   0.493   4.662  12.333 -0.9063 -0.3119  0.0868
  853MPD2    H712537   0.558   4.675  12.410  1.0237  3.1667 -2.1253
  854MPD2     C12538   1.659   4.540  12.684 -0.4869  0.2391  0.2148
  854MPD2    C112539   1.791   4.574  12.647 -0.8319  0.1142 -0.2451
  854MPD2    C212540   1.892   4.482  12.677  0.5267 -0.0084  0.3770
  854MPD2    C312541   1.866   4.364  12.743 -0.5545 -0.0902 -0.1455
  854MPD2    C412542   1.737   4.335  12.772 -0.8424  0.5169 -0.0388
  854MPD2    C512543   1.638   4.418  12.745  0.1712 -0.3538 -0.1025
  854MPD2     H12544   1.994   4.513  12.658  1.3198 -2.6116  0.3617
  854MPD2    H112545   1.710   4.236  12.807  0.0082  0.1088 -0.5414
  854MPD2    H212546   1.579   4.604  12.648 -0.1058  0.9306  0.6064
  854MPD2    H312547   1.533   4.391  12.753 -0.6819  3.5045  1.7403
  854MPD2     N12548   1.963   4.267  12.755  0.1986 -1.4206  0.0450
  854MPD2    H512549   1.934   4.189  12.813 -0.7444 -0.1832  1.2378
  854MPD2    N112550   1.806   4.693  12.567 -0.2667  0.0976 -0.4019
  854MPD2    H712551   1.723   0.025  12.550  0.1525  0.4552 -1.2966
  855MPD2     C12552   2.276   4.355  13.547 -0.4253 -0.4847 -0.2391
  855MPD2    C112553   2.295   4.219  13.529 -0.5462 -0.8334 -0.0896
  855MPD2    C212554   2.287   4.157  13.403 -0.7599 -0.7196 -0.2577
  855MPD2    C312555   2.255   4.234  13.288  0.4498 -0.4865 -0.5999
  855MPD2    C412556   2.233   4.369  13.311  0.5756  0.1590  0.2229
  855MPD2    C512557   2.257   4.435  13.436  0.2309  0.0639 -0.8360
  855MPD2     H12558   2.304   4.051  13.390  1.4488 -0.3487 -0.3220
  855MPD2    H112559   2.200   4.429  13.226 -0.5271 -1.5762 -0.5884
  855MPD2    H212560   2.295   4.405  13.641  0.9932 -0.0095 -0.7822
  855MPD2    H312561   2.256   4.543  13.448 -3.1390 -0.1500  0.8588
  855MPD2     N12562   2.252   4.190  13.159  0.1304  0.4933 -0.4346
  855MPD2    H512563   2.231   4.260  13.088  0.3633 -0.4677 -1.4610
  855MPD2    N112564   2.325   4.135  13.640 -0.2150  0.2143  0.3054
  855MPD2    H712565   2.318   4.035  13.625 -0.6478  0.2455  0.2954
  856MPD2     C12566   4.522   1.172  13.681  0.7446  0.3643 -0.6271
  856MPD2    C112567   4.524   1.223  13.805  0.0290 -0.3529  0.2176
  856MPD2    C212568   4.411   1.276  13.859  0.7243 -0.0064 -0.2689
  856MPD2    C312569   4.289   1.285  13.790 -0.2202 -0.8677 -0.1457
  856MPD2    C412570   4.289   1.239  13.657 -0.3694  0.8671 -0.5694
  856MPD2    C512571   4.408   1.184  13.607  0.3461  0.3512 -0.6115
  856MPD2     H12572   4.417   1.325  13.955  0.0892 -0.3381 -0.0587
  856MPD2    H112573   4.204   1.244  13.590 -0.6288 -0.5373 -0.3438
  856MPD2    H212574   4.612   1.123  13.646  0.2422 -1.1618  0.2377
  856MPD2    H312575   4.413   1.138  13.508 -1.0562 -3.4061  1.0699
  856MPD2     N12576   4.170   1.337  13.842  0.3259 -0.4423 -0.0504
  856MPD2    H512577   4.091   1.346  13.780 -1.4023  0.9397  2.3468
  856MPD2    N112578   4.637   1.217  13.891  0.0845  0.2597 -0.6409
  856MPD2    H712579   4.609   1.245  13.985  0.7884 -0.7691 -0.1304
  857MPD2     C12580   1.122   2.638  12.687  0.4595  0.2195  0.7233
  857MPD2    C112581   1.247   2.637  12.746 -0.1850 -0.0524 -0.4534
  857MPD2    C212582   1.291   2.732  12.833  0.4150 -0.4894  0.1499
  857MPD2    C312583   1.214   2.846  12.856 -0.2548  0.5753 -0.3616
  857MPD2    C412584   1.087   2.844  12.800 -0.3947  0.3246 -0.4538
  857MPD2    C512585   1.042   2.744  12.715 -0.2703  0.0203  0.0517
  857MPD2     H12586   1.389   2.734  12.879  1.1993  0.2652 -1.5191
  857MPD2    H112587   1.020   2.929  12.808  0.0428  0.4082  2.4695
  857MPD2    H212588   1.095   2.557  12.620  2.7466 -0.6655  0.8525
  857MPD2    H312589   0.948   2.760  12.665 -0.7341  0.2472  1.0001
  857MPD2     N12590   1.271   2.955  12.929 -0.0363 -0.2498 -0.1890
  857MPD2    H512591   1.363   2.944  12.969 -0.3248  0.2868  0.6177
  857MPD2    N112592   1.333   2.530  12.716  0.2106  0.2711 -0.7725
  857MPD2    H712593   1.295   2.457  12.657  0.9780 -2.7500  2.4625
  858MPD2     C12594   1.776   1.547  16.434 -0.4918 -0.3335 -0.0301
  858MPD2    C112595   1.878   1.601  16.366  1.0515  0.0935 -0.9225
  858MPD2    C212596   1.907   1.736  16.381  0.0409  0.1943 -0.5589
  858MPD2    C312597   1.839   1.808  16.480 -0.7688  0.1071  0.2196
  858MPD2    C412598   1.736   1.754  16.558 -0.6562  0.7317  0.2256
  858MPD2    C512599   1.704   1.618  16.532 -0.2127 -0.3894 -0.0924
  858MPD2     H12600   1.970   1.775  16.301  0.2683  1.1320  0.0733
  858MPD2    H112601   1.682   1.807  16.636  0.4337  3.3664 -0.7837
  858MPD2    H212602   1.745   1.443  16.424 -2.9415  0.3798  0.1994
  858MPD2    H312603   1.635   1.566  16.596 -0.9672  1.1385  0.3165
  858MPD2     N12604   1.885   1.935  16.516 -0.1707  0.5379 -0.4766
  858MPD2    H512605   1.843   1.966  16.603  1.8707 -0.5905  0.9099
  858MPD2    N112606   1.958   1.500  16.297 -0.4351  0.2657 -0.1843
  858MPD2    H712607   1.937   1.401  16.308 -4.7001  1.4265  2.2988
  859MPD2     C12608   0.783   4.434  15.540 -0.0197 -0.3965  0.8381
  859MPD2    C112609   0.830   4.319  15.491  0.3814  0.1940  0.1458
  859MPD2    C212610   0.837   4.204  15.573  0.0618  0.2430 -0.4837
  859MPD2    C312611   0.767   4.202  15.688  0.4533  0.2200 -0.6532
  859MPD2    C412612   0.707   4.314  15.738  0.4075 -0.3399 -0.3659
  859MPD2    C512613   0.716   4.432  15.659 -1.0495 -0.8196  0.1961
  859MPD2     H12614   0.894   4.115  15.547 -0.9095 -0.8668  1.2105
  859MPD2    H112615   0.669   4.318  15.839  0.7645  0.1461 -0.2501
  859MPD2    H212616   0.783   4.528  15.485 -0.2520 -1.1808 -0.4888
  859MPD2    H312617   0.679   4.525  15.702  2.2842  1.4733 -1.9756
  859MPD2     N12618   0.752   4.080  15.765  0.2738 -0.2998 -0.1612
  859MPD2    H512619   0.715   4.091  15.859  1.0522  0.6476  0.0299
  859MPD2    N112620   0.905   4.339  15.364  0.0205  0.0700  0.3270
  859MPD2    H712621   0.908   4.435  15.330 -1.5086 -0.3996 -1.1087
  860MPD2     C12622   3.557   4.305  11.804  0.0630 -0.3635 -0.4325
  860MPD2    C112623   3.489   4.403  11.875  0.2326 -0.2486  0.6103
  860MPD2    C212624   3.349   4.396  11.866 -0.4760 -0.4508 -0.2024
  860MPD2    C312625   3.289   4.288  11.812  0.7947 -0.6834 -0.3968
  860MPD2    C412626   3.358   4.187  11.750  0.0713  0.3310  0.3579
  860MPD2    C512627   3.500   4.195  11.747  0.2591  0.0261  0.4459
  860MPD2     H12628   3.297   4.468  11.927  2.8782 -0.1689  2.3404
  860MPD2    H112629   3.318   4.098  11.702  2.1529 -1.7654  2.5260
  860MPD2    H212630   3.665   4.301  11.810  0.1839 -0.0575 -2.5519
  860MPD2    H312631   3.563   4.116  11.708 -1.6519 -0.0524 -2.5356
  860MPD2     N12632   3.146   4.295  11.807  0.1104  0.5062  0.0829
  860MPD2    H512633   3.099   4.380  11.837 -1.1561  0.2100 -1.0704
  860MPD2    N112634   3.557   4.506  11.946  0.6288  0.1850 -0.4998
  860MPD2    H712635   3.503   4.572  12.001 -0.8376 -0.5133 -1.0850
  861MPD2     C12636   2.207   2.701  10.769 -0.3005  0.1939  0.0464
  861MPD2    C112637   2.117   2.760  10.858  0.1995 -0.4695  0.1210
  861MPD2    C212638   1.982   2.777  10.823  0.6517 -0.0147  0.8333
  861MPD2    C312639   1.937   2.738  10.700  0.4678 -0.5519  0.0510
  861MPD2    C412640   2.018   2.680  10.610 -0.5632 -0.5559  0.3687
  861MPD2    C512641   2.155   2.665  10.648 -0.1453  0.3399  0.7897
  861MPD2     H12642   1.917   2.840  10.884  1.7769  0.6536  1.3437
  861MPD2    H112643   1.985   2.659  10.508 -0.9100 -0.7495  0.5223
  861MPD2    H212644   2.308   2.669  10.790 -1.0136 -1.0811  1.5347
  861MPD2    H312645   2.224   2.625  10.575 -1.9871 -3.0090  0.8871
  861MPD2     N12646   1.807   2.776  10.643  0.0117  0.2478 -0.5911
  861MPD2    H512647   1.800   2.769  10.542  3.1731  0.1798 -0.8230
  861MPD2    N112648   2.161   2.791  10.990 -0.7941  0.3218  0.0742
  861MPD2    H712649   2.086   2.815  11.053 -0.8756  0.2936 -0.0123
  862MPD2     C12650   1.402   2.796  10.071 -0.4819  0.7639 -0.8173
  862MPD2    C112651   1.505   2.753  10.157  0.3554  0.0459 -0.3049
  862MPD2    C212652   1.558   2.625  10.146  0.0717  0.5233 -0.0270
  862MPD2    C312653   1.513   2.534  10.052 -0.5053  0.5364  0.2322
  862MPD2    C412654   1.411   2.570   9.964 -0.3452  0.0492  0.2721
  862MPD2    C512655   1.360   2.702   9.975  0.2532 -0.1456  0.1968
  862MPD2     H12656   1.630   2.595  10.221  0.5322 -0.5500 -0.9094
  862MPD2    H112657   1.380   2.489   9.899  0.6753 -0.6818  0.7058
  862MPD2    H212658   1.348   2.889  10.063  0.2152  1.2180 -0.2620
  862MPD2    H312659   1.289   2.748   9.907  0.9506  0.6638  0.0213
  862MPD2     N12660   1.556   2.400  10.032 -0.0479 -0.0368  0.0708
  862MPD2    H512661   1.532   2.356   9.943 -1.4105  0.4894  0.1793
  862MPD2    N112662   1.558   2.839  10.254  0.0463  0.2009  0.3185
  862MPD2    H712663   1.642   2.807  10.301 -0.0523 -2.2692 -1.1940
  863MPD2     C12664   0.256   0.522  17.078  0.0016 -0.7138  0.1731
  863MPD2    C112665   0.293   0.614  16.991 -0.3457  0.0362 -0.4864
  863MPD2    C212666   0.427   0.630  16.954 -0.2503 -0.8488 -0.4185
  863MPD2    C312667   0.520   0.555  17.029 -0.4972  0.0933 -1.2593
  863MPD2    C412668   0.480   0.461  17.118  0.8434  0.3651  0.0653
  863MPD2    C512669   0.348   0.438  17.133 -0.0262  0.2149 -0.1419
  863MPD2     H12670   0.455   0.714  16.890 -0.3587  1.1536  2.1574
  863MPD2    H112671   0.553   0.393  17.160  0.9424 -0.5404 -1.5784
  863MPD2    H212672   0.151   0.515  17.105  0.2150 -1.4573  0.7907
  863MPD2    H312673   0.312   0.356  17.194 -0.8593 -1.9971 -3.6483
  863MPD2     N12674   0.656   0.579  17.030  0.2468  0.5622  0.1955
  863MPD2    H512675   0.705   0.524  17.100  1.2903  2.1784  0.7416
  863MPD2    N112676   0.189   0.689  16.928 -0.1764  0.3710  0.3888
  863MPD2    H712677   0.091   0.673  16.950 -0.0900 -0.2961  0.2879
  864MPD2     C12678   1.285   2.597  17.402  0.0916  0.0938  0.2006
  864MPD2    C112679   1.344   2.510  17.317 -0.4238 -1.4504  0.4997
  864MPD2    C212680   1.407   2.566  17.202 -0.4989 -0.4365  0.1870
  864MPD2    C312681   1.398   2.701  17.173 -0.8684 -0.0747  0.5157
  864MPD2    C412682   1.342   2.783  17.264  0.4579  0.0568  0.4137
  864MPD2    C512683   1.282   2.730  17.375  0.0133  0.5963  0.5396
  864MPD2     H12684   1.448   2.501  17.125 -1.3329 -0.7495  0.0107
  864MPD2    H112685   1.332   2.890  17.245 -1.6071 -0.0611  0.8462
  864MPD2    H212686   1.237   2.566  17.494  0.3382  0.0751  0.3197
  864MPD2    H312687   1.238   2.798  17.446 -0.5448 -1.0789  1.7928
  864MPD2     N12688   1.445   2.752  17.049 -1.1013  0.1204 -0.2776
  864MPD2    H512689   1.439   2.852  17.030  0.6207  0.9246  3.4811
  864MPD2    N112690   1.336   2.373  17.352 -0.3397  0.4349  0.4855
  864MPD2    H712691   1.280   2.350  17.434 -1.9290  1.4406 -0.3267
  865MPD2     C12692   1.315   2.734  16.102  0.1418  0.3975 -0.5258
  865MPD2    C112693   1.278   2.672  16.224  0.0582 -0.3320  0.3714
  865MPD2    C212694   1.284   2.747  16.343 -0.1190  0.1964  0.5622
  865MPD2    C312695   1.336   2.879  16.344 -0.4022 -0.3277 -0.3427
  865MPD2    C412696   1.364   2.931  16.216  0.7579  0.2588  0.2376
  865MPD2    C512697   1.342   2.865  16.098  0.4877 -0.7049 -0.6403
  865MPD2     H12698   1.259   2.698  16.436 -0.2031  0.3522  0.6217
  865MPD2    H112699   1.397   3.034  16.208  1.0497  0.0620 -1.0132
  865MPD2    H212700   1.319   2.682  16.007 -1.9753  0.0776 -0.4298
  865MPD2    H312701   1.350   2.911  16.001  1.6171  2.5288  1.0105
  865MPD2     N12702   1.373   2.949  16.457 -0.1326  0.4000  0.6032
  865MPD2    H512703   1.438   3.025  16.444  0.3594  0.1215  1.4170
  865MPD2    N112704   1.245   2.534  16.215  0.0111  0.1701  0.0235
  865MPD2    H712705   1.239   2.503  16.118 -0.0932  0.1776  0.0272
  866MPD2     C12706   2.480   3.212  11.424  0.3851  0.0161 -0.0895
  866MPD2    C112707   2.489   3.195  11.282 -0.0697  0.5258 -0.1084
  866MPD2    C212708   2.386   3.222  11.197 -0.4368 -0.1101 -0.4704
  866MPD2    C312709   2.273   3.273  11.252 -0.8843  0.3226 -0.2253
  866MPD2    C412710   2.266   3.304  11.383  0.2173 -0.5381  0.1663
  866MPD2    C512711   2.369   3.273  11.472 -0.1424 -0.1719  0.2430
  866MPD2     H12712   2.408   3.227  11.091 -0.4178 -1.9651 -0.5518
  866MPD2    H112713   2.181   3.352  11.429  1.1848  0.7924  0.5585
  866MPD2    H212714   2.554   3.173  11.493 -1.1456 -1.0025  0.9577
  866MPD2    H312715   2.363   3.298  11.578 -0.3945  0.0478  0.1752
  866MPD2     N12716   2.156   3.296  11.177 -0.8235  0.1354 -0.3176
  866MPD2    H512717   2.071   3.315  11.229 -0.4460 -0.5812  0.5520
  866MPD2    N112718   2.606   3.136  11.223 -0.1405 -0.3229  0.5190
  866MPD2    H712719   2.618   3.156  11.124  1.8152 -2.9378  0.2428
  867MPD2     C12720   4.418   2.331  16.623  0.0200 -0.0682  0.1240
  867MPD2    C112721   4.467   2.258  16.732 -0.2927 -0.2252 -0.7580
  867MPD2    C212722   4.548   2.320  16.819  0.0278 -0.0429  0.2788
  867MPD2    C312723   4.601   2.449  16.796  0.2239 -0.0963 -0.0491
  867MPD2    C412724   4.556   2.513  16.685 -0.2154 -0.5776 -0.5157
  867MPD2    C512725   4.455   2.457  16.610 -0.4481 -0.3429 -0.6056
  867MPD2     H12726   4.592   2.265  16.902  0.1178 -0.5168 -0.0871
  867MPD2    H112727   4.585   2.617  16.672  1.0729 -0.9396 -0.5391
  867MPD2    H212728   4.350   2.292  16.548  0.1621 -1.5679  0.7826
  867MPD2    H312729   4.396   2.516  16.541 -0.6863  0.4183  0.2609
  867MPD2     N12730   4.702   2.510  16.878  0.0757 -0.1612 -0.1944
  867MPD2    H512731   0.014   2.604  16.863 -2.6310  1.0416  1.0154
  867MPD2    N112732   4.430   2.122  16.738 -0.8960 -0.2093 -0.4048
  867MPD2    H712733   4.362   2.097  16.667  0.1848 -0.8583 -1.2246
  868MPD2     C12734   1.898   1.305  12.864 -0.0902  0.3034 -0.1760
  868MPD2    C112735   1.913   1.177  12.907  0.2488  0.2510  0.1711
  868MPD2    C212736   1.810   1.114  12.990  0.5516  0.1007  0.9410
  868MPD2    C312737   1.724   1.198  13.050  0.3244 -0.1466  0.4349
  868MPD2    C412738   1.727   1.334  13.015  0.7224  0.1426  0.5802
  868MPD2    C512739   1.805   1.381  12.922 -0.0944  0.3090  0.0310
  868MPD2     H12740   1.815   1.009  13.015  0.1402 -0.8200 -2.9218
  868MPD2    H112741   1.650   1.398  13.057 -0.1364 -0.3613 -0.2307
  868MPD2    H212742   1.950   1.355  12.783  0.3461  0.9753  0.5167
  868MPD2    H312743   1.776   1.478  12.882 -0.2691  0.0378 -0.4907
  868MPD2     N12744   1.636   1.137  13.147 -0.4277  0.5601  0.0531
  868MPD2    H512745   1.655   1.038  13.163 -3.3010 -0.0425 -0.3541
  868MPD2    N112746   2.017   1.097  12.849  0.4902 -0.4714 -0.8024
  868MPD2    H712747   2.020   0.998  12.872  1.6752  0.0989  1.4787
  869MPD2     C12748   2.585   4.674   2.214 -0.1493 -0.3700  0.0340
  869MPD2    C112749   2.609   4.575   2.126 -0.0854 -0.1756 -0.2034
  869MPD2    C212750   2.545   4.577   2.000  0.6246 -0.6838 -0.1543
  869MPD2    C312751   2.435   4.660   1.980 -0.0272  0.8335  0.3436
  869MPD2    C412752   2.413   0.030   2.083 -0.3018 -0.0914 -0.6631
  869MPD2    C512753   2.484   0.029   2.196  0.2781 -1.0437  0.6004
  869MPD2     H12754   2.567   4.508   1.920 -1.3811 -0.4040 -0.9627
  869MPD2    H112755   2.327   0.094   2.069  0.1298  0.4811 -0.6630
  869MPD2    H212756   2.648   4.688   2.301 -0.7520 -2.3303  0.7870
  869MPD2    H312757   2.476   0.111   2.268  0.1988 -0.3557 -0.1894
  869MPD2     N12758   2.361   4.673   1.857 -0.7580 -0.7606  0.0816
  869MPD2    H512759   2.297   0.030   1.854  0.3412  0.0040 -2.6105
  869MPD2    N112760   2.703   4.477   2.152 -0.4750  0.7636 -0.0380
  869MPD2    H712761   2.763   4.499   2.231 -0.3841  2.3192 -0.5512
  870MPD2     C12762   1.924   2.342   1.916 -0.1846  0.1691  0.3722
  870MPD2    C112763   2.042   2.378   1.861  0.0346  0.9269 -0.0879
  870MPD2    C212764   2.059   2.495   1.787  0.7364  0.2523  0.1042
  870MPD2    C312765   1.943   2.576   1.772  0.3342  0.0330 -0.9393
  870MPD2    C412766   1.820   2.533   1.829  0.4592  0.4642  0.1785
  870MPD2    C512767   1.815   2.416   1.899 -0.8877  0.0508  0.0478
  870MPD2     H12768   2.153   2.516   1.737  0.7010 -0.4604 -0.2547
  870MPD2    H112769   1.727   2.587   1.813 -0.2035 -1.5477 -2.6681
  870MPD2    H212770   1.912   2.244   1.961  1.0528  0.2841  0.9352
  870MPD2    H312771   1.720   2.373   1.927 -0.6501  0.9930  2.3187
  870MPD2     N12772   1.960   2.690   1.691  0.1456  0.0651 -0.1367
  870MPD2    H512773   2.047   2.698   1.640 -0.2541 -0.1012 -0.8490
  870MPD2    N112774   2.152   2.285   1.876 -0.3824 -0.7977 -0.6597
  870MPD2    H712775   2.136   2.198   1.925  0.6295 -1.2021 -1.0432
  871MPD2     C12776   3.164   2.199  16.434  0.1846 -0.4686 -0.5075
  871MPD2    C112777   3.285   2.189  16.491  0.2108  0.1427  0.1188
  871MPD2    C212778   3.378   2.097  16.436  0.4785  0.3335 -0.1179
  871MPD2    C312779   3.348   2.019  16.328  0.2460 -0.8194  0.0566
  871MPD2    C412780   3.228   2.030  16.272  0.0568 -0.8682  0.4164
  871MPD2    C512781   3.143   2.122  16.324  0.1588 -0.2505  0.3044
  871MPD2     H12782   3.471   2.076  16.487 -0.3206 -2.4708  0.2303
  871MPD2    H112783   3.196   1.966  16.191 -0.8534 -1.0805  0.9448
  871MPD2    H212784   3.096   2.275  16.470 -0.4337  0.0094 -2.6429
  871MPD2    H312785   3.048   2.139  16.274  0.4711  1.7004  0.3660
  871MPD2     N12786   3.433   1.911  16.285 -0.5860  0.0199 -0.1608
  871MPD2    H512787   3.501   1.880  16.354 -0.2944  0.9470 -0.0383
  871MPD2    N112788   3.307   2.269  16.604 -0.3146 -0.5992  0.4690
  871MPD2    H712789   3.245   2.346  16.627  0.7082 -0.2095  1.9305
  872MPD2     C12790   4.519   0.074  13.832  0.1144  0.2690 -0.4531
  872MPD2    C112791   4.449   0.190  13.864 -0.1404 -0.4386  0.1908
  872MPD2    C212792   4.312   0.187  13.898 -0.3563  0.4696 -0.1120
  872MPD2    C312793   4.250   0.063  13.927 -0.6817  0.6241 -0.0598
  872MPD2    C412794   4.323   4.671  13.909  0.0468  0.2820 -0.0649
  872MPD2    C512795   4.454   4.677  13.863  0.2031  0.9166  0.3919
  872MPD2     H12796   4.274   0.286  13.918  1.2114  1.2620 -0.9917
  872MPD2    H112797   4.276   4.574  13.924 -2.3598  1.1873 -1.6221
  872MPD2    H212798   4.622   0.068  13.797  0.4822  0.6844  0.5641
  872MPD2    H312799   4.500   4.581  13.846 -0.6300  0.7341 -0.8223
  872MPD2     N12800   4.117   0.050  13.978  0.1832 -0.3885  0.0869
  872MPD2    H512801   4.085   4.682  14.008  2.7296 -0.9409  1.1483
  872MPD2    N112802   4.515   0.308  13.879 -0.2107 -0.2992 -0.4855
  872MPD2    H712803   4.465   0.397  13.880  2.1307  1.0103 -0.7784
  873MPD2     C12804   2.080   0.356   1.159  0.5840  0.2416  0.3802
  873MPD2    C112805   1.959   0.348   1.092 -0.1756  0.4475 -0.7363
  873MPD2    C212806   1.941   0.278   0.974 -0.4592 -0.0096 -0.1518
  873MPD2    C312807   2.045   0.195   0.930 -0.6732  0.1330 -0.0118
  873MPD2    C412808   2.156   0.186   1.006 -0.2635  0.3070 -0.9313
  873MPD2    C512809   2.178   0.269   1.112  0.1041  0.1133  0.1106
  873MPD2     H12810   1.852   0.280   0.912 -1.9667  1.6945  2.0553
  873MPD2    H112811   2.236   0.121   0.974 -0.5196  0.4451 -1.8339
  873MPD2    H212812   2.089   0.411   1.252 -0.7848  1.8932 -0.4538
  873MPD2    H312813   2.276   0.262   1.157  0.6757 -0.2662 -1.2003
  873MPD2     N12814   2.051   0.109   0.816  0.4964  0.2672 -0.6224
  873MPD2    H512815   2.128   0.044   0.805  0.3658 -0.1517  0.9737
  873MPD2    N112816   1.860   0.422   1.147 -0.5685 -0.6254 -0.0526
  873MPD2    H712817   1.885   0.500   1.207  0.8582 -1.3791  0.3289
  874MPD2     C12818   0.823   0.532  16.240  0.0718  0.0969 -0.2332
  874MPD2    C112819   0.873   0.425  16.304  0.0997 -0.3352 -0.5253
  874MPD2    C212820   1.008   0.426  16.329 -0.2063 -0.5064  0.0171
  874MPD2    C312821   1.091   0.534  16.308  0.5195  0.3934  0.5810
  874MPD2    C412822   1.033   0.648  16.258  0.2966  0.7018 -0.7529
  874MPD2    C512823   0.902   0.642  16.217  0.6078 -0.2107 -0.0877
  874MPD2     H12824   1.052   0.336  16.371 -0.0219 -1.0518 -1.3560
  874MPD2    H112825   1.087   0.742  16.251 -0.0391  1.0264  0.8374
  874MPD2    H212826   0.717   0.534  16.220 -0.0010 -1.8705 -0.0916
  874MPD2    H312827   0.854   0.729  16.174  0.7004  0.2044  0.6617
  874MPD2     N12828   1.229   0.521  16.343  0.4266  0.4044 -0.5899
  874MPD2    H512829   1.252   0.425  16.368 -0.9124  0.6606  1.5122
  874MPD2    N112830   0.793   0.311  16.343  0.2151 -0.4593 -0.7771
  874MPD2    H712831   0.837   0.237  16.397 -0.3536 -0.1810  0.0598
  875MPD2     C12832   2.329   2.985  14.630  0.3473  0.1866 -0.2206
  875MPD2    C112833   2.216   2.978  14.698 -0.4031 -0.1512 -0.1532
  875MPD2    C212834   2.210   3.015  14.829 -0.1058  0.0419 -0.6184
  875MPD2    C312835   2.326   3.063  14.888  0.0421 -0.3015 -0.0536
  875MPD2    C412836   2.442   3.056  14.814 -1.0445 -0.5267  0.3088
  875MPD2    C512837   2.449   3.026  14.682  0.2914 -0.2654  0.0499
  875MPD2     H12838   2.114   3.019  14.879 -0.0858  0.3732 -0.6024
  875MPD2    H112839   2.528   3.105  14.857 -1.3836  0.4124 -0.0881
  875MPD2    H212840   2.316   2.983  14.523 -2.1889  3.3952  0.0353
  875MPD2    H312841   2.539   3.051  14.627  0.1290 -1.7085 -0.8828
  875MPD2     N12842   2.334   3.119  15.020  0.0313 -0.3851  0.5702
  875MPD2    H512843   2.425   3.154  15.049 -1.0957  2.5046  0.6226
  875MPD2    N112844   2.094   2.931  14.642 -0.5990  0.4115  0.3495
  875MPD2    H712845   2.012   2.918  14.701 -1.4585 -2.1195 -1.4450
  876MPD2     C12846   1.085   4.474  15.853 -0.6384  0.0037 -0.3644
  876MPD2    C112847   1.207   4.410  15.823 -0.3018  0.0866  0.1843
  876MPD2    C212848   1.243   4.299  15.894 -0.4996  0.1710  0.9172
  876MPD2    C312849   1.153   4.249  15.985 -0.3003  1.5176 -0.7571
  876MPD2    C412850   1.036   4.316  16.024  0.4405 -0.4461  0.3316
  876MPD2    C512851   0.998   4.421  15.949 -0.7296  0.2623  0.5214
  876MPD2     H12852   1.337   4.246  15.881 -0.9169 -0.0685 -1.1363
  876MPD2    H112853   0.977   4.294  16.113 -1.9165 -0.4186 -1.2149
  876MPD2    H212854   1.070   4.575  15.815 -1.2395  0.8048  1.9351
  876MPD2    H312855   0.906   4.472  15.973 -0.4419  0.2436  1.6738
  876MPD2     N12856   1.182   4.128  16.040  0.3546  0.5568  0.2857
  876MPD2    H512857   1.260   4.077  16.001 -0.6946 -0.4740 -0.4580
  876MPD2    N112858   1.296   4.468  15.724  0.1834 -0.1522 -0.5881
  876MPD2    H712859   1.254   4.551  15.684  0.0569 -0.1620 -0.4791
  877MPD2     C12860   1.285   0.169  15.109  0.2798  0.1018  0.1257
  877MPD2    C112861   1.389   0.087  15.092 -0.3566 -0.0759 -0.1583
  877MPD2    C212862   1.441   0.060  14.965 -0.7296 -0.2328 -0.0737
  877MPD2    C312863   1.388   0.125  14.852  0.7095  0.1878 -0.0214
  877MPD2    C412864   1.276   0.201  14.873 -0.6786 -0.9669 -0.1456
  877MPD2    C512865   1.227   0.225  14.998  0.1657 -0.8959  0.7485
  877MPD2     H12866   1.527   4.717  14.964  0.7782  1.7363  0.3426
  877MPD2    H112867   1.242   0.263  14.791  1.1745  0.7727  0.4011
  877MPD2    H212868   1.237   0.207  15.198  0.7171  1.5660 -0.2707
  877MPD2    H312869   1.134   0.279  15.014 -0.0070 -0.6088 -1.2211
  877MPD2     N12870   1.430   0.113  14.720 -0.0754  0.0119  0.5069
  877MPD2    H512871   1.371   0.152  14.647  0.6092 -0.9874 -0.5749
  877MPD2    N112872   1.467   0.022  15.201  0.2775  0.3032 -0.1552
  877MPD2    H712873   1.552   4.696  15.173 -0.3480  0.2212 -1.9476
  878MPD2     C12874   1.127   3.653  12.500  0.2387  0.7404 -0.0646
  878MPD2    C112875   1.173   3.769  12.558  0.2469  0.7207  0.1832
  878MPD2    C212876   1.204   3.775  12.693 -0.3876  0.4734 -0.6816
  878MPD2    C312877   1.186   3.667  12.775 -0.2763 -0.6796 -1.0735
  878MPD2    C412878   1.123   3.562  12.716  0.3957  0.2986 -0.0348
  878MPD2    C512879   1.098   3.550  12.585 -0.0173 -0.7532  0.1420
  878MPD2     H12880   1.255   3.862  12.733  0.0640  0.5402 -1.4053
  878MPD2    H112881   1.113   3.465  12.764 -3.6621  0.5583 -0.3950
  878MPD2    H212882   1.104   3.650  12.394  3.4947 -0.4384 -0.7544
  878MPD2    H312883   1.067   3.451  12.555 -1.1064 -0.3511 -0.0343
  878MPD2     N12884   1.210   3.683  12.914  0.0585  0.2270  0.2119
  878MPD2    H512885   1.254   3.769  12.946 -0.4814  0.1806  1.0664
  878MPD2    N112886   1.170   3.882  12.478  0.1106  0.0167 -0.0073
  878MPD2    H712887   1.115   3.865  12.394  1.8430 -1.1355 -0.9046
  879MPD2     C12888   1.514   1.022  16.998 -0.0803 -0.1933 -0.6582
  879MPD2    C112889   1.497   0.887  17.036  0.1142 -0.0209 -0.3237
  879MPD2    C212890   1.407   0.807  16.964  0.3158  0.3831 -0.0606
  879MPD2    C312891   1.343   0.863  16.857  0.8746 -0.4954 -0.3333
  879MPD2    C412892   1.357   0.996  16.825 -0.1441 -0.0763 -0.9122
  879MPD2    C512893   1.438   1.074  16.902 -0.4959  0.2790  0.0984
  879MPD2     H12894   1.389   0.702  16.984 -2.6440  0.6632 -1.3557
  879MPD2    H112895   1.295   1.046  16.752 -1.8068  0.4447  0.8616
  879MPD2    H212896   1.592   1.085  17.039 -1.2529  0.7411  0.1371
  879MPD2    H312897   1.430   1.180  16.885 -1.9170  0.0164 -0.8479
  879MPD2     N12898   1.247   0.799  16.773  0.3796 -0.1168  0.4080
  879MPD2    H512899   1.205   0.861  16.705 -1.0817  0.4718  1.8277
  879MPD2    N112900   1.577   0.842  17.147  0.0192  0.2829 -0.3781
  879MPD2    H712901   1.645   0.901  17.192 -0.1823  0.5107 -0.3720
  880MPD2     C12902   2.403   2.267   0.807  0.0214 -0.9321  0.5716
  880MPD2    C112903   2.530   2.298   0.761  0.2120  0.5958  0.4467
  880MPD2    C212904   2.631   2.198   0.772 -0.4088 -0.4827  0.3471
  880MPD2    C312905   2.594   2.069   0.817  0.0604  0.3309  0.1587
  880MPD2    C412906   2.459   2.042   0.844  0.2052  0.3126  0.1990
  880MPD2    C512907   2.363   2.139   0.834 -0.1034 -0.5766 -0.0806
  880MPD2     H12908   2.735   2.227   0.760  0.0134 -2.0276  0.2999
  880MPD2    H112909   2.426   1.947   0.884 -0.7126  2.2356  4.0265
  880MPD2    H212910   2.322   2.339   0.806  0.1635 -0.7632  0.9417
  880MPD2    H312911   2.264   2.109   0.868 -0.9236  0.3627 -1.6321
  880MPD2     N12912   2.686   1.969   0.841 -0.2409  0.1798  0.1850
  880MPD2    H512913   2.783   1.986   0.818  0.1845 -2.7551 -0.1741
  880MPD2    N112914   2.548   2.434   0.743 -0.2005 -0.2184  0.3007
  880MPD2    H712915   2.470   2.492   0.771 -0.7878 -0.4446 -0.8404
  881MPD2     C12916   2.601   3.309   0.121  0.0825  0.4306 -0.3501
  881MPD2    C112917   2.654   3.185   0.090  0.2114  0.1004  0.5438
  881MPD2    C212918   2.664   3.096   0.193 -0.1584 -0.0485 -0.3031
  881MPD2    C312919   2.609   3.115   0.317  0.3026  0.4606  0.1894
  881MPD2    C412920   2.551   3.237   0.341  0.1849  0.3119  0.0001
  881MPD2    C512921   2.554   3.334   0.247 -0.2140 -0.7199  0.1633
  881MPD2     H12922   2.715   3.002   0.173  2.5727  1.9633 -2.6666
  881MPD2    H112923   2.513   3.249   0.442  1.5176 -0.7734  0.6168
  881MPD2    H212924   2.595   3.383   0.042 -2.6388 -0.2591 -0.7693
  881MPD2    H312925   2.511   3.432   0.265  0.6443 -0.1232 -0.9656
  881MPD2     N12926   2.598   3.016   0.419 -0.8529  0.8096 -0.1326
  881MPD2    H512927   2.559   3.048   0.507  0.0496 -0.6365  0.7782
  881MPD2    N112928   2.708   3.157  17.652  0.6256 -0.3411 -1.2178
  881MPD2    H712929   2.700   3.236  17.589  0.5427  2.5392  2.3926
  882MPD2     C12930   1.165   0.196  14.073  0.7945  0.0723 -0.1907
  882MPD2    C112931   1.164   0.140  14.201  0.7344 -0.3547  0.6899
  882MPD2    C212932   1.048   0.110  14.258  0.1873 -0.6310 -0.5023
  882MPD2    C312933   0.926   0.122  14.203 -0.3631 -0.6440  0.2197
  882MPD2    C412934   0.922   0.187  14.077  0.0326  0.1647 -0.0417
  882MPD2    C512935   1.042   0.224  14.014  0.1435 -0.3415 -0.0781
  882MPD2     H12936   1.054   0.063  14.355 -0.0394 -0.4061 -0.3803
  882MPD2    H112937   0.832   0.225  14.030  0.2047 -1.1557 -1.4396
  882MPD2    H212938   1.255   0.225  14.021  1.5275 -0.5990  0.7028
  882MPD2    H312939   1.035   0.269  13.916  0.5746  0.4779  0.2699
  882MPD2     N12940   0.808   0.101  14.273  0.2209 -0.6702  0.4113
  882MPD2    H512941   0.729   0.155  14.238  0.2717 -0.4159  0.6962
  882MPD2    N112942   1.283   0.126  14.270  0.2921 -0.4079  0.1960
  882MPD2    H712943   1.271   0.121  14.371  1.3121  1.0970  0.3961
  883MPD2     C12944   2.874   0.101  16.434  0.1841  0.1218 -0.1384
  883MPD2    C112945   2.959   0.080  16.330 -0.8784  0.4593  0.1854
  883MPD2    C212946   3.098   0.096  16.348 -0.0327  0.1583 -0.5441
  883MPD2    C312947   3.148   0.121  16.475 -0.9374  0.2561 -0.0331
  883MPD2    C412948   3.054   0.142  16.580  0.5068  0.6982  0.1381
  883MPD2    C512949   2.917   0.132  16.564  0.0161  0.0653 -0.0951
  883MPD2     H12950   3.175   0.069  16.277 -0.3673 -0.2067 -0.7685
  883MPD2    H112951   3.083   0.160  16.683  1.7837  0.0600 -0.1136
  883MPD2    H212952   2.765   0.100  16.429  0.1515  0.0450  0.5587
  883MPD2    H312953   2.847   0.147  16.645  0.2414 -0.1986  0.1428
  883MPD2     N12954   3.288   0.122  16.495  0.3260  0.2665  0.4808
  883MPD2    H512955   3.344   0.120  16.411  0.5857  1.0155  0.6306
  883MPD2    N112956   2.905   0.051  16.206  0.2147 -0.3097  0.4136
  883MPD2    H712957   2.968   0.056  16.127 -1.0061 -0.1539 -0.5450
  884MPD2     C12958   0.083   0.374  15.296 -0.3584 -0.0635 -1.0284
  884MPD2    C112959   0.100   0.469  15.192 -0.2535  0.3132 -0.1844
  884MPD2    C212960   0.026   0.585  15.186 -0.4629 -0.4473  0.0413
  884MPD2    C312961   4.639   0.603  15.270 -0.0459  0.2334  0.1171
  884MPD2    C412962   4.617   0.512  15.370 -0.4933 -0.3899 -0.0682
  884MPD2    C512963   4.702   0.402  15.386  0.7128 -1.0440 -0.3274
  884MPD2     H12964   0.054   0.659  15.112  0.2922 -0.9441 -0.1666
  884MPD2    H112965   4.528   0.518  15.432  0.4863  0.2128  1.2940
  884MPD2    H212966   0.135   0.279  15.296  2.0985  1.2773 -0.3316
  884MPD2    H312967   4.680   0.326  15.459  0.6048 -0.8178 -0.1228
  884MPD2     N12968   4.551   0.717  15.250 -1.0899  0.2275  0.6271
  884MPD2    H512969   4.567   0.791  15.183 -3.0236  1.5145  1.5790
  884MPD2    N112970   0.200   0.463  15.093 -0.1252 -0.1509  0.5984
  884MPD2    H712971   0.197   0.527  15.015 -1.1627 -1.1706 -0.1930
  885MPD2     C12972   2.874   0.896   0.113  0.0571  0.5523  0.3795
  885MPD2    C112973   2.987   0.849   0.048 -0.1947 -0.2626  0.8016
  885MPD2    C212974   2.999   0.865  17.605  0.1566  0.2900 -0.3780
  885MPD2    C312975   2.912   0.936  17.531 -0.2424  0.3486 -0.6610
  885MPD2    C412976   2.792   0.970  17.583  0.8250 -0.1755  0.0880
  885MPD2    C512977   2.779   0.952   0.027  0.3268  0.4001  0.2878
  885MPD2     H12978   3.088   0.834  17.552 -0.0549 -0.0350 -0.5380
  885MPD2    H112979   2.703   1.008  17.534  1.2031 -1.0293 -1.2455
  885MPD2    H212980   2.865   0.899   0.221 -0.7757 -0.0995  0.3258
  885MPD2    H312981   2.694   0.991   0.082  0.5800  2.7321 -0.9744
  885MPD2     N12982   2.936   0.955  17.392  0.2600 -0.3762 -0.2548
  885MPD2    H512983   3.018   0.906  17.359  0.9724  0.8819 -0.3620
  885MPD2    N112984   3.082   0.779   0.128  0.5133 -0.3965 -0.0930
  885MPD2    H712985   3.053   0.758   0.223 -1.0367 -1.0977 -0.7255
  886MPD2     C12986   4.435   4.465  15.582 -0.0453  0.1868 -0.5369
  886MPD2    C112987   4.524   4.389  15.508 -0.1740  0.1641  0.3157
  886MPD2    C212988   4.568   4.439  15.392 -0.0287  0.2237  0.3407
  886MPD2    C312989   4.548   4.575  15.360 -0.0798  0.0297  0.6484
  886MPD2    C412990   4.457   4.652  15.429  0.0320 -0.8754  0.0522
  886MPD2    C512991   4.392   4.585  15.534 -0.8022 -0.6002  0.1695
  886MPD2     H12992   4.628   4.374  15.328  0.4971  0.2497  0.8068
  886MPD2    H112993   4.413   0.020  15.391  3.0943  1.4127  2.0656
  886MPD2    H212994   4.381   4.426  15.668 -0.3241  1.6190 -0.0685
  886MPD2    H312995   4.314   4.643  15.581 -1.4786  0.2772 -1.9970
  886MPD2     N12996   4.618   4.651  15.261  0.2864  0.4696 -0.4985
  886MPD2    H512997   4.607   0.029  15.261 -0.3107  0.3939  1.8321
  886MPD2    N112998   4.580   4.265  15.544 -0.6226 -0.3732 -0.3233
  886MPD2    H712999   4.652   4.222  15.487  1.1593  0.1856  1.4888
  887MPD2     C13000   0.490   4.126  15.397  0.4707 -0.2809  0.2672
  887MPD2    C113001   0.414   4.209  15.480 -0.7106 -0.6183  0.1095
  887MPD2    C213002   0.422   4.349  15.463  0.8175  0.3600  0.8302
  887MPD2    C313003   0.514   4.396  15.368  1.1108 -0.4091 -0.1450
  887MPD2    C413004   0.587   4.315  15.283  0.2142  0.2854 -0.0591
  887MPD2    C513005   0.577   4.178  15.300 -0.1629 -0.4912 -0.2692
  887MPD2     H13006   0.367   4.416  15.528 -2.2543 -1.4360  0.0736
  887MPD2    H113007   0.657   4.347  15.207 -0.2295  1.7654  0.1629
  887MPD2    H213008   0.482   4.019  15.412 -0.2904 -0.5016 -1.7727
  887MPD2    H313009   0.630   4.113  15.231  1.0817  0.2299  0.0053
  887MPD2     N13010   0.523   4.534  15.363  0.1345 -0.1946  0.0297
  887MPD2    H513011   0.454   4.576  15.424  1.6940  1.0378  0.9345
  887MPD2    N113012   0.306   4.161  15.562 -0.2433 -0.2417  0.3098
  887MPD2    H713013   0.247   4.231  15.605  0.5569  0.8800 -0.4029
  888MPD2     C13014   2.830   4.336  15.771  0.5207  0.9286 -0.2858
  888MPD2    C113015   2.735   4.279  15.686  0.8994 -0.3656 -0.5107
  888MPD2    C213016   2.707   4.338  15.562 -0.2334 -0.0083 -0.4812
  888MPD2    C313017   2.788   4.441  15.515 -0.7917 -0.3160 -0.6844
  888MPD2    C413018   2.891   4.486  15.592 -0.2199  0.3302 -0.7801
  888MPD2    C513019   2.920   4.427  15.712 -0.1427  0.2362 -0.0831
  888MPD2     H13020   2.622   4.307  15.501 -0.1082  1.0939 -1.2155
  888MPD2    H113021   2.948   4.575  15.570  1.2542 -0.0188  1.5403
  888MPD2    H213022   2.856   4.296  15.868 -1.3144  2.2135  0.7331
  888MPD2    H313023   3.010   4.459  15.764 -0.5365  0.2177  0.6212
  888MPD2     N13024   2.748   4.503  15.397 -0.2719  0.2624 -0.9384
  888MPD2    H513025   2.658   4.468  15.366  0.8614 -1.5695 -2.2203
  888MPD2    N113026   2.651   4.168  15.717  0.0716 -0.2910  0.3616
  888MPD2    H713027   2.584   4.135  15.647  1.3453  0.2352 -1.1034
  889MPD2     C13028   1.567   3.698  12.808 -0.2026 -0.4732  0.1236
  889MPD2    C113029   1.592   3.667  12.934 -0.1873 -0.0847 -0.1151
  889MPD2    C213030   1.583   3.769  13.034  0.2353 -0.4672  0.1262
  889MPD2    C313031   1.551   3.902  12.998  0.4129 -0.1064 -0.0915
  889MPD2    C413032   1.524   3.931  12.866 -0.0755 -0.1724 -0.3921
  889MPD2    C513033   1.536   3.831  12.776  0.4374  0.4572  1.0972
  889MPD2     H13034   1.581   3.730  13.135 -1.1221  2.2944  1.1518
  889MPD2    H113035   1.481   4.027  12.839 -1.6290 -0.1462  2.2236
  889MPD2    H213036   1.578   3.624  12.729 -4.1847 -0.5607 -0.3364
  889MPD2    H313037   1.501   3.851  12.675  2.2815 -1.3842  0.0861
  889MPD2     N13038   1.536   3.997  13.095 -0.0393 -0.0545 -0.2319
  889MPD2    H513039   1.574   3.960  13.182  2.8220  1.1990 -0.9233
  889MPD2    N113040   1.583   3.536  12.980  0.5318 -0.3317 -0.0727
  889MPD2    H713041   1.593   3.528  13.081  0.5707  1.9900  0.1075
  890MPD2     C13042   1.708   0.619  14.435 -0.7109  0.0760  0.7238
  890MPD2    C113043   1.609   0.653  14.518  0.5063  0.1241  0.6092
  890MPD2    C213044   1.580   0.585  14.635 -0.5367 -0.6376  0.0039
  890MPD2    C313045   1.651   0.471  14.661 -0.3114 -0.1566  0.1912
  890MPD2    C413046   1.743   0.423  14.568 -0.5731 -0.5496 -0.3531
  890MPD2    C513047   1.771   0.501  14.457  0.6327 -0.3794  0.4725
  890MPD2     H13048   1.511   0.625  14.709  0.4227 -0.4017  0.7748
  890MPD2    H113049   1.808   0.338  14.588 -1.1190 -0.8379  0.1821
  890MPD2    H213050   1.731   0.679  14.348 -0.4823 -0.4288  0.4373
  890MPD2    H313051   1.847   0.476  14.385 -0.6085 -0.9832 -0.6277
  890MPD2     N13052   1.645   0.405  14.789 -0.0650  0.3319 -0.7921
  890MPD2    H513053   1.709   0.326  14.798 -0.2047  0.1828 -1.1088
  890MPD2    N113054   1.539   0.770  14.485  0.2732  0.1521 -0.7164
  890MPD2    H713055   1.568   0.842  14.420  0.7117 -0.1840 -0.8885
  891MPD2     C13056   3.793   3.673  17.111 -0.1286 -0.3805  0.0050
  891MPD2    C113057   3.750   3.772  17.194  0.6990  0.0013 -0.5435
  891MPD2    C213058   3.850   3.830  17.280 -0.5228  0.1677  0.4990
  891MPD2    C313059   3.981   3.780  17.289  0.3095  0.4503  0.1923
  891MPD2    C413060   4.013   3.664  17.213 -0.3393 -0.8089  1.1394
  891MPD2    C513061   3.914   3.614  17.136 -0.2104  0.4861  0.2261
  891MPD2     H13062   3.826   3.908  17.351 -0.1712 -0.0535  0.8595
  891MPD2    H113063   4.100   3.599  17.217 -0.0620 -0.4848  0.3002
  891MPD2    H213064   3.719   3.618  17.056  0.7424  1.6085 -3.1557
  891MPD2    H313065   3.934   3.519  17.088 -2.1166  0.5198 -0.6363
  891MPD2     N13066   4.080   3.846  17.363  0.1770  0.7057 -0.3285
  891MPD2    H513067   4.049   3.927  17.415  0.8752  0.3267  0.6799
  891MPD2    N113068   3.624   3.818  17.166 -0.6366  0.4102 -0.0950
  891MPD2    H713069   3.563   3.781  17.094 -1.8951  1.2632  0.5371
  892MPD2     C13070   0.236   0.692  14.449  0.2738  0.4801 -0.2851
  892MPD2    C113071   0.196   0.603  14.541  0.1248 -0.2118 -0.6954
  892MPD2    C213072   0.259   0.478  14.552 -0.1721  0.2415  0.1587
  892MPD2    C313073   0.365   0.451  14.473 -1.3901  0.0475 -0.5548
  892MPD2    C413074   0.411   0.546  14.382  0.2009  0.2576 -0.5569
  892MPD2    C513075   0.346   0.662  14.372 -0.2103 -0.3654 -0.8464
  892MPD2     H13076   0.227   0.404  14.625 -1.3895  0.1491 -0.4660
  892MPD2    H113077   0.502   0.529  14.327  0.3335  1.0420 -0.5766
  892MPD2    H213078   0.188   0.788  14.433 -0.3916  0.4332  1.5067
  892MPD2    H313079   0.376   0.731  14.294  2.8998 -1.0633 -0.2638
  892MPD2     N13080   0.433   0.329  14.477  0.3522 -0.1096 -0.0446
  892MPD2    H513081   0.508   0.327  14.409  0.5669  2.8351  0.0848
  892MPD2    N113082   0.079   0.633  14.616 -0.4965  0.8839 -0.3440
  892MPD2    H713083   0.034   0.719  14.588 -2.9992 -0.5217 -0.6463
  893MPD2     C13084   1.700   3.579   1.464  0.0497 -0.5156  0.0575
  893MPD2    C113085   1.744   3.642   1.581 -0.2909 -0.1156  0.1325
  893MPD2    C213086   1.677   3.745   1.635 -0.0556 -0.2696  0.0060
  893MPD2    C313087   1.561   3.788   1.573 -0.4417  0.0703  0.8481
  893MPD2    C413088   1.517   3.727   1.458  0.3200 -0.7954 -0.2054
  893MPD2    C513089   1.589   3.620   1.409 -0.7281 -0.4760  0.2892
  893MPD2     H13090   1.712   3.782   1.730 -0.6533  0.5604 -0.0924
  893MPD2    H113091   1.427   3.756   1.405  0.2574 -1.5892 -0.5279
  893MPD2    H213092   1.762   3.498   1.427 -0.8214 -0.6835 -1.0412
  893MPD2    H313093   1.541   3.569   1.327  1.8310  0.9031 -2.0496
  893MPD2     N13094   1.476   3.889   1.627 -1.0045  0.2845  0.2105
  893MPD2    H513095   1.388   3.902   1.579 -0.4676 -1.0410 -1.1114
  893MPD2    N113096   1.865   3.595   1.639  0.1614 -0.3019  0.3564
  893MPD2    H713097   1.907   3.508   1.609  1.0937  0.0944  0.5181
  894MPD2     C13098   4.435   0.666   0.980 -0.9204 -0.4533  0.5660
  894MPD2    C113099   4.378   0.732   1.082 -0.6700 -0.3633 -0.2093
  894MPD2    C213100   4.441   0.845   1.125 -0.0373  0.1762 -0.9880
  894MPD2    C313101   4.554   0.894   1.066  0.0613  0.5316 -0.1842
  894MPD2    C413102   4.607   0.834   0.952 -0.0588 -0.8407 -0.7937
  894MPD2    C513103   4.549   0.710   0.918  0.0383 -0.5340  0.0552
  894MPD2     H13104   4.403   0.906   1.206 -0.5335  0.1339 -1.1921
  894MPD2    H113105   4.699   0.864   0.902 -0.5459  0.9166 -0.6321
  894MPD2    H213106   4.387   0.580   0.937 -0.1028  0.7080 -2.6597
  894MPD2    H313107   4.591   0.649   0.838  0.3437  1.1421 -1.0532
  894MPD2     N13108   4.604   1.025   1.105 -0.8692  0.3569 -0.0758
  894MPD2    H513109   4.544   1.071   1.173 -2.7609 -1.1251 -0.7218
  894MPD2    N113110   4.261   0.696   1.156  0.2069  0.4855  0.5145
  894MPD2    H713111   4.225   0.761   1.225 -2.4931 -1.0465  0.5367
  895MPD2     C13112   4.389   4.268  13.605  0.2454 -1.6016  0.0384
  895MPD2    C113113   4.276   4.240  13.529  1.1593 -0.9631  0.1623
  895MPD2    C213114   4.276   4.126  13.451  0.0193 -0.2819  0.5485
  895MPD2    C313115   4.379   4.039  13.438 -0.3014  0.3363 -0.4351
  895MPD2    C413116   4.497   4.073  13.507  0.4820 -0.2926  0.2555
  895MPD2    C513117   4.500   4.189  13.584  0.3742 -0.0579 -0.2277
  895MPD2     H13118   4.179   4.089  13.420 -0.3257 -1.4107  2.9768
  895MPD2    H113119   4.587   4.012  13.500  0.6471 -0.0176 -0.0325
  895MPD2    H213120   4.400   4.355  13.669 -2.3301 -1.3587  0.1500
  895MPD2    H313121   4.601   4.214  13.614 -0.6581  1.7896  1.7209
  895MPD2     N13122   4.381   3.914  13.376  0.1659  0.5261  0.6792
  895MPD2    H513123   4.458   3.850  13.395  0.1993  0.2488 -0.3655
  895MPD2    N113124   4.151   4.309  13.541 -0.5772 -0.2618 -0.7399
  895MPD2    H713125   4.064   4.263  13.513 -2.0530  1.1721  1.5078
  896MPD2     C13126   1.410   1.870   1.533  0.3549 -0.0841  0.0991
  896MPD2    C113127   1.407   1.808   1.414  1.0206 -0.4005 -0.2790
  896MPD2    C213128   1.286   1.776   1.351  0.3358 -0.4392  0.6258
  896MPD2    C313129   1.166   1.807   1.412 -0.2826  0.4096 -0.7352
  896MPD2    C413130   1.177   1.869   1.537  0.2500 -0.2743  0.8378
  896MPD2    C513131   1.297   1.904   1.588 -0.7627 -0.4990 -0.7123
  896MPD2     H13132   1.288   1.708   1.266  1.6009 -1.0241  1.1184
  896MPD2    H113133   1.091   1.889   1.600 -1.6189 -0.5322 -1.6336
  896MPD2    H213134   1.499   1.920   1.570 -0.2756 -0.7725  2.5439
  896MPD2    H313135   1.304   1.952   1.685 -2.2518 -0.6230 -0.5413
  896MPD2     N13136   1.051   1.780   1.341  0.3631 -0.1528 -0.1321
  896MPD2    H513137   1.070   1.722   1.260  0.7064  2.0627 -1.6192
  896MPD2    N113138   1.532   1.776   1.353 -0.5788  0.3920  0.4282
  896MPD2    H713139   1.614   1.783   1.412 -0.1718 -0.5112 -0.0377
  897MPD2     C13140   2.291   3.700  10.143  0.0347  0.2117 -0.0430
  897MPD2    C113141   2.301   3.824  10.214  0.1864 -0.1755  0.6596
  897MPD2    C213142   2.209   3.839  10.323 -0.2684  0.6805 -0.1377
  897MPD2    C313143   2.118   3.742  10.354 -0.3028 -0.1839  0.0872
  897MPD2    C413144   2.114   3.624  10.279 -0.0884  0.9163 -0.2689
  897MPD2    C513145   2.201   3.606  10.173  1.0891 -0.1600 -0.6366
  897MPD2     H13146   2.201   3.933  10.377 -1.6570  0.4835  0.0154
  897MPD2    H113147   2.049   3.538  10.292  0.7019  0.6317  1.8215
  897MPD2    H213148   2.366   3.684  10.067 -0.8411 -2.1879 -0.3965
  897MPD2    H313149   2.202   3.508  10.128 -1.4952 -0.4395 -0.0487
  897MPD2     N13150   2.024   3.764  10.458 -0.6175 -0.2889 -0.3409
  897MPD2    H513151   2.023   3.850  10.511  2.6144  0.4756 -1.4995
  897MPD2    N113152   2.390   3.921  10.163  0.2591 -0.1615 -0.6728
  897MPD2    H713153   2.444   3.898  10.080  1.3530  2.3676 -0.6658
  898MPD2     C13154   0.485   4.354  17.037 -0.1603  0.0981 -0.1931
  898MPD2    C113155   0.449   4.410  17.155  1.3320  0.6426 -1.0649
  898MPD2    C213156   0.316   4.408  17.186 -0.1610 -0.0890 -0.1987
  898MPD2    C313157   0.219   4.346  17.107  0.1415  0.6892  0.2476
  898MPD2    C413158   0.256   4.281  16.989 -0.8707 -0.2465  0.2753
  898MPD2    C513159   0.388   4.292  16.962 -0.3034 -0.5872  0.0357
  898MPD2     H13160   0.276   4.460  17.272  0.5978 -1.9711  1.2726
  898MPD2    H113161   0.198   4.217  16.923 -1.7537  1.4257 -0.5619
  898MPD2    H213162   0.587   4.335  17.006 -0.3446 -0.2418 -0.5878
  898MPD2    H313163   0.432   4.227  16.887  0.7477 -1.9771  1.8434
  898MPD2     N13164   0.090   4.343  17.156  0.3281 -0.5065  0.4216
  898MPD2    H513165   0.073   4.368  17.253  0.0413  0.4742  0.1183
  898MPD2    N113166   0.544   4.458  17.253  0.2344  0.3357  0.3519
  898MPD2    H713167   0.510   4.495  17.340  0.8458  1.3997  0.1425
  899MPD2     C13168   0.756   0.214  17.204  0.4762  0.4228  0.1318
  899MPD2    C113169   0.823   0.310  17.281  0.1969  0.2511  0.4355
  899MPD2    C213170   0.803   0.303  17.415  0.4270  0.7119  0.3246
  899MPD2    C313171   0.707   0.212  17.470 -0.2904 -0.8633  0.6219
  899MPD2    C413172   0.635   0.125  17.384  0.0791 -0.1018  0.5816
  899MPD2    C513173   0.658   0.132  17.251 -0.5977  0.7083  0.3015
  899MPD2     H13174   0.857   0.374  17.477  2.8536  0.0528 -1.0614
  899MPD2    H113175   0.557   0.058  17.418  0.2078  0.0457  1.1696
  899MPD2    H213176   0.784   0.209  17.099 -1.8752  0.4120 -0.5016
  899MPD2    H313177   0.608   0.066  17.181 -1.0493  1.2562  0.1009
  899MPD2     N13178   0.669   0.220  17.609 -0.5535 -0.4550  0.2407
  899MPD2    H513179   0.586   0.166  17.632 -1.0165  0.4052  0.6159
  899MPD2    N113180   0.908   0.396  17.207  0.1883 -1.1765 -0.5114
  899MPD2    H713181   0.916   0.380  17.107  2.7585  0.4420 -0.5702
  900MPD2     C13182   0.484   2.199  12.402  0.6581 -0.1926 -0.6064
  900MPD2    C113183   0.424   2.077  12.378 -0.0345  0.3564  0.1473
  900MPD2    C213184   0.281   2.083  12.373  0.3360 -0.3813 -1.1426
  900MPD2    C313185   0.211   2.203  12.374  0.0355  0.4849  0.2188
  900MPD2    C413186   0.276   2.325  12.400  0.1465 -0.6140 -0.1648
  900MPD2    C513187   0.416   2.319  12.410 -0.3143 -0.2731  0.1649
  900MPD2     H13188   0.216   1.996  12.373  2.1506 -1.7397  1.9207
  900MPD2    H113189   0.228   2.422  12.403  1.5585  0.0946 -0.7155
  900MPD2    H213190   0.589   2.205  12.428  0.0112 -0.4925  2.1117
  900MPD2    H313191   0.477   2.401  12.445 -0.0186  0.0794 -1.1886
  900MPD2     N13192   0.074   2.192  12.344 -0.2756 -0.2699  0.4293
  900MPD2    H513193   0.040   2.098  12.329 -0.9205  0.0916 -0.3830
  900MPD2    N113194   0.506   1.962  12.391 -0.3567  0.3672  0.2210
  900MPD2    H713195   0.604   1.979  12.411  0.3316  0.0528 -3.0289
  901MPD2     C13196   0.558   0.874  12.641 -0.4448  0.2099 -0.2608
  901MPD2    C113197   0.661   0.902  12.554  0.2236  0.4277  0.0629
  901MPD2    C213198   0.698   1.030  12.511  0.0588  0.3041  0.1466
  901MPD2    C313199   0.626   1.138  12.556  0.2016 -0.0991  0.1823
  901MPD2    C413200   0.512   1.110  12.641  0.1462  0.2411  0.5294
  901MPD2    C513201   0.479   0.981  12.679 -0.0124 -0.6357  0.4153
  901MPD2     H13202   0.772   1.047  12.434 -1.0465  0.5967 -0.8457
  901MPD2    H113203   0.440   1.184  12.676  0.2900  0.9326 -0.6176
  901MPD2    H213204   0.540   0.776  12.683 -0.0381  0.0077 -0.5573
  901MPD2    H313205   0.395   0.961  12.744  0.3288  0.6947  1.2575
  901MPD2     N13206   0.652   1.272  12.508 -0.3007 -0.6763  0.2910
  901MPD2    H513207   0.741   1.289  12.463  0.0330  0.9897  1.5658
  901MPD2    N113208   0.716   0.788  12.495  0.2191  0.1743 -0.1957
  901MPD2    H713209   0.675   0.697  12.514  0.9273 -0.1124 -0.0326
  902MPD2     C13210   3.956   0.519  12.892  0.8835  0.4561 -0.9246
  902MPD2    C113211   4.016   0.458  12.785 -0.0140 -0.1489 -0.2128
  902MPD2    C213212   4.020   0.316  12.783 -0.2190 -0.1955  0.4030
  902MPD2    C313213   3.962   0.235  12.881  0.4843  0.1554  0.5475
  902MPD2    C413214   3.890   0.304  12.975 -0.3504  1.1637  0.9762
  902MPD2    C513215   3.891   0.440  12.986 -0.3677  0.2529 -0.8264
  902MPD2     H13216   4.067   0.266  12.700  0.2029  2.0911 -0.7453
  902MPD2    H113217   3.820   0.253  13.040 -1.3692 -0.3000 -1.2915
  902MPD2    H213218   3.956   0.628  12.891  2.2651  0.4814  0.6740
  902MPD2    H313219   3.826   0.485  13.060 -0.3965  0.3071 -0.8854
  902MPD2     N13220   3.966   0.092  12.891 -0.2726  0.0633 -0.3054
  902MPD2    H513221   3.908   0.056  12.965  0.1187 -1.5529 -0.7875
  902MPD2    N113222   4.061   0.535  12.681  0.2811 -0.1293 -0.1367
  902MPD2    H713223   4.050   0.636  12.679 -0.7922 -0.2523 -1.3870
  903MPD2     C13224   4.447   4.355  12.411 -0.2718  0.7973  0.1028
  903MPD2    C113225   4.368   4.415  12.510 -0.4766  0.0658  0.0659
  903MPD2    C213226   4.265   4.506  12.471 -0.4284  0.3414 -0.1398
  903MPD2    C313227   4.236   4.521  12.334 -0.5635 -0.8060  0.1924
  903MPD2    C413228   4.329   4.472  12.243 -0.4797  0.4099  0.1229
  903MPD2    C513229   4.428   4.387  12.281 -0.5256  0.5570 -0.5663
  903MPD2     H13230   4.208   4.560  12.546  0.3744  0.5427  0.3197
  903MPD2    H113231   4.314   4.483  12.136  0.2628  0.0706 -0.0113
  903MPD2    H213232   4.544   4.311  12.432 -1.1352 -1.3170 -0.2728
  903MPD2    H313233   4.498   4.360  12.202 -1.6742  0.7826 -1.6600
  903MPD2     N13234   4.114   4.585  12.299 -0.5713 -0.5717  0.3469
  903MPD2    H513235   4.053   4.613  12.375 -1.2676  1.5999 -1.0062
  903MPD2    N113236   4.400   4.386  12.639  0.2684 -0.0721  0.5404
  903MPD2    H713237   4.498   4.362  12.640  0.9229  2.5706 -0.8400
  904MPD2     C13238   4.109   3.736  13.691 -0.2041  0.6701 -0.5318
  904MPD2    C113239   4.061   3.701  13.816 -0.1655  0.3626  0.1554
  904MPD2    C213240   4.148   3.690  13.923  0.1285  0.0422 -0.0656
  904MPD2    C313241   4.281   3.729  13.908 -0.8312  0.6476  0.4301
  904MPD2    C413242   4.322   3.778  13.787 -0.4595  0.5445 -0.4839
  904MPD2    C513243   4.235   3.782  13.680  0.5725  0.9048  0.1484
  904MPD2     H13244   4.116   3.665  14.023  1.7143  3.2694  1.2305
  904MPD2    H113245   4.419   3.816  13.756  0.3049  1.0604  2.5214
  904MPD2    H213246   4.047   3.752  13.604 -2.0256 -0.9510  0.4683
  904MPD2    H313247   4.274   3.835  13.594  2.7810 -0.6914  0.1690
  904MPD2     N13248   4.379   3.719  14.016 -0.8364  0.2101 -0.1352
  904MPD2    H513249   4.354   3.665  14.098  0.4547  0.3540  0.3532
  904MPD2    N113250   3.928   3.666  13.842 -0.1452  0.8161  0.2634
  904MPD2    H713251   3.919   3.657  13.943  0.8926 -2.3837  0.0937
  905MPD2     C13252   3.610   3.954  13.283  0.6736  0.1284  0.0764
  905MPD2    C113253   3.677   3.857  13.358 -0.7263 -0.1306  0.0908
  905MPD2    C213254   3.784   3.780  13.323 -0.0023 -0.6711 -0.4797
  905MPD2    C313255   3.826   3.787  13.195  0.3361 -0.0707 -0.1094
  905MPD2    C413256   3.759   3.869  13.106  0.0664 -0.2193 -0.7116
  905MPD2    C513257   3.649   3.949  13.150 -0.9350 -0.7161 -0.1990
  905MPD2     H13258   3.825   3.717  13.401 -0.2321  1.8849  1.7101
  905MPD2    H113259   3.791   3.886  13.004  2.4956 -1.1972 -0.1115
  905MPD2    H213260   3.526   4.017  13.312  0.8053  0.7045 -0.7886
  905MPD2    H313261   3.606   4.019  13.079 -3.4925 -2.0022  0.0641
  905MPD2     N13262   3.946   3.720  13.149  1.0572 -0.0621  0.0323
  905MPD2    H513263   3.978   3.738  13.054 -1.8022 -1.4928 -1.1885
  905MPD2    N113264   3.644   3.838  13.493  0.5583 -0.4903  0.3590
  905MPD2    H713265   3.700   3.767  13.538  2.7086 -0.9752 -3.1503
  906MPD2     C13266   1.167   3.722  11.334  0.1988  0.3511  0.7115
  906MPD2    C113267   1.183   3.644  11.224  0.5635 -0.7118  0.5046
  906MPD2    C213268   1.191   3.507  11.239 -0.7852 -0.3457  0.4524
  906MPD2    C313269   1.188   3.444  11.366 -0.1389 -0.3012 -0.1047
  906MPD2    C413270   1.188   3.524  11.474 -0.6077 -0.0622  0.1856
  906MPD2    C513271   1.170   3.662  11.457  0.6633  0.2804  0.2583
  906MPD2     H13272   1.199   3.451  11.147 -0.5869  0.2539  0.1036
  906MPD2    H113273   1.200   3.479  11.572  0.3841 -0.7213 -0.2406
  906MPD2    H213274   1.172   3.831  11.329  2.7749  0.2482  0.7668
  906MPD2    H313275   1.164   3.732  11.540 -1.7834  0.5088 -0.1153
  906MPD2     N13276   1.197   3.306  11.368 -0.1606 -0.0508 -0.2745
  906MPD2    H513277   1.188   3.262  11.459 -0.6325  2.1629  0.7407
  906MPD2    N113278   1.198   3.692  11.093 -0.0450  0.3006  0.0309
  906MPD2    H713279   1.218   3.625  11.019  0.6390  1.4434 -0.8397
  907MPD2     C13280   4.711   3.019  16.059  0.4492 -0.2389 -0.2590
  907MPD2    C113281   4.716   2.886  16.021  0.1724 -0.2328 -0.2764
  907MPD2    C213282   0.077   2.799  16.087  0.1868  0.3256  0.2627
  907MPD2    C313283   0.166   2.852  16.179  0.5215 -0.3931 -0.2172
  907MPD2    C413284   0.180   2.986  16.199 -0.7997  0.5290  0.0644
  907MPD2    C513285   0.085   3.069  16.141 -0.4548 -0.2748 -0.4071
  907MPD2     H13286   0.081   2.694  16.060 -0.3566  0.9446 -2.1775
  907MPD2    H113287   0.261   3.032  16.254 -0.0607  1.0704 -1.4780
  907MPD2    H213288   4.641   3.091  16.017 -1.0222  0.1524  2.8479
  907MPD2    H313289   0.097   3.176  16.152 -0.4578 -0.4422  1.2556
  907MPD2     N13290   0.246   2.761  16.249  0.6094  0.2218  0.4696
  907MPD2    H513291   0.226   2.663  16.231 -0.4743  0.3385  0.9917
  907MPD2    N113292   4.625   2.829  15.930 -0.3867  0.0497 -0.2361
  907MPD2    H713293   4.647   2.738  15.890 -1.0756  0.1727 -0.8945
  908MPD2     C13294   2.524   3.965   9.317 -0.1953 -0.2839 -0.0817
  908MPD2    C113295   2.457   3.891   9.413  0.4841  0.1790 -0.0078
  908MPD2    C213296   2.474   3.928   9.542  0.5870  0.3706  0.7077
  908MPD2    C313297   2.535   4.047   9.578 -0.1101 -0.1025 -0.1033
  908MPD2    C413298   2.579   4.132   9.476  0.3325 -0.0991 -0.2384
  908MPD2    C513299   2.581   4.082   9.344  0.1590 -0.0606 -0.2021
  908MPD2     H13300   2.417   3.867   9.612 -2.2236  0.3532 -1.5871
  908MPD2    H113301   2.619   4.232   9.491 -0.3606 -0.0301  1.1189
  908MPD2    H213302   2.523   3.943   9.211  0.8673 -0.9329  0.0408
  908MPD2    H313303   2.617   4.147   9.265 -0.9632  0.2012 -0.4983
  908MPD2     N13304   2.524   4.086   9.714 -0.0681 -0.2581  0.0098
  908MPD2    H513305   2.485   4.015   9.776 -2.3276  1.9317  1.1207
  908MPD2    N113306   2.395   3.770   9.382  0.1994 -0.3452  0.0542
  908MPD2    H713307   2.353   3.716   9.457  1.3484 -0.5350  0.5591
  909MPD2     C13308   3.098   1.820  11.944 -0.3664  0.5359  0.3277
  909MPD2    C113309   3.030   1.904  11.856  0.8211  0.1217 -0.3176
  909MPD2    C213310   2.913   1.964  11.880  0.4174 -0.0232 -0.0548
  909MPD2    C313311   2.861   1.955  12.002  0.6289  0.0834  0.1233
  909MPD2    C413312   2.923   1.883  12.094 -0.3238  0.1765 -0.1873
  909MPD2    C513313   3.047   1.822  12.071 -0.6349  0.4705  0.5293
  909MPD2     H13314   2.873   2.035  11.809 -0.4009 -0.6507 -0.2275
  909MPD2    H113315   2.893   1.877  12.198  3.1189  1.6212  0.8933
  909MPD2    H213316   3.188   1.767  11.917  0.0186  0.5156  1.6248
  909MPD2    H313317   3.101   1.773  12.151 -0.3371  2.2800  1.4528
  909MPD2     N13318   2.741   2.032  12.031 -0.2652  0.7829 -0.0621
  909MPD2    H513319   2.707   2.097  11.960  1.1208  0.6040 -0.8923
  909MPD2    N113320   3.071   1.908  11.720 -0.3001  0.3015 -0.1272
  909MPD2    H713321   3.012   1.965  11.660 -0.5833  0.2092  0.0632
  910MPD2     C13322   4.111   3.613  16.178  0.4671  0.2356  0.0158
  910MPD2    C113323   4.165   3.517  16.089 -0.7296  0.2097  0.4883
  910MPD2    C213324   4.128   3.530  15.951 -0.2184  0.6175 -0.3834
  910MPD2    C313325   4.032   3.624  15.914 -0.2179 -0.7912  0.5573
  910MPD2    C413326   3.976   3.703  16.014 -0.1915 -0.3467 -0.4825
  910MPD2    C513327   4.025   3.707  16.138  0.5603  0.7559  0.5085
  910MPD2     H13328   4.168   3.461  15.877 -0.3453 -0.6533  0.7309
  910MPD2    H113329   3.899   3.777  15.997  1.7949  1.9447  0.4562
  910MPD2    H213330   4.155   3.617  16.277  1.3485 -0.4624 -0.3464
  910MPD2    H313331   3.984   3.781  16.206 -3.5408  0.5545 -1.7461
  910MPD2     N13332   3.996   3.653  15.782  0.9224 -0.3214  0.8165
  910MPD2    H513333   3.918   3.717  15.774  0.6013 -0.9227 -0.9700
  910MPD2    N113334   4.255   3.411  16.130 -0.3029 -0.1082  0.2576
  910MPD2    H713335   4.303   3.354  16.061 -0.6500 -0.0389 -0.0396
  911MPD2     C13336   2.092   3.809  16.333 -0.3602 -0.4349  0.4353
  911MPD2    C113337   2.117   3.913  16.419 -0.0023  0.1877 -0.3465
  911MPD2    C213338   2.055   4.034  16.400 -0.1724 -0.2163  0.1967
  911MPD2    C313339   1.957   4.050  16.302 -0.3681 -0.0138  0.2734
  911MPD2    C413340   1.926   3.938  16.225  0.1965 -0.3058  0.6030
  911MPD2    C513341   1.990   3.821  16.240  0.6967 -0.3529 -0.5636
  911MPD2     H13342   2.088   4.122  16.454 -0.1629  0.2845 -0.6174
  911MPD2    H113343   1.843   3.929  16.155  1.0014  0.9363 -0.4964
  911MPD2    H213344   2.142   3.713  16.334 -0.6074 -0.5593  1.2877
  911MPD2    H313345   1.954   3.738  16.181 -0.6608  0.5794 -1.0422
  911MPD2     N13346   1.893   4.170  16.268 -0.0715  0.3956 -0.1544
  911MPD2    H513347   1.817   4.163  16.201  0.8729 -0.3914 -1.1416
  911MPD2    N113348   2.224   3.884  16.505  0.5841  0.2222  0.1376
  911MPD2    H713349   2.258   3.789  16.494  2.8040  0.9419  0.9317
  912MPD2     C13350   1.583   3.992  15.855 -0.4557 -0.5847 -0.7081
  912MPD2    C113351   1.576   4.022  15.989 -0.5366  0.3213  0.0608
  912MPD2    C213352   1.586   3.917  16.079  0.1543 -0.2285 -0.6262
  912MPD2    C313353   1.609   3.787  16.039 -0.1173  0.3579  0.0626
  912MPD2    C413354   1.635   3.761  15.903 -0.1190 -0.3365  0.2223
  912MPD2    C513355   1.606   3.864  15.819 -0.2118 -0.4825 -0.1746
  912MPD2     H13356   1.565   3.944  16.181 -0.1051 -0.0262 -0.7331
  912MPD2    H113357   1.669   3.669  15.858 -0.5355 -0.4324  0.0976
  912MPD2    H213358   1.563   4.071  15.783  0.2208 -0.4823 -0.7793
  912MPD2    H313359   1.609   3.854  15.712  1.6951  2.4442 -0.3892
  912MPD2     N13360   1.623   3.692  16.136 -0.5723  0.2407 -0.3948
  912MPD2    H513361   1.611   3.728  16.230 -2.7847 -0.6946 -0.3354
  912MPD2    N113362   1.561   4.160  16.026  0.6166 -0.5264  0.1259
  912MPD2    H713363   1.592   4.229  15.959 -0.1048 -0.8253 -0.5092
  913MPD2     C13364   1.442   0.316   9.845  0.6906  0.0064 -0.3107
  913MPD2    C113365   1.531   0.396   9.906 -0.0056 -0.3430 -0.4816
  913MPD2    C213366   1.592   0.494   9.829 -0.9728 -0.4607  0.1195
  913MPD2    C313367   1.570   0.504   9.691  0.1389  0.0706 -0.2098
  913MPD2    C413368   1.483   0.411   9.633 -1.0824  0.5176 -0.0042
  913MPD2    C513369   1.425   0.314   9.706 -0.8185 -0.2595 -0.0393
  913MPD2     H13370   1.642   0.575   9.880  1.5643 -1.7792 -0.2843
  913MPD2    H113371   1.464   0.401   9.527 -1.4107 -2.3315  0.3257
  913MPD2    H213372   1.382   0.248   9.905 -0.3640  0.4420 -0.8631
  913MPD2    H313373   1.358   0.249   9.652 -0.5408 -1.8975  1.5935
  913MPD2     N13374   1.620   0.602   9.603 -0.3238 -0.1107  0.2422
  913MPD2    H513375   1.592   0.598   9.506 -1.3575 -2.1045  0.6122
  913MPD2    N113376   1.552   0.386  10.044 -0.2043  0.3064 -0.5076
  913MPD2    H713377   1.490   0.326  10.098 -1.3514  1.5912 -0.4096
  914MPD2     C13378   0.214   0.452  12.041 -0.1687 -0.0981  0.2891
  914MPD2    C113379   0.293   0.559  12.032 -0.6805  0.0394 -0.5161
  914MPD2    C213380   0.425   0.550  12.069 -0.7265 -0.1075  0.0392
  914MPD2    C313381   0.471   0.448  12.149  0.2248 -0.7848  0.7102
  914MPD2    C413382   0.392   0.341  12.168 -0.8730 -0.5424 -0.5745
  914MPD2    C513383   0.264   0.338  12.109 -0.0153 -0.3102 -0.2632
  914MPD2     H13384   0.493   0.635  12.070 -0.2997 -0.4450 -0.2521
  914MPD2    H113385   0.422   0.258  12.231  0.6670  0.7504  0.3816
  914MPD2    H213386   0.111   0.448  12.008 -0.8234  0.8090  2.2458
  914MPD2    H313387   0.211   0.245  12.125 -0.2625 -0.2618 -0.7890
  914MPD2     N13388   0.604   0.466  12.195 -0.2779  0.4681 -0.8865
  914MPD2    H513389   0.649   0.555  12.179 -0.3219  0.1309 -2.9601
  914MPD2    N113390   0.251   0.671  11.957  0.1919 -0.1706 -0.0669
  914MPD2    H713391   0.192   0.653  11.877 -0.6219  0.6193  0.3636
  915MPD2     C13392   3.266   0.511  15.361  0.0309 -0.2926  0.1648
  915MPD2    C113393   3.156   0.595  15.350 -0.4245 -0.9339  0.0108
  915MPD2    C213394   3.099   0.652  15.465  0.1325  0.6066  0.7428
  915MPD2    C313395   3.172   0.642  15.586  0.1667  0.1714 -0.2160
  915MPD2    C413396   3.285   0.557  15.593  0.9714 -0.6360  0.5966
  915MPD2    C513397   3.325   0.488  15.484 -0.5727  0.0303 -0.6563
  915MPD2     H13398   3.013   0.717  15.454 -0.4832 -0.4946 -1.0363
  915MPD2    H113399   3.348   0.547  15.681  1.1480 -0.2691  0.5126
  915MPD2    H213400   3.310   0.472  15.270 -1.9223 -1.8947 -0.0800
  915MPD2    H313401   3.415   0.430  15.500 -0.3065  0.6735  0.1401
  915MPD2     N13402   3.120   0.701  15.700 -0.1233 -0.8099  0.2572
  915MPD2    H513403   3.024   0.734  15.695  0.2809  0.3422  0.0412
  915MPD2    N113404   3.109   0.624  15.222  0.0104 -0.3983 -0.4699
  915MPD2    H713405   3.156   0.588  15.140  0.6275 -0.4089 -0.1121
  916MPD2     C13406   1.320   3.737  15.639  0.3547 -0.7722 -0.5088
  916MPD2    C113407   1.356   3.660  15.753 -0.0706  0.2627 -0.3067
  916MPD2    C213408   1.427   3.543  15.735 -0.0203 -0.5639 -0.1174
  916MPD2    C313409   1.480   3.509  15.609 -0.4900  0.7621 -0.2252
  916MPD2    C413410   1.452   3.587  15.496 -0.3842  0.1025 -0.4180
  916MPD2    C513411   1.370   3.699  15.511  0.4763 -0.0272 -0.1387
  916MPD2     H13412   1.449   3.478  15.819  2.4830  2.3588  1.4943
  916MPD2    H113413   1.492   3.568  15.397  0.0226 -1.0961 -0.0223
  916MPD2    H213414   1.261   3.828  15.641 -0.4396 -1.3463  2.4090
  916MPD2    H313415   1.343   3.752  15.421  1.1446 -0.8592 -0.8355
  916MPD2     N13416   1.545   3.386  15.598  0.1853 -0.7499 -0.3802
  916MPD2    H513417   1.555   3.340  15.688 -0.0562  1.8689  0.9944
  916MPD2    N113418   1.297   3.702  15.874 -0.1372  0.0308  0.6459
  916MPD2    H713419   1.239   3.786  15.870 -1.9411 -1.1776  1.3146
  917MPD2     C13420   1.877   1.446  10.841 -0.2740  0.6088 -0.4114
  917MPD2    C113421   1.975   1.434  10.938 -0.6383 -0.1881 -0.3369
  917MPD2    C213422   2.104   1.484  10.912  0.1967  0.0074  0.0916
  917MPD2    C313423   2.118   1.549  10.792  0.1852 -0.0199  0.5191
  917MPD2    C413424   2.022   1.549  10.696  0.5403  0.8952 -0.2358
  917MPD2    C513425   1.897   1.505  10.721  0.1282  0.7404  0.1915
  917MPD2     H13426   2.187   1.470  10.980 -0.4446  0.1229  0.9029
  917MPD2    H113427   2.043   1.598  10.602  0.3802  1.5601  0.0761
  917MPD2    H213428   1.772   1.425  10.856 -0.6785  2.3170 -0.9423
  917MPD2    H313429   1.817   1.529  10.652 -2.3645  2.3786  3.6260
  917MPD2     N13430   2.238   1.621  10.762  0.1873  0.6292 -0.3133
  917MPD2    H513431   2.247   1.666  10.672  0.0554  0.3464 -0.4674
  917MPD2    N113432   1.935   1.364  11.053  0.2477  0.0880 -0.2577
  917MPD2    H713433   1.843   1.322  11.050 -0.2571  1.1813 -0.0210
  918MPD2     C13434   2.118   1.783  11.930  1.2923 -0.1267  0.0516
  918MPD2    C113435   2.199   1.690  11.875 -0.0665 -0.1969  0.0202
  918MPD2    C213436   2.150   1.596  11.792  0.4224  0.1074 -0.6608
  918MPD2    C313437   2.023   1.604  11.745  0.6049  0.1360  0.0157
  918MPD2    C413438   1.948   1.708  11.789 -1.1924  0.6863 -0.6422
  918MPD2    C513439   1.995   1.796  11.886 -0.7908  0.3654  0.5797
  918MPD2     H13440   2.217   1.517  11.759 -2.5071 -2.0563 -1.4649
  918MPD2    H113441   1.845   1.719  11.757 -0.6743  2.5875 -1.6258
  918MPD2    H213442   2.147   1.857  12.003 -0.7686 -1.7374  2.5095
  918MPD2    H313443   1.922   1.861  11.933 -0.0630  0.2979  1.7893
  918MPD2     N13444   1.979   1.501  11.657  0.5657  0.3280  0.8219
  918MPD2    H513445   2.044   1.429  11.628 -1.4948 -0.5074 -1.7097
  918MPD2    N113446   2.340   1.685  11.899  0.5606 -0.0381  0.1207
  918MPD2    H713447   2.397   1.618  11.848  0.9289 -0.2935  0.8594
  919MPD2     C13448   2.224   0.627  11.558  0.4523 -0.0702  0.0903
  919MPD2    C113449   2.114   0.554  11.587 -0.5030  0.1202 -0.3267
  919MPD2    C213450   2.018   0.539  11.485 -0.1861  0.2819 -0.2589
  919MPD2    C313451   2.033   0.611  11.365 -0.0013  0.4868  0.4227
  919MPD2    C413452   2.136   0.696  11.345  0.5499 -1.1879 -0.0616
  919MPD2    C513453   2.231   0.697  11.445  0.2941 -1.0498 -0.6260
  919MPD2     H13454   1.939   0.468  11.505  1.8998 -1.7041  0.9289
  919MPD2    H113455   2.134   0.764  11.261 -0.6276 -0.3701  0.6474
  919MPD2    H213456   2.306   0.625  11.628  0.2138  0.1223  0.3787
  919MPD2    H313457   2.313   0.767  11.433  0.8581 -1.2562  2.0029
  919MPD2     N13458   1.935   0.587  11.266 -0.0077  0.2282 -0.3290
  919MPD2    H513459   1.848   0.542  11.293  1.1362 -2.1096 -0.5108
  919MPD2    N113460   2.118   0.476  11.706 -0.2340  0.3956  0.7109
  919MPD2    H713461   2.202   0.483  11.762 -0.6821 -0.3881  1.4813
  920MPD2     C13462   1.844   0.864  10.301  0.1597 -0.3079  0.4821
  920MPD2    C113463   1.716   0.820  10.331  0.2167  0.2689  0.6567
  920MPD2    C213464   1.685   0.772  10.459  0.4265 -0.2573 -0.3430
  920MPD2    C313465   1.779   0.778  10.561 -0.2862  0.1799 -0.3495
  920MPD2    C413466   1.907   0.821  10.523 -0.0985 -0.0190  0.5303
  920MPD2    C513467   1.933   0.877  10.403  0.3237  0.1124  0.6493
  920MPD2     H13468   1.583   0.744  10.483  1.2810 -3.7047 -0.8253
  920MPD2    H113469   1.994   0.816  10.587 -1.2132 -2.1381  1.8761
  920MPD2    H213470   1.866   0.916  10.209  1.7307  0.6860  1.4109
  920MPD2    H313471   2.029   0.920  10.377  0.4144 -0.3680  0.1925
  920MPD2     N13472   1.768   0.726  10.688 -1.1562  0.6213  0.7068
  920MPD2    H513473   1.844   0.731  10.755  0.1912  0.0490 -0.7744
  920MPD2    N113474   1.610   0.805  10.236 -0.3392  0.3043  1.1976
  920MPD2    H713475   1.521   0.772  10.272 -0.0974 -0.6220  0.9294
  921MPD2     C13476   2.942   4.430  16.981  0.3862  0.6182 -0.3109
  921MPD2    C113477   2.965   4.302  17.024  0.2445 -0.2827  0.0134
  921MPD2    C213478   2.874   4.206  16.984 -0.7290  0.3992  0.5532
  921MPD2    C313479   2.756   4.238  16.913 -0.3574  0.1235  0.0371
  921MPD2    C413480   2.735   4.370  16.875  0.6294 -0.0023 -0.1915
  921MPD2    C513481   2.831   4.456  16.911 -1.1492  0.1585 -0.0833
  921MPD2     H13482   2.893   4.107  17.022 -0.0106 -0.2279 -1.4420
  921MPD2    H113483   2.652   4.402  16.813 -0.5201 -0.2601  1.2165
  921MPD2    H213484   3.013   4.510  17.000  0.5563  0.5257 -0.5519
  921MPD2    H313485   2.829   4.561  16.885  0.6631  0.5010  1.1809
  921MPD2     N13486   2.658   4.145  16.862  0.1605  0.0261  0.3324
  921MPD2    H513487   2.594   4.176  16.789  3.8555 -0.1723 -3.0045
  921MPD2    N113488   3.099   4.277  17.072  0.2745  0.4936 -1.1355
  921MPD2    H713489   3.155   4.362  17.080  1.7182 -0.5552 -0.1283
  922MPD2     C13490   4.069   1.747  16.882 -0.0074 -0.9946  0.2017
  922MPD2    C113491   3.991   1.794  16.984  0.8417  0.0374  0.0918
  922MPD2    C213492   3.902   1.713  17.053 -0.1309 -0.1568  0.5766
  922MPD2    C313493   3.889   1.581  17.009 -0.1287 -1.1662 -0.2004
  922MPD2    C413494   3.961   1.533  16.902  0.4374 -0.0932  0.4429
  922MPD2    C513495   4.053   1.617  16.839  0.9415 -0.1390  0.0229
  922MPD2     H13496   3.840   1.758  17.130 -0.9635 -0.4152  0.0572
  922MPD2    H113497   3.946   1.435  16.859  0.8647 -0.2492  0.6526
  922MPD2    H213498   4.135   1.806  16.820 -2.0276  0.1000 -0.8958
  922MPD2    H313499   4.110   1.589  16.750  0.4328  1.0710 -0.6832
  922MPD2     N13500   3.791   1.513  17.079 -0.8636 -0.0852  0.6706
  922MPD2    H513501   3.758   1.561  17.162 -0.4526 -0.4118  1.0259
  922MPD2    N113502   3.996   1.930  17.026 -0.1656 -0.0093  0.1084
  922MPD2    H713503   3.936   1.949  17.105 -2.0287 -1.8387 -0.8669
  923MPD2     C13504   0.394   4.275   8.891  0.1656  0.7543  0.1537
  923MPD2    C113505   0.358   4.175   8.977  0.6209  0.6001  0.6821
  923MPD2    C213506   0.447   4.100   9.039 -0.1147 -0.1805  0.3006
  923MPD2    C313507   0.580   4.115   9.013 -0.2352 -0.5659 -0.0703
  923MPD2    C413508   0.615   4.211   8.927  0.1203 -0.6955  0.2217
  923MPD2    C513509   0.523   4.299   8.879  0.0238 -0.5225 -0.3458
  923MPD2     H13510   0.419   4.030   9.116  1.6218 -0.8749  0.3162
  923MPD2    H113511   0.718   4.240   8.908 -1.0325  3.6548  0.6931
  923MPD2    H213512   0.321   4.344   8.848  1.5761 -0.8974 -4.9001
  923MPD2    H313513   0.560   4.383   8.821 -0.6585 -1.0514 -1.5453
  923MPD2     N13514   0.688   4.041   9.070 -0.2404 -0.4483 -0.3605
  923MPD2    H513515   0.780   4.070   9.039 -0.6334  0.3262 -0.7996
  923MPD2    N113516   0.219   4.158   9.002 -0.1991  0.2444  0.1595
  923MPD2    H713517   0.157   4.217   8.946 -0.6533 -0.5881 -0.2047
  924MPD2     C13518   0.272   1.920  16.117 -0.3025  0.5783  0.0373
  924MPD2    C113519   0.242   1.951  16.244 -0.3587  0.0338 -0.1554
  924MPD2    C213520   0.289   2.070  16.298  0.4186  0.2614 -0.6012
  924MPD2    C313521   0.351   2.164  16.217  0.7787 -0.5375 -0.5156
  924MPD2    C413522   0.377   2.127  16.088  0.3052  0.5201  0.6630
  924MPD2    C513523   0.345   2.005  16.044  0.3295 -0.2569  0.0356
  924MPD2     H13524   0.273   2.102  16.401 -1.0551 -0.4051 -0.6394
  924MPD2    H113525   0.437   2.183  16.017  1.8852  0.5054  1.9842
  924MPD2    H213526   0.248   1.822  16.080 -1.2497  0.4555  0.9576
  924MPD2    H313527   0.390   1.975  15.950  0.0802 -1.5293  0.3185
  924MPD2     N13528   0.407   2.285  16.264  0.5604  0.5482  0.9586
  924MPD2    H513529   0.443   2.340  16.186 -0.4071  0.0239  0.1379
  924MPD2    N113530   0.167   1.857  16.317  0.2077  0.3164 -0.5125
  924MPD2    H713531   0.177   1.763  16.280 -2.5538 -0.0056 -0.4494
  925MPD2     C13532   4.007   4.659  14.733  0.3224  0.9269 -0.0609
  925MPD2    C113533   3.896   4.712  14.666  0.1285  0.0528  0.2241
  925MPD2    C213534   3.779   0.032  14.739  0.2192  0.4807  0.0943
  925MPD2    C313535   3.774   0.009  14.875 -0.5162 -0.3888  0.1725
  925MPD2    C413536   3.882   4.678  14.935  0.8108  0.2066  0.5764
  925MPD2    C513537   4.001   4.640  14.868 -0.1684  0.2115 -0.3902
  925MPD2     H13538   3.693   0.068  14.684  0.6725  0.0424 -0.8985
  925MPD2    H113539   3.871   4.653  15.039  0.7774  0.6878  0.6877
  925MPD2    H213540   4.097   4.624  14.683 -0.2894  0.3238 -0.7426
  925MPD2    H313541   4.087   4.595  14.917  0.8960  2.8598  0.1640
  925MPD2     N13542   3.663   0.035  14.954 -0.5298  0.0239  0.2684
  925MPD2    H513543   3.674   0.015  15.053 -0.8451 -2.2126 -0.1535
  925MPD2    N113544   3.882   4.718  14.527  0.3156 -0.1895  0.1257
  925MPD2    H713545   3.795   0.024  14.484 -0.0868  1.4517  2.0289
  926MPD2     C13546   2.581   2.978  13.961  0.3016  0.0899  0.1131
  926MPD2    C113547   2.476   3.024  13.891  0.3008 -0.5231 -0.0689
  926MPD2    C213548   2.508   3.062  13.760  0.0505  0.0057  0.6329
  926MPD2    C313549   2.630   3.057  13.701  0.0579 -0.2748 -0.4053
  926MPD2    C413550   2.732   3.021  13.780  0.0466 -0.0448  0.1466
  926MPD2    C513551   2.702   2.977  13.901  0.7468  0.3720  0.3468
  926MPD2     H13552   2.428   3.100  13.697 -0.8014  0.4123  1.9311
  926MPD2    H113553   2.833   3.018  13.739 -0.7894 -0.0619 -1.9498
  926MPD2    H213554   2.576   2.942  14.063 -0.4374 -0.0290  0.0342
  926MPD2    H313555   2.785   2.950  13.965  0.1374  2.2295  1.9366
  926MPD2     N13556   2.674   3.110  13.574 -0.4102 -0.5913  0.1612
  926MPD2    H513557   2.774   3.121  13.560 -0.1349 -2.2430  0.8756
  926MPD2    N113558   2.345   3.046  13.941 -0.1284 -0.3495  0.1033
  926MPD2    H713559   2.284   3.103  13.883  0.0921  1.3733  1.5508
  927MPD2     C13560   2.181   0.699   0.124  0.2106  0.1279 -0.1791
  927MPD2    C113561   2.237   0.829   0.124  0.0945  0.2226  0.3158
  927MPD2    C213562   2.337   0.849   0.032  0.0323 -0.0051  0.0039
  927MPD2    C313563   2.393   0.750  17.645  0.4574  0.1096 -0.0877
  927MPD2    C413564   2.344   0.620  17.668 -0.4614  0.3848 -0.3203
  927MPD2    C513565   2.244   0.597   0.065 -0.4829  0.6588  0.5633
  927MPD2     H13566   2.380   0.949   0.024 -0.8074  0.2641 -1.1954
  927MPD2    H113567   2.382   0.537  17.609  0.1647  0.5625 -0.1759
  927MPD2    H213568   2.092   0.690   0.185  0.7412 -1.6097  0.3403
  927MPD2    H313569   2.201   0.497   0.071 -0.5012  0.6265 -0.0681
  927MPD2     N13570   2.500   0.791  17.556  0.4268 -0.4941 -0.0157
  927MPD2    H513571   2.514   0.889  17.535 -0.7936  0.3730  3.0733
  927MPD2    N113572   2.186   0.921   0.216  0.3448 -0.3966 -0.2109
  927MPD2    H713573   2.125   0.894   0.292 -3.8785 -0.3262 -3.5356
  928MPD2     C13574   0.401   4.343   1.001 -0.1114  0.0448 -0.7253
  928MPD2    C113575   0.538   4.320   1.020  1.1220 -0.9745 -0.0886
  928MPD2    C213576   0.612   4.286   0.908  0.1583  0.4554 -0.5418
  928MPD2    C313577   0.548   4.267   0.786  0.0349 -0.0347 -0.1471
  928MPD2    C413578   0.407   4.276   0.772  0.1211  0.5193 -0.1199
  928MPD2    C513579   0.341   4.322   0.882  0.4572 -0.2498  0.3247
  928MPD2     H13580   0.720   4.293   0.909  0.3189 -2.4741  1.9503
  928MPD2    H113581   0.343   4.241   0.693 -1.0476  1.5968  0.3555
  928MPD2    H213582   0.332   4.376   1.078  0.0083 -1.6923  0.1095
  928MPD2    H313583   0.234   4.336   0.875  0.3931  0.1224  2.1252
  928MPD2     N13584   0.615   4.233   0.664  0.0502 -0.5487  0.7746
  928MPD2    H513585   0.560   4.254   0.582  0.6131 -1.7022  0.1048
  928MPD2    N113586   0.592   4.349   1.148  1.1820  0.1622  0.0212
  928MPD2    H713587   0.534   4.381   1.225  0.4997 -2.6109  0.6433
  929MPD2     C13588   0.780   3.556  10.584 -0.1059  0.3333 -0.0498
  929MPD2    C113589   0.673   3.475  10.614  0.4031 -0.3063  0.5434
  929MPD2    C213590   0.575   3.462  10.514  0.1661  0.3681 -1.0018
  929MPD2    C313591   0.581   3.524  10.390 -1.1352 -0.0370 -0.0559
  929MPD2    C413592   0.683   3.616  10.373  0.2909 -0.2441  0.7585
  929MPD2    C513593   0.781   3.632  10.464  0.4048  0.1556 -0.1757
  929MPD2     H13594   0.497   3.388  10.524  1.4385 -0.3791  3.3567
  929MPD2    H113595   0.703   3.670  10.281 -0.5199 -2.6014 -0.7818
  929MPD2    H213596   0.870   3.554  10.643  1.5559  0.4495 -2.5823
  929MPD2    H313597   0.874   3.680  10.435  1.7506 -1.8441  0.8574
  929MPD2     N13598   0.488   3.518  10.284 -0.4942  0.4998  0.0032
  929MPD2    H513599   0.496   3.593  10.215 -0.9376  0.4842 -0.0649
  929MPD2    N113600   0.686   3.389  10.724  1.0414  0.4196 -0.1448
  929MPD2    H713601   0.770   3.395  10.781  1.4740 -1.4215 -0.5878
  930MPD2     C13602   2.449   1.191  14.086  0.0935 -0.5030  0.6527
  930MPD2    C113603   2.372   1.245  13.983  0.4786  0.2153 -0.4600
  930MPD2    C213604   2.271   1.167  13.921  0.0087 -0.4506 -0.5830
  930MPD2    C313605   2.258   1.035  13.952 -0.3592 -0.0363  0.0147
  930MPD2    C413606   2.337   0.983  14.042 -0.6625 -0.5500  0.2732
  930MPD2    C513607   2.440   1.055  14.111 -0.3972 -0.2701  0.3995
  930MPD2     H13608   2.211   1.204  13.839 -0.5158 -0.8270 -0.3653
  930MPD2    H113609   2.328   0.875  14.054 -0.0307 -0.4696  1.4912
  930MPD2    H213610   2.523   1.257  14.130 -0.9992  0.8659  0.4507
  930MPD2    H313611   2.506   1.003  14.179  2.8006  0.9242 -1.7769
  930MPD2     N13612   2.154   0.957  13.907 -0.2271  0.3660 -0.2111
  930MPD2    H513613   2.159   0.857  13.923 -0.5991  0.1269 -1.6084
  930MPD2    N113614   2.404   1.377  13.944 -0.0104 -0.3858 -0.4280
  930MPD2    H713615   2.494   1.409  13.979 -0.2737  2.4422 -2.3522
  931MPD2     C13616   2.637   1.125   0.692  0.5539 -0.3254  0.0044
  931MPD2    C113617   2.516   1.164   0.743 -0.1773  0.1404 -0.3117
  931MPD2    C213618   2.491   1.163   0.877 -0.3155 -0.4511  0.6454
  931MPD2    C313619   2.593   1.116   0.962 -0.8276 -0.4284  0.0134
  931MPD2    C413620   2.719   1.089   0.910  0.3788 -0.6947 -0.2316
  931MPD2    C513621   2.740   1.098   0.776  0.1623  0.1016  0.4140
  931MPD2     H13622   2.396   1.187   0.922 -1.0257  0.6383 -1.4505
  931MPD2    H113623   2.801   1.060   0.974 -0.3081 -0.4859  0.7411
  931MPD2    H213624   2.644   1.120   0.584 -0.4103 -2.7960  0.0653
  931MPD2    H313625   2.836   1.073   0.734  0.4658  2.9139 -0.6301
  931MPD2     N13626   2.576   1.102   1.100  0.1409  0.4045 -0.2887
  931MPD2    H513627   2.644   1.055   1.160 -0.1933  1.5769  1.0234
  931MPD2    N113628   2.417   1.186   0.643 -0.3746  0.3248 -0.0201
  931MPD2    H713629   2.449   1.160   0.550 -0.3234 -0.0324  0.0964
  932MPD2     C13630   4.127   0.255  11.699  0.0364 -0.2749  0.1269
  932MPD2    C113631   4.188   0.184  11.597 -0.0849 -0.3781 -0.8571
  932MPD2    C213632   4.218   0.053  11.622 -0.2741 -0.0758  0.1560
  932MPD2    C313633   4.183   4.722  11.746  0.2165  0.3170  0.7285
  932MPD2    C413634   4.130   0.079  11.845 -0.2477  0.3801  0.0234
  932MPD2    C513635   4.090   0.210  11.815 -0.0159  0.1142  0.4129
  932MPD2     H13636   4.269   4.719  11.545  1.6433  0.1928  1.2100
  932MPD2    H113637   4.110   0.047  11.947  0.0865 -0.6928 -0.2541
  932MPD2    H213638   4.113   0.362  11.687 -1.6726 -0.3000  1.8564
  932MPD2    H313639   4.034   0.264  11.891  0.0681  2.0810 -0.9247
  932MPD2     N13640   4.212   4.587  11.782 -0.4650  0.1106  0.6119
  932MPD2    H513641   4.185   4.555  11.874 -0.8083 -0.8812  0.1680
  932MPD2    N113642   4.215   0.251  11.470  0.0670 -0.0839 -0.8692
  932MPD2    H713643   4.275   0.198  11.407  0.8031  0.3736 -0.5487
  933MPD2     C13644   0.756   0.078   1.857 -0.3429  0.0310  0.8558
  933MPD2    C113645   0.706   0.059   1.727  0.2110 -0.8425 -0.8190
  933MPD2    C213646   0.601   0.143   1.693 -0.0966 -0.4669 -0.0420
  933MPD2    C313647   0.537   0.232   1.780 -0.9826  0.1869 -0.0945
  933MPD2    C413648   0.580   0.246   1.909  0.3838 -0.1688  0.3471
  933MPD2    C513649   0.695   0.172   1.941 -0.4729  0.7424 -0.0691
  933MPD2     H13650   0.582   0.147   1.586  1.7109 -0.8301 -0.3815
  933MPD2    H113651   0.528   0.301   1.986 -0.1399 -0.0845 -0.0683
  933MPD2    H213652   0.841   0.019   1.890  0.2082  1.3691  1.8315
  933MPD2    H313653   0.731   0.172   2.043 -0.1212  1.6442 -0.1877
  933MPD2     N13654   0.425   0.293   1.730 -0.2151  0.0496  0.2103
  933MPD2    H513655   0.389   0.250   1.645  2.5985 -0.9906 -0.4531
  933MPD2    N113656   0.777   4.697   1.636 -0.2301  0.1848 -0.2462
  933MPD2    H713657   0.827   4.618   1.675 -2.3088 -1.2687 -0.5153
  934MPD2     C13658   1.256   1.099   2.103  0.0069 -0.3902 -0.1644
  934MPD2    C113659   1.152   1.170   2.047 -0.1950  0.4552 -0.7984
  934MPD2    C213660   1.115   1.143   1.915  0.2596  0.4602  0.0735
  934MPD2    C313661   1.159   1.033   1.847  0.2347 -0.5629  0.0851
  934MPD2    C413662   1.247   0.943   1.914 -0.3995  0.0713 -0.5181
  934MPD2    C513663   1.299   0.980   2.043 -0.6590 -0.3302  0.1670
  934MPD2     H13664   1.031   1.204   1.883  0.6516 -0.0060 -1.8323
  934MPD2    H113665   1.293   0.860   1.863  0.4742 -0.9135  1.8811
  934MPD2    H213666   1.297   1.130   2.198  1.3956 -1.5140 -0.4030
  934MPD2    H313667   1.376   0.917   2.087 -0.8367 -0.0245  0.9153
  934MPD2     N13668   1.134   1.020   1.708 -1.2864 -0.4467  0.0940
  934MPD2    H513669   1.178   0.945   1.657  0.6473  1.9113 -1.7175
  934MPD2    N113670   1.078   1.274   2.105  0.0971 -0.1645  0.2303
  934MPD2    H713671   1.002   1.314   2.051  0.3242  1.0895  0.8581
  935MPD2     C13672   1.755   0.847   1.115 -0.5867  0.1953 -0.2967
  935MPD2    C113673   1.636   0.846   1.047 -0.3885  0.6340  0.2594
  935MPD2    C213674   1.522   0.911   1.092  0.0528 -0.3422 -0.2524
  935MPD2    C313675   1.522   0.967   1.220 -0.0670 -0.5557 -0.6818
  935MPD2    C413676   1.639   0.965   1.295 -0.1136 -0.0012 -0.3328
  935MPD2    C513677   1.748   0.908   1.233 -0.4062  0.2674  0.2618
  935MPD2     H13678   1.427   0.910   1.040 -0.6431 -0.5379  1.0163
  935MPD2    H113679   1.644   0.993   1.399 -2.0717 -0.9018  0.0175
  935MPD2    H213680   1.851   0.800   1.094 -0.5589  0.2894 -0.3816
  935MPD2    H313681   1.833   0.888   1.298  0.1843  0.2752 -0.5131
  935MPD2     N13682   1.408   1.009   1.288  0.7129  0.0529 -0.1883
  935MPD2    H513683   1.407   1.019   1.389  0.6299  1.0117 -0.2914
  935MPD2    N113684   1.622   0.776   0.924 -0.7276 -0.1386  0.6065
  935MPD2    H713685   1.530   0.782   0.880  0.7240  2.7405 -1.9835
  936MPD2     C13686   3.874   3.636  12.282 -0.7055 -0.1613 -0.3567
  936MPD2    C113687   4.002   3.608  12.237 -0.0434 -0.9022 -0.2177
  936MPD2    C213688   4.099   3.711  12.244 -0.2626 -0.3782  0.5297
  936MPD2    C313689   4.070   3.831  12.307  0.8392  0.2878  0.5538
  936MPD2    C413690   3.941   3.849  12.352 -0.4815  0.0548 -0.0858
  936MPD2    C513691   3.850   3.753  12.337  0.1044  0.5963  0.0934
  936MPD2     H13692   4.201   3.681  12.223 -0.5003 -1.5578  1.0856
  936MPD2    H113693   3.909   3.943  12.396 -0.5557 -0.1031  0.1978
  936MPD2    H213694   3.795   3.561  12.282 -0.9993  0.1504  0.7089
  936MPD2    H313695   3.750   3.776  12.372  0.3800  0.9805  0.6250
  936MPD2     N13696   4.167   3.938  12.334 -0.5470  0.4471  0.4498
  936MPD2    H513697   4.154   4.017  12.396 -0.5150  0.0883  0.9123
  936MPD2    N113698   4.047   3.483  12.196 -0.6065  0.6177 -0.8474
  936MPD2    H713699   4.144   3.475  12.167 -0.5442 -2.0943  0.1322
  937MPD2     C13700   2.231   4.450  11.550 -0.0561 -0.5569 -0.1985
  937MPD2    C113701   2.265   4.588  11.559  0.0264  0.1546  0.1102
  937MPD2    C213702   2.301   4.651  11.445  0.5953 -0.1997 -0.1840
  937MPD2    C313703   2.334   4.574  11.336  0.0902 -0.4670 -0.7991
  937MPD2    C413704   2.323   4.436  11.332 -0.3227  0.8644  0.3831
  937MPD2    C513705   2.269   4.379  11.441  0.3552 -0.0816  0.9955
  937MPD2     H13706   2.313   0.035  11.434  0.7638 -0.0252  1.7615
  937MPD2    H113707   2.353   4.375  11.247  0.0484 -0.5847  1.5594
  937MPD2    H213708   2.175   4.399  11.627  1.6563 -0.8923  0.8155
  937MPD2    H313709   2.261   4.271  11.445  3.4289 -0.2551  2.2577
  937MPD2     N13710   2.391   4.654  11.229 -0.2478 -0.0130  0.5396
  937MPD2    H513711   2.412   0.029  11.247  0.1116 -0.3943  2.1481
  937MPD2    N113712   2.219   4.675  11.660 -0.4414 -0.1722  0.1582
  937MPD2    H713713   2.208   0.046  11.625 -0.3319 -0.0768  0.3781
  938MPD2     C13714   0.136   0.758   0.424 -0.6804 -0.2896  0.6160
  938MPD2    C113715   0.172   0.849   0.525  0.2898  1.0590  0.0726
  938MPD2    C213716   0.169   0.806   0.659  0.4278  1.1778 -0.1969
  938MPD2    C313717   0.129   0.681   0.697 -0.3555  0.2029  0.0749
  938MPD2    C413718   0.091   0.598   0.599  0.5401  0.6814  0.1763
  938MPD2    C513719   0.096   0.635   0.469  0.2027 -0.6039 -0.1402
  938MPD2     H13720   0.203   0.876   0.735 -0.0320  0.1865  0.9147
  938MPD2    H113721   0.059   0.496   0.616  0.6097  0.5904 -0.2459
  938MPD2    H213722   0.137   0.784   0.319 -0.2163 -1.6421  0.2835
  938MPD2    H313723   0.066   0.565   0.392 -2.4491 -0.1612  0.5095
  938MPD2     N13724   0.143   0.623   0.823 -0.0410  0.3156  0.1000
  938MPD2    H513725   0.119   0.525   0.833 -1.1232  0.5734  0.0934
  938MPD2    N113726   0.201   0.988   0.500 -0.1341 -0.1048 -0.7551
  938MPD2    H713727   0.211   1.048   0.581 -0.5622  1.1027 -1.5989
  939MPD2     C13728   1.621   1.997   0.630  0.1140  0.1165  0.5971
  939MPD2    C113729   1.604   2.120   0.582 -0.5720  0.5485 -1.1199
  939MPD2    C213730   1.664   2.162   0.467  0.4606 -0.1949 -0.5459
  939MPD2    C313731   1.754   2.080   0.404  0.7153  0.7748 -0.0925
  939MPD2    C413732   1.771   1.947   0.446  0.2189 -0.0678 -0.5207
  939MPD2    C513733   1.697   1.910   0.557 -0.2443  1.1327 -0.5094
  939MPD2     H13734   1.640   2.260   0.426  1.2570  0.3183  0.2094
  939MPD2    H113735   1.822   1.872   0.386  0.1799 -0.7331  0.2787
  939MPD2    H213736   1.570   1.954   0.716 -0.6971 -0.5923 -0.2464
  939MPD2    H313737   1.689   1.807   0.588  1.6063  0.8181 -1.1329
  939MPD2     N13738   1.835   2.138   0.303 -0.1756  0.6678  0.2773
  939MPD2    H513739   1.819   2.238   0.299 -1.9091  0.3309 -0.9538
  939MPD2    N113740   1.504   2.195   0.656  0.1719  0.3391  0.3366
  939MPD2    H713741   1.489   2.159   0.749 -1.2842  0.3454  0.0993
  940MPD2     C13742   4.468   2.693  13.679 -1.0204 -0.3375 -0.1604
  940MPD2    C113743   4.566   2.656  13.590  0.3426 -0.5702 -0.0569
  940MPD2    C213744   4.546   2.668  13.456 -0.0639 -0.8370 -0.1577
  940MPD2    C313745   4.432   2.723  13.402 -0.1581  0.2998  0.2140
  940MPD2    C413746   4.335   2.757  13.494  0.2634 -0.4161  0.1721
  940MPD2    C513747   4.352   2.742  13.625  0.0282  0.0724  0.3342
  940MPD2     H13748   4.621   2.627  13.390  1.8956  0.5619  1.1859
  940MPD2    H113749   4.236   2.786  13.462 -0.2362 -2.5325 -0.1972
  940MPD2    H213750   4.494   2.688  13.784 -1.6531  0.0402  0.0171
  940MPD2    H313751   4.276   2.772  13.697  1.1394  3.8681 -0.0607
  940MPD2     N13752   4.409   2.748  13.270  0.7593  0.8077 -0.0981
  940MPD2    H513753   4.316   2.775  13.238  0.0510  0.5880  1.7590
  940MPD2    N113754   4.687   2.593  13.628 -0.0002 -0.7594 -0.2534
  940MPD2    H713755   0.032   2.580  13.554 -1.4450  1.0777 -1.8955
  941MPD2     C13756   0.252   1.982   9.469 -0.6126 -0.1063  0.8473
  941MPD2    C113757   0.299   2.047   9.581  0.5744  0.9788  0.1217
  941MPD2    C213758   0.260   2.005   9.707  0.0214  0.7629  0.4104
  941MPD2    C313759   0.151   1.920   9.721  0.4847 -0.4688 -0.8986
  941MPD2    C413760   0.098   1.869   9.603  0.5108  0.8540  0.1560
  941MPD2    C513761   0.150   1.894   9.481  0.2226  0.0599  0.5272
  941MPD2     H13762   0.316   2.047   9.789  2.9500  0.4458 -1.4247
  941MPD2    H113763   0.018   1.795   9.604  0.6941  0.6560  0.3822
  941MPD2    H213764   0.278   2.001   9.365 -0.1124  0.2312  1.0306
  941MPD2    H313765   0.113   1.850   9.390 -1.1254  1.6056  0.3376
  941MPD2     N13766   0.094   1.884   9.849 -0.1441 -0.3044  0.2346
  941MPD2    H513767   0.012   1.825   9.842 -0.0864 -0.4372  0.7099
  941MPD2    N113768   0.391   2.154   9.577  0.2259 -0.2352  0.1820
  941MPD2    H713769   0.423   2.201   9.661 -2.6086  0.8207  0.6549
  942MPD2     C13770   3.914   2.656   9.507 -0.3835 -0.7125  0.5452
  942MPD2    C113771   3.862   2.731   9.405  0.3077 -0.5203 -0.0578
  942MPD2    C213772   3.945   2.803   9.314 -0.3500  0.4474 -0.4808
  942MPD2    C313773   4.076   2.818   9.335  0.4102 -0.8094 -0.9494
  942MPD2    C413774   4.124   2.761   9.446 -0.0924  0.0478 -0.0079
  942MPD2    C513775   4.048   2.678   9.528  0.0421  0.4790 -0.1399
  942MPD2     H13776   3.882   2.854   9.243 -0.7250  0.1273 -0.3835
  942MPD2    H113777   4.231   2.766   9.460  0.4091 -2.6439 -2.9551
  942MPD2    H213778   3.857   2.592   9.574 -1.4947  2.0324  2.2374
  942MPD2    H313779   4.094   2.633   9.615  2.6210  1.7372 -0.8600
  942MPD2     N13780   4.169   2.881   9.245  0.2840  0.4918 -0.2876
  942MPD2    H513781   4.263   2.898   9.280  0.0247  0.8724  0.2182
  942MPD2    N113782   3.725   2.753   9.384  0.9309  0.1235  0.4157
  942MPD2    H713783   3.714   2.804   9.297  0.6183  0.2585  0.5342
  943MPD2     C13784   2.524   1.534   8.762 -0.0211 -0.3533 -0.3180
  943MPD2    C113785   2.608   1.582   8.852 -0.0966 -0.1350  0.5774
  943MPD2    C213786   2.687   1.694   8.830 -0.5070  0.1262 -0.7190
  943MPD2    C313787   2.688   1.757   8.705 -0.1118 -0.1829  1.1229
  943MPD2    C413788   2.593   1.714   8.617  0.4255  0.1483  0.3754
  943MPD2    C513789   2.514   1.600   8.638  0.2348  0.2736 -1.0173
  943MPD2     H13790   2.754   1.741   8.901 -0.2118 -2.1975  0.5504
  943MPD2    H113791   2.580   1.757   8.518 -0.7982 -1.5564 -0.1925
  943MPD2    H213792   2.462   1.447   8.776 -0.7004  0.2907  0.6858
  943MPD2    H313793   2.431   1.561   8.582  0.1905 -2.0805  0.6758
  943MPD2     N13794   2.761   1.871   8.666  0.0822  0.1642 -0.0107
  943MPD2    H513795   2.736   1.905   8.574  0.8374 -0.6487 -0.5192
  943MPD2    N113796   2.626   1.507   8.971  0.3104 -0.1599  0.3088
  943MPD2    H713797   2.576   1.419   8.972  1.6628 -0.9239  1.1534
  944MPD2     C13798   3.161   0.491  11.384 -0.2209 -0.6287 -0.3683
  944MPD2    C113799   3.096   0.563  11.292 -0.1747  0.0283 -0.0957
  944MPD2    C213800   3.144   0.689  11.265 -0.4518  0.0243 -1.0174
  944MPD2    C313801   3.254   0.744  11.333 -0.3849 -0.2156  0.8323
  944MPD2    C413802   3.318   0.669  11.434  1.0074  0.0455  0.5304
  944MPD2    C513803   3.274   0.536  11.446 -0.7291 -0.3510 -0.2398
  944MPD2     H13804   3.090   0.746  11.191  0.5062 -0.5301 -2.1448
  944MPD2    H113805   3.413   0.691  11.483 -0.6093  0.0795  3.6315
  944MPD2    H213806   3.144   0.385  11.402  0.8847 -0.7150  0.1887
  944MPD2    H313807   3.337   0.467  11.502 -0.7515  0.2043  0.4682
  944MPD2     N13808   3.289   0.873  11.294  0.3349  0.7670  0.3142
  944MPD2    H513809   3.235   0.910  11.216  0.7102 -0.2237 -0.4063
  944MPD2    N113810   2.977   0.501  11.240 -0.0786  0.5245  0.1638
  944MPD2    H713811   2.933   0.422  11.285 -2.5818  3.0924  2.2415
    1TCq1    O113812   0.319   1.869  15.750 -0.0122 -0.4869  0.0705
    1TCq1    C113813   0.226   1.791  15.692 -0.0523 -0.3651 -0.1989
    1TCq1    O213814   0.125   1.750  15.741 -0.4926 -1.0116 -0.5340
    1TCq1    C213815   0.214   1.837  15.551  0.0768 -0.8418  0.3485
    1TCq1    C313816   0.098   1.879  15.489  0.2855  0.0630  0.9399
    1TCq1    C413817   0.107   1.904  15.353 -0.4119 -0.1196 -0.5080
    1TCq1    C513818   0.225   1.899  15.288  0.4657  0.3778  0.3890
    1TCq1    C613819   0.342   1.873  15.354 -0.3557 -0.4186  1.0734
    1TCq1    C713820   0.334   1.826  15.482 -0.2792 -0.0737 -0.1036
    1TCq1    C813821   0.479   1.896  15.314 -0.0545  0.5899 -0.1236
    1TCq1    O413822   0.572   1.835  15.367  0.0503 -0.3516 -0.3534
    1TCq1    C913823   4.715   1.935  15.274  0.7511 -0.2913  0.3203
    1TCq1    O513824   4.601   1.925  15.323 -0.6355  0.1335  0.2376
    1TCq1    O613825   0.022   2.006  15.177 -0.0479  0.4919  0.4264
    1TCq1    H113826   0.361   1.939  15.695 -1.1924  0.6669  0.6603
    1TCq1    H213827   0.006   1.888  15.547  0.4097 -0.1276  1.1641
    1TCq1    H313828   0.221   1.934  15.185 -1.1223  1.2481  0.7541
    1TCq1    H413829   0.426   1.806  15.537 -1.2684 -0.8370  1.2685
    2MPD2     C13830   0.825   2.145  15.017 -0.3774 -0.0045 -0.4179
    2MPD2    C113831   0.706   2.122  14.946 -0.5034  0.1668  1.1429
    2MPD2    C213832   0.600   2.062  15.010 -0.8365 -0.0721  0.1108
    2MPD2    C313833   0.600   2.015  15.135  0.2700 -0.4353 -0.0489
    2MPD2    C413834   0.716   2.031  15.206  0.1714 -1.0095  0.5267
    2MPD2    C513835   0.823   2.093  15.143  0.2097 -0.5172 -0.4185
    2MPD2     H13836   0.506   2.045  14.958 -3.0560  2.1839  3.3902
    2MPD2    H113837   0.736   1.992  15.306  0.5489 -0.6541  0.5902
    2MPD2    H213838   0.918   2.189  14.984 -0.3819  0.0446 -0.3659
    2MPD2    H313839   0.916   2.099  15.199  0.4566 -1.0072 -0.7738
    2MPD2     N13840   0.482   1.965  15.196  0.2021  0.0955 -0.0900
    2MPD2    H513841   0.396   1.981  15.144  1.1056  1.1854 -1.2691
    2MPD2    N113842   0.693   2.169  14.814 -0.1532  0.0763  0.6646
    2MPD2    H713843   0.763   2.233  14.777 -1.0347 -0.3987 -1.8098
    3TMC2    C113844   0.608   2.246  14.611 -0.2648 -0.1972  0.4836
    3TMC2    C213845   0.659   2.369  14.630  0.9338 -1.1039 -0.2598
    3TMC2    C313846   0.681   2.444  14.517 -0.0038 -0.3596 -0.7611
    3TMC2    C413847   0.581   2.191  14.485  0.0726 -0.8066 -0.8696
    3TMC2    C513848   0.614   2.268  14.379  0.9768 -0.2848 -0.1243
    3TMC2    C613849   0.660   2.395  14.395 -0.7053  0.3084 -0.5327
    3TMC2     C13850   0.585   2.156  14.728  0.0151 -0.1906 -0.2932
    3TMC2     O13851   0.489   2.083  14.735  0.1065 -0.4833  0.2634
    3TMC2     H13852   0.685   2.404  14.729 -0.3755 -1.9384  0.3849
    3TMC2    H113853   0.563   2.086  14.467  0.8076 -0.6681 -2.4592
    3TMC2    H213854   0.672   2.467  14.314 -0.2177  0.8128 -0.0050
    3TMC2    C713855   0.609   2.211  14.248  0.4465  0.1929 -0.0568
    3TMC2    C813856   0.740   2.571  14.530 -0.4581  0.3958 -0.5346
    3TMC2    O113857   0.602   2.089  14.237  0.1232 -0.4696  0.1009
    3TMC2    O213858   0.790   2.628  14.436  0.1111  0.2749 -0.2358
    3TMC2    O513859   0.694   2.633  14.638 -0.3264 -0.1218  0.2602
    3TMC2    H513860   0.636   2.589  14.704  0.3906  0.7816  1.4969
    4MPD2     C13861   0.094   3.352  13.531 -0.4588 -0.6307  0.2155
    4MPD2    C113862   0.169   3.353  13.417  0.4009  0.3184  0.2974
    4MPD2    C213863   0.295   3.295  13.408  0.4712  0.1987 -0.3794
    4MPD2    C313864   0.342   3.217  13.515  1.1910  0.3610  0.3476
    4MPD2    C413865   0.270   3.228  13.632  0.3542 -0.3383 -0.7030
    4MPD2    C513866   0.148   3.285  13.635  0.5020  0.4334 -0.0337
    4MPD2     H13867   0.367   3.292  13.328 -0.1548 -0.2168 -0.9324
    4MPD2    H113868   0.292   3.164  13.717 -2.9965 -0.2121  0.2671
    4MPD2    H213869   4.715   3.388  13.532 -0.0038  0.6320  0.2883
    4MPD2    H313870   0.088   3.283  13.725 -2.1599  0.9694 -1.8111
    4MPD2     N13871   0.460   3.140  13.501  0.6962  0.3433  0.2723
    4MPD2    H513872   0.504   3.138  13.410 -2.3590  0.4721 -1.2225
    4MPD2    N113873   0.121   3.410  13.295 -0.6853  0.0599  0.2234
    4MPD2    H713874   0.186   3.436  13.222 -1.3405 -0.7101 -0.6300
    5TCq2    C113875   0.528   3.067  13.599 -0.0159 -0.0660  0.8051
    5TCq2    O213876   0.526   3.083  13.720  0.4883 -0.4054  0.0748
    5TCq2    C213877   0.578   2.943  13.551 -0.0188 -0.2781  0.1474
    5TCq2    C313878   0.542   2.912  13.418  0.1292  0.2816  0.1258
    5TCq2    C413879   0.509   2.785  13.391  0.4299 -0.2766  0.1361
    5TCq2    C513880   0.519   2.684  13.492 -0.0362  0.2132  0.0244
    5TCq2    C613881   0.559   2.714  13.620  0.2332  1.2526  0.0751
    5TCq2    C713882   0.578   2.846  13.652  0.5262  0.4299 -0.6588
    5TCq2    C813883   0.551   2.628  13.739 -0.1127  0.0262 -0.1607
    5TCq2    O413884   0.538   2.692  13.847 -0.0891  0.0455 -0.6860
    5TCq2    C913885   0.452   2.745  13.269  0.5743 -0.0220 -0.0300
    5TCq2    O513886   0.382   2.643  13.271  0.0335  0.6078  0.2872
    5TCq2    O613887   0.446   2.831  13.177  0.0399  0.8046  0.7039
    5TCq2    H213888   0.527   2.986  13.340 -1.3047 -0.7603 -0.5888
    5TCq2    H313889   0.481   2.584  13.477 -0.5851  0.2819  0.9477
    5TCq2    H413890   0.598   2.875  13.755  0.3636  0.2346 -0.5735
    6MPD1     C13891   3.611   0.125  13.174 -0.5603 -0.0076  0.2385
    6MPD1    C113892   3.713   0.129  13.272 -0.9467  0.2720 -0.0246
    6MPD1    C213893   3.824   0.055  13.253 -0.3596  0.2642  0.4745
    6MPD1    C313894   3.822   4.678  13.154 -0.1439 -0.5109  0.9769
    6MPD1    C413895   3.719   4.665  13.065 -0.1132  0.1909  0.4312
    6MPD1    C513896   3.617   0.035  13.068 -0.0091 -0.5148 -0.5925
    6MPD1     H13897   3.914   0.073  13.311 -1.3142 -1.1485  2.3876
    6MPD1    H113898   3.714   4.593  12.984 -0.8171  1.0990 -0.3290
    6MPD1    H213899   3.532   0.198  13.166  0.6954  1.3276  0.1324
    6MPD1    H313900   3.540   0.023  12.993  1.7959 -0.4767 -2.4595
    6MPD1     N13901   3.928   4.589  13.137 -0.3156 -0.2707 -0.2484
    6MPD1    H513902   3.910   4.524  13.061 -0.5182 -0.1671 -0.2909
    6MPD1    N113903   3.706   0.227  13.371  0.1492  0.5153 -0.4670
    6MPD1    H613904   3.781   0.212  13.438 -0.3586  0.2072  0.0405
    6MPD1    H713905   3.615   0.228  13.416  0.3535  2.8118 -0.1084
    7MPD2     C13906   4.074   3.870  12.829  0.1427  0.2474 -0.2100
    7MPD2    C113907   4.196   3.935  12.867  0.0416  0.0830 -0.4890
    7MPD2    C213908   4.310   3.859  12.872  0.7620 -0.1496 -0.2587
    7MPD2    C313909   4.314   3.722  12.851 -0.1623  0.7651 -0.2030
    7MPD2    C413910   4.197   3.659  12.802 -0.4986  0.5285  0.0819
    7MPD2    C513911   4.083   3.737  12.792  0.0530  0.1827 -0.5199
    7MPD2     H13912   4.400   3.896  12.919  0.2603  1.1686 -0.3483
    7MPD2    H113913   4.192   3.555  12.771  0.1287  0.3027  0.7451
    7MPD2    H213914   3.978   3.918  12.825  0.5488  1.1550  1.1030
    7MPD2    H313915   4.002   3.686  12.742 -0.7875 -0.5899  1.6166
    7MPD2     N13916   4.435   3.658  12.880  0.6398  0.1858  0.1916
    7MPD2    H513917   4.511   3.719  12.910  1.4329 -0.2072 -1.0482
    7MPD2    N113918   4.203   4.059  12.934 -0.4871 -0.9500  0.4405
    7MPD2    H713919   4.293   4.106  12.942 -1.6433  1.0918  1.6929
    8TMC3    C113920   4.596   3.513  12.952  0.3118 -0.2215  1.2447
    8TMC3    C213921   4.597   3.466  13.076 -0.1408 -0.1214  0.1586
    8TMC3    C313922   4.703   3.503  13.150  0.2216  0.4437  0.0400
    8TMC3    C413923   4.680   3.617  12.920  0.3156 -0.5350 -0.2803
    8TMC3    C513924   0.052   3.662  13.007  0.2327 -0.3505  0.2641
    8TMC3    C613925   0.074   3.598  13.123  0.2430  0.4631  0.2837
    8TMC3     C13926   4.461   3.523  12.887 -0.2415  0.1341  0.0698
    8TMC3     O13927   4.385   3.429  12.880 -0.3391  0.1202 -0.1632
    8TMC3     H13928   4.523   3.391  13.100 -0.3765  0.1010  0.1277
    8TMC3    H113929   4.659   3.672  12.829  0.1698  0.6018  0.4288
    8TMC3    H213930   0.150   3.636  13.191 -0.6260 -1.4236  2.2782
    8TMC3    C713931   0.021   3.799  13.031 -0.6124 -0.2706  0.2202
    8TMC3    C813932   4.712   3.430  13.272 -0.2769 -0.5700 -0.2070
    8TMC3    O113933   4.631   3.827  12.990 -0.3529  0.1481  0.5497
    8TMC3    O213934   4.608   3.391  13.328 -0.1913  0.2702  0.1903
    9TMC3    C113935   4.120   4.456  13.162 -0.2325  0.1224  0.3995
    9TMC3    C213936   4.249   4.437  13.208  0.0707 -0.3658 -0.3780
    9TMC3    C313937   4.319   4.326  13.187 -0.4106 -0.7342 -0.3122
    9TMC3    C413938   4.063   4.354  13.087 -0.1786 -0.4650 -0.2735
    9TMC3    C513939   4.138   4.239  13.064  0.0095 -0.0052 -0.0056
    9TMC3    C613940   4.264   4.224  13.115  0.2297 -0.7128  0.1465
    9TMC3     C13941   4.041   4.565  13.215 -0.0471 -0.3717 -0.3683
    9TMC3     O13942   4.071   4.611  13.323 -0.3356 -0.0190 -0.2591
    9TMC3     H13943   4.293   4.510  13.276  0.4716 -1.1261  0.1803
    9TMC3    H113944   3.967   4.359  13.037 -1.9541 -0.8336  3.1185
    9TMC3    H213945   4.301   4.123  13.120  0.7318 -0.5289  0.1498
    9TMC3    C713946   4.094   4.132  12.978  0.0538 -0.0072 -0.1904
    9TMC3    C813947   4.456   4.323  13.236 -0.0678 -0.4272  0.6804
    9TMC3    O113948   3.981   4.127  12.938 -0.1705  0.6364  0.2338
    9TMC3    O213949   4.486   4.411  13.318  0.1500  0.8291 -0.1549
   10MPD2     C13950   0.177   4.062  13.224  0.3358 -0.5467 -0.1281
   10MPD2    C113951   0.084   4.001  13.154 -0.2184  0.2829 -0.0476
   10MPD2    C213952   4.685   4.063  13.130 -0.2250  0.0531 -0.0111
   10MPD2    C313953   4.653   4.168  13.201  0.2393 -0.3589  0.3929
   10MPD2    C413954   0.020   4.236  13.279  0.5545 -0.4764 -0.0760
   10MPD2    C513955   0.145   4.176  13.295 -0.2890 -0.3101  0.4636
   10MPD2     H13956   4.605   4.013  13.077 -0.3199  0.2126 -0.0168
   10MPD2    H113957   4.716   4.329  13.329 -0.2227  0.3477 -2.0468
   10MPD2    H213958   0.280   4.030  13.231  0.0908 -0.7448  2.3362
   10MPD2    H313959   0.217   4.226  13.359  0.6723 -1.3732  0.1932
   10MPD2     N13960   4.519   4.215  13.177  0.1455 -0.0963 -0.3008
   10MPD2    H513961   4.468   4.166  13.104 -1.6651 -0.5062  1.2297
   10MPD2    N113962   0.111   3.873  13.102  0.1835  0.3317 -0.1233
   10MPD2    H713963   0.202   3.833  13.119  1.4636  3.0998 -0.3505
   11MPD2     C13964   0.649   2.166  13.950 -0.5092 -0.4527 -0.6976
   11MPD2    C113965   0.614   2.289  14.008 -0.5308  0.5975  0.0199
   11MPD2    C213966   0.603   2.399  13.929 -0.4507  0.1934 -0.5305
   11MPD2    C313967   0.605   2.385  13.787 -0.4119  0.9340  0.5639
   11MPD2    C413968   0.634   2.266  13.728 -0.5221  1.4094  0.6784
   11MPD2    C513969   0.663   2.159  13.810  0.0598  0.3773 -1.0601
   11MPD2     H13970   0.570   2.490  13.978 -0.0986  0.3190 -0.5229
   11MPD2    H113971   0.637   2.250  13.621  1.6281  1.7394  0.6992
   11MPD2    H213972   0.669   2.072  14.000  1.2627  0.0294 -0.5097
   11MPD2    H313973   0.695   2.067  13.760 -0.8743  0.0936 -1.1258
   11MPD2     N13974   0.575   2.496  13.697  0.2199  0.3086 -0.5187
   11MPD2    H513975   0.589   2.480  13.598  2.8091  2.0501 -0.4075
   11MPD2    N113976   0.605   2.308  14.148 -0.0554  0.3787 -0.0014
   11MPD2    H713977   0.613   2.406  14.172  0.2278  0.7390 -1.5665
    1MPD1     C13978   3.096   4.489   0.647 -0.7890 -0.9166  0.5388
    1MPD1    C113979   3.230   4.513   0.613 -0.7623 -0.2383 -0.4604
    1MPD1    C213980   3.269   4.495   0.478  0.4898  0.0469 -0.6460
    1MPD1    C313981   3.176   4.458   0.377 -0.2595  0.0153 -0.0950
    1MPD1    C413982   3.050   4.436   0.423 -0.3602  0.2285  0.3218
    1MPD1    C513983   3.004   4.457   0.553  0.1408  0.0775 -0.0091
    1MPD1     H13984   3.371   4.521   0.452  0.4024  0.4665 -0.5739
    1MPD1    H113985   2.969   4.408   0.357  1.9281 -0.4603 -2.2294
    1MPD1    H213986   3.060   4.492   0.749 -1.1807  1.0480  0.3536
    1MPD1    H313987   2.901   4.440   0.580 -0.7171  2.1077 -1.9655
    1MPD1     N13988   3.212   4.438   0.239 -1.0070 -0.9512 -0.2143
    1MPD1    H513989   3.142   4.412   0.170 -1.3227  1.5057 -0.8292
    1MPD1    N113990   3.320   4.539   0.715  0.0484  0.1744 -0.3745
    1MPD1    H613991   3.412   4.557   0.677 -0.2631  1.9117 -0.3125
    1MPD1    H713992   3.289   4.617   0.772  0.6544  1.4041 -1.7605
    2MPD1     C13993   3.708   0.133  17.111  0.2337 -0.0612  0.1867
    2MPD1    C113994   3.575   0.127  17.096  0.3412  1.2489 -0.2048
    2MPD1    C213995   3.508   0.032  17.174  0.0039 -0.5241 -0.8360
    2MPD1    C313996   3.571   4.672  17.261 -0.1727 -0.6718  0.0772
    2MPD1    C413997   3.706   4.689  17.274  0.5142 -0.8655 -0.4425
    2MPD1    C513998   3.774   0.051  17.196  0.8385 -0.2310 -0.2766
    2MPD1     H13999   3.400   0.023  17.162 -0.0925  1.1002 -1.1666
    2MPD1    H114000   3.767   4.629  17.340 -0.6671  0.0558  1.5009
    2MPD1    H214001   3.776   0.196  17.054 -1.9395  2.3632  0.2628
    2MPD1    H314002   3.882   0.056  17.195  0.6869  2.8824 -1.5743
    2MPD1     N14003   3.497   4.582  17.339  0.7686 -0.1927 -0.7792
    2MPD1    H514004   3.397   4.574  17.323  0.1971 -0.0943  2.6930
    2MPD1    N114005   3.501   0.231  17.028  0.2709  0.2137  0.1819
    2MPD1    H614006   3.399   0.225  17.032  0.1391  2.1718 -0.4144
    2MPD1    H714007   3.535   0.316  17.071  0.2498  0.4194 -0.2025
    3TMC3    C114008   3.433   4.449  17.521  0.5869 -0.8669 -0.4128
    3TMC3    C214009   3.317   4.419  17.450  0.4231 -0.1330  0.3959
    3TMC3    C314010   3.207   4.394  17.517  0.5771  0.2583  0.7854
    3TMC3    C414011   3.442   4.444  17.660  0.0832  0.2648  0.5279
    3TMC3    C514012   3.328   4.435   0.032  0.8534  0.4039 -0.9326
    3TMC3    C614013   3.212   4.398  17.656 -0.9024 -0.4490  0.1027
    3TMC3     C14014   3.539   4.526  17.456  0.0521 -0.6590  0.1759
    3TMC3     O14015   3.652   4.517  17.503 -0.5208  0.5191 -0.3157
    3TMC3     H14016   3.311   4.406  17.342  1.4571 -0.3589  0.3610
    3TMC3    H114017   3.530   4.487   0.013 -0.8694  1.6387  1.0638
    3TMC3    H214018   3.115   4.392   0.011 -0.5511  0.2100  0.9012
    3TMC3    C714019   3.330   4.466   0.174  0.8782 -0.8084 -0.4356
    3TMC3    C814020   3.081   4.395  17.448  0.3495  0.1081 -0.7422
    3TMC3    O114021   3.437   4.508   0.220 -0.7110 -0.1713  0.1276
    3TMC3    O214022   3.083   4.416  17.326  0.0551  0.1511  0.4320
    4MPD1     C14023   2.606   4.198  17.391  0.1318  0.3501  0.5128
    4MPD1    C114024   2.666   4.146  17.502  0.2740 -0.0215  0.4292
    4MPD1    C214025   2.802   4.180  17.537  0.2673 -0.0873  0.3272
    4MPD1    C314026   2.870   4.276  17.473  0.1757  0.3524 -0.4891
    4MPD1    C414027   2.806   4.328  17.361 -0.1062 -0.6114 -0.1862
    4MPD1    C514028   2.682   4.285  17.324  0.5013  0.5004 -0.1191
    4MPD1     H14029   2.852   4.136  17.623  0.8564  0.2531  0.1550
    4MPD1    H114030   2.857   4.395  17.292 -0.2258  2.3626  2.6315
    4MPD1    H214031   2.513   4.155  17.356  0.0305  0.5788  0.4956
    4MPD1    H314032   2.651   4.322  17.227  0.4404 -1.4878 -0.8486
    4MPD1     N14033   2.998   4.317  17.519  0.2268 -0.3843  0.4891
    4MPD1    H514034   3.032   4.280  17.606  0.6972  0.8348  0.8246
    4MPD1    N114035   2.602   4.048  17.575  0.0263  0.5194 -0.9260
    4MPD1    H614036   2.631   4.055  17.672  0.9814  1.2372 -1.2642
    4MPD1    H714037   2.502   4.071  17.576 -0.0992 -0.0539 -0.6778
    1TCq1    O114038   4.443   0.606  12.685 -0.1850  0.0507  0.6412
    1TCq1    C114039   4.513   0.537  12.590  0.9535  0.3348  0.7769
    1TCq1    O214040   4.513   0.582  12.479 -0.1683  0.0338  0.1483
    1TCq1    C214041   4.486   0.405  12.626 -0.7188 -0.1023 -0.1528
    1TCq1    C314042   4.479   0.372  12.762 -0.9701 -0.0766  0.2559
    1TCq1    C414043   4.447   0.243  12.798  0.0987  0.4720 -0.2157
    1TCq1    C514044   4.466   0.140  12.707  0.0817 -0.0718  0.0594
    1TCq1    C614045   4.492   0.176  12.576 -0.0461 -0.1318 -0.8811
    1TCq1    C714046   4.499   0.304  12.532 -0.2541 -0.1620 -0.6693
    1TCq1    C814047   4.547   0.075  12.491  0.3423 -0.3629 -0.3565
    1TCq1    O414048   4.538   0.100  12.371 -0.0173 -0.3187  0.2271
    1TCq1    C914049   4.462   0.204  12.937  0.7163 -0.9554 -0.0118
    1TCq1    O514050   4.454   0.291  13.028 -0.3522 -0.4728 -0.4655
    1TCq1    O614051   4.482   0.081  12.956 -0.0552 -0.1909 -0.7090
    1TCq1    H114052   4.413   0.567  12.770  1.3257 -2.6268 -0.0555
    1TCq1    H214053   4.473   0.437  12.849 -0.0238 -0.5564  0.6813
    1TCq1    H314054   4.456   0.036  12.735  1.0827 -0.3459 -0.5970
    1TCq1    H414055   4.539   0.326  12.434 -2.0254  0.7644 -1.1989
    2MPD1     C14056   0.121   4.392  12.384 -0.4763  0.2158 -0.4443
    2MPD1    C114057   0.121   4.422  12.522 -0.0439 -0.1174 -0.4472
    2MPD1    C214058   0.039   4.521  12.580 -0.2656 -0.0044  0.4876
    2MPD1    C314059   4.698   4.607  12.492 -0.0489 -0.1822  0.0027
    2MPD1    C414060   4.701   4.586  12.354 -0.5561 -0.6965  0.2642
    2MPD1    C514061   0.050   4.479  12.302 -0.2112 -0.0090  0.1119
    2MPD1     H14062   0.029   4.536  12.687  0.3320  0.0738  0.5329
    2MPD1    H114063   4.631   4.631  12.284  1.6622  0.7377 -1.0379
    2MPD1    H214064   0.181   4.309  12.348 -1.7215 -0.2504 -1.4613
    2MPD1    H314065   0.040   4.444  12.200 -1.9608 -0.5505  0.4728
    2MPD1     N14066   4.627   4.711  12.558  0.3566 -0.0607 -0.0824
    2MPD1    H514067   4.633   4.719  12.659  1.7318 -0.8983 -0.1024
    2MPD1    N114068   0.187   4.333  12.605 -0.3254 -0.4083 -0.2643
    2MPD1    H614069   0.239   4.383  12.677 -0.9182 -0.4136  0.1672
    2MPD1    H714070   0.262   4.287  12.554 -0.2399 -1.7318  1.0622
    1TCq1    O114071   3.158   0.831   1.017  0.3438  0.3031  0.5369
    1TCq1    C114072   3.216   0.887   0.911  0.6151  0.5547 -0.5476
    1TCq1    O214073   3.324   0.941   0.910  0.5568 -0.0695 -0.8761
    1TCq1    C214074   3.129   0.884   0.797 -0.1368 -0.4866 -0.2366
    1TCq1    C314075   3.006   0.826   0.804  0.4997  0.3337  0.1888
    1TCq1    C414076   2.939   0.818   0.684  0.0995 -0.3300  0.1363
    1TCq1    C514077   2.971   0.897   0.575 -0.3060 -0.9684  1.3557
    1TCq1    C614078   3.090   0.964   0.576 -0.8271  0.3309 -0.4148
    1TCq1    C714079   3.171   0.957   0.691 -0.0940  0.6711  0.0192
    1TCq1    C814080   3.117   1.049   0.466  0.6005 -0.4721  0.1036
    1TCq1    O414081   3.030   1.076   0.384 -0.0910  0.4954 -0.5651
    1TCq1    C914082   2.807   0.759   0.683 -0.1902  0.2409 -0.0270
    1TCq1    O514083   2.756   0.748   0.569 -0.3830  0.0420 -0.7007
    1TCq1    O614084   2.757   0.732   0.792 -0.2945  0.0460  0.3034
    1TCq1    H114085   3.061   0.839   1.008  0.1165 -2.0596  0.8462
    1TCq1    H214086   2.974   0.767   0.888  1.4658 -0.2360  0.1581
    1TCq1    H314087   2.907   0.903   0.488  0.4477 -1.8678  0.7453
    1TCq1    H414088   3.273   0.994   0.692 -0.0072  0.4381 -0.3600
    2MPD1     C14089   3.444   1.270   0.161 -0.2034  0.1370  0.0007
    2MPD1    C114090   3.513   1.226   0.265 -0.5064  0.1898 -0.3336
    2MPD1    C214091   3.447   1.185   0.377  0.1498 -0.2713 -0.0262
    2MPD1    C314092   3.311   1.151   0.365 -0.5996 -0.2762 -0.6663
    2MPD1    C414093   3.247   1.190   0.247  0.2464 -0.3135 -0.1539
    2MPD1    C514094   3.314   1.245   0.148 -0.6968  0.6264 -0.4446
    2MPD1     H14095   3.494   1.153   0.470 -0.6600  0.3892  0.6092
    2MPD1    H114096   3.138   1.194   0.247  0.2408 -0.4834 -0.1806
    2MPD1    H214097   3.484   1.323   0.076 -1.5919  1.3265  0.0913
    2MPD1    H314098   3.259   1.267   0.057  0.3365 -1.5328 -1.5803
    2MPD1     N14099   3.249   1.073   0.460  0.0968  0.0137  0.3497
    2MPD1    H514100   3.309   1.027   0.528  2.4841  0.5456 -1.3942
    2MPD1    N114101   3.650   1.260   0.271  0.4301  0.0593 -0.3204
    2MPD1    H614102   3.693   1.213   0.350  0.1074  1.4276  0.6496
    2MPD1    H714103   3.704   1.237   0.188  0.4138  1.6198 -0.7615
    1MPD1     C14104   1.213   3.241  11.834 -0.4913 -0.3312 -0.5969
    1MPD1    C114105   1.299   3.296  11.749  0.2786 -0.6696  0.1535
    1MPD1    C214106   1.336   3.426  11.776 -0.0464 -0.3690  0.1110
    1MPD1    C314107   1.288   3.497  11.879  0.0273  0.2665 -0.2804
    1MPD1    C414108   1.182   3.435  11.953 -0.6457 -0.5558 -0.2244
    1MPD1    C514109   1.149   3.308  11.925 -0.9038  0.1320 -0.2867
    1MPD1     H14110   1.415   3.468  11.714 -0.0225  0.3823  0.6419
    1MPD1    H114111   1.117   3.496  12.014  0.2412  0.4332 -0.2788
    1MPD1    H214112   1.174   3.142  11.818  0.8134 -0.8233 -0.7597
    1MPD1    H314113   1.060   3.265  11.970 -0.3436 -0.8954 -0.1588
    1MPD1     N14114   1.335   3.632  11.894  0.0431  0.1653 -0.4263
    1MPD1    H514115   1.409   3.664  11.833  0.6512 -2.0027 -0.8286
    1MPD1    N114116   1.343   3.230  11.632  0.6236 -0.0803  0.0115
    1MPD1    H614117   1.354   3.129  11.642  1.0339 -0.2341 -1.9066
    1MPD1    H714118   1.428   3.270  11.593  1.0983 -0.7322  0.3705
    2MPD1     C14119   0.651   0.442  11.087  0.4725 -0.9891  0.3791
    2MPD1    C114120   0.627   0.357  10.985  0.4367  0.1881 -0.1527
    2MPD1    C214121   0.651   0.224  11.000  0.4277 -0.1359 -0.0550
    2MPD1    C314122   0.679   0.179  11.132  0.0198  0.0518  0.0025
    2MPD1    C414123   0.690   0.268  11.233 -0.0303 -0.0357 -0.6405
    2MPD1    C514124   0.681   0.406  11.210  0.3240 -0.0728  0.0890
    2MPD1     H14125   0.636   0.156  10.918 -0.2615  2.9971 -2.4986
    2MPD1    H114126   0.721   0.241  11.333  0.0136 -0.5820 -0.8001
    2MPD1    H214127   0.644   0.550  11.077 -0.2860 -0.8198  2.5681
    2MPD1    H314128   0.695   0.468  11.298  1.2914 -1.7425  1.1124
    2MPD1     N14129   0.707   0.042  11.165 -0.5020 -0.4592  0.4616
    2MPD1    H514130   0.727   0.021  11.262  1.8042  2.2894  0.5578
    2MPD1    N114131   0.617   0.421  10.863  0.5255  0.9919  0.2246
    2MPD1    H614132   0.579   0.354  10.797  2.3410 -0.3288  0.5195
    2MPD1    H714133   0.558   0.504  10.863 -0.3377  0.3780  0.2330
    3MPD1     C14134   0.846   4.464  10.411  0.4802 -0.5241 -0.4499
    3MPD1    C114135   0.761   4.557  10.469  0.3894 -0.1733  0.5392
    3MPD1    C214136   0.730   4.550  10.599 -0.0384  0.4731  0.0923
    3MPD1    C314137   0.779   4.440  10.660 -0.2184 -0.1402  1.5763
    3MPD1    C414138   0.868   4.348  10.606  0.3133  0.6588 -0.4803
    3MPD1    C514139   0.898   4.360  10.478 -0.4448 -0.0493 -0.0465
    3MPD1     H14140   0.673   4.628  10.648  0.2551  2.0553 -2.1035
    3MPD1    H114141   0.925   4.274  10.662 -0.4978  1.7639  1.8119
    3MPD1    H214142   0.867   4.479  10.305 -0.6204 -0.3018 -0.6335
    3MPD1    H314143   0.976   4.293  10.445 -1.5042 -1.0968 -0.4095
    3MPD1     N14144   0.741   4.425  10.791 -0.0157  0.0438  0.6356
    3MPD1    H514145   0.694   4.504  10.834 -0.5670 -0.1113  0.3219
    3MPD1    N114146   0.704   4.657  10.384  0.2409  0.0484 -0.1626
    3MPD1    H614147   0.617   4.704  10.407  0.2623 -1.0852  2.3160
    3MPD1    H714148   0.695   4.623  10.289  3.1268  0.0284 -0.4282
    4MPD2     C14149   1.304   4.432  12.141 -0.5910  0.3683  0.4462
    4MPD2    C114150   1.415   4.363  12.089  0.2946 -0.0487 -0.0944
    4MPD2    C214151   1.510   4.434  12.010  0.0127 -0.9439 -0.4644
    4MPD2    C314152   1.490   4.566  11.976 -0.5972  0.0416  0.1554
    4MPD2    C414153   1.386   4.638  12.034  0.3495  0.0570 -0.0042
    4MPD2    C514154   1.299   4.566  12.116  0.8633 -0.0285  0.0474
    4MPD2     H14155   1.596   4.383  11.968  1.7180  3.1430 -1.9770
    4MPD2    H114156   1.370   0.022  12.024  2.6070  0.5032  1.2349
    4MPD2    H214157   1.234   4.391  12.214 -0.6603  0.4183  0.4069
    4MPD2    H314158   1.213   4.617  12.159 -1.9777 -2.3114 -2.8945
    4MPD2     N14159   1.579   4.638  11.889 -0.0170  0.1054 -0.6523
    4MPD2    H514160   1.550   0.011  11.868 -0.1893  0.4325  1.0185
    4MPD2    N114161   1.439   4.228  12.110  0.3135  0.3919  0.3018
    4MPD2    H714162   1.527   4.201  12.068  0.5403  2.3634 -0.4781
    5TMC3    C114163   1.417   4.009  12.172 -0.5832  0.2161  0.2513
    5TMC3    C214164   1.330   3.912  12.123  0.0240 -0.2646  0.2368
    5TMC3    C314165   1.379   3.829  12.022 -0.1206 -0.4608 -0.2354
    5TMC3    C414166   1.539   4.021  12.122 -0.5944  0.5588  0.2264
    5TMC3    C514167   1.571   3.953  12.011  0.3842 -0.0417 -0.0655
    5TMC3    C614168   1.496   3.853  11.959  0.2141 -0.1815 -0.0068
    5TMC3     C14169   1.358   4.143  12.180 -0.3793  0.5334 -0.0861
    5TMC3     O14170   1.241   4.151  12.212 -0.4236  0.0229 -0.6549
    5TMC3     H14171   1.234   3.910  12.173 -0.3743  1.7383 -0.4319
    5TMC3    H114172   1.619   4.070  12.175 -0.0483 -0.1731  0.0654
    5TMC3    H214173   1.518   3.814  11.860  0.0464  1.1435 -0.5665
    5TMC3    C714174   1.670   4.030  11.931 -0.1988 -0.1588  0.0362
    5TMC3    C814175   1.295   3.714  11.998  0.0714 -0.4111 -0.5286
    5TMC3    O114176   1.693   4.144  11.972 -0.0599  0.0959  0.1784
    5TMC3    O214177   1.205   3.698  12.075 -0.2172 -0.3237 -0.7005
    6TMC3    C114178   0.717   4.536  11.141 -0.8556 -0.1419 -0.3430
    6TMC3    C214179   0.679   4.430  11.058 -0.2678 -0.0463 -0.5567
    6TMC3    C314180   0.773   4.345  11.013  0.3769  0.2518 -1.0721
    6TMC3    C414181   0.846   4.542  11.187  0.4993 -0.5696 -0.1890
    6TMC3    C514182   0.930   4.439  11.156  0.1112  0.4997  0.1952
    6TMC3    C614183   0.897   4.342  11.065 -0.5860  0.0897  0.3381
    6TMC3     C14184   0.674   4.660  11.081  0.0268 -0.4516  0.5671
    6TMC3     O14185   0.643   4.649  10.965  0.1915  0.5195  0.1115
    6TMC3     H14186   0.580   4.421  11.014 -0.9831  0.2397  0.9884
    6TMC3    H114187   0.877   4.611  11.265  2.5376  0.9752 -2.3609
    6TMC3    H214188   0.965   4.268  11.024  0.0295  0.4214  0.7587
    6TMC3    C714189   1.066   4.443  11.204 -0.0915 -0.5210 -0.3304
    6TMC3    C814190   0.780   4.321  10.875  0.2008 -0.0456  0.5469
    6TMC3    O114191   1.094   4.543  11.267 -0.0917  0.0316  0.4730
    6TMC3    O214192   0.835   4.212  10.849 -0.7854 -0.6716  0.1156
    7MPD2     C14193   1.883   4.153  11.484  0.6891 -0.5469  0.0388
    7MPD2    C114194   1.843   4.226  11.592  0.0795 -0.1225 -0.4233
    7MPD2    C214195   1.782   4.162  11.700  0.4897 -0.1676  0.4064
    7MPD2    C314196   1.777   4.027  11.709 -0.1876 -0.7134  0.0936
    7MPD2    C414197   1.808   3.951  11.596  0.5075  0.1647  0.1961
    7MPD2    C514198   1.865   4.013  11.483 -0.1434 -0.1222 -0.0661
    7MPD2     H14199   1.750   4.226  11.782  1.4655  1.2842 -0.3566
    7MPD2    H114200   1.808   3.843  11.602  0.4794  0.2523  1.6533
    7MPD2    H214201   1.934   4.195  11.399 -0.3017  1.4649  0.4391
    7MPD2    H314202   1.901   3.946  11.406 -2.2791 -1.6161  0.2543
    7MPD2     N14203   1.715   3.964  11.817 -0.2029  0.0304  0.3409
    7MPD2    H514204   1.700   3.864  11.802  0.8895 -0.3515  1.8717
    7MPD2    N114205   1.842   4.367  11.594  0.7819 -0.2235 -0.4720
    7MPD2    H714206   1.821   4.413  11.682 -1.2142  0.2752 -1.2038
    8TMC3    C114207   1.847   4.588  11.508  0.4005 -0.1047  0.6950
    8TMC3    C214208   1.732   4.628  11.436 -0.0076  0.1524  0.5330
    8TMC3    C314209   1.624   4.668  11.500  0.4640 -0.5319 -0.0321
    8TMC3    C414210   1.844   4.618  11.647  0.3773  0.3019  1.6754
    8TMC3    C514211   1.725   4.663  11.711 -0.2209  0.1204  0.4195
    8TMC3    C614212   1.613   4.687  11.635  0.7242  0.0821 -0.0494
    8TMC3     C14213   1.864   4.447  11.482  0.0851 -0.2673  0.1482
    8TMC3     O14214   1.862   4.418  11.364  1.2785 -0.4673  0.3391
    8TMC3     H14215   1.731   4.623  11.328  2.1661  0.5316  0.4873
    8TMC3    H114216   1.930   4.583  11.704  0.8790  0.6105  1.1061
    8TMC3    H214217   1.514   4.705  11.676  0.3475 -0.1045 -0.8663
    8TMC3    C714218   1.698   4.600  11.839 -0.2106  0.4684  0.6741
    8TMC3    C814219   1.513   4.595  11.438 -0.2876 -0.6257 -0.1892
    8TMC3    O114220   1.772   4.510  11.877 -0.6551 -0.2474 -0.1738
    8TMC3    O214221   1.401   4.633  11.470 -0.3360  0.1572 -0.1834
    9MPD2     C14222   1.536   4.252  11.277  0.3505 -0.2432 -0.3373
    9MPD2    C114223   1.483   4.378  11.320  0.4226  0.3580  0.6102
    9MPD2    C214224   1.354   4.404  11.283  0.2917 -0.1287  0.9299
    9MPD2    C314225   1.277   4.310  11.216  0.5409  0.2328 -0.4915
    9MPD2    C414226   1.333   4.186  11.179 -0.1169 -0.0615  0.2542
    9MPD2    C514227   1.465   4.157  11.208 -0.2011 -0.7863 -0.2135
    9MPD2     H14228   1.308   4.499  11.307 -1.5917 -1.1592  1.3714
    9MPD2    H114229   1.277   4.108  11.129 -2.0004  1.6663 -0.3398
    9MPD2    H214230   1.642   4.236  11.296  0.1806 -0.1304  0.7324
    9MPD2    H314231   1.512   4.062  11.188 -1.9102 -2.0825  2.0584
    9MPD2     N14232   1.139   4.328  11.172  0.2962  0.8592 -0.2244
    9MPD2    H514233   1.083   4.256  11.127 -0.1440  0.4792  0.9307
    9MPD2    N114234   1.563   4.473  11.387 -0.6153 -0.0446  0.3311
    9MPD2    H714235   1.662   4.456  11.375 -0.5953  0.4664 -0.2374
    1MPD1     C14236   1.895   3.963  17.571 -0.2622  0.6465 -0.2061
    1MPD1    C114237   1.863   3.834  17.605  0.7137 -0.5217 -0.4267
    1MPD1    C214238   1.791   3.754  17.514 -0.2952  0.1870  0.3549
    1MPD1    C314239   1.769   3.796  17.381 -0.1160  0.1855 -0.0680
    1MPD1    C414240   1.824   3.923  17.344 -0.9987  0.1744 -0.5651
    1MPD1    C514241   1.872   4.007  17.442 -0.1029  1.1532 -0.1194
    1MPD1     H14242   1.769   3.652  17.543 -3.2658  0.9322  0.7131
    1MPD1    H114243   1.808   3.966  17.246  0.4987 -2.3233 -1.9015
    1MPD1    H214244   1.940   4.037  17.637  1.1589  0.6444 -1.1846
    1MPD1    H314245   1.891   4.109  17.411  0.9136  1.3153  1.0512
    1MPD1     N14246   1.693   3.731  17.283 -0.3588  0.3361 -0.7632
    1MPD1    H514247   1.705   3.767  17.189  1.2995  0.1599 -0.6248
    1MPD1    N114248   1.877   3.792   0.043  0.9233 -0.0921  0.2401
    1MPD1    H614249   1.946   3.846   0.093 -0.4080 -0.8241  2.8734
    1MPD1    H714250   1.910   3.697   0.056 -0.6578 -1.0939 -2.9816
    2MPD1     C14251   1.766   3.163  16.499  0.1476  0.5542 -0.0650
    2MPD1    C114252   1.640   3.206  16.479 -0.4931  0.3392  0.3130
    2MPD1    C214253   1.575   3.286  16.578 -0.1638 -0.3036  0.4782
    2MPD1    C314254   1.645   3.312  16.690  0.8620 -0.9624 -0.0086
    2MPD1    C414255   1.771   3.265  16.713 -0.0126 -0.8818 -0.3738
    2MPD1    C514256   1.834   3.193  16.620 -0.0157  0.4787  1.3746
    2MPD1     H14257   1.479   3.334  16.561 -0.6664 -1.2367  0.6557
    2MPD1    H114258   1.824   3.280  16.807  0.7530  2.6980 -1.3834
    2MPD1    H214259   1.820   3.099  16.431 -0.7739  1.2963 -1.5010
    2MPD1    H314260   1.932   3.149  16.631 -1.1851 -1.6745  3.3287
    2MPD1     N14261   1.592   3.409  16.775  0.3920 -0.0171  0.3953
    2MPD1    H514262   1.506   3.453  16.744 -1.5213 -3.2661  1.0934
    2MPD1    N114263   1.577   3.163  16.366 -0.4094 -0.3550  0.0957
    2MPD1    H614264   1.641   3.136  16.292  0.4906  4.0035 -0.7355
    2MPD1    H714265   1.531   3.246  16.330 -0.0230  0.0763  0.5860
    3TCq2    C114266   1.636   3.463  16.893 -0.2014 -0.4001 -0.7109
    3TCq2    O214267   1.752   3.459  16.938 -0.9755 -0.2817 -0.7807
    3TCq2    C214268   1.538   3.542  16.956 -0.5909  0.5735  0.3175
    3TCq2    C314269   1.431   3.458  16.976 -0.2474  0.1873  0.3858
    3TCq2    C414270   1.389   3.424  17.098  0.0082 -0.2090  0.1390
    3TCq2    C514271   1.462   3.460  17.209 -0.5916  0.0186  0.7046
    3TCq2    C614272   1.555   3.559  17.190  0.0087 -0.4325 -0.5601
    3TCq2    C714273   1.596   3.603  17.067 -0.1610 -0.3642 -0.1718
    3TCq2    C814274   1.625   3.615  17.302 -0.0384  0.6731  0.1059
    3TCq2    O414275   1.611   3.554  17.406  0.2525  0.2807 -0.2407
    3TCq2    C914276   1.292   3.320  17.118  0.2945  0.2682  0.6923
    3TCq2    O514277   1.244   3.270  17.012  0.0841 -0.2449 -0.2812
    3TCq2    O614278   1.285   3.267  17.234  0.8873  0.1036  0.1061
    3TCq2    H214279   1.396   3.399  16.892  0.7007 -1.6091  1.2310
    3TCq2    H314280   1.433   3.417  17.304  1.7092 -2.2612  0.3688
    3TCq2    H414281   1.685   3.663  17.051  0.1325 -0.1753  2.2484
    1TCq1    O114282   3.981   2.444  12.909  0.7947 -0.0195  0.1180
    1TCq1    C114283   4.112   2.474  12.916 -0.2627  0.8673 -0.0351
    1TCq1    O214284   4.201   2.476  12.832 -0.3549 -0.5471  0.8107
    1TCq1    C214285   4.146   2.493  13.059 -0.0574 -0.3445 -0.5689
    1TCq1    C314286   4.046   2.545  13.141 -0.3364  0.1553  0.2186
    1TCq1    C414287   4.058   2.521  13.272 -0.1370  0.7864  0.0488
    1TCq1    C514288   4.174   2.454  13.319 -0.0335  0.8234  0.4406
    1TCq1    C614289   4.272   2.421  13.234 -0.7852  0.1710  0.0431
    1TCq1    C714290   4.265   2.445  13.100  0.0331 -0.5120  0.1958
    1TCq1    C814291   4.400   2.363  13.279 -0.8792  0.0520  0.0862
    1TCq1    O414292   4.491   2.351  13.195 -0.1493  0.0855  0.0215
    1TCq1    C914293   3.963   2.571  13.361  0.2689  0.1659 -0.4117
    1TCq1    O514294   3.861   2.630  13.317  0.2595 -0.1725 -0.2127
    1TCq1    O614295   3.983   2.547  13.487 -0.5087  0.3281  0.3501
    1TCq1    H114296   3.943   2.447  12.999 -1.4652 -0.6721 -0.8098
    1TCq1    H214297   3.963   2.603  13.101  0.2474 -0.0169 -1.2707
    1TCq1    H314298   4.183   2.436  13.426  0.7418 -0.3292  0.1787
    1TCq1    H414299   4.346   2.428  13.030 -1.2762  1.6951 -1.8734
    2MPD2     C14300   4.600   2.203  13.426  0.6352  0.7127  0.2803
    2MPD2    C114301   4.504   2.276  13.490  0.0784  0.3034 -0.0797
    2MPD2    C214302   4.486   2.277  13.630 -0.0854  0.7401  0.9294
    2MPD2    C314303   4.569   2.194  13.704 -0.2946  0.0865  0.3532
    2MPD2    C414304   4.663   2.114  13.642  0.3532  0.2363 -0.4266
    2MPD2    C514305   4.677   2.116  13.508 -0.6080  0.1930  0.4802
    2MPD2     H14306   4.415   2.341  13.680 -0.0835  0.8214  0.8289
    2MPD2    H114307   0.008   2.047  13.693  1.4856  1.5454 -0.1988
    2MPD2    H214308   4.609   2.202  13.318  1.8017  0.9375  0.3707
    2MPD2    H314309   0.031   2.065  13.452 -1.0678  1.6435 -1.5040
    2MPD2     N14310   4.572   2.218  13.846 -0.7909 -0.7503  0.0780
    2MPD2    H514311   4.519   2.295  13.884  3.7361  1.7838  1.1966
    2MPD2    N114312   4.400   2.346  13.415  0.2355  0.3139  0.3189
    2MPD2    H714313   4.319   2.379  13.468  0.0202 -0.1883  0.2985
    3TCq1    O114314   4.453   2.498  14.207  0.5952 -0.0968 -0.2984
    3TCq1    C114315   4.538   2.456  14.306  0.1132 -0.2622  0.7742
    3TCq1    O214316   4.531   2.481  14.427 -0.0971  0.3197 -0.0536
    3TCq1    C214317   4.577   2.323  14.255  0.3989  0.2591  0.2127
    3TCq1    C314318   4.590   2.226  14.352 -0.3302  0.3251 -0.4413
    3TCq1    C414319   4.601   2.095  14.310 -0.8087  0.4865 -0.4940
    3TCq1    C514320   4.616   2.072  14.173  0.9985 -0.2558 -0.3718
    3TCq1    C614321   4.611   2.166  14.079  0.2541 -0.3551  0.4401
    3TCq1    C714322   4.595   2.297  14.117 -0.1567  0.1930 -0.3538
    3TCq1    C814323   4.625   2.126  13.934 -0.5219  0.3397  0.8791
    3TCq1    O414324   4.676   2.016  13.910 -0.0555  0.1160  0.0521
    3TCq1    C914325   4.589   1.980  14.396  0.3003  0.3884  0.6126
    3TCq1    O514326   4.584   1.996  14.524  0.1158  0.6072  0.3370
    3TCq1    O614327   4.600   1.865  14.338  0.1813 -0.2199  0.3381
    3TCq1    H114328   4.460   2.449  14.123 -1.6250 -0.3284 -0.3353
    3TCq1    H214329   4.580   2.257  14.456 -1.4534 -1.1955 -0.0914
    3TCq1    H314330   4.626   1.971  14.135  1.9630  0.6313 -2.4718
    3TCq1    H414331   4.593   2.376  14.043 -1.2132 -0.0248 -0.5551
    1MPD2     C14332   4.103   3.430  14.809  0.2081 -0.1938  0.3446
    1MPD2    C114333   3.991   3.368  14.756  0.3654  0.1906  0.8808
    1MPD2    C214334   3.922   3.269  14.823 -0.8735  0.3690 -0.1289
    1MPD2    C314335   3.962   3.224  14.945  0.2061 -0.7978 -0.1907
    1MPD2    C414336   4.076   3.279  14.993 -0.1871 -0.5645 -0.3180
    1MPD2    C514337   4.145   3.384  14.931 -0.1102  0.1614 -0.0287
    1MPD2     H14338   3.831   3.238  14.773 -1.1399 -2.8162  2.2807
    1MPD2    H114339   4.117   3.236  15.084  0.0974 -1.3206 -0.7966
    1MPD2    H214340   4.165   3.502  14.755  0.0132  1.8903  2.9015
    1MPD2    H314341   4.241   3.422  14.965 -0.8848  1.9194  0.2221
    1MPD2     N14342   3.888   3.129  15.029 -0.0897  0.0434  0.4774
    1MPD2    H514343   3.932   3.093  15.113  1.5790  0.1756 -0.3505
    1MPD2    N114344   3.950   3.419  14.628 -0.1791  0.0736  0.3699
    1MPD2    H714345   3.996   3.500  14.589 -0.0219  0.2433  0.9227
    2TMC3    C114346   3.800   3.429  14.438  0.0596  0.3684  0.1473
    2TMC3    C214347   3.694   3.363  14.380 -0.7696  0.1855 -0.6140
    2TMC3    C314348   3.581   3.434  14.347 -0.1618 -0.2344  0.2667
    2TMC3    C414349   3.795   3.563  14.433  0.8238  0.4829 -0.1683
    2TMC3    C514350   3.689   3.629  14.379 -0.1966 -0.1131 -0.0874
    2TMC3    C614351   3.578   3.567  14.328  0.3690  0.5691  0.0462
    2TMC3     C14352   3.855   3.358  14.549  0.2834  0.0570 -0.2112
    2TMC3     O14353   3.794   3.256  14.563 -0.1214 -0.5529  0.0664
    2TMC3     H14354   3.700   3.256  14.365 -0.7965  0.0150  0.6156
    2TMC3    H114355   3.886   3.616  14.461  1.1713  0.4074 -1.1575
    2TMC3    H214356   3.485   3.617  14.303 -0.4193 -0.7605  0.3059
    2TMC3    C714357   3.702   3.767  14.353  0.4095 -0.0384 -0.3582
    2TMC3    C814358   3.453   3.385  14.386  0.6764  0.0245  0.6970
    2TMC3    O114359   3.634   3.809  14.261 -0.4699  0.7053 -0.1853
    2TMC3    O214360   3.350   3.432  14.337 -0.6862  0.4198  0.2227
    3TCq1    O114361   4.550   4.572  14.653 -0.3580  0.6285  0.5616
    3TCq1    C114362   4.551   4.481  14.752 -0.2223  0.2794  0.1178
    3TCq1    O214363   4.639   4.466  14.839  0.3388  0.2187 -0.3604
    3TCq1    C214364   4.409   4.438  14.763 -0.2338  0.0157 -0.0543
    3TCq1    C314365   4.365   4.406  14.888  0.2933 -0.1146 -0.5880
    3TCq1    C414366   4.238   4.353  14.899 -0.4723  0.1690 -0.1731
    3TCq1    C514367   4.166   4.322  14.791  0.1157 -0.2901  1.0606
    3TCq1    C614368   4.217   4.337  14.666  0.2103  0.6732 -0.5386
    3TCq1    C714369   4.346   4.382  14.651  0.6529 -0.0370 -0.0018
    3TCq1    C814370   4.129   4.305  14.554 -0.0135 -0.7071 -0.8590
    3TCq1    O414371   4.155   4.359  14.446  0.4043 -0.0335 -0.1586
    3TCq1    C914372   4.201   4.307  15.026 -0.2141  0.1647  0.0815
    3TCq1    O514373   4.117   4.213  15.031  0.6680  0.1243  0.1372
    3TCq1    O614374   4.264   4.361  15.121 -0.0783 -0.1130  0.0775
    3TCq1    H114375   4.460   4.584  14.615 -1.1202  0.0199  2.1614
    3TCq1    H214376   4.425   4.420  14.977  0.7440  1.2347 -1.1027
    3TCq1    H314377   4.066   4.283  14.808 -0.0132 -0.6136 -0.3775
    3TCq1    H414378   4.391   4.398  14.554  0.8237 -1.8383 -0.2109
    4MPD2     C14379   3.905   4.228  14.372  0.1296  0.3365  0.2112
    4MPD2    C114380   3.960   4.151  14.478  0.2048 -0.2685 -0.4099
    4MPD2    C214381   3.912   4.026  14.494 -0.2603  0.4400 -0.1390
    4MPD2    C314382   3.820   3.969  14.411  0.1168 -0.1863 -0.5280
    4MPD2    C414383   3.771   4.046  14.311 -0.1991  0.2645  0.6151
    4MPD2    C514384   3.800   4.179  14.295  0.6391  0.1201 -0.7114
    4MPD2     H14385   3.939   3.968  14.582  0.6765  3.8192  1.7711
    4MPD2    H114386   3.689   4.020  14.245 -0.8826 -1.4439  2.1632
    4MPD2    H214387   3.930   4.333  14.361  0.5275  0.3377  1.1097
    4MPD2    H314388   3.752   4.247  14.226  0.1723 -0.4841 -0.9893
    4MPD2     N14389   3.791   3.833  14.426  0.5553 -0.2142  0.4390
    4MPD2    H514390   3.838   3.788  14.504  0.2563 -0.0588  0.7135
    4MPD2    N114391   4.053   4.197  14.575 -0.5820 -0.0060 -0.6785
    4MPD2    H714392   4.065   4.143  14.660 -1.4121 -1.7734 -1.6681
    5TMC2    C114393   3.494   2.917  15.069  0.6528  0.6755  0.8760
    5TMC2    C214394   3.483   2.953  15.198  0.2660 -0.0368  0.4275
    5TMC2    C314395   3.596   2.993  15.261 -1.1667  0.0907 -0.6129
    5TMC2    C414396   3.611   2.908  15.006  0.0131 -0.0755 -0.8107
    5TMC2    C514397   3.726   2.953  15.069 -0.5954  0.8145 -0.6562
    5TMC2    C614398   3.723   2.993  15.199  0.8363 -0.0120  0.0439
    5TMC2     C14399   3.385   2.975  14.988 -0.9681 -1.0115  0.5196
    5TMC2     O14400   3.276   2.975  15.033 -0.3563  0.0562 -0.4071
    5TMC2     H14401   3.391   2.964  15.254  0.0851  0.1066  0.1003
    5TMC2    H114402   3.620   2.866  14.907 -1.7143 -0.7861 -0.6654
    5TMC2    H214403   3.800   3.050  15.250 -0.4334  1.1814  0.6291
    5TMC2    C714404   3.776   3.061  14.986 -0.2309  0.3174 -0.1571
    5TMC2    C814405   3.597   3.031  15.403 -0.1123 -0.6412 -0.1531
    5TMC2    O114406   3.706   3.077  14.889 -0.0987  0.0729  0.1982
    5TMC2    O214407   3.543   3.133  15.447  0.0597  0.0436  0.6040
    5TMC2    O514408   3.703   2.979  15.455  0.3299  0.3269 -0.1687
    5TMC2    H514409   3.734   2.903  15.402 -2.0477 -0.1283 -0.8816
    6MPD2     C14410   3.267   3.273  14.583  0.8295 -0.0732  1.0000
    6MPD2    C114411   3.401   3.245  14.590  0.5012 -0.1281 -0.2621
    6MPD2    C214412   3.454   3.167  14.688  0.1083  0.3572 -0.5101
    6MPD2    C314413   3.371   3.111  14.788  0.5365  0.7387  0.1076
    6MPD2    C414414   3.238   3.157  14.791  0.3399 -0.7752 -0.2801
    6MPD2    C514415   3.187   3.233  14.687  0.4426  0.4582  0.6695
    6MPD2     H14416   3.558   3.137  14.688  1.0550  3.6722  0.3630
    6MPD2    H114417   3.158   3.121  14.854  1.1328  1.1734  1.8206
    6MPD2    H214418   3.222   3.329  14.502  2.2652  1.9649  1.6104
    6MPD2    H314419   3.083   3.263  14.681  0.6963  1.1104 -0.4600
    6MPD2     N14420   3.438   3.032  14.878 -0.6106  0.6785  0.7350
    6MPD2    H514421   3.538   3.026  14.864 -0.7562  0.7812 -0.2820
    6MPD2    N114422   3.485   3.305  14.498  0.1695 -0.1589  0.4138
    6MPD2    H714423   3.582   3.279  14.512  0.9912  2.4079 -0.3762
  945NH3     N114424   4.442   1.755   9.448 -0.7264 -0.2850 -0.2236
  945NH3     H214425   4.421   1.789   9.541  0.2338  1.2197 -0.5623
  945NH3     H314426   4.518   1.688   9.454 -0.4000 -0.2307 -3.4879
  945NH3     H414427   4.364   1.693   9.427 -0.0240 -0.9631 -0.8365
  946SOD     NA14428   3.400   1.109  16.421 -0.8530 -0.0254  0.6896
  947SOD     NA14429   0.681   3.997  16.432 -0.9136  0.0010  0.4355
  948SOD     NA14430   3.306   2.106  15.709 -0.4364  0.1378  0.0728
  949SOD     NA14431   2.888   2.008  10.448 -0.0952 -0.5006 -0.4503
  950SOD     NA14432   1.075   4.499   2.501 -0.4944 -0.1531  0.3244
  951SOD     NA14433   1.056   1.317  12.415 -0.1914  0.1296  0.1844
  952SOD     NA14434   0.646   0.385   0.990 -0.1908  0.0814 -0.0411
  953SOD     NA14435   3.709   4.047  15.183 -0.4146 -0.0828  0.1478
  954SOD     NA14436   3.894   3.451  11.262  0.3623  0.2402 -0.2776
  955SOD     NA14437   4.386   1.907  15.273 -0.3804 -0.7907 -0.0812
  956SOD     NA14438   0.247   2.514  13.171 -0.2236 -0.3784  0.5066
  957SOD     NA14439   1.907   3.187  15.073  0.0097 -0.2983 -0.4564
  958SOD     NA14440   0.597   1.355  16.497  0.0806  0.1053 -0.4941
  959SOD     NA14441   4.608   2.174  15.114 -0.0259  0.1637 -0.1003
  960SOD     NA14442   3.996   2.271  11.845  0.2683  0.1802  0.0453
  961SOD     NA14443   3.599   4.590  10.567  0.1274  0.3003 -0.1657
  962SOD     NA14444   3.404   2.794   1.419  0.0288 -0.1608  0.1807
  963SOD     NA14445   1.043   2.830  16.551  0.2032 -0.4923  0.3562
  964SOD     NA14446   3.460   0.752  10.593 -0.1850  0.2412 -0.0603
  965SOD     NA14447   3.211   2.173   6.837  0.2793  0.1242 -0.0669
  966SOD     NA14448   3.498   3.769  15.202 -0.2022 -0.4645 -0.3406
  967SOD     NA14449   4.498   0.152  13.202  0.1443 -0.2141 -0.3772
  968SOD     NA14450   2.906   4.301   4.182 -0.1326 -0.4081 -0.3946
  969SOD     NA14451   3.236   1.834  10.424  0.3591  0.1618  0.0833
  970SOD     NA14452   1.459   1.485   7.394 -0.0180 -0.0043 -0.2136
  971SOD     NA14453   2.338   2.349  13.921 -0.0787  0.1639  0.2504
  972SOD     NA14454   0.686   3.426   8.031 -0.1114  0.4503 -0.1861
  973SOD     NA14455   4.133   1.825  10.142  0.1489 -0.1103  0.1658
  974SOD     NA14456   4.325   1.714  11.932  0.6921 -0.0067  0.4572
  975SOD     NA14457   0.093   1.171   2.026  0.2107  0.3612 -0.1494
  976SOD     NA14458   0.529   3.598   1.487 -0.0069 -0.2059 -0.0149
  977SOD     NA14459   3.640   2.637  13.397  0.4948 -0.2035 -0.1535
  978SOD     NA14460   2.305   3.585   3.085 -0.2782  0.9451 -0.0100
  979SOD     NA14461   0.828   3.056  12.351 -0.0940 -0.4004  0.1346
  980SOD     NA14462   0.600   3.614  15.487 -0.1666 -0.4620 -0.2923
  981SOD     NA14463   3.228   1.355   9.231  0.3857 -0.1232 -0.1679
  982SOD     NA14464   1.740   4.384   2.249  0.2211  0.4268 -0.3330
  983SOD     NA14465   0.703   1.344   9.233  0.2241 -0.3020  0.1951
  984SOD     NA14466   2.423   3.410  10.852 -0.5794  0.1004  0.2211
  985SOD     NA14467   1.887   2.834   0.415 -0.2277  0.0345  0.0149
  986SOD     NA14468   1.921   0.686   9.929  0.4799  0.0920 -0.1477
  987SOD     NA14469   1.830   2.345  10.944  0.2171  0.4789 -0.0078
  988SOD     NA14470   4.106   2.982   0.159 -0.4850 -0.6155  0.4130
  989SOD     NA14471   0.483   0.826  16.415 -0.1253  0.0217  0.2573
  990SOD     NA14472   2.670   0.824   0.961  0.2792  0.0928  0.0294
  991SOD     NA14473   0.659   1.696  13.770 -0.1063  0.3682 -0.5695
  992SOD     NA14474   3.280   4.060  13.574 -0.0776 -0.7908  0.0292
  993SOD     NA14475   3.648   1.529  11.396  0.1901 -0.6163  0.7420
  994SOD     NA14476   4.341   3.357  10.083  0.1051  0.1516  0.0707
  995SOD     NA14477   1.615   1.014  14.985 -0.0960 -0.2742  0.0059
  996SOD     NA14478   4.458   1.721   6.901  0.1641 -0.3428 -0.5688
  997SOD     NA14479   0.301   2.542   9.864 -0.0993 -0.8332  0.0924
  998SOD     NA14480   3.677   4.078   2.942  0.0741  0.3646  0.7204
  999SOD     NA14481   4.330   1.976  10.422  0.2754  0.0806  0.3963
 1000SOD     NA14482   1.910   4.519   9.689  0.1824 -0.3287 -0.1466
 1001SOD     NA14483   0.729   1.976   2.303  0.0673  0.2678 -0.1133
 1002SOD     NA14484   0.948   2.903  14.173  0.1745 -0.0732  0.7990
 1003SOD     NA14485   2.058   0.031  11.017 -0.6929 -0.4911  0.5913
 1004SOD     NA14486   2.745   1.942  12.751 -0.1029 -0.1767  0.2702
 1005SOD     NA14487   3.485   2.657  13.092  0.0379  0.0619 -0.1858
 1006SOD     NA14488   1.570   1.331   2.273  0.3215 -0.1137 -0.2274
 1007SOD     NA14489   3.938   1.891   3.255 -0.3459 -0.2823  0.0123
 1008SOD     NA14490   3.505   0.950  10.816  0.3439 -0.1063 -0.2490
 1009SOD     NA14491   0.204   3.082  15.160  0.0297 -0.0156  0.4468
 1010SOD     NA14492   1.232   0.601  17.677  0.1548 -0.7735 -0.4043
 1011SOD     NA14493   2.327   2.598   0.008  0.0394  0.0486 -0.6743
 1012SOL     OW14494   3.894   2.583   5.244 -0.4408  0.0683  0.3267
 1012SOL    HW114495   3.800   2.566   5.246 -0.4648  0.0679 -1.1061
 1012SOL    HW214496   3.892   2.676   5.219  0.6563 -0.0618 -0.2550
 1013SOL     OW14497   3.747   4.257   3.102  0.5788  0.0275 -0.0373
 1013SOL    HW114498   3.731   4.321   3.032 -1.3516 -1.4624 -0.9605
 1013SOL    HW214499   3.672   4.253   3.162 -0.8376  0.3569 -1.7852
 1014SOL     OW14500   3.300   2.974   2.481  0.3842  0.0500  0.5319
 1014SOL    HW114501   3.370   2.911   2.467  2.1276  2.5448 -1.8137
 1014SOL    HW214502   3.339   3.029   2.549  3.7808 -1.4727 -0.1989
 1015SOL     OW14503   3.638   2.665  15.506 -0.0800 -0.1630  0.0644
 1015SOL    HW114504   3.610   2.645  15.596 -2.5557 -1.8458 -1.0829
 1015SOL    HW214505   3.723   2.708  15.508 -0.5059  0.6581  0.4722
 1016SOL     OW14506   0.139   0.206   7.918 -0.3153 -0.1664  0.1257
 1016SOL    HW114507   0.211   0.193   7.981 -0.7751 -0.5159  0.5839
 1016SOL    HW214508   0.090   0.283   7.947  1.7577  1.2761 -0.1878
 1017SOL     OW14509   2.143   2.975   0.846 -0.2127 -0.5566  0.0912
 1017SOL    HW114510   2.204   2.946   0.913 -0.2125  0.6677  0.6130
 1017SOL    HW214511   2.111   3.056   0.886 -3.0563 -1.4718 -0.3147
 1018SOL     OW14512   2.630   1.066   2.752  0.2876  0.1299 -0.0580
 1018SOL    HW114513   2.657   1.032   2.666 -1.5048  0.7652 -0.8623
 1018SOL    HW214514   2.689   1.016   2.808  0.9642 -0.1788 -1.0358
 1019SOL     OW14515   3.557   0.361  11.409 -0.0705  0.0301  0.3650
 1019SOL    HW114516   3.535   0.429  11.345 -2.1141  1.5447  2.7179
 1019SOL    HW214517   3.647   0.347  11.379 -0.5284  0.8384 -1.3806
 1020SOL     OW14518   4.019   4.234  11.433 -0.2007  0.1737  0.0186
 1020SOL    HW114519   3.928   4.210  11.452 -0.2254 -2.1487 -3.1842
 1020SOL    HW214520   4.017   4.329  11.448 -2.4235  0.0209  0.8187
 1021SOL     OW14521   2.806   4.047   4.359  0.2084 -0.5444  0.3013
 1021SOL    HW114522   2.722   4.000   4.367  0.5731 -0.7646  2.8176
 1021SOL    HW214523   2.817   4.026   4.266 -0.0613  0.0887  0.1240
 1022SOL     OW14524   0.236   3.331  16.408  0.3375 -0.2171 -0.1628
 1022SOL    HW114525   0.299   3.323  16.336 -0.0252  2.5660 -0.7679
 1022SOL    HW214526   0.228   3.240  16.438  0.4416 -0.9736 -2.4144
 1023SOL     OW14527   0.382   3.430   3.048  0.2317  0.1683  0.3897
 1023SOL    HW114528   0.329   3.410   3.125  0.4408  0.7460  0.6802
 1023SOL    HW214529   0.352   3.516   3.020 -0.3998  0.0824  0.7879
 1024SOL     OW14530   1.532   3.118   1.583 -0.2479  0.1057  0.8342
 1024SOL    HW114531   1.487   3.191   1.540  0.3127  0.1091  0.2632
 1024SOL    HW214532   1.517   3.055   1.513 -1.7665 -1.0932  2.2519
 1025SOL     OW14533   4.179   2.817   3.641  0.2887  0.4802 -0.2322
 1025SOL    HW114534   4.126   2.738   3.648  0.8531 -0.0170 -1.6933
 1025SOL    HW214535   4.264   2.795   3.681  0.7784 -0.5104 -1.7948
 1026SOL     OW14536   0.558   0.317   2.553 -0.2688 -0.3909 -0.1549
 1026SOL    HW114537   0.510   0.394   2.522  0.6560 -0.2680 -1.2877
 1026SOL    HW214538   0.579   0.337   2.645 -1.1111 -1.0588  0.1772
 1027SOL     OW14539   3.312   0.469   3.527  0.2070 -0.0580 -0.4867
 1027SOL    HW114540   3.402   0.481   3.556 -0.8688 -1.0373  3.3566
 1027SOL    HW214541   3.310   0.378   3.555 -0.2515 -0.3389 -1.4517
 1028SOL     OW14542   1.734   1.727   2.147  0.4065  0.0994 -0.4954
 1028SOL    HW114543   1.796   1.741   2.076  0.3270 -1.2864 -0.8307
 1028SOL    HW214544   1.661   1.776   2.108  0.3591  0.5458  0.1506
 1029SOL     OW14545   0.408   3.775  13.123  0.3685 -1.1452 -0.2690
 1029SOL    HW114546   0.459   3.695  13.110 -0.9261 -1.7937 -1.4144
 1029SOL    HW214547   0.423   3.787  13.217  1.8862 -1.0737 -0.5199
 1030SOL     OW14548   4.163   4.359   8.771  0.4980 -0.1783 -0.2692
 1030SOL    HW114549   4.187   4.297   8.839 -2.0892 -0.2675  0.5364
 1030SOL    HW214550   4.068   4.352   8.776  0.3860  0.3496 -1.5815
 1031SOL     OW14551   0.290   4.618   3.334 -0.2724  0.2846 -0.0622
 1031SOL    HW114552   0.354   4.685   3.313  0.1555 -0.5025 -1.2660
 1031SOL    HW214553   0.238   4.614   3.254 -0.2010 -1.8570 -0.0079
 1032SOL     OW14554   0.060   3.664   8.021 -0.0074 -0.1488  0.2712
 1032SOL    HW114555   0.008   3.706   8.089 -1.6431 -2.8007  0.6328
 1032SOL    HW214556   0.001   3.666   7.946 -0.5028  1.0859  0.6983
 1033SOL     OW14557   3.397   0.032   7.849  0.0614 -0.4277  0.1446
 1033SOL    HW114558   3.359   0.020   7.762  2.1264  1.3980 -1.0173
 1033SOL    HW214559   3.349   0.110   7.879  1.0342  0.5862 -0.9011
 1034SOL     OW14560   2.683   2.730   2.764 -0.6405  0.5011  0.3526
 1034SOL    HW114561   2.610   2.755   2.822 -1.6753  1.2996 -1.2795
 1034SOL    HW214562   2.743   2.693   2.828 -0.2031  1.5501  0.5437
 1035SOL     OW14563   2.454   3.336   6.167  0.2308  0.0323  0.1044
 1035SOL    HW114564   2.492   3.365   6.084 -0.6492 -0.7217 -0.5698
 1035SOL    HW214565   2.512   3.372   6.234 -0.7833 -1.4908  1.7805
 1036SOL     OW14566   0.681   3.839   0.224  0.0076 -0.0175 -0.7561
 1036SOL    HW114567   0.687   3.815   0.132  0.8257  0.8294 -0.9170
 1036SOL    HW214568   0.667   3.933   0.216  1.5840 -0.0217 -3.4958
 1037SOL     OW14569   3.403   2.608   3.845  0.0276  0.2537  0.7138
 1037SOL    HW114570   3.423   2.690   3.890 -0.0200  0.1865  0.8600
 1037SOL    HW214571   3.371   2.556   3.919  1.3525 -0.5568  0.7184
 1038SOL     OW14572   0.247   1.751   4.169  0.1240 -0.2535 -0.1370
 1038SOL    HW114573   0.200   1.813   4.114  0.3361 -0.0294 -0.0677
 1038SOL    HW214574   0.209   1.668   4.139 -2.5395  0.8443  0.2001
 1039SOL     OW14575   4.698   0.813   3.994 -0.0855 -0.4037  0.8325
 1039SOL    HW114576   0.047   0.785   3.937  0.8113 -0.9118  2.2002
 1039SOL    HW214577   0.032   0.844   4.065  0.7404  0.6880 -0.2984
 1040SOL     OW14578   4.599   4.600  11.712 -0.0875 -0.4194 -0.0962
 1040SOL    HW114579   4.533   4.567  11.651  0.2467 -0.8187 -0.2401
 1040SOL    HW214580   4.578   4.552  11.792 -2.7372  1.1881  0.1817
 1041SOL     OW14581   4.389   2.938   9.450  0.2147  0.1871  0.3632
 1041SOL    HW114582   4.445   3.015   9.448 -0.4051  0.6287 -0.1248
 1041SOL    HW214583   4.337   2.945   9.530 -0.5893  0.7502 -0.2097
 1042SOL     OW14584   2.990   0.463   6.929  0.1714  0.0855  0.3049
 1042SOL    HW114585   3.040   0.504   6.999  1.5585 -1.0765 -0.0226
 1042SOL    HW214586   3.041   0.516   6.867 -1.9397  2.6194  0.7273
 1043SOL     OW14587   1.932   2.908   6.206 -0.2126 -0.0985  0.7524
 1043SOL    HW114588   1.852   2.936   6.162 -0.4971  0.2001  1.4532
 1043SOL    HW214589   2.006   2.942   6.156  2.3584 -3.3943  2.2940
 1044SOL     OW14590   0.186   1.720  12.662 -0.3814  0.3537 -0.3621
 1044SOL    HW114591   0.202   1.814  12.670  0.5902  0.1077  0.4869
 1044SOL    HW214592   0.118   1.722  12.594  0.1460  1.5720 -0.8451
 1045SOL     OW14593   0.076   1.773   6.671  0.3439 -0.3321  0.0702
 1045SOL    HW114594   0.127   1.714   6.726 -0.5693  1.5540  2.9568
 1045SOL    HW214595   4.710   1.745   6.691  0.2745 -1.3995 -1.6994
 1046SOL     OW14596   4.101   2.715   2.861 -0.6421  0.8136 -0.4485
 1046SOL    HW114597   4.137   2.641   2.812 -3.4641 -1.4549  0.9338
 1046SOL    HW214598   4.146   2.791   2.823 -0.8349  2.4260  2.5880
 1047SOL     OW14599   0.021   0.712   2.936 -0.6650 -0.1543 -0.2137
 1047SOL    HW114600   4.698   0.795   2.921 -1.7440 -0.4987  1.2730
 1047SOL    HW214601   0.113   0.736   2.923 -1.0628  0.0494 -2.6526
 1048SOL     OW14602   1.823   1.326   8.421 -0.3120  0.1310  0.6522
 1048SOL    HW114603   1.877   1.252   8.446 -0.6084 -0.7688 -1.3737
 1048SOL    HW214604   1.873   1.347   8.343 -0.0695 -2.9076 -0.0137
 1049SOL     OW14605   4.283   1.259   4.757  0.2907  0.0636  0.1634
 1049SOL    HW114606   4.299   1.182   4.812  1.4638 -1.8494 -2.8871
 1049SOL    HW214607   4.326   1.333   4.799  0.9809 -0.0411 -0.3679
 1050SOL     OW14608   2.607   3.977   7.408 -0.1602  0.6473  0.3499
 1050SOL    HW114609   2.692   3.957   7.446  0.5270  1.4089 -0.8349
 1050SOL    HW214610   2.596   4.063   7.448 -1.7464  0.7540 -0.3000
 1051SOL     OW14611   4.298   4.147   6.491 -0.5188  0.6237 -0.7680
 1051SOL    HW114612   4.366   4.213   6.496  1.4895 -1.2455 -3.3159
 1051SOL    HW214613   4.275   4.151   6.398 -1.8945 -2.9634 -0.5900
 1052SOL     OW14614   3.572   1.892   9.509  0.4756  0.1790 -0.5470
 1052SOL    HW114615   3.539   1.895   9.599 -0.7606 -0.9177 -0.9817
 1052SOL    HW214616   3.577   1.985   9.487 -0.3160  0.3851  0.1488
 1053SOL     OW14617   4.639   4.025  15.337  0.1770  0.3188 -0.0173
 1053SOL    HW114618   4.601   4.031  15.249  0.6903 -0.1348 -0.2778
 1053SOL    HW214619   4.690   4.106  15.335  1.3506 -0.3921  0.9315
 1054SOL     OW14620   3.250   3.569   7.744  0.3403  0.3519 -0.3394
 1054SOL    HW114621   3.267   3.534   7.657  2.3515  0.1390  0.1466
 1054SOL    HW214622   3.228   3.487   7.789 -0.0651 -0.9419 -2.9183
 1055SOL     OW14623   2.717   3.018   9.755 -0.1161 -0.6757 -0.2773
 1055SOL    HW114624   2.717   3.101   9.803 -1.5641 -1.1832  0.5962
 1055SOL    HW214625   2.640   2.981   9.796 -0.2448 -0.8115 -0.6416
 1056SOL     OW14626   1.126   4.288   2.425  0.5776  0.5274  0.2319
 1056SOL    HW114627   1.090   4.220   2.482 -0.4993 -0.2768 -1.4176
 1056SOL    HW214628   1.119   4.253   2.336 -0.8963 -1.5822  1.1806
 1057SOL     OW14629   4.315   2.043  13.258  0.0208 -0.5288 -0.1815
 1057SOL    HW114630   4.259   2.038  13.335 -1.5369  1.4204 -1.1932
 1057SOL    HW214631   4.296   1.958  13.218  0.6967 -0.7094 -0.1188
 1058SOL     OW14632   3.220   1.176   9.502  0.5217  0.3423  0.3027
 1058SOL    HW114633   3.243   1.142   9.589  1.0847  0.3444  0.1525
 1058SOL    HW214634   3.139   1.224   9.522 -1.0849 -1.8115 -1.0233
 1059SOL     OW14635   2.092   2.076   6.295 -0.3738  0.1013 -0.3644
 1059SOL    HW114636   2.146   1.996   6.302  0.1075  0.2249 -2.6959
 1059SOL    HW214637   2.071   2.069   6.202  1.7802 -1.1539 -0.7668
 1060SOL     OW14638   2.893   3.456   7.958 -0.1822  0.2763  0.6084
 1060SOL    HW114639   2.865   3.465   8.049  1.5857 -1.7583  1.3576
 1060SOL    HW214640   2.981   3.492   7.955 -0.2453  0.4223  0.4725
 1061SOL     OW14641   1.122   3.976   0.989 -0.4469  0.4339  0.5665
 1061SOL    HW114642   1.031   4.005   0.981  0.1083  1.7807 -1.0750
 1061SOL    HW214643   1.164   4.054   1.024  1.3516  1.1145 -3.0529
 1062SOL     OW14644   1.637   1.263   6.131  0.0926  0.2110 -0.1203
 1062SOL    HW114645   1.687   1.330   6.084 -1.4369  1.5442  0.1552
 1062SOL    HW214646   1.549   1.298   6.122  0.9644  2.4206 -0.0812
 1063SOL     OW14647   0.036   1.329   0.692  0.2239 -0.3300 -0.6868
 1063SOL    HW114648   4.701   1.318   0.617 -1.0721 -0.7294  0.3555
 1063SOL    HW214649   0.039   1.425   0.695 -1.6364 -0.3004  0.6855
 1064SOL     OW14650   2.247   2.347   7.294 -0.0748  0.6036  0.4660
 1064SOL    HW114651   2.228   2.338   7.387 -0.9446  0.9578  0.3324
 1064SOL    HW214652   2.281   2.259   7.281  0.7322  0.9779 -0.0079
 1065SOL     OW14653   3.963   4.313   4.012 -0.1034  0.7537 -0.3284
 1065SOL    HW114654   3.960   4.352   4.099 -0.0534  1.4926 -0.6556
 1065SOL    HW214655   4.002   4.386   3.962 -0.6901  1.8856  0.8852
 1066SOL     OW14656   3.550   0.344   7.177  0.5388  0.8458  0.9188
 1066SOL    HW114657   3.621   0.280   7.185 -0.2987 -0.1458  0.3271
 1066SOL    HW214658   3.505   0.308   7.101  1.2543  1.7056  0.0834
 1067SOL     OW14659   3.928   2.142  16.062  0.1414  0.6758 -0.2444
 1067SOL    HW114660   3.979   2.135  15.981 -1.1990 -2.3057 -0.7933
 1067SOL    HW214661   3.999   2.180  16.115  1.4441 -2.1048 -0.0050
 1068SOL     OW14662   0.780   0.785   7.267 -0.0205 -0.2669 -0.2808
 1068SOL    HW114663   0.709   0.849   7.263 -0.2436 -0.3013  3.0868
 1068SOL    HW214664   0.729   0.704   7.263 -2.1444  1.1392 -1.9690
 1069SOL     OW14665   2.452   1.476  15.916  0.4739 -0.0616 -0.1007
 1069SOL    HW114666   2.409   1.558  15.938  0.9590 -0.2746  1.6377
 1069SOL    HW214667   2.528   1.490  15.973  0.7622  1.4037 -0.8496
 1070SOL     OW14668   2.530   1.510   3.715  0.4033 -0.0502  0.2035
 1070SOL    HW114669   2.482   1.428   3.714 -1.4665  1.0457  0.6278
 1070SOL    HW214670   2.610   1.482   3.670  0.4879 -0.9313  0.9142
 1071SOL     OW14671   0.496   3.150   1.568  0.3871 -0.3108 -0.5324
 1071SOL    HW114672   0.519   3.228   1.518 -0.3256 -0.7341 -1.5149
 1071SOL    HW214673   0.572   3.158   1.625 -0.5910  0.6033  0.6330
 1072SOL     OW14674   3.576   2.234  13.139  0.2620  0.4286  0.2904
 1072SOL    HW114675   3.518   2.159  13.133  0.8609 -0.0614  0.6809
 1072SOL    HW214676   3.506   2.298  13.157  0.4611  0.1026  2.3149
 1073SOL     OW14677   0.614   2.333   5.718  0.0462 -0.4281  0.2658
 1073SOL    HW114678   0.519   2.335   5.718  0.0242 -1.2864  1.6887
 1073SOL    HW214679   0.620   2.252   5.669 -0.8804  0.1818 -0.8576
 1074SOL     OW14680   2.409   0.341   3.426 -0.0556  0.1034 -0.2329
 1074SOL    HW114681   2.457   0.424   3.427  1.5818 -0.8246 -1.1114
 1074SOL    HW214682   2.462   0.279   3.477 -2.0740  0.3374  2.1168
 1075SOL     OW14683   0.127   2.850   7.604 -0.4282  0.3962 -0.6755
 1075SOL    HW114684   0.075   2.815   7.676  0.1420 -0.4157 -0.6558
 1075SOL    HW214685   0.150   2.942   7.620 -0.4200  0.3619 -0.4948
 1076SOL     OW14686   0.042   2.189  10.927 -0.1768 -0.4463  0.0283
 1076SOL    HW114687   4.701   2.142  10.980 -0.9384  0.8139  0.2423
 1076SOL    HW214688   0.095   2.224  10.998  1.9488 -0.4128 -1.5926
 1077SOL     OW14689   2.718   2.555   4.701  0.3743 -0.2543  0.1391
 1077SOL    HW114690   2.638   2.521   4.742 -0.6818  1.1358 -0.7833
 1077SOL    HW214691   2.778   2.481   4.702 -1.0796 -1.4340  0.8663
 1078SOL     OW14692   0.545   3.685   7.195 -0.6396  0.1027 -0.0946
 1078SOL    HW114693   0.576   3.772   7.170 -1.3651 -0.2377 -2.1508
 1078SOL    HW214694   0.453   3.702   7.212  0.1851  3.5314  0.9328
 1079SOL     OW14695   2.152   2.235   5.139 -0.9215 -0.0118 -0.2686
 1079SOL    HW114696   2.207   2.168   5.180  1.9279  2.5172  0.0688
 1079SOL    HW214697   2.110   2.186   5.069 -2.0086 -0.8847  0.9923
 1080SOL     OW14698   1.235   1.780   6.725 -0.1437 -0.0435 -0.0585
 1080SOL    HW114699   1.227   1.834   6.803  1.1052 -0.1834  0.1670
 1080SOL    HW214700   1.322   1.745   6.742 -0.7034 -1.3276  0.1642
 1081SOL     OW14701   2.711   0.564   7.551 -0.0525 -0.5901  0.8780
 1081SOL    HW114702   2.627   0.590   7.514  0.4863  1.7183  1.2802
 1081SOL    HW214703   2.734   0.488   7.498 -2.7777  1.4426 -3.3137
 1082SOL     OW14704   3.007   3.567  11.003 -0.3063  0.3075 -0.1094
 1082SOL    HW114705   2.992   3.603  10.915  0.0562  3.1727  1.0131
 1082SOL    HW214706   2.988   3.473  10.997  0.4325  0.1427  0.1391
 1083SOL     OW14707   2.759   3.748   4.793  0.1725  0.8519  0.4731
 1083SOL    HW114708   2.702   3.757   4.869 -1.3467  1.9521 -0.7859
 1083SOL    HW214709   2.697   3.788   4.732 -0.8368 -2.5083 -0.7071
 1084SOL     OW14710   3.596   2.043   7.822 -0.2993 -0.2133 -0.2773
 1084SOL    HW114711   3.639   2.123   7.793 -0.2359  0.0419  0.5186
 1084SOL    HW214712   3.662   1.978   7.848 -0.9729 -0.5319  0.6658
 1085SOL     OW14713   2.999   1.148   2.555  0.0035 -0.6111 -0.3178
 1085SOL    HW114714   3.064   1.218   2.544 -0.3702 -0.2360 -0.1334
 1085SOL    HW214715   2.965   1.163   2.644 -0.4957 -1.4011 -0.3800
 1086SOL     OW14716   3.005   2.816   7.431 -0.2478  0.1011  0.8795
 1086SOL    HW114717   3.004   2.875   7.506  0.9656 -0.7553  1.5773
 1086SOL    HW214718   2.910   2.804   7.424 -0.0698  0.4159 -2.3038
 1087SOL     OW14719   2.807   1.009   7.298 -0.2960 -0.0228 -0.1074
 1087SOL    HW114720   2.834   1.100   7.308 -1.2174  0.2617 -0.1500
 1087SOL    HW214721   2.718   1.014   7.335  1.3155  2.7456  3.3899
 1088SOL     OW14722   3.235   2.690   3.184 -0.4516  0.1807 -0.6370
 1088SOL    HW114723   3.278   2.715   3.103 -0.6820  2.0951 -0.1540
 1088SOL    HW214724   3.240   2.595   3.169  0.7601  0.2441 -0.6362
 1089SOL     OW14725   1.276   0.496  14.620  0.7746  0.0173 -0.4169
 1089SOL    HW114726   1.276   0.510  14.525  2.0234  1.0941 -0.2596
 1089SOL    HW214727   1.292   0.575  14.672 -0.4115 -0.1452  0.2075
 1090SOL     OW14728   4.007   1.249  17.242  0.2017 -0.0514 -0.7257
 1090SOL    HW114729   4.037   1.322  17.188  0.4921  1.3759  1.3361
 1090SOL    HW214730   3.987   1.187  17.173 -3.7230  0.3118  0.0639
 1091SOL     OW14731   0.134   1.968  16.869  0.6045 -0.2139  0.0593
 1091SOL    HW114732   0.121   1.894  16.928 -0.5372 -0.6866 -0.7937
 1091SOL    HW214733   0.059   2.021  16.896 -0.5322 -0.8929 -1.8176
 1092SOL     OW14734   1.308   1.407  15.355  0.7134 -0.1821  0.0242
 1092SOL    HW114735   1.251   1.334  15.329 -0.0884 -0.2443  1.9646
 1092SOL    HW214736   1.355   1.371  15.430  1.7228 -0.8546 -0.9280
 1093SOL     OW14737   0.981   0.103   6.978  0.5680 -0.6671 -0.2441
 1093SOL    HW114738   1.072   0.094   6.948  0.5565 -1.4928 -0.0433
 1093SOL    HW214739   0.942   0.149   6.904 -0.2751 -1.7128 -0.4506
 1094SOL     OW14740   3.245   2.692  17.245  0.5511  0.4468  0.5035
 1094SOL    HW114741   3.279   2.632  17.311  0.3603 -0.2569 -0.0393
 1094SOL    HW214742   3.159   2.704  17.285  0.3258  0.9400 -0.1372
 1095SOL     OW14743   4.119   3.026   5.960  0.3459 -0.3276 -0.0026
 1095SOL    HW114744   4.205   3.027   6.001 -0.8263  0.4871  2.4697
 1095SOL    HW214745   4.138   2.988   5.874 -0.0842  1.7500 -1.0135
 1096SOL     OW14746   0.061   4.272   6.312 -0.1189 -0.4211  0.3535
 1096SOL    HW114747   0.137   4.227   6.276  2.2580  0.8044  3.8950
 1096SOL    HW214748   0.094   4.353   6.349 -0.9665  1.7767 -3.6880
 1097SOL     OW14749   1.049   4.594   7.709  0.4090  0.3522  0.4651
 1097SOL    HW114750   1.081   4.534   7.641  0.0212  0.9401 -0.2347
 1097SOL    HW214751   0.954   4.583   7.705  0.3271  1.1034  0.3690
 1098SOL     OW14752   0.345   0.620   4.534 -0.5417 -0.6189 -0.0025
 1098SOL    HW114753   0.335   0.568   4.613 -1.8148 -0.8508 -0.3253
 1098SOL    HW214754   0.420   0.675   4.559  1.4316 -3.0708 -0.4813
 1099SOL     OW14755   1.447   2.581   5.761 -0.0532 -0.7314  0.3995
 1099SOL    HW114756   1.378   2.588   5.695 -0.6712 -0.0761  1.1133
 1099SOL    HW214757   1.526   2.594   5.709 -0.4247  1.7521  0.4478
 1100SOL     OW14758   3.479   2.536   6.681 -0.1109  0.8424 -0.4234
 1100SOL    HW114759   3.556   2.497   6.722  0.2086  0.4903 -1.3542
 1100SOL    HW214760   3.495   2.515   6.589  2.1131 -0.4048  0.2449
 1101SOL     OW14761   3.854   0.998   4.583 -0.0833  0.3400  0.0838
 1101SOL    HW114762   3.840   0.940   4.658  1.0116 -1.2752 -0.9690
 1101SOL    HW214763   3.882   1.075   4.632 -3.2262 -0.0973  2.5741
 1102SOL     OW14764   4.659   2.327   2.082  0.1077 -0.2004  0.1133
 1102SOL    HW114765   4.694   2.289   2.002  0.1664  0.5162 -0.2039
 1102SOL    HW214766   4.641   2.249   2.135  3.1899 -2.1791 -1.7525
 1103SOL     OW14767   2.112   0.411   6.129 -0.8134 -0.2163 -0.0994
 1103SOL    HW114768   2.179   0.468   6.166  0.9668 -1.3383 -1.5572
 1103SOL    HW214769   2.034   0.466   6.121 -1.3597 -0.7606  1.5472
 1104SOL     OW14770   4.048   4.080   3.489 -0.3404 -0.0597  0.3158
 1104SOL    HW114771   4.069   4.170   3.515 -0.4603 -0.6584  2.4598
 1104SOL    HW214772   4.013   4.111   3.406  0.1074  2.2132  0.9645
 1105SOL     OW14773   0.214   3.576   8.873 -0.3277 -0.4471 -0.9134
 1105SOL    HW114774   0.291   3.543   8.920 -0.3577 -0.4533 -0.8693
 1105SOL    HW214775   0.240   3.669   8.870 -0.2640 -0.4823 -1.4996
 1106SOL     OW14776   4.676   3.328   6.037 -0.7946 -0.4958  0.1810
 1106SOL    HW114777   4.622   3.272   5.982  0.3115  0.4262 -1.8524
 1106SOL    HW214778   4.708   3.270   6.106 -0.0625  0.4746  0.6713
 1107SOL     OW14779   0.091   3.981  13.873  0.6311 -0.5030 -0.1649
 1107SOL    HW114780   0.013   3.927  13.859  1.7760 -2.0798 -0.3255
 1107SOL    HW214781   0.057   4.060  13.915  0.1858 -1.1027  0.5935
 1108SOL     OW14782   1.730   3.051  11.463 -0.3392  0.6239  0.3847
 1108SOL    HW114783   1.826   3.050  11.471 -0.3482  2.4757  0.8383
 1108SOL    HW214784   1.728   3.084  11.373  0.0997  0.0106  0.1499
 1109SOL     OW14785   4.361   2.640   0.768 -0.0386  0.2378 -0.0103
 1109SOL    HW114786   4.389   2.649   0.677  0.3197 -0.1879  0.0582
 1109SOL    HW214787   4.436   2.591   0.803 -0.5436 -1.8529 -1.8795
 1110SOL     OW14788   2.175   0.390   7.286  0.1032  0.4705 -0.3592
 1110SOL    HW114789   2.264   0.408   7.255  0.7688  0.9431  1.7954
 1110SOL    HW214790   2.140   0.377   7.198  1.3273  0.5588 -0.8605
 1111SOL     OW14791   1.952   0.936   4.896  0.1556 -0.2650 -0.4288
 1111SOL    HW114792   1.964   0.909   4.987  1.2683  1.6711  0.0155
 1111SOL    HW214793   2.038   0.975   4.878 -0.3772  0.1452 -2.0105
 1112SOL     OW14794   3.668   0.981  10.978 -0.3139  0.0290  0.0312
 1112SOL    HW114795   3.763   0.986  10.967 -0.1314 -2.6284  0.4003
 1112SOL    HW214796   3.656   0.916  11.047 -0.8915 -1.1543 -1.1770
 1113SOL     OW14797   1.218   0.509   3.471  0.5843 -0.1358 -0.1470
 1113SOL    HW114798   1.165   0.587   3.454 -0.1365 -0.1849  1.9082
 1113SOL    HW214799   1.240   0.480   3.382  1.2380 -2.0731  0.6521
 1114SOL     OW14800   2.280   2.716   9.042 -0.1799 -0.3079 -0.1096
 1114SOL    HW114801   2.217   2.667   9.095 -1.8458  2.2984  0.3338
 1114SOL    HW214802   2.285   2.646   8.976 -1.0417  0.2543 -0.7804
 1115SOL     OW14803   1.527   0.081  10.543 -0.2197 -0.4346 -0.2245
 1115SOL    HW114804   1.517   0.019  10.471 -0.2839 -0.6044 -0.0705
 1115SOL    HW214805   1.475   0.156  10.514 -1.9441 -2.0844 -1.4008
 1116SOL     OW14806   3.654   0.230   9.916  0.3610  0.5987  0.0126
 1116SOL    HW114807   3.637   0.138   9.931 -1.4280  1.0945  0.9641
 1116SOL    HW214808   3.689   0.226   9.826  0.9085 -1.8075  0.3527
 1117SOL     OW14809   3.526   1.266   2.784  0.1046  0.2329  1.0212
 1117SOL    HW114810   3.605   1.219   2.813  1.3714  1.1526 -0.9503
 1117SOL    HW214811   3.526   1.349   2.833  1.4110  1.0225 -0.3081
 1118SOL     OW14812   0.921   2.412   1.594  0.1572  0.4173  0.0731
 1118SOL    HW114813   0.895   2.363   1.516  1.0483 -1.3711  0.8778
 1118SOL    HW214814   0.839   2.460   1.608 -0.0002  0.7301 -2.0016
 1119SOL     OW14815   1.970   1.610   9.582  0.1668 -0.0427  0.0242
 1119SOL    HW114816   2.021   1.688   9.559 -0.0898 -0.4074 -1.7787
 1119SOL    HW214817   1.968   1.619   9.677  0.6620  1.1446 -0.0675
 1120SOL     OW14818   2.458   2.737   8.338 -0.0704 -0.2199 -0.1407
 1120SOL    HW114819   2.425   2.769   8.254 -1.6047 -0.2900  0.4325
 1120SOL    HW214820   2.442   2.643   8.329  2.0639 -0.7614  1.6831
 1121SOL     OW14821   3.966   0.881  10.362  0.0815  0.0568  0.2092
 1121SOL    HW114822   3.904   0.917  10.426 -1.6522 -0.9643 -0.9065
 1121SOL    HW214823   3.984   0.792  10.395 -0.1697 -0.6935 -1.7170
 1122SOL     OW14824   4.136   3.920  10.347 -0.6432  0.2943 -0.3062
 1122SOL    HW114825   4.141   3.826  10.328 -1.2648 -0.1262  1.6598
 1122SOL    HW214826   4.173   3.924  10.435 -0.1141  0.2541 -0.5230
 1123SOL     OW14827   0.465   0.532   3.889  0.1457  0.4199  0.0583
 1123SOL    HW114828   0.526   0.536   3.816 -1.5049  0.5910 -1.3013
 1123SOL    HW214829   0.531   0.542   3.958  1.3939 -0.4562 -1.0074
 1124SOL     OW14830   2.704   2.823   5.903  0.1411 -0.1014 -0.6110
 1124SOL    HW114831   2.667   2.741   5.935 -0.3757 -0.3205 -1.7887
 1124SOL    HW214832   2.642   2.831   5.832 -1.0070 -2.8621  0.0913
 1125SOL     OW14833   0.632   0.985  15.264  0.2895  0.3062 -0.6596
 1125SOL    HW114834   0.580   1.065  15.254 -0.0207  0.2656  0.6338
 1125SOL    HW214835   0.660   0.967  15.175  1.1279  0.8744 -0.5111
 1126SOL     OW14836   0.731   2.716   8.420  0.0014  0.3379 -0.6182
 1126SOL    HW114837   0.785   2.757   8.487  0.8179 -0.5096 -0.7653
 1126SOL    HW214838   0.798   2.724   8.353  0.3110 -1.3924 -0.5191
 1127SOL     OW14839   2.147   1.734   7.476 -0.3921 -0.5550  0.1563
 1127SOL    HW114840   2.143   1.823   7.512  0.7554  1.0311 -3.5489
 1127SOL    HW214841   2.166   1.748   7.383  1.0389 -0.4161  0.4717
 1128SOL     OW14842   3.427   3.718   2.673  0.4238 -0.2952  0.4339
 1128SOL    HW114843   3.416   3.689   2.763 -0.8875  0.8161  0.6176
 1128SOL    HW214844   3.452   3.636   2.630 -3.0454 -0.9440 -0.3490
 1129SOL     OW14845   1.217   4.193   7.043 -0.3522 -0.0355  0.1499
 1129SOL    HW114846   1.183   4.104   7.032  1.3392 -0.6909  0.2366
 1129SOL    HW214847   1.301   4.186   6.997  0.0381  0.8889  0.7431
 1130SOL     OW14848   4.700   3.559   4.752 -0.1633  0.1710 -0.0606
 1130SOL    HW114849   0.032   3.637   4.742 -0.7550  0.5434 -0.4248
 1130SOL    HW214850   4.641   3.572   4.677  0.4537 -1.0920 -0.7548
 1131SOL     OW14851   3.345   4.643   1.345 -0.0047 -0.5295  0.1671
 1131SOL    HW114852   3.258   4.622   1.380  0.4461 -0.6428  1.2432
 1131SOL    HW214853   3.384   4.698   1.414  0.3192 -0.3136 -0.1913
 1132SOL     OW14854   3.124   4.523   6.518 -0.1064  0.3729  0.3160
 1132SOL    HW114855   3.143   4.442   6.566  1.0431  1.0320  0.9677
 1132SOL    HW214856   3.090   4.588   6.579 -2.0301  0.2498 -0.6034
 1133SOL     OW14857   4.266   1.302   3.469  0.3077  0.4026 -0.3300
 1133SOL    HW114858   4.201   1.246   3.511 -0.3519 -0.6046 -2.7288
 1133SOL    HW214859   4.350   1.272   3.504  0.2084  1.5880  0.9546
 1134SOL     OW14860   4.007   2.278  11.393 -0.1967  0.4356  0.2055
 1134SOL    HW114861   4.101   2.260  11.400  0.4124  3.1505 -0.7662
 1134SOL    HW214862   3.978   2.225  11.319 -1.5803  2.1523 -0.4803
 1135SOL     OW14863   1.864   2.756   1.024 -0.1927  0.5473 -0.0097
 1135SOL    HW114864   1.867   2.835   0.969 -1.0064  1.3600  1.1311
 1135SOL    HW214865   1.793   2.700   0.993 -0.7966  1.8741 -0.9863
 1136SOL     OW14866   1.869   2.272   5.928 -0.3241 -0.4466 -0.0620
 1136SOL    HW114867   1.811   2.229   5.866  1.2048 -0.5861 -1.3818
 1136SOL    HW214868   1.870   2.362   5.895 -0.0833 -0.3919  0.0941
 1137SOL     OW14869   3.917   3.600  10.123 -0.7318 -0.0693  0.1130
 1137SOL    HW114870   3.855   3.569  10.188 -0.0419 -1.3786  0.1659
 1137SOL    HW214871   3.939   3.676  10.176  0.5111 -0.2810 -0.0884
 1138SOL     OW14872   2.370   3.794   6.547 -0.5567  0.6691  0.3961
 1138SOL    HW114873   2.293   3.828   6.593 -1.7200  1.1311 -1.8764
 1138SOL    HW214874   2.432   3.861   6.576  0.2576 -0.6803  1.7761
 1139SOL     OW14875   1.516   1.426   6.764 -0.6630 -0.0721 -0.7597
 1139SOL    HW114876   1.568   1.356   6.804 -1.6857 -0.5705 -0.2903
 1139SOL    HW214877   1.580   1.496   6.751 -3.5533  2.5632 -0.5742
 1140SOL     OW14878   3.991   3.336  15.320 -0.1275 -0.4169  0.2167
 1140SOL    HW114879   4.083   3.328  15.349  0.5341  1.4513 -1.3984
 1140SOL    HW214880   3.951   3.263  15.368 -0.1831  1.1134  2.4735
 1141SOL     OW14881   0.367   3.488   8.594  0.3113 -0.4275  0.2332
 1141SOL    HW114882   0.318   3.541   8.532  2.2667 -1.4974 -2.2149
 1141SOL    HW214883   0.318   3.485   8.676  1.9316 -0.1091  1.2191
 1142SOL     OW14884   4.704   1.484   9.197 -0.5448  0.3889 -0.6222
 1142SOL    HW114885   0.033   1.560   9.172  0.8017 -0.7526 -1.2955
 1142SOL    HW214886   4.719   1.483   9.291 -2.1780  1.4589 -0.3563
 1143SOL     OW14887   1.299   3.521   5.905 -0.1602 -0.2120 -0.5732
 1143SOL    HW114888   1.275   3.430   5.887  0.2356 -0.3492 -0.3951
 1143SOL    HW214889   1.331   3.519   5.995 -0.6008 -0.6639 -0.4275
 1144SOL     OW14890   1.598   4.323   3.218  0.3594 -0.1370 -0.4163
 1144SOL    HW114891   1.550   4.309   3.299  0.2829 -2.4279 -0.8391
 1144SOL    HW214892   1.620   4.231   3.200 -0.5003 -0.0718 -1.8576
 1145SOL     OW14893   0.614   2.206   5.990  0.1852  0.1264 -0.3104
 1145SOL    HW114894   0.645   2.274   6.050 -1.3781 -0.5633  1.2906
 1145SOL    HW214895   0.614   2.255   5.908  1.4923 -0.4281 -0.6398
 1146SOL     OW14896   1.042   0.525  12.895  0.0796 -0.2466 -0.0638
 1146SOL    HW114897   1.097   0.513  12.817 -1.1272  0.8716 -1.0873
 1146SOL    HW214898   1.000   0.602  12.856 -0.4366 -0.0754  0.8399
 1147SOL     OW14899   0.475   2.725   4.730  0.2280  0.3940 -0.3920
 1147SOL    HW114900   0.449   2.634   4.742  0.0085  0.4792 -0.2167
 1147SOL    HW214901   0.446   2.734   4.639  0.2067 -0.5973 -0.4844
 1148SOL     OW14902   2.741   0.408   8.934  0.6995 -0.4905  0.0011
 1148SOL    HW114903   2.654   0.432   8.901  0.4635  0.5477  1.3712
 1148SOL    HW214904   2.742   0.312   8.931  3.6172 -0.4743  1.4384
 1149SOL     OW14905   1.269   4.046   7.649  0.5220  0.5728  0.4704
 1149SOL    HW114906   1.229   3.959   7.652  1.8287  0.0033  1.3051
 1149SOL    HW214907   1.359   4.020   7.665  1.1332  1.5137 -1.3935
 1150SOL     OW14908   1.881   1.644   8.205 -0.1608  0.4424  0.1927
 1150SOL    HW114909   1.910   1.681   8.122 -0.8573 -2.1558 -1.2159
 1150SOL    HW214910   1.960   1.627   8.255 -1.6953 -0.0238  2.4743
 1151SOL     OW14911   1.904   1.369   4.909  0.3291  0.3225 -0.2258
 1151SOL    HW114912   1.840   1.427   4.868 -1.7495 -2.0448 -0.3049
 1151SOL    HW214913   1.932   1.317   4.834  1.8707 -1.1284  1.3758
 1152SOL     OW14914   3.335   2.668   0.949 -0.2983  0.0043  0.1266
 1152SOL    HW114915   3.280   2.590   0.957 -1.5357  1.0577  2.0159
 1152SOL    HW214916   3.332   2.683   0.854  0.7260 -0.3436  0.0418
 1153SOL     OW14917   0.364   0.689   9.047 -0.0513  0.1803 -0.5249
 1153SOL    HW114918   0.322   0.707   8.963 -1.2165  1.3285  0.2972
 1153SOL    HW214919   0.454   0.683   9.013 -0.3814 -1.1458 -1.1535
 1154SOL     OW14920   4.354   1.990   4.147  0.2072  0.2920  0.3385
 1154SOL    HW114921   4.366   2.011   4.054 -1.2131  0.0198  0.0930
 1154SOL    HW214922   4.363   2.076   4.189  1.9665  0.2230  0.1224
 1155SOL     OW14923   4.361   0.272   3.325  0.2362  0.9974 -0.7757
 1155SOL    HW114924   4.357   0.311   3.413 -1.3505 -0.9557  0.0232
 1155SOL    HW214925   4.268   0.257   3.311  0.4494 -2.8279  1.6920
 1156SOL     OW14926   2.688   2.653  17.499  0.3953  0.2997 -0.2396
 1156SOL    HW114927   2.626   2.673  17.569 -1.2792 -2.3471 -0.9435
 1156SOL    HW214928   2.641   2.676  17.419  0.8677  2.9708  0.2732
 1157SOL     OW14929   2.938   0.671   9.437 -0.2149  0.3699  0.1131
 1157SOL    HW114930   2.857   0.627   9.411  0.4244 -2.0355  2.1989
 1157SOL    HW214931   3.000   0.598   9.442  1.2849  1.5545 -1.0977
 1158SOL     OW14932   3.236   1.677   3.655  0.2414  0.3032  0.1961
 1158SOL    HW114933   3.305   1.728   3.698 -0.2060  0.9884  0.0909
 1158SOL    HW214934   3.161   1.710   3.703  0.2952 -0.0413  0.5210
 1159SOL     OW14935   1.171   3.522   2.708  0.1064 -0.2480  0.2674
 1159SOL    HW114936   1.167   3.433   2.743 -1.6705 -0.2171  0.0967
 1159SOL    HW214937   1.094   3.558   2.751  1.1854 -0.8786  2.7470
 1160SOL     OW14938   3.358   4.606   6.301 -0.1579 -0.2618 -0.1325
 1160SOL    HW114939   3.395   4.579   6.386 -2.6666  1.4874  1.5025
 1160SOL    HW214940   3.273   4.564   6.299 -0.2999  0.0915 -1.2102
 1161SOL     OW14941   3.850   0.704  13.232  0.3333  0.4728  0.1087
 1161SOL    HW114942   3.810   0.618  13.243  1.0249  0.2195  0.5704
 1161SOL    HW214943   3.935   0.668  13.206  0.4333  0.9620 -0.2360
 1162SOL     OW14944   3.549   2.144   2.825 -0.0090  0.2250  0.0422
 1162SOL    HW114945   3.527   2.191   2.744 -0.5565 -0.0595  0.0257
 1162SOL    HW214946   3.469   2.132   2.877 -0.2188 -2.1034 -0.7979
 1163SOL     OW14947   2.545   3.171   9.442 -0.4230  0.1843 -0.3027
 1163SOL    HW114948   2.584   3.172   9.529 -1.8173 -1.2194  0.3388
 1163SOL    HW214949   2.513   3.081   9.438 -1.2990  0.3792  2.4054
 1164SOL     OW14950   2.799   3.457   9.295 -0.7368  0.4481 -0.5695
 1164SOL    HW114951   2.887   3.425   9.274 -0.8705 -0.7478  0.7276
 1164SOL    HW214952   2.824   3.532   9.349  2.5706 -1.2020  0.1252
 1165SOL     OW14953   3.601   2.684  12.381 -0.0762  0.1317  0.2229
 1165SOL    HW114954   3.608   2.756  12.443 -1.0949 -0.9545  1.5927
 1165SOL    HW214955   3.686   2.676  12.338 -0.3933  0.0487 -0.3855
 1166SOL     OW14956   2.804   0.659   2.855 -0.3036 -0.2188 -0.1471
 1166SOL    HW114957   2.786   0.628   2.766  0.8617 -0.0060 -0.4485
 1166SOL    HW214958   2.816   0.573   2.897  1.2134 -0.4950 -1.1703
 1167SOL     OW14959   4.674   4.120   3.202 -0.2518  0.2706  0.2343
 1167SOL    HW114960   0.016   4.173   3.248 -0.6414  1.6236 -0.7560
 1167SOL    HW214961   4.665   4.165   3.118  1.2389 -0.8180 -0.5098
 1168SOL     OW14962   1.928   2.807  11.135  0.2729  0.2023  0.0607
 1168SOL    HW114963   1.879   2.746  11.080  0.0953  1.5427 -1.2663
 1168SOL    HW214964   1.860   2.844  11.191 -0.4576 -0.4291 -0.4048
 1169SOL     OW14965   2.995   4.228   6.131 -0.4582  0.5701  0.1613
 1169SOL    HW114966   3.045   4.300   6.169 -1.3584  0.7402  1.0273
 1169SOL    HW214967   2.963   4.263   6.048  1.1011  1.2461 -0.1491
 1170SOL     OW14968   3.675   0.544   6.380 -0.1530  0.1173  0.5371
 1170SOL    HW114969   3.765   0.525   6.404  0.2279  0.5217 -0.5788
 1170SOL    HW214970   3.638   0.568   6.465 -0.0551  1.7306  0.1178
 1171SOL     OW14971   0.346   1.726   7.181  0.0560 -0.0214  0.1380
 1171SOL    HW114972   0.441   1.726   7.185  0.0998 -0.3548 -0.9543
 1171SOL    HW214973   0.337   1.761   7.270  1.5656  0.8448 -0.0616
 1172SOL     OW14974   1.157   0.331   4.253 -0.3969 -0.3714  0.4149
 1172SOL    HW114975   1.155   0.259   4.315  1.4630 -2.0081 -1.4432
 1172SOL    HW214976   1.085   0.382   4.291  0.4017  0.3694  0.9119
 1173SOL     OW14977   1.567   4.709   3.041 -0.3279 -1.1373  0.3158
 1173SOL    HW114978   1.606   4.696   2.955 -1.5178  1.1165 -0.5625
 1173SOL    HW214979   1.481   4.670   3.022 -0.0483  0.1397 -3.4957
 1174SOL     OW14980   1.240   3.561   3.781 -0.3816 -0.6695 -0.1736
 1174SOL    HW114981   1.180   3.493   3.812 -1.2279 -0.2118 -0.8100
 1174SOL    HW214982   1.178   3.624   3.745 -0.5890 -0.4125  0.6263
 1175SOL     OW14983   3.466   0.792   7.176 -0.3810 -0.5573 -0.4846
 1175SOL    HW114984   3.513   0.709   7.173 -0.7602 -0.8092  0.6279
 1175SOL    HW214985   3.387   0.772   7.225 -1.5264 -0.8336 -2.4450
 1176SOL     OW14986   2.894   0.162  11.797  0.8845  0.7783  0.2100
 1176SOL    HW114987   2.911   0.219  11.872 -1.2537  0.7905  0.6674
 1176SOL    HW214988   2.884   0.218  11.720 -0.4419 -0.4071 -0.4855
 1177SOL     OW14989   0.136   3.865   4.446 -0.1708  0.1137  0.1977
 1177SOL    HW114990   0.073   3.936   4.437 -1.5480 -1.1395 -0.1968
 1177SOL    HW214991   0.198   3.890   4.378 -1.7661  0.8090 -0.9964
 1178SOL     OW14992   1.793   1.973  14.353 -0.7513  0.4900 -0.1643
 1178SOL    HW114993   1.787   2.068  14.340  0.4464  0.3983 -1.4976
 1178SOL    HW214994   1.706   1.946  14.326 -0.6511 -0.1952  0.2018
 1179SOL     OW14995   4.219   0.639   3.198  0.5086  0.6030 -0.1028
 1179SOL    HW114996   4.293   0.651   3.138  0.7632  1.7478  0.4289
 1179SOL    HW214997   4.181   0.564   3.153 -1.1962  1.3938  0.0299
 1180SOL     OW14998   4.235   0.872   8.838  0.0070 -0.7400 -0.0771
 1180SOL    HW114999   4.207   0.942   8.898 -0.2830 -0.1437 -0.9020
 1180SOL    HW215000   4.183   0.896   8.761 -1.7018 -1.0305  0.9765
 1181SOL     OW15001   0.331   1.965   2.678  0.4517 -0.0258 -1.2559
 1181SOL    HW115002   0.406   1.929   2.629  1.2601 -0.3069  0.1927
 1181SOL    HW215003   0.318   2.052   2.641 -0.0351  0.7256  0.7376
 1182SOL     OW15004   1.708   2.519   3.583  0.5737 -0.0831 -0.3577
 1182SOL    HW115005   1.698   2.543   3.491  1.6506 -0.7402 -0.6447
 1182SOL    HW215006   1.715   2.424   3.575  0.3501 -0.1639  0.3951
 1183SOL     OW15007   2.726   3.443   9.655  0.0816  0.1550 -0.3507
 1183SOL    HW115008   2.665   3.369   9.654  2.0747 -1.5398  1.5466
 1183SOL    HW215009   2.799   3.396   9.614 -0.9269 -2.5454  0.9472
 1184SOL     OW15010   1.794   0.766   8.905  0.3837 -0.1696 -0.1077
 1184SOL    HW115011   1.801   0.858   8.880 -0.2835  0.3379  1.5640
 1184SOL    HW215012   1.708   0.772   8.946  0.1594  2.6287 -0.9466
 1185SOL     OW15013   3.811   2.297  17.288 -0.0633  0.3022  0.2302
 1185SOL    HW115014   3.797   2.347  17.207 -0.8953 -0.4934 -0.1180
 1185SOL    HW215015   3.781   2.358  17.355 -0.4829  1.3184 -0.8787
 1186SOL     OW15016   2.525   3.614  16.948  0.5408  0.5226 -0.4110
 1186SOL    HW115017   2.611   3.602  16.908  0.4703  0.5612 -0.5732
 1186SOL    HW215018   2.465   3.570  16.888  2.3050 -1.8873 -0.3845
 1187SOL     OW15019   2.664   2.155  10.094 -0.4291  0.4352 -0.7854
 1187SOL    HW115020   2.594   2.210  10.059 -1.4541 -0.2540  0.1755
 1187SOL    HW215021   2.737   2.211  10.068  0.6344 -0.9106 -0.6526
 1188SOL     OW15022   1.168   0.092   5.463 -0.1255  0.2087 -0.4094
 1188SOL    HW115023   1.226   0.015   5.463 -1.0998 -0.5116 -1.7737
 1188SOL    HW215024   1.098   0.060   5.407 -0.9930 -0.9130  1.3232
 1189SOL     OW15025   2.836   4.330   4.707  0.7582 -0.1408 -0.5913
 1189SOL    HW115026   2.826   4.246   4.752  0.3953 -1.6020 -3.3949
 1189SOL    HW215027   2.909   4.365   4.756  0.3062 -0.1452  0.0878
 1190SOL     OW15028   4.721   3.251   7.146 -0.5293 -0.1066  0.2324
 1190SOL    HW115029   4.678   3.192   7.085 -3.7104  2.3019  0.1812
 1190SOL    HW215030   0.070   3.196   7.178 -0.7124 -0.6620 -0.3393
 1191SOL     OW15031   0.914   0.934   7.883  0.1356  0.3984  0.2112
 1191SOL    HW115032   0.820   0.926   7.866  0.2591  1.8511 -1.2648
 1191SOL    HW215033   0.912   0.974   7.970  1.4253  1.5629 -0.2794
 1192SOL     OW15034   2.427   3.860  17.087  0.7407 -0.0923  0.2166
 1192SOL    HW115035   2.456   3.843  17.176 -1.6463  0.5698  1.1198
 1192SOL    HW215036   2.463   3.785  17.039  1.7184 -0.0330  0.8445
 1193SOL     OW15037   1.950   1.278   4.061 -0.2210  0.8592  0.3716
 1193SOL    HW115038   1.931   1.192   4.024 -1.6097  1.3172  0.0040
 1193SOL    HW215039   1.966   1.327   3.981 -0.2284  2.7980  1.5446
 1194SOL     OW15040   4.179   1.497   0.615  0.1080 -0.2900 -0.1330
 1194SOL    HW115041   4.116   1.433   0.581 -0.0188  0.2195 -0.8544
 1194SOL    HW215042   4.122   1.574   0.619 -0.3772 -0.7166  1.3467
 1195SOL     OW15043   4.472   0.514   6.045  0.2292  0.1555  0.1569
 1195SOL    HW115044   4.551   0.461   6.036 -1.6603 -2.6259 -0.0305
 1195SOL    HW215045   4.413   0.460   6.097  1.9187  0.5741  2.4941
 1196SOL     OW15046   0.199   3.856   6.439  0.5109  0.5466 -0.3668
 1196SOL    HW115047   0.156   3.892   6.361 -1.9659 -1.1103  0.2326
 1196SOL    HW215048   0.137   3.870   6.511  2.0069  0.5116  0.9238
 1197SOL     OW15049   2.885   0.693   0.344  0.0727 -1.2211  0.0165
 1197SOL    HW115050   2.833   0.628   0.297 -1.6235 -0.4065  0.8016
 1197SOL    HW215051   2.834   0.717   0.421  0.1483 -1.7347  0.2287
 1198SOL     OW15052   3.010   1.189  16.283  0.3047 -0.2979 -0.0318
 1198SOL    HW115053   3.065   1.227  16.352 -1.0297  0.7469  0.4492
 1198SOL    HW215054   2.930   1.195  16.336 -0.6247 -4.1168 -0.9890
 1199SOL     OW15055   1.860   2.752   5.713  0.1639  0.6081 -0.3394
 1199SOL    HW115056   1.932   2.751   5.776  1.0238 -0.6505 -1.3661
 1199SOL    HW215057   1.901   2.789   5.634  1.4648  0.2953  0.1922
 1200SOL     OW15058   1.112   2.519  11.225  0.4193 -0.3846  0.1968
 1200SOL    HW115059   1.020   2.538  11.243  1.2193  1.7415  1.9805
 1200SOL    HW215060   1.146   2.462  11.294  1.3570 -2.0827 -1.6663
 1201SOL     OW15061   0.009   1.790  13.455  0.3302  0.0738 -0.2885
 1201SOL    HW115062   4.637   1.781  13.452  0.1933  1.3528  0.3955
 1201SOL    HW215063   0.028   1.802  13.362 -0.5567  0.5142 -0.4097
 1202SOL     OW15064   0.756   2.391   7.011  0.0959 -0.2373 -0.0924
 1202SOL    HW115065   0.691   2.372   6.943  0.6229 -0.0025 -0.6650
 1202SOL    HW215066   0.771   2.485   7.007  2.2472 -0.4902  2.0536
 1203SOL     OW15067   1.607   1.785  10.732 -0.1046  0.1988 -0.3817
 1203SOL    HW115068   1.595   1.690  10.737  0.0605  0.2453  0.7987
 1203SOL    HW215069   1.665   1.800  10.806 -0.5253 -2.7404  0.5291
 1204SOL     OW15070   4.122   0.282   4.699  0.1792 -0.5073 -0.2492
 1204SOL    HW115071   4.086   0.274   4.788  0.1652 -2.1831 -0.4138
 1204SOL    HW215072   4.113   0.192   4.667 -0.2001 -1.5600  2.7484
 1205SOL     OW15073   3.165   1.716   2.922 -0.5131  0.0734 -0.1389
 1205SOL    HW115074   3.087   1.660   2.926  0.3861 -1.0388  2.2029
 1205SOL    HW215075   3.135   1.806   2.913  2.9063  1.3228  0.9309
 1206SOL     OW15076   2.735   2.060   4.776  0.0395  0.0228 -0.0674
 1206SOL    HW115077   2.757   2.113   4.700 -0.1593 -2.0163 -1.5685
 1206SOL    HW215078   2.640   2.070   4.783  0.0363  0.2896 -0.4929
 1207SOL     OW15079   1.528   4.655   1.585 -0.1297  0.0347 -0.3146
 1207SOL    HW115080   1.466   0.002   1.606 -1.3955 -2.2545  3.4370
 1207SOL    HW215081   1.518   4.579   1.642 -2.3757 -0.7284 -1.7415
 1208SOL     OW15082   2.524   0.892   3.250 -0.1201 -0.2495  0.2086
 1208SOL    HW115083   2.606   0.926   3.212 -0.1682 -2.2462 -1.6604
 1208SOL    HW215084   2.467   0.916   3.176 -1.6363 -1.7354  0.8988
 1209SOL     OW15085   1.121   4.718  15.628  0.0758  0.0988 -0.5542
 1209SOL    HW115086   1.149   0.087  15.625 -0.2000  0.1178 -2.5326
 1209SOL    HW215087   1.069   4.708  15.548 -0.5131 -1.7172  0.0637
 1210SOL     OW15088   3.327   3.472  17.538 -0.7652 -0.8225  0.1788
 1210SOL    HW115089   3.300   3.563  17.548 -0.7360 -0.8632  0.6411
 1210SOL    HW215090   3.244   3.431  17.563 -1.6407 -0.1255 -1.5614
 1211SOL     OW15091   4.626   3.199  10.939 -0.4380 -0.7123 -0.1014
 1211SOL    HW115092   4.696   3.196  11.004  0.1572  1.2071 -0.6589
 1211SOL    HW215093   4.657   3.124  10.889  1.4483  0.2110 -0.3037
 1212SOL     OW15094   3.081   2.770   5.258  0.5866  0.1195 -0.0857
 1212SOL    HW115095   3.090   2.746   5.351 -0.6138 -2.7490 -0.6929
 1212SOL    HW215096   3.085   2.865   5.267 -1.1964  0.0286  1.8160
 1213SOL     OW15097   1.167   1.724   8.883 -0.3956 -0.3354 -0.0560
 1213SOL    HW115098   1.208   1.756   8.964  0.0819 -1.2471  0.0677
 1213SOL    HW215099   1.221   1.775   8.822 -1.4162  2.1266  1.0970
 1214SOL     OW15100   3.714   2.714  13.140  0.0242 -0.5281  0.3999
 1214SOL    HW115101   3.775   2.706  13.214 -0.9703  0.8412  1.3497
 1214SOL    HW215102   3.773   2.760  13.080  0.0580  0.6733  1.3483
 1215SOL     OW15103   3.891   2.773   6.211  0.2703  0.0626 -0.0970
 1215SOL    HW115104   3.934   2.858   6.204 -1.0200  0.6751 -0.5630
 1215SOL    HW215105   3.820   2.791   6.272 -0.6505  0.3820 -1.2801
 1216SOL     OW15106   1.746   2.060   3.232 -0.2319  0.0856 -1.0242
 1216SOL    HW115107   1.787   1.978   3.261 -0.6022  0.7518  1.4054
 1216SOL    HW215108   1.824   2.108   3.206 -0.5436  1.7674  1.1777
 1217SOL     OW15109   0.226   1.958  17.479  0.0979 -0.0295  0.3211
 1217SOL    HW115110   0.194   2.048  17.475  1.4392  0.4330 -0.2710
 1217SOL    HW215111   0.300   1.977  17.537 -0.0501 -1.6343  1.0291
 1218SOL     OW15112   1.119   0.816   5.429 -0.4494 -0.0974  0.1124
 1218SOL    HW115113   1.073   0.848   5.351 -0.5979 -1.5819 -0.3957
 1218SOL    HW215114   1.078   0.733   5.451 -0.0266 -0.3960 -0.2423
 1219SOL     OW15115   0.504   1.677   2.298 -0.3732  0.3854 -0.1211
 1219SOL    HW115116   0.505   1.610   2.366 -1.5674  1.3704  0.8616
 1219SOL    HW215117   0.596   1.705   2.299 -0.7380  1.5608  1.2112
 1220SOL     OW15118   0.822   3.918   2.628 -0.2343 -0.8714 -0.3165
 1220SOL    HW115119   0.743   3.912   2.682 -0.2143  1.0167 -0.0756
 1220SOL    HW215120   0.855   3.828   2.628  1.6667 -0.1836  3.6538
 1221SOL     OW15121   1.755   1.824   1.855  0.1587 -0.1328 -0.5715
 1221SOL    HW115122   1.753   1.893   1.922  1.4753 -0.7455  0.0986
 1221SOL    HW215123   1.788   1.877   1.783  1.1991  1.9077  1.4136
 1222SOL     OW15124   3.506   3.957   4.029 -0.4373  0.2824  0.1477
 1222SOL    HW115125   3.523   3.947   4.123  0.3816 -0.3215 -0.0614
 1222SOL    HW215126   3.585   4.011   4.018  1.9764 -3.1226  0.6248
 1223SOL     OW15127   0.967   3.961   5.442  0.0902 -0.6770 -0.2914
 1223SOL    HW115128   0.905   3.939   5.372 -0.3287 -0.1831 -0.0739
 1223SOL    HW215129   1.024   3.884   5.434  0.8877  0.0334 -1.5437
 1224SOL     OW15130   3.266   0.770   3.748 -0.4512 -0.0201  0.4909
 1224SOL    HW115131   3.352   0.733   3.766 -1.7731 -3.4238 -0.0909
 1224SOL    HW215132   3.202   0.699   3.760  0.1894 -1.1493 -2.9489
 1225SOL     OW15133   3.466   4.152  13.989  0.7531  0.2657  0.1623
 1225SOL    HW115134   3.535   4.213  14.012 -0.3665  1.0889  1.3856
 1225SOL    HW215135   3.457   4.093  14.064  1.8576 -1.0809 -0.7655
 1226SOL     OW15136   2.535   0.029   7.598 -0.3809 -0.8196  0.1282
 1226SOL    HW115137   2.569   0.117   7.582  1.3691 -1.1714  1.8992
 1226SOL    HW215138   2.449   0.055   7.629 -1.1061 -3.8693  0.6717
 1227SOL     OW15139   0.570   4.403   6.029  0.2635  0.5981 -0.0521
 1227SOL    HW115140   0.542   4.369   5.944 -0.2048 -1.2741  0.8434
 1227SOL    HW215141   0.664   4.399   6.015  0.0975  0.0619 -1.0098
 1228SOL     OW15142   2.706   0.292  10.028  0.2522  0.4572 -0.2996
 1228SOL    HW115143   2.658   0.346   9.965 -0.1324 -2.4195 -2.4937
 1228SOL    HW215144   2.665   0.207  10.010 -2.8119  1.8716 -0.1327
 1229SOL     OW15145   3.975   1.883   0.357  0.1057  0.2323  0.3587
 1229SOL    HW115146   3.999   1.858   0.268  0.7394 -1.2129  0.9418
 1229SOL    HW215147   3.882   1.902   0.344 -0.1500 -1.8471 -0.8348
 1230SOL     OW15148   2.177   2.022   1.302  0.1404  0.0114  0.1997
 1230SOL    HW115149   2.107   1.970   1.343 -0.8075 -0.0775 -1.5552
 1230SOL    HW215150   2.236   1.962   1.256  0.4293  0.1178  0.4281
 1231SOL     OW15151   3.420   1.758   2.096  0.2705  0.2092 -0.2838
 1231SOL    HW115152   3.436   1.789   2.185 -0.7244  1.2678 -0.4611
 1231SOL    HW215153   3.496   1.789   2.047 -0.5655  0.1422 -1.6186
 1232SOL     OW15154   0.019   0.886   8.931  0.4335  0.5138 -0.1842
 1232SOL    HW115155   4.678   0.912   8.865 -0.0407  1.5774  0.6926
 1232SOL    HW215156   4.700   0.867   9.015 -2.6045  2.4270 -1.2718
 1233SOL     OW15157   3.767   1.429   3.279  0.4160  0.0909 -1.1752
 1233SOL    HW115158   3.695   1.366   3.279  0.3308  0.2109  2.1285
 1233SOL    HW215159   3.841   1.368   3.280  2.3635  2.4726  0.3868
 1234SOL     OW15160   1.457   1.300  15.550 -0.7607 -0.6965  0.5791
 1234SOL    HW115161   1.540   1.253  15.559 -0.6929 -1.0886 -1.9173
 1234SOL    HW215162   1.426   1.284  15.639 -0.6259 -3.3494  0.1552
 1235SOL     OW15163   4.106   3.463   7.108 -0.1484  0.2053 -0.3734
 1235SOL    HW115164   4.158   3.442   7.031 -0.2684 -1.0148 -0.1205
 1235SOL    HW215165   4.171   3.519   7.151  1.5025 -1.9716 -0.0630
 1236SOL     OW15166   2.755   1.366   6.692 -0.5972 -0.0172 -0.1092
 1236SOL    HW115167   2.747   1.275   6.662  1.2457 -0.7401  1.5865
 1236SOL    HW215168   2.708   1.362   6.775  3.3907 -0.4935  2.1468
 1237SOL     OW15169   4.523   3.128   0.408  0.5283  0.2077  0.1601
 1237SOL    HW115170   4.551   3.199   0.465  0.4173 -0.3354  0.8831
 1237SOL    HW215171   4.585   3.136   0.335 -1.3204  0.5535 -1.3955
 1238SOL     OW15172   4.036   4.636   5.233 -0.3799 -0.2004  0.2588
 1238SOL    HW115173   3.972   4.594   5.176 -2.7975 -0.1946  2.9649
 1238SOL    HW215174   3.985   4.712   5.260 -1.2277 -1.0290  0.9782
 1239SOL     OW15175   3.891   2.629   2.490 -0.2132  0.5584  0.1240
 1239SOL    HW115176   3.888   2.617   2.396  0.6227  0.0485  0.1686
 1239SOL    HW215177   3.802   2.660   2.510 -0.8953 -0.1834 -1.8299
 1240SOL     OW15178   1.770   1.482  14.031  0.0205  0.0266  0.3312
 1240SOL    HW115179   1.863   1.457  14.036 -0.3809 -1.3216  0.8945
 1240SOL    HW215180   1.764   1.498  13.937  1.7347  1.4177  0.4405
 1241SOL     OW15181   1.806   0.661   7.852  0.2488 -0.3612 -0.0781
 1241SOL    HW115182   1.863   0.586   7.834  1.5888  0.6021  0.1454
 1241SOL    HW215183   1.869   0.718   7.895  1.5218  0.2420 -2.7732
 1242SOL     OW15184   4.174   1.297   6.396 -0.1453  0.2446  0.6438
 1242SOL    HW115185   4.083   1.325   6.384 -0.1079  0.6497  1.2781
 1242SOL    HW215186   4.162   1.203   6.384  0.3075  0.3255 -0.4656
 1243SOL     OW15187   3.294   4.073   5.337 -1.0026 -0.0813 -0.2621
 1243SOL    HW115188   3.353   4.050   5.408 -0.3041  0.0106 -0.8188
 1243SOL    HW215189   3.208   4.050   5.372 -1.3277  1.8817  0.2346
 1244SOL     OW15190   0.510   1.486   7.744 -0.5147 -0.5311  0.4315
 1244SOL    HW115191   0.577   1.433   7.788  1.3140 -0.5752 -2.4316
 1244SOL    HW215192   0.540   1.574   7.769 -1.3905  0.0723 -0.6100
 1245SOL     OW15193   0.308   3.692  14.512 -0.1992 -0.2386  0.4062
 1245SOL    HW115194   0.308   3.628  14.442 -1.9111 -0.4027  0.5671
 1245SOL    HW215195   0.387   3.745  14.500 -0.7243  0.5595  0.4969
 1246SOL     OW15196   4.317   2.638   7.812  0.2059 -0.8064  0.6314
 1246SOL    HW115197   4.381   2.689   7.861 -0.7716  0.0724  0.9775
 1246SOL    HW215198   4.270   2.606   7.889 -2.6167 -1.8611 -1.5003
 1247SOL     OW15199   2.188   1.592   0.494 -0.1263  0.5091  0.6701
 1247SOL    HW115200   2.221   1.610   0.406 -0.7934  1.2078  0.5571
 1247SOL    HW215201   2.142   1.676   0.501  0.6541  0.9736  0.2687
 1248SOL     OW15202   2.705   0.755  12.931 -0.0813 -0.0231 -0.3978
 1248SOL    HW115203   2.761   0.686  12.966  0.3199  0.0172 -0.9695
 1248SOL    HW215204   2.625   0.756  12.983  0.2362  1.6703  0.0925
 1249SOL     OW15205   1.737   2.403   1.426  0.8591  0.1004 -0.1288
 1249SOL    HW115206   1.827   2.434   1.415  1.0070  0.1311  1.2788
 1249SOL    HW215207   1.682   2.481   1.427 -0.1238 -0.5520 -1.7321
 1250SOL     OW15208   0.992   3.495   0.525  0.1906  0.3832 -0.3242
 1250SOL    HW115209   0.972   3.588   0.518 -0.3572  0.1611 -1.6117
 1250SOL    HW215210   0.911   3.447   0.544  0.0003  1.1043  0.7084
 1251SOL     OW15211   0.485   3.072   6.232 -0.0866  0.1478 -0.9974
 1251SOL    HW115212   0.460   3.053   6.323  1.6920  0.4152 -0.4669
 1251SOL    HW215213   0.504   3.165   6.233  0.9949 -0.0838  0.2757
 1252SOL     OW15214   4.379   2.221   2.377 -0.5273  0.2185  0.3670
 1252SOL    HW115215   4.458   2.196   2.425  0.1718  2.0569  0.1948
 1252SOL    HW215216   4.345   2.134   2.355 -1.2095  0.3907  0.7297
 1253SOL     OW15217   0.320   3.161  10.508 -0.0289  0.0192  0.0191
 1253SOL    HW115218   0.344   3.208  10.428 -2.5975  0.0170 -0.7482
 1253SOL    HW215219   0.391   3.184  10.569  0.5335  1.7033 -1.2648
 1254SOL     OW15220   1.744   0.997   6.959  0.4838  0.2195 -0.5007
 1254SOL    HW115221   1.679   0.978   6.891 -0.6862 -0.5117  0.8165
 1254SOL    HW215222   1.818   0.956   6.913 -1.6751 -0.0672 -3.7461
 1255SOL     OW15223   4.463   1.967   3.649  0.1493 -0.0865  0.4291
 1255SOL    HW115224   4.547   1.987   3.689 -0.6371 -0.0986  2.0826
 1255SOL    HW215225   4.477   1.985   3.556  0.5495 -0.4566  0.4193
 1256SOL     OW15226   3.223   0.012   4.516  0.1800 -0.1388 -0.5551
 1256SOL    HW115227   3.201   4.647   4.483 -2.5457 -0.2871  1.6415
 1256SOL    HW215228   3.318   0.007   4.509  0.3689  3.3742 -0.4513
 1257SOL     OW15229   2.053   3.298   8.638  0.3522  0.1684  0.0954
 1257SOL    HW115230   2.078   3.377   8.685  0.8988 -1.0164  1.8187
 1257SOL    HW215231   2.133   3.245   8.634 -0.3006 -0.5551 -3.3582
 1258SOL     OW15232   4.024   1.276   9.343  0.4966  0.4143  0.0235
 1258SOL    HW115233   3.953   1.276   9.407 -1.8033  0.0925 -2.5698
 1258SOL    HW215234   4.036   1.181   9.337  1.8855  0.5760  0.2931
 1259SOL     OW15235   4.331   2.373   4.763  0.2068 -0.6472  0.5737
 1259SOL    HW115236   4.269   2.362   4.835  1.0703 -0.7070  1.3181
 1259SOL    HW215237   4.279   2.413   4.695  0.7954  0.1171  0.5749
 1260SOL     OW15238   4.247   2.816   0.220  0.3559 -0.4351  0.2396
 1260SOL    HW115239   4.323   2.861   0.258  0.2447  0.6790 -0.8656
 1260SOL    HW215240   4.289   2.761   0.153 -0.4124  0.4796 -0.9812
 1261SOL     OW15241   3.750   0.614   7.378 -0.3170 -0.5890 -0.2494
 1261SOL    HW115242   3.677   0.555   7.360 -1.7240  0.9012  0.6110
 1261SOL    HW215243   3.768   0.667   7.299 -1.8116  1.3691  0.7329
 1262SOL     OW15244   0.991   1.831  14.121 -0.0089 -0.8338 -0.2251
 1262SOL    HW115245   0.908   1.800  14.087  0.3558  0.8068 -2.6194
 1262SOL    HW215246   1.045   1.855  14.046 -1.4727  2.8747 -0.0996
 1263SOL     OW15247   4.357   2.310   6.796  0.6835 -0.1824 -0.4458
 1263SOL    HW115248   4.276   2.350   6.830 -0.6153 -1.5716 -1.8993
 1263SOL    HW215249   4.329   2.221   6.816  1.3684  0.2280  2.4100
 1264SOL     OW15250   3.550   3.479   7.768  0.4259 -0.6297 -0.8730
 1264SOL    HW115251   3.503   3.399   7.746 -0.6271 -0.4637  0.7814
 1264SOL    HW215252   3.573   3.445   7.855  2.4462  0.4582 -0.9777
 1265SOL     OW15253   0.144   1.931   5.681 -1.5505 -0.6194  0.0798
 1265SOL    HW115254   0.189   2.002   5.726 -0.3011 -1.6946  0.5278
 1265SOL    HW215255   0.154   1.866   5.750 -0.8833  0.8259  1.3396
 1266SOL     OW15256   2.772   1.056  14.596  0.0493  0.3099 -0.4092
 1266SOL    HW115257   2.823   1.120  14.645  0.6973 -0.6071  0.1256
 1266SOL    HW215258   2.835   1.024  14.532  0.1724  3.8460 -2.0451
 1267SOL     OW15259   2.391   3.721   8.884  0.1839  0.0095  0.7018
 1267SOL    HW115260   2.390   3.727   8.979  0.5218 -0.5756  0.7417
 1267SOL    HW215261   2.362   3.807   8.852  1.4831  0.2164  0.1073
 1268SOL     OW15262   2.480   1.261   7.341 -0.4194  0.3103 -0.7777
 1268SOL    HW115263   2.490   1.175   7.383 -0.9651  0.1840 -0.9040
 1268SOL    HW215264   2.389   1.256   7.312 -0.1890 -1.3070 -1.2706
 1269SOL     OW15265   0.023   3.142  10.533  0.4859 -0.8131  0.8163
 1269SOL    HW115266   0.119   3.146  10.531  0.3369  0.6297 -2.8998
 1269SOL    HW215267   4.717   3.096  10.612  0.4533  1.7305  2.2999
 1270SOL     OW15268   2.727   3.029   4.609 -0.0891 -0.5372  0.0151
 1270SOL    HW115269   2.770   3.098   4.557  1.5604 -1.1165  0.6001
 1270SOL    HW215270   2.737   2.948   4.559 -0.5482 -0.3648 -0.3617
 1271SOL     OW15271   2.783   3.813  17.523  0.6266 -0.5498  0.1809
 1271SOL    HW115272   2.798   3.812  17.428 -1.7608 -1.5507 -0.1702
 1271SOL    HW215273   2.710   3.874  17.524  0.8484 -0.2454 -1.5921
 1272SOL     OW15274   0.698   3.815   8.213 -0.7312 -0.6306 -0.4230
 1272SOL    HW115275   0.704   3.725   8.245 -1.5004  0.1054  1.7862
 1272SOL    HW215276   0.754   3.858   8.276  0.0481  1.2221 -2.4031
 1273SOL     OW15277   4.210   2.127   5.800 -0.5941  0.4372  0.1151
 1273SOL    HW115278   4.296   2.161   5.775 -0.5051 -0.2876 -0.5546
 1273SOL    HW215279   4.142   2.192   5.783  1.0869  2.4848  1.3569
 1274SOL     OW15280   3.519   0.973   6.665 -0.0465  0.6770 -0.1921
 1274SOL    HW115281   3.487   0.883   6.663 -3.6177  1.8890  0.3601
 1274SOL    HW215282   3.552   0.988   6.577 -1.9790  0.1201 -1.0078
 1275SOL     OW15283   4.615   0.525   5.750 -0.3548 -0.1265  0.2534
 1275SOL    HW115284   4.695   0.548   5.797  0.6870 -0.8374 -1.1719
 1275SOL    HW215285   4.620   0.431   5.765  1.1707  0.3727  2.9055
 1276SOL     OW15286   0.632   3.133  11.634 -0.6103  0.1802  0.4076
 1276SOL    HW115287   0.585   3.088  11.704  0.8297  0.9492  1.8641
 1276SOL    HW215288   0.690   3.062  11.606  0.9984  2.2148 -1.3795
 1277SOL     OW15289   3.121   0.061  12.080 -0.3594  0.4605 -0.1834
 1277SOL    HW115290   3.216   0.045  12.081 -0.3819  0.3265 -0.1722
 1277SOL    HW215291   3.091   4.714  12.021  1.5173  0.1148 -0.7642
 1278SOL     OW15292   0.355   2.863   2.296  0.0759 -0.5298 -0.2990
 1278SOL    HW115293   0.404   2.945   2.305 -0.4331 -0.2334 -0.1994
 1278SOL    HW215294   0.351   2.838   2.388 -2.3492  2.7709  0.5112
 1279SOL     OW15295   3.157   4.555  13.547  0.5423 -0.0077 -0.3105
 1279SOL    HW115296   3.083   4.552  13.608  1.5068  0.6060  0.8804
 1279SOL    HW215297   3.107   4.531  13.468  0.3916  0.4116 -0.3413
 1280SOL     OW15298   4.694   1.070   6.348  0.1476 -0.0593 -0.0820
 1280SOL    HW115299   4.644   1.078   6.267  1.7647  0.7353 -1.0084
 1280SOL    HW215300   0.036   1.007   6.315  0.5432 -0.5368  1.6074
 1281SOL     OW15301   3.203   4.197   7.411 -0.4932  0.2405  0.1162
 1281SOL    HW115302   3.145   4.169   7.340  0.0024  0.8164 -0.5188
 1281SOL    HW215303   3.162   4.146   7.481  0.2539 -0.8656 -0.2390
 1282SOL     OW15304   0.170   4.081  14.281  0.1673 -0.4762  0.1722
 1282SOL    HW115305   0.233   4.054  14.348 -0.5681 -1.4781  0.4605
 1282SOL    HW215306   0.225   4.112  14.209  1.5779 -1.6646  0.7338
 1283SOL     OW15307   4.475   4.391   6.378 -0.2153  0.1807  0.1307
 1283SOL    HW115308   4.421   4.467   6.359 -2.5311 -0.6604  3.3111
 1283SOL    HW215309   4.544   4.433   6.431 -0.6305 -2.2165  2.5789
 1284SOL     OW15310   0.225   3.906  10.617  0.0568  0.5388 -0.8527
 1284SOL    HW115311   0.244   3.916  10.711 -1.7009 -3.5699 -0.0627
 1284SOL    HW215312   0.152   3.966  10.601 -0.1430  0.4405 -0.3203
 1285SOL     OW15313   4.104   2.538   2.079  0.1393  0.4150 -0.4781
 1285SOL    HW115314   4.086   2.571   1.990  2.7844 -0.9514 -1.5065
 1285SOL    HW215315   4.194   2.507   2.073  0.5208  1.7307 -1.8146
 1286SOL     OW15316   0.350   3.833   9.870  0.5685 -0.1593  0.6837
 1286SOL    HW115317   0.305   3.891   9.931 -1.9044 -0.0053 -1.2928
 1286SOL    HW215318   0.333   3.858   9.780  1.8176  0.4222  0.6123
 1287SOL     OW15319   3.747   4.379  15.183  0.9667  0.0625  0.1106
 1287SOL    HW115320   3.753   4.329  15.265 -0.1239  2.3514  1.5896
 1287SOL    HW215321   3.656   4.410  15.183  0.6960 -0.7290 -0.8761
 1288SOL     OW15322   0.848   3.309   4.319 -0.3519  0.2384 -0.0786
 1288SOL    HW115323   0.839   3.247   4.247  1.0116 -1.9556  1.6301
 1288SOL    HW215324   0.894   3.385   4.284 -0.4680  1.2218  1.8615
 1289SOL     OW15325   2.760   4.076   6.167 -0.0071 -0.1584  0.0912
 1289SOL    HW115326   2.811   4.018   6.224  0.7895  0.8774  0.4311
 1289SOL    HW215327   2.828   4.140   6.144  0.1676 -0.4864 -0.3148
 1290SOL     OW15328   2.460   1.236   1.813  0.1197  0.4474  0.7197
 1290SOL    HW115329   2.385   1.256   1.869 -0.6322 -0.6319  0.0922
 1290SOL    HW215330   2.500   1.156   1.845 -0.5880 -0.9829 -1.9436
 1291SOL     OW15331   1.393   3.917  10.376 -0.3758 -0.9738 -0.2242
 1291SOL    HW115332   1.370   3.946  10.288 -2.4810  0.1207  0.6775
 1291SOL    HW215333   1.464   3.976  10.402  1.3063 -2.9991 -0.2642
 1292SOL     OW15334   3.344   0.458   7.717  0.2532 -0.8113  0.1222
 1292SOL    HW115335   3.342   0.407   7.636 -1.3233  1.0451 -1.0088
 1292SOL    HW215336   3.387   0.542   7.699 -3.2482  1.3430  1.7096
 1293SOL     OW15337   0.433   0.983  16.596 -0.3724 -0.0221  0.5911
 1293SOL    HW115338   0.501   1.016  16.654  0.4067  0.0038 -0.3397
 1293SOL    HW215339   0.381   0.943  16.665  0.6290 -1.3315  0.5917
 1294SOL     OW15340   3.681   1.323   2.054  0.6730 -0.6586  0.0110
 1294SOL    HW115341   3.772   1.347   2.069  0.1810  0.4760  1.1724
 1294SOL    HW215342   3.665   1.317   1.960 -3.0452 -0.9751  0.6563
 1295SOL     OW15343   0.941   3.508   2.066 -0.0996 -0.5241  0.0243
 1295SOL    HW115344   0.962   3.478   1.977  1.7587 -1.9943  0.9414
 1295SOL    HW215345   0.854   3.468   2.075 -0.4679  0.5789  1.2461
 1296SOL     OW15346   0.743   0.779   4.517  0.3510  0.7397 -0.0670
 1296SOL    HW115347   0.685   0.777   4.593  1.0171  1.0072  0.4440
 1296SOL    HW215348   0.826   0.760   4.561 -0.2605  0.2383  0.8605
 1297SOL     OW15349   3.836   2.495   8.673 -0.8220  0.2721 -0.0272
 1297SOL    HW115350   3.885   2.436   8.615  0.7261 -0.5273  2.0878
 1297SOL    HW215351   3.892   2.491   8.751  1.2208 -1.0664 -1.5598
 1298SOL     OW15352   3.935   1.647   3.183  0.2555  0.7591 -0.3593
 1298SOL    HW115353   3.935   1.623   3.091  0.7491 -0.2522 -0.0902
 1298SOL    HW215354   3.870   1.583   3.212 -0.7188  2.1973  0.6534
 1299SOL     OW15355   2.297   4.548   4.455  0.3736 -0.1685 -0.8112
 1299SOL    HW115356   2.321   4.637   4.429  3.8805 -0.0399  2.9563
 1299SOL    HW215357   2.223   4.560   4.515  0.6833  0.7986 -0.6228
 1300SOL     OW15358   1.092   0.202   9.021  0.5802 -0.1773  0.0057
 1300SOL    HW115359   1.004   0.204   9.057  0.2218 -0.4321 -0.8504
 1300SOL    HW215360   1.150   0.192   9.097  2.2480  0.9664 -1.1130
 1301SOL     OW15361   2.328   1.694   6.022 -0.4208  0.2972  0.4314
 1301SOL    HW115362   2.313   1.703   6.116 -0.4725  0.6879  0.3866
 1301SOL    HW215363   2.313   1.786   6.000 -0.5203 -0.0712 -1.0394
 1302SOL     OW15364   2.027   2.407  10.844 -0.2772  0.1102  0.3172
 1302SOL    HW115365   2.112   2.448  10.855 -1.0175  1.6213  0.4836
 1302SOL    HW215366   2.026   2.369  10.756 -1.1736  0.7830  0.0346
 1303SOL     OW15367   0.741   3.799   4.840  0.3033  0.3469 -0.6521
 1303SOL    HW115368   0.730   3.891   4.817  2.1775  0.0250 -2.8872
 1303SOL    HW215369   0.717   3.800   4.933 -1.4304 -0.1971 -1.0752
 1304SOL     OW15370   1.280   4.275   7.961  0.2703 -0.6896 -0.1098
 1304SOL    HW115371   1.375   4.285   7.957  0.6819 -3.1777  3.6138
 1304SOL    HW215372   1.281   4.186   7.996 -0.0335 -0.3567  0.7381
 1305SOL     OW15373   2.836   1.738   3.456  0.8197 -0.0533  0.4089
 1305SOL    HW115374   2.910   1.676   3.456  2.1492  1.5058 -0.4057
 1305SOL    HW215375   2.829   1.762   3.548  0.9512 -0.1788  0.4527
 1306SOL     OW15376   3.340   1.040   2.515  0.4270 -0.4246 -0.0930
 1306SOL    HW115377   3.317   1.058   2.424 -1.1819 -0.7074  0.2555
 1306SOL    HW215378   3.288   1.099   2.569  1.4324 -0.4619  0.9290
 1307SOL     OW15379   4.397   2.945  10.125  0.1033  0.0739 -0.2019
 1307SOL    HW115380   4.368   2.900  10.046 -0.4636  0.9945 -0.5137
 1307SOL    HW215381   4.401   2.874  10.190  0.1710  0.2764  0.0164
 1308SOL     OW15382   3.112   3.540   9.747  0.4434 -0.2249  0.5504
 1308SOL    HW115383   3.050   3.485   9.697  0.5775 -0.1879  0.3455
 1308SOL    HW215384   3.170   3.471   9.779 -0.4306 -1.7834 -1.1914
 1309SOL     OW15385   1.610   1.122   8.633 -0.0020  0.1414 -0.1422
 1309SOL    HW115386   1.616   1.216   8.648 -1.0687 -0.0967  1.8862
 1309SOL    HW215387   1.536   1.118   8.572  0.8097 -0.3942 -1.0880
 1310SOL     OW15388   0.152   3.393   5.858 -0.0722  0.1206  0.5016
 1310SOL    HW115389   0.069   3.367   5.898  0.2116 -2.3163 -0.4613
 1310SOL    HW215390   0.166   3.335   5.783 -1.6607  0.8025 -0.3115
 1311SOL     OW15391   1.803   4.643   3.941  0.2111 -0.8408  0.2628
 1311SOL    HW115392   1.714   4.622   3.915  0.4404  0.7336 -1.8082
 1311SOL    HW215393   1.860   4.583   3.893 -0.3824  0.0748 -1.5935
 1312SOL     OW15394   0.607   3.041  17.222  0.1267 -0.2106  0.3678
 1312SOL    HW115395   0.684   3.092  17.249 -0.1376 -0.2798  1.2471
 1312SOL    HW215396   0.638   2.957  17.257 -0.2778 -0.1705  0.8106
 1313SOL     OW15397   3.092   3.776   6.308 -0.0989 -0.3433 -0.5282
 1313SOL    HW115398   3.102   3.825   6.226  1.4536 -0.6034 -0.4825
 1313SOL    HW215399   3.071   3.691   6.269 -0.6245 -1.1987  1.6448
 1314SOL     OW15400   4.691   4.026  16.111  0.0154  0.0064  0.0807
 1314SOL    HW115401   0.058   4.025  16.077 -0.8945 -2.4224 -2.1953
 1314SOL    HW215402   4.692   4.114  16.149  1.9046 -0.1048  0.3030
 1315SOL     OW15403   0.219   4.138  11.429 -0.9194 -0.1446 -0.0460
 1315SOL    HW115404   0.198   4.182  11.347  2.2058  2.3492  0.5397
 1315SOL    HW215405   0.172   4.055  11.416 -1.4023  0.1927 -0.4446
 1316SOL     OW15406   0.116   1.503   6.090 -0.2840  0.3859  0.0818
 1316SOL    HW115407   0.022   1.492   6.074 -0.2743 -1.1723  1.0924
 1316SOL    HW215408   0.154   1.514   6.003  1.1622  0.0662  0.6700
 1317SOL     OW15409   4.406   2.418   3.680  0.5667 -0.5983  0.1216
 1317SOL    HW115410   4.418   2.476   3.604 -3.8150  0.2828  0.0780
 1317SOL    HW215411   4.495   2.383   3.680  0.8414  0.0894  0.1408
 1318SOL     OW15412   1.078   1.787  14.610  0.4689 -0.0028  0.7098
 1318SOL    HW115413   1.082   1.770  14.515  0.1081  0.8928  0.5399
 1318SOL    HW215414   1.173   1.798  14.617  0.3086  0.1253  2.5852
 1319SOL     OW15415   3.649   2.864   4.805 -0.2494  0.2770 -0.1595
 1319SOL    HW115416   3.733   2.827   4.778 -0.5158 -1.1662  0.9881
 1319SOL    HW215417   3.629   2.805   4.877  3.0089 -0.5030  0.0974
 1320SOL     OW15418   2.166   4.507   9.644  0.0221  0.5552 -0.2882
 1320SOL    HW115419   2.170   4.525   9.550 -0.3489  0.7350 -0.2708
 1320SOL    HW215420   2.258   4.499   9.669  0.6499 -0.2543 -2.8686
 1321SOL     OW15421   3.452   2.072  10.732 -0.2912  0.1982  0.1247
 1321SOL    HW115422   3.506   2.149  10.752  3.2260 -1.7751 -1.8496
 1321SOL    HW215423   3.372   2.118  10.707 -0.1160  1.7844  2.4772
 1322SOL     OW15424   1.844   0.421   4.855  0.0518 -0.0820 -0.1484
 1322SOL    HW115425   1.819   0.496   4.800  1.2074 -0.6237 -1.4077
 1322SOL    HW215426   1.895   0.373   4.790  0.8885  2.3703 -1.3278
 1323SOL     OW15427   4.003   1.298   3.793 -0.5584 -0.0972  0.0531
 1323SOL    HW115428   3.995   1.298   3.888 -0.5876 -0.7128  0.0481
 1323SOL    HW215429   4.032   1.388   3.775 -1.6475  0.5483  1.4515
 1324SOL     OW15430   1.867   4.626   5.697 -0.2269  0.1443 -0.6984
 1324SOL    HW115431   1.920   4.613   5.776  1.1684 -2.0812 -1.9683
 1324SOL    HW215432   1.785   4.656   5.736 -1.1141 -1.6639 -1.1543
 1325SOL     OW15433   1.587   3.222   4.000  0.8369 -0.8590  0.3475
 1325SOL    HW115434   1.535   3.299   4.024  1.8993 -0.2323  0.6292
 1325SOL    HW215435   1.534   3.178   3.933 -2.0605  0.6537  1.6444
 1326SOL     OW15436   2.996   0.800   6.650  0.0303  0.5135 -0.4337
 1326SOL    HW115437   2.976   0.880   6.602  1.1691 -0.0474 -1.8570
 1326SOL    HW215438   2.909   0.776   6.681  0.2052  0.4157 -0.0119
 1327SOL     OW15439   1.045   4.089   2.610 -0.1498  0.2152  0.5108
 1327SOL    HW115440   1.000   4.006   2.627  0.5426 -0.2576  0.0312
 1327SOL    HW215441   1.027   4.131   2.695 -2.9295 -2.0615  1.0422
 1328SOL     OW15442   0.853   4.345   5.180 -0.7894  0.2824  0.6390
 1328SOL    HW115443   0.869   4.265   5.131  2.7845  0.7333  1.0394
 1328SOL    HW215444   0.840   4.307   5.266  2.6172  0.2431  1.1333
 1329SOL     OW15445   2.451   0.849  10.709 -0.8036 -0.1200  0.0605
 1329SOL    HW115446   2.443   0.795  10.788 -2.0610  1.9310  1.3309
 1329SOL    HW215447   2.540   0.828  10.681 -0.7769 -2.0738  1.6093
 1330SOL     OW15448   1.770   1.791   7.161 -0.2570  0.2322 -0.1438
 1330SOL    HW115449   1.830   1.846   7.213 -2.1375  0.7327  1.4959
 1330SOL    HW215450   1.824   1.775   7.084 -1.4139 -0.7608 -0.7368
 1331SOL     OW15451   2.444   4.172   8.987 -0.2474  0.0867 -0.0574
 1331SOL    HW115452   2.512   4.137   8.929 -0.5714 -2.3915  1.0473
 1331SOL    HW215453   2.445   4.262   8.957  1.6263  0.0232 -0.2114
 1332SOL     OW15454   0.755   2.480   8.152  0.6259  0.5354  0.2947
 1332SOL    HW115455   0.805   2.443   8.079  0.0375 -0.2013  0.2626
 1332SOL    HW215456   0.797   2.426   8.219  1.2167 -2.4978 -2.5175
 1333SOL     OW15457   3.943   1.258   7.712  0.1223 -0.6091 -0.7214
 1333SOL    HW115458   3.861   1.300   7.686 -0.4219 -0.8256  0.6895
 1333SOL    HW215459   4.005   1.314   7.664  1.7696  0.6581  2.9148
 1334SOL     OW15460   3.460   1.039   8.444 -0.2913  0.0894  0.3583
 1334SOL    HW115461   3.450   1.004   8.355 -0.1820  1.9086 -0.3701
 1334SOL    HW215462   3.552   1.064   8.435 -1.1317  2.8879 -0.4862
 1335SOL     OW15463   1.412   3.057  17.036 -0.1620 -0.0624  0.0981
 1335SOL    HW115464   1.343   3.118  17.010 -2.1586 -3.4400 -2.4590
 1335SOL    HW215465   1.465   3.123  17.081  0.1901 -0.3103  0.0461
 1336SOL     OW15466   0.402   1.037   6.042 -0.4232  0.3295 -0.0158
 1336SOL    HW115467   0.369   1.124   6.064  0.9176  0.9521 -0.4811
 1336SOL    HW215468   0.318   0.993   6.048  0.0457 -0.6542 -0.7184
 1337SOL     OW15469   1.470   1.072   1.597  0.0193 -0.7329 -0.4235
 1337SOL    HW115470   1.484   1.067   1.692 -0.0647  0.0806 -0.3686
 1337SOL    HW215471   1.530   1.141   1.569 -1.2621  0.1264 -0.9952
 1338SOL     OW15472   1.236   3.162   5.873  0.6545 -0.7816 -0.0489
 1338SOL    HW115473   1.146   3.150   5.845  1.2261 -1.9918 -1.3459
 1338SOL    HW215474   1.277   3.133   5.792 -1.0561  1.2949 -1.6682
 1339SOL     OW15475   3.102   0.996   9.955 -0.5162 -0.3155 -0.8173
 1339SOL    HW115476   3.049   0.916   9.956 -1.2022  0.1478  0.0167
 1339SOL    HW215477   3.043   1.050  10.008 -0.2242  0.6803 -1.5098
 1340SOL     OW15478   4.579   3.820  12.036 -0.0553  0.1839 -0.1252
 1340SOL    HW115479   4.498   3.769  12.037  0.0874  0.0329  2.4261
 1340SOL    HW215480   4.561   3.876  11.960  1.3952 -0.6722 -1.0946
 1341SOL     OW15481   3.648   1.926  12.273 -0.1494  0.8429 -0.4118
 1341SOL    HW115482   3.733   1.942  12.314 -1.9272  1.8931  2.8418
 1341SOL    HW215483   3.692   1.919  12.189 -0.2498  3.3982 -0.6727
 1342SOL     OW15484   0.638   2.979   0.608  0.4208 -0.1428 -0.3460
 1342SOL    HW115485   0.615   2.992   0.516  1.8139 -0.1273 -0.6841
 1342SOL    HW215486   0.733   2.985   0.601  0.3963 -2.2643 -2.4206
 1343SOL     OW15487   4.229   4.264   4.372 -0.0195 -0.3953 -0.4376
 1343SOL    HW115488   4.231   4.290   4.280 -2.1102 -1.6330 -0.8447
 1343SOL    HW215489   4.219   4.168   4.373 -0.1609 -0.3875 -0.8586
 1344SOL     OW15490   3.266   1.038   1.802 -0.5031  0.2052 -0.4608
 1344SOL    HW115491   3.359   1.022   1.821 -0.0863 -0.5171 -3.1055
 1344SOL    HW215492   3.247   0.969   1.738 -1.3800  0.7154 -0.7516
 1345SOL     OW15493   2.447   4.278   4.457 -0.4843 -0.3465 -0.5212
 1345SOL    HW115494   2.415   4.368   4.459  5.3944  1.6873  0.8745
 1345SOL    HW215495   2.407   4.242   4.536 -0.6570  1.3416  0.1511
 1346SOL     OW15496   3.369   0.507   3.252  0.0312 -0.1616  0.0936
 1346SOL    HW115497   3.324   0.525   3.334  0.0883 -0.9395  0.2904
 1346SOL    HW215498   3.370   0.412   3.261  0.3338 -0.3981 -2.3170
 1347SOL     OW15499   0.459   3.613  12.033  0.1162  0.4633 -0.1387
 1347SOL    HW115500   0.499   3.570  11.957  2.0487  2.6121 -0.3431
 1347SOL    HW215501   0.405   3.675  11.985 -2.2945 -2.8099 -1.6701
 1348SOL     OW15502   2.531   2.873   5.659  0.4063 -0.3453  0.7977
 1348SOL    HW115503   2.550   2.958   5.620 -0.8383 -1.5567 -2.4194
 1348SOL    HW215504   2.514   2.818   5.582  0.6632  0.6549  0.0300
 1349SOL     OW15505   1.780   2.987   0.925 -0.4426 -0.1572  0.0516
 1349SOL    HW115506   1.778   3.077   0.892  1.4178  0.4096  1.4793
 1349SOL    HW215507   1.687   2.965   0.923 -0.5425  0.2811 -0.0852
 1350SOL     OW15508   3.964   0.318   0.562 -0.1448  0.5259  0.0645
 1350SOL    HW115509   4.029   0.291   0.498 -0.8253 -0.2600 -0.2933
 1350SOL    HW215510   3.951   0.236   0.609 -1.7911 -0.4839 -2.1487
 1351SOL     OW15511   2.888   3.884   1.075  0.6301 -0.4623  0.4694
 1351SOL    HW115512   2.813   3.922   1.121 -0.8786 -2.7279 -0.0889
 1351SOL    HW215513   2.958   3.933   1.118  1.2733 -1.5843  0.6969
 1352SOL     OW15514   2.875   0.296   1.451 -0.4366 -0.3544  0.0491
 1352SOL    HW115515   2.923   0.336   1.379 -0.9723 -0.4546 -0.3647
 1352SOL    HW215516   2.818   0.361   1.492 -0.6952  1.0880 -2.6184
 1353SOL     OW15517   2.210   0.731  10.608 -0.2643 -0.6282  0.1706
 1353SOL    HW115518   2.296   0.731  10.650 -0.2522 -0.7393  0.1460
 1353SOL    HW215519   2.145   0.735  10.679 -0.5746 -1.8141 -0.0429
 1354SOL     OW15520   3.337   3.236   8.671 -0.1450  0.5314  0.3792
 1354SOL    HW115521   3.335   3.178   8.747  0.2811  0.6372  0.4716
 1354SOL    HW215522   3.430   3.225   8.651 -0.4555 -1.6942  0.0752
 1355SOL     OW15523   2.346   4.539  12.177 -0.4768 -0.2534 -0.0637
 1355SOL    HW115524   2.319   4.520  12.267  3.1097  0.7879  1.2070
 1355SOL    HW215525   2.373   4.630  12.188  0.3305 -0.4442 -0.4635
 1356SOL     OW15526   1.511   3.139   5.953  0.2670  0.5351  0.8710
 1356SOL    HW115527   1.424   3.178   5.962  0.4173  0.9619  0.4444
 1356SOL    HW215528   1.542   3.162   5.866 -0.2882 -0.9477  0.2838
 1357SOL     OW15529   2.703   0.525   4.520  0.3282 -0.5949  0.2538
 1357SOL    HW115530   2.743   0.610   4.539 -0.8478  0.3157 -1.3261
 1357SOL    HW215531   2.778   0.466   4.530  2.0073  1.5916  0.6058
 1358SOL     OW15532   2.784   4.614   3.369  0.7210 -0.3324 -0.1841
 1358SOL    HW115533   2.878   4.635   3.367  0.1342  2.1642 -1.1082
 1358SOL    HW215534   2.751   4.687   3.317  1.4838 -0.9222 -1.5092
 1359SOL     OW15535   0.529   3.955   4.552  0.2099 -0.1221 -0.1358
 1359SOL    HW115536   0.539   3.868   4.512 -0.6059 -0.6895  0.9092
 1359SOL    HW215537   0.434   3.962   4.560  0.7230  1.0376  4.6832
 1360SOL     OW15538   0.628   4.720   6.902  0.0423  0.1360 -0.1811
 1360SOL    HW115539   0.680   0.070   6.868  2.3741 -0.6760  1.6620
 1360SOL    HW215540   0.566   0.034   6.966 -1.5315 -2.1691 -0.3560
 1361SOL     OW15541   2.031   4.546   9.222 -0.2421 -0.4285 -0.0230
 1361SOL    HW115542   1.945   4.589   9.230 -1.7863 -2.5013 -5.2603
 1361SOL    HW215543   2.015   4.455   9.197 -2.6268 -0.3069  1.0452
 1362SOL     OW15544   2.768   1.529  12.940  0.1686  0.1190 -0.5451
 1362SOL    HW115545   2.765   1.481  12.857 -2.4966  0.3220 -0.5720
 1362SOL    HW215546   2.819   1.467  12.992 -2.0913 -1.1698  0.1624
 1363SOL     OW15547   2.255   1.436   8.910 -0.3651  0.1049  0.0166
 1363SOL    HW115548   2.252   1.464   9.002 -2.0587  0.7440 -0.2208
 1363SOL    HW215549   2.210   1.518   8.889 -3.7703 -2.2335 -1.7296
 1364SOL     OW15550   4.457   4.418   3.269  0.5838 -0.6176  0.2016
 1364SOL    HW115551   4.546   4.444   3.293 -0.0068 -0.7586  2.5868
 1364SOL    HW215552   4.451   4.452   3.180 -1.1964  0.5385  0.7561
 1365SOL     OW15553   0.316   3.225  12.202 -0.0409  0.1576 -0.1189
 1365SOL    HW115554   0.329   3.318  12.222 -1.1658 -0.4856  3.6963
 1365SOL    HW215555   0.292   3.237  12.110 -1.8260  1.0808  0.4532
 1366SOL     OW15556   0.269   0.808   2.809 -0.5277  0.4341  0.4850
 1366SOL    HW115557   0.316   0.850   2.737  0.2687 -0.6877  0.3440
 1366SOL    HW215558   0.348   0.772   2.849 -1.2136  0.2486  1.6658
 1367SOL     OW15559   1.990   0.015  10.709 -0.3419  0.2054  0.2159
 1367SOL    HW115560   2.038   4.660  10.681 -0.7155  0.4826 -1.1937
 1367SOL    HW215561   1.900   4.708  10.697 -0.3656  1.5562 -2.8947
 1368SOL     OW15562   3.324   1.722   8.877  0.0540 -0.1126 -0.2322
 1368SOL    HW115563   3.363   1.682   8.955  0.0169  2.2974  1.0134
 1368SOL    HW215564   3.230   1.704   8.881 -0.0047 -0.2748 -2.2302
 1369SOL     OW15565   2.273   2.366   8.607  0.1726 -0.5559 -0.4860
 1369SOL    HW115566   2.183   2.336   8.602  0.5310 -1.6492 -0.4021
 1369SOL    HW215567   2.319   2.282   8.617 -0.4717 -0.8999 -0.4047
 1370SOL     OW15568   4.237   2.182  12.970 -0.4758 -0.1564  0.0594
 1370SOL    HW115569   4.317   2.130  12.961  0.2539  1.1225 -0.9663
 1370SOL    HW215570   4.214   2.197  12.878 -1.5485 -2.0754  0.0200
 1371SOL     OW15571   0.273   2.572   4.108  0.7309 -0.0137 -0.1811
 1371SOL    HW115572   0.231   2.530   4.183  0.9746  0.4253  0.2000
 1371SOL    HW215573   0.319   2.640   4.156 -1.2511  2.3205 -1.6133
 1372SOL     OW15574   0.144   2.517  11.410 -0.1477 -0.3828  0.5272
 1372SOL    HW115575   0.145   2.568  11.491 -0.4633  0.5489 -0.0591
 1372SOL    HW215576   0.093   2.441  11.438 -0.5841 -0.1306  0.4110
 1373SOL     OW15577   0.616   0.553   7.275  0.0647  0.0514  0.7223
 1373SOL    HW115578   0.531   0.556   7.230 -1.4548 -2.3093  3.4266
 1373SOL    HW215579   0.630   0.458   7.282  3.6744  0.4854 -0.7395
 1374SOL     OW15580   4.183   2.102  16.596 -0.3806 -0.3766  0.1409
 1374SOL    HW115581   4.138   2.186  16.584 -2.0426 -0.8711  2.9189
 1374SOL    HW215582   4.135   2.075  16.674  1.8411  0.6779  1.8874
 1375SOL     OW15583   1.899   3.911   4.148 -0.4561  0.5731  0.0693
 1375SOL    HW115584   1.825   3.969   4.132 -2.1021 -0.6080  3.2662
 1375SOL    HW215585   1.976   3.964   4.126 -0.7470  1.1235  0.3685
 1376SOL     OW15586   0.536   1.211   2.865  0.4869  0.2580  0.3335
 1376SOL    HW115587   0.593   1.202   2.789  0.4135 -1.2395  0.4492
 1376SOL    HW215588   0.571   1.142   2.921  0.9268  1.2730  1.3087
 1377SOL     OW15589   1.497   1.358  16.487  0.7167 -0.5433  0.0807
 1377SOL    HW115590   1.577   1.307  16.479  0.8907 -0.0930 -1.0494
 1377SOL    HW215591   1.490   1.396  16.399 -0.7825 -0.0674  0.4096
 1378SOL     OW15592   0.192   0.615   6.188  0.3620  0.6224 -0.1317
 1378SOL    HW115593   0.274   0.570   6.167 -1.1040 -1.5194 -1.2915
 1378SOL    HW215594   0.136   0.537   6.185 -0.6453  1.3555 -0.4147
 1379SOL     OW15595   1.099   1.338   8.907 -0.4439  0.1974 -0.0513
 1379SOL    HW115596   1.187   1.338   8.944 -0.8662 -0.0733  0.9606
 1379SOL    HW215597   1.112   1.412   8.849  0.4463  0.4146  0.4335
 1380SOL     OW15598   0.280   0.010   1.889  0.5353  0.1547  0.4717
 1380SOL    HW115599   0.348   0.061   1.932  1.1289 -1.6816  1.7146
 1380SOL    HW215600   0.261   4.669   1.958  0.4575 -0.5451 -0.1964
 1381SOL     OW15601   1.820   1.905  11.585 -0.1415  0.0859  0.5214
 1381SOL    HW115602   1.877   1.930  11.658 -1.0748 -1.0163  1.6101
 1381SOL    HW215603   1.746   1.869  11.634 -0.1894 -1.0185 -0.3686
 1382SOL     OW15604   2.771   1.104   9.013  0.6545 -0.0390  0.2341
 1382SOL    HW115605   2.732   1.082   9.097 -0.2578  0.8520  0.0404
 1382SOL    HW215606   2.718   1.058   8.948 -0.2031  0.7870  0.3515
 1383SOL     OW15607   4.560   0.835   4.770 -0.5018 -0.3185  0.4339
 1383SOL    HW115608   4.510   0.890   4.831 -0.9367  0.3134 -0.4868
 1383SOL    HW215609   4.589   0.888   4.696 -0.3394 -0.7532  0.1916
 1384SOL     OW15610   1.574   1.943   7.420 -0.3549  0.3308 -0.2395
 1384SOL    HW115611   1.655   1.975   7.459  1.1618 -1.9399 -1.5248
 1384SOL    HW215612   1.562   2.007   7.350  0.7185 -0.1188 -0.8386
 1385SOL     OW15613   3.600   0.642  12.357 -0.1682 -0.6871 -0.5451
 1385SOL    HW115614   3.558   0.713  12.309 -0.3057 -0.4822 -0.1181
 1385SOL    HW215615   3.680   0.689  12.379 -2.0286  0.9194  2.6762
 1386SOL     OW15616   3.376   4.064   4.355  0.0973  0.1553  0.2812
 1386SOL    HW115617   3.366   4.050   4.449  1.9679 -2.1121  0.1400
 1386SOL    HW215618   3.471   4.073   4.362  0.0309  0.1850  1.1655
 1387SOL     OW15619   3.917   1.018   4.289  0.2987  0.8245 -0.2862
 1387SOL    HW115620   3.903   0.995   4.381 -0.7194  1.5487 -0.2516
 1387SOL    HW215621   4.007   0.996   4.268  1.0040  2.4397  1.0353
 1388SOL     OW15622   3.104   2.404  12.299  0.8448 -0.3527 -0.1233
 1388SOL    HW115623   3.141   2.488  12.271 -0.4917  0.2329 -0.1455
 1388SOL    HW215624   3.149   2.398  12.383  0.5831  1.5945  0.1670
 1389SOL     OW15625   0.209   3.317   0.412  0.2655 -0.3430 -0.0240
 1389SOL    HW115626   0.153   3.240   0.421 -1.8136  1.5715  3.4228
 1389SOL    HW215627   0.150   3.357   0.349 -1.1555 -1.9691  0.2606
 1390SOL     OW15628   3.919   3.051  14.225  0.4167 -0.3349 -0.1330
 1390SOL    HW115629   3.956   2.993  14.158 -2.2818 -1.3778 -0.7409
 1390SOL    HW215630   3.981   3.057  14.297 -0.3450  0.0415  0.4885
 1391SOL     OW15631   2.590   1.330  11.236  0.2549  0.0257 -0.4700
 1391SOL    HW115632   2.528   1.398  11.258  0.3584  0.5033 -1.6634
 1391SOL    HW215633   2.600   1.346  11.142 -0.2198  0.0134 -0.5221
 1392SOL     OW15634   3.881   1.767   6.363 -0.0379  0.1525 -0.1977
 1392SOL    HW115635   3.790   1.792   6.347 -0.1026 -0.9324 -1.5120
 1392SOL    HW215636   3.862   1.674   6.366  2.9973 -0.4458  0.9771
 1393SOL     OW15637   1.259   0.771   1.608 -0.3016  0.1177 -0.4818
 1393SOL    HW115638   1.248   0.676   1.620 -4.1746  0.7264  0.8124
 1393SOL    HW215639   1.354   0.775   1.610 -0.2921 -0.4487  0.2784
 1394SOL     OW15640   3.419   3.265   9.128 -0.1405 -0.7449  0.1126
 1394SOL    HW115641   3.490   3.270   9.064  0.2438  0.8953  0.6762
 1394SOL    HW215642   3.356   3.200   9.095 -0.9760  0.2743 -0.3068
 1395SOL     OW15643   1.912   0.270  12.829 -0.4101  0.4441 -0.1395
 1395SOL    HW115644   1.992   0.283  12.777  1.4985 -1.0154  2.4670
 1395SOL    HW215645   1.883   0.361  12.833  0.4586  0.7226 -0.1407
 1396SOL     OW15646   1.094   1.347  12.107  0.1976 -0.1013 -0.4967
 1396SOL    HW115647   1.179   1.389  12.124 -0.1315  0.1864  0.4093
 1396SOL    HW215648   1.107   1.252  12.109 -0.8184 -0.1718  2.6358
 1397SOL     OW15649   0.907   0.950   2.369  0.1245  0.5219 -0.2369
 1397SOL    HW115650   0.883   0.874   2.316 -2.2928 -0.9257  2.9007
 1397SOL    HW215651   0.990   0.954   2.321 -0.3282 -1.7051 -1.2060
 1398SOL     OW15652   3.423   4.722  16.037  0.0397  0.2673  0.3646
 1398SOL    HW115653   3.429   4.665  16.114 -0.5311 -0.7260 -0.3315
 1398SOL    HW215654   3.432   4.657  15.968  0.7702  1.4154 -0.6318
 1399SOL     OW15655   1.480   3.503   2.776 -0.6573 -0.0524 -0.7149
 1399SOL    HW115656   1.387   3.509   2.755 -0.3771  0.0960 -1.9094
 1399SOL    HW215657   1.507   3.594   2.762  0.8233 -0.6141 -1.4767
 1400SOL     OW15658   2.321   2.033   7.643 -0.4227 -0.0944  0.0118
 1400SOL    HW115659   2.354   2.108   7.693 -4.1777  1.0340  0.8233
 1400SOL    HW215660   2.406   2.004   7.610  0.5962  1.8351  0.9744
 1401SOL     OW15661   3.350   1.223   6.602 -0.2142  0.2867  0.2066
 1401SOL    HW115662   3.402   1.142   6.605  0.9753  1.0237 -0.6469
 1401SOL    HW215663   3.414   1.279   6.645 -0.5527  2.4197 -2.0779
 1402SOL     OW15664   1.827   3.511   6.469  0.5738 -0.1409 -0.0349
 1402SOL    HW115665   1.879   3.479   6.543  0.1463  2.6117  1.4669
 1402SOL    HW215666   1.747   3.458   6.466  0.1413  0.6071 -1.7364
 1403SOL     OW15667   1.013   0.354   2.005 -0.1978  0.1516  0.2970
 1403SOL    HW115668   0.928   0.380   2.041 -1.7149 -2.1986 -1.6372
 1403SOL    HW215669   1.051   0.360   2.093  0.0288 -0.6082  0.2495
 1404SOL     OW15670   2.056   0.761   5.644  0.5315 -0.0272 -0.8418
 1404SOL    HW115671   2.079   0.831   5.583  1.8464  0.7950  0.6265
 1404SOL    HW215672   1.963   0.737   5.640  0.3123  0.3326  2.0657
 1405SOL     OW15673   4.320   3.174  11.719 -0.1955 -0.1559  0.2683
 1405SOL    HW115674   4.359   3.104  11.771 -1.0638 -1.3087 -0.6229
 1405SOL    HW215675   4.241   3.130  11.687  0.2237 -0.7036 -0.0117
 1406SOL     OW15676   1.138   1.488   0.200  0.1036  0.0707  0.2679
 1406SOL    HW115677   1.147   1.518   0.290 -0.7573  1.3738 -0.0797
 1406SOL    HW215678   1.211   1.426   0.193  0.3045  0.2819  0.4886
 1407SOL     OW15679   2.065   0.169   4.207 -0.3263 -0.2755 -0.0890
 1407SOL    HW115680   2.004   0.126   4.267  3.2851 -2.1012  2.2227
 1407SOL    HW215681   2.070   0.116   4.127  1.6681 -1.7621  1.0358
 1408SOL     OW15682   0.993   4.557   1.797  0.4170 -0.0673 -0.3220
 1408SOL    HW115683   1.041   4.630   1.837  0.5097 -1.2129  1.6413
 1408SOL    HW215684   0.954   4.528   1.880 -1.3238  0.6648 -0.8808
 1409SOL     OW15685   0.515   3.297  13.894 -0.5826  0.5939 -0.0657
 1409SOL    HW115686   0.480   3.383  13.867 -1.0377  0.6739  0.7784
 1409SOL    HW215687   0.499   3.236  13.822  0.0637 -0.4873  0.7122
 1410SOL     OW15688   2.986   3.034   3.029 -0.6117  0.1082 -0.4999
 1410SOL    HW115689   3.003   3.096   2.958  1.8819  0.0865  0.0731
 1410SOL    HW215690   3.025   2.954   2.993 -0.3927  0.4247 -0.9635
 1411SOL     OW15691   0.919   1.372   9.157  0.1215  0.1936 -0.0542
 1411SOL    HW115692   1.003   1.374   9.203  1.5246 -2.2899 -2.4026
 1411SOL    HW215693   0.942   1.377   9.064 -2.5669 -2.0407 -0.8258
 1412SOL     OW15694   0.853   3.691   7.507  0.4061 -0.1174 -0.0362
 1412SOL    HW115695   0.880   3.727   7.422  0.4553 -0.2380 -0.0732
 1412SOL    HW215696   0.764   3.665   7.483 -0.7213  0.3545  3.7323
 1413SOL     OW15697   0.557   3.386  15.589 -0.1631  0.3528  0.5246
 1413SOL    HW115698   0.489   3.322  15.568 -0.0172  0.2170  0.4625
 1413SOL    HW215699   0.599   3.341  15.662  1.5146  0.8068 -0.1582
 1414SOL     OW15700   2.697   1.666   7.660  0.0317  0.5274  0.6661
 1414SOL    HW115701   2.701   1.644   7.753 -1.3922 -2.4253  0.0362
 1414SOL    HW215702   2.662   1.586   7.621 -1.5826  0.4259  2.3126
 1415SOL     OW15703   3.403   4.443   7.238  0.4768 -0.6428  0.3734
 1415SOL    HW115704   3.407   4.420   7.146 -0.7321  1.4776 -0.2164
 1415SOL    HW215705   3.471   4.383   7.271  3.9994  3.1312  0.0847
 1416SOL     OW15706   4.392   1.242   5.199 -0.0032 -0.3458  0.4168
 1416SOL    HW115707   4.479   1.209   5.222 -0.5080 -0.3890  2.2939
 1416SOL    HW215708   4.361   1.165   5.151  0.8112  0.4604 -1.3733
 1417SOL     OW15709   2.460   3.381  10.027  0.0478 -0.1071 -0.2747
 1417SOL    HW115710   2.535   3.430  10.060 -0.8048  1.0197  0.0055
 1417SOL    HW215711   2.455   3.300  10.079  1.7832  0.0361  0.1037
 1418SOL     OW15712   1.882   3.200   8.450  0.1940  0.5127 -0.0805
 1418SOL    HW115713   1.906   3.246   8.369  1.4758  0.7449  0.4270
 1418SOL    HW215714   1.931   3.242   8.520 -0.5005  0.6447  0.3263
 1419SOL     OW15715   0.557   0.982  13.379  0.2825 -0.5898  0.1204
 1419SOL    HW115716   0.604   0.920  13.434 -0.6719 -0.8120  0.6815
 1419SOL    HW215717   0.620   1.054  13.371 -0.2500  0.0244  1.3834
 1420SOL     OW15718   4.135   3.720   1.867  0.1534  0.0505 -0.2354
 1420SOL    HW115719   4.122   3.710   1.961 -0.7011  1.6303 -0.1862
 1420SOL    HW215720   4.221   3.760   1.862 -0.1472  0.5087 -1.6663
 1421SOL     OW15721   0.861   4.455   2.407 -0.5586 -0.4041 -0.1768
 1421SOL    HW115722   0.791   4.504   2.450  1.9702  3.8693 -0.9658
 1421SOL    HW215723   0.818   4.413   2.332 -1.3034 -1.1346  0.6619
 1422SOL     OW15724   3.749   3.225   7.827 -0.4727 -0.2006  0.1717
 1422SOL    HW115725   3.656   3.241   7.847 -0.7941  0.9242 -2.2949
 1422SOL    HW215726   3.792   3.233   7.912  2.2561 -0.4247 -1.2094
 1423SOL     OW15727   4.627   0.868   5.557  0.3964 -0.4413 -0.2873
 1423SOL    HW115728   4.614   0.846   5.649 -0.1970 -1.5874 -0.6507
 1423SOL    HW215729   4.535   0.871   5.533  0.1877 -1.1968  0.4331
 1424SOL     OW15730   2.879   4.136  12.614 -0.2476 -0.0190  0.2118
 1424SOL    HW115731   2.814   4.105  12.551  1.1419  0.9529 -1.6649
 1424SOL    HW215732   2.845   4.224  12.627  0.0596  0.7778 -4.4254
 1425SOL     OW15733   2.142   4.208   1.649  0.2672 -0.1603  0.2366
 1425SOL    HW115734   2.074   4.256   1.696  0.2225 -0.0605  0.0723
 1425SOL    HW215735   2.226   4.234   1.687 -0.2766  0.4768  0.9944
 1426SOL     OW15736   4.615   2.213  10.668 -0.3294  0.5273 -0.0493
 1426SOL    HW115737   4.641   2.171  10.750  1.4497  1.3051 -0.2294
 1426SOL    HW215738   4.683   2.279  10.661  0.7856 -0.8341 -2.0728
 1427SOL     OW15739   2.365   4.475  11.907  0.2169  0.2304  0.2247
 1427SOL    HW115740   2.367   4.503  11.999 -0.3803 -0.8241  0.5537
 1427SOL    HW215741   2.271   4.473  11.889  0.4296  0.6613 -0.9523
 1428SOL     OW15742   3.601   3.272   8.539  0.1666 -0.1902 -0.4308
 1428SOL    HW115743   3.676   3.237   8.491 -1.0387 -0.3161 -2.2514
 1428SOL    HW215744   3.644   3.356   8.555  0.8272 -0.8465  1.1872
 1429SOL     OW15745   3.644   3.806   7.409  0.0722  0.3198 -0.3849
 1429SOL    HW115746   3.608   3.720   7.387 -0.6396  0.7479 -0.8810
 1429SOL    HW215747   3.694   3.775   7.485 -0.9343 -1.1834 -0.3379
 1430SOL     OW15748   3.641   1.111   5.158  0.2127 -0.1047  0.7316
 1430SOL    HW115749   3.700   1.165   5.105  0.0068 -1.9744 -1.4113
 1430SOL    HW215750   3.616   1.042   5.097  0.1262 -0.9066  1.6726
 1431SOL     OW15751   3.068   2.884   2.603  0.0634  0.0206 -0.0476
 1431SOL    HW115752   3.003   2.877   2.533 -2.9282  0.7848  2.6645
 1431SOL    HW215753   3.154   2.891   2.562  0.3387  0.2450  0.5736
 1432SOL     OW15754   2.783   3.842   4.140  0.0328  0.0866 -0.8717
 1432SOL    HW115755   2.732   3.779   4.090  0.4569 -0.7232 -0.2909
 1432SOL    HW215756   2.849   3.787   4.183  0.2090 -0.0176 -1.2723
 1433SOL     OW15757   0.160   2.709   6.526 -0.7248  0.2907  0.2437
 1433SOL    HW115758   0.119   2.645   6.468 -2.1556  2.3656 -1.0077
 1433SOL    HW215759   0.151   2.794   6.483 -1.5648  0.9626  1.7125
 1434SOL     OW15760   4.453   2.958  17.141 -0.2483 -0.4685  0.1447
 1434SOL    HW115761   4.361   2.967  17.119  0.6863  0.0959 -3.4670
 1434SOL    HW215762   4.475   2.919  17.056 -0.3763 -0.6438  0.1906
 1435SOL     OW15763   2.626   4.713   6.227 -0.1414  0.4439  0.5933
 1435SOL    HW115764   2.608   4.656   6.152  1.0530  0.9369 -0.0816
 1435SOL    HW215765   2.692   4.660   6.272  1.0488  2.2453  0.9694
 1436SOL     OW15766   2.895   3.723   7.135  0.5745 -0.6246 -0.0539
 1436SOL    HW115767   2.911   3.726   7.040 -1.8855  0.7149 -0.4335
 1436SOL    HW215768   2.799   3.717   7.137  0.5838 -0.5168  0.5459
 1437SOL     OW15769   4.314   0.760   6.540  0.5787  0.2050 -0.1050
 1437SOL    HW115770   4.333   0.709   6.462  0.1078 -2.1589  1.3165
 1437SOL    HW215771   4.223   0.787   6.528  0.5642  0.0663 -0.3017
 1438SOL     OW15772   0.919   2.476  11.517  0.0007 -0.4388 -0.1305
 1438SOL    HW115773   0.854   2.479  11.587 -0.7022  0.3438 -0.8231
 1438SOL    HW215774   1.003   2.478  11.563 -1.5032 -1.5443  2.6580
 1439SOL     OW15775   1.578   3.991   5.350  0.1275 -0.4355 -0.5192
 1439SOL    HW115776   1.580   3.912   5.403  2.3630 -0.8551 -1.2596
 1439SOL    HW215777   1.517   4.041   5.404  0.5567  1.1703 -1.5029
 1440SOL     OW15778   2.654   0.261   6.197 -0.0461  0.4464 -0.0814
 1440SOL    HW115779   2.654   0.165   6.194  0.7851  0.4575 -0.2421
 1440SOL    HW215780   2.598   0.272   6.274 -0.8739 -0.0608 -0.6102
 1441SOL     OW15781   4.489   2.164   9.119  0.0550 -0.0530 -0.4960
 1441SOL    HW115782   4.467   2.079   9.158  2.1563 -0.6380 -0.5920
 1441SOL    HW215783   4.451   2.216   9.190  0.1644 -0.7979  0.1098
 1442SOL     OW15784   1.591   4.674   2.341 -0.0855 -0.3181 -0.0509
 1442SOL    HW115785   1.597   0.047   2.343 -2.4181 -0.1588 -0.2745
 1442SOL    HW215786   1.548   4.661   2.257 -0.6542 -1.7100  0.4606
 1443SOL     OW15787   0.311   1.525  14.742 -0.2499  0.6031 -0.2449
 1443SOL    HW115788   0.271   1.612  14.738 -3.1336 -0.7189 -0.8418
 1443SOL    HW215789   0.252   1.485  14.807 -0.2669  0.7971 -0.1420
 1444SOL     OW15790   2.772   4.069   3.405 -0.4004  0.1809  0.1052
 1444SOL    HW115791   2.727   4.011   3.343 -1.8405 -1.3761  2.5992
 1444SOL    HW215792   2.765   4.024   3.489  2.4381  2.3930  1.5423
 1445SOL     OW15793   1.384   2.438   2.440  0.4035  0.3950 -0.0963
 1445SOL    HW115794   1.365   2.530   2.419 -2.9120  0.1227  1.6721
 1445SOL    HW215795   1.456   2.424   2.378 -0.2497  0.6308 -0.9131
 1446SOL     OW15796   2.761   3.950   3.656 -0.1311 -0.3678 -0.0462
 1446SOL    HW115797   2.850   3.915   3.661 -0.8293 -2.0334  0.8141
 1446SOL    HW215798   2.756   4.023   3.717  2.8684 -0.2017  0.0242
 1447SOL     OW15799   3.631   3.067   9.998  0.0812  0.5926 -0.7907
 1447SOL    HW115800   3.567   2.997   9.990 -1.5026  1.8565  0.9653
 1447SOL    HW215801   3.699   3.025   9.945 -1.4254 -0.3170 -1.9857
 1448SOL     OW15802   3.445   3.917   5.538  0.1427  0.4153 -0.1389
 1448SOL    HW115803   3.424   3.829   5.569  2.4241 -0.0464  0.1214
 1448SOL    HW215804   3.485   3.964   5.611  1.7942  0.1769 -0.8792
 1449SOL     OW15805   0.025   2.483  13.206  0.2160 -0.0985  0.9115
 1449SOL    HW115806   4.712   2.570  13.223  2.2922  1.5154 -3.0212
 1449SOL    HW215807   4.675   2.425  13.225 -1.2461  1.5878  0.3852
 1450SOL     OW15808   4.297   1.598  10.602 -0.0325 -0.1373 -0.6798
 1450SOL    HW115809   4.297   1.510  10.638  2.6467  0.2660  0.3060
 1450SOL    HW215810   4.206   1.613  10.628 -0.1016  1.5746 -1.8740
 1451SOL     OW15811   3.671   2.487   7.535  0.6488 -0.8260 -0.1476
 1451SOL    HW115812   3.639   2.550   7.600 -1.6213  0.1333 -2.1774
 1451SOL    HW215813   3.603   2.506   7.471  0.9206  0.6794 -0.0013
 1452SOL     OW15814   0.847   0.176   6.756 -0.1889  0.3328 -0.2897
 1452SOL    HW115815   0.779   0.225   6.709 -1.4504 -1.2801 -0.1249
 1452SOL    HW215816   0.890   0.134   6.681  0.2873  0.7535 -0.2537
 1453SOL     OW15817   3.876   0.831  11.688  0.5899 -0.0614  0.4309
 1453SOL    HW115818   3.814   0.761  11.667  1.6817 -0.5813 -1.0740
 1453SOL    HW215819   3.953   0.775  11.698  0.0828 -0.7888  0.2782
 1454SOL     OW15820   3.119   1.156  10.671  0.7672 -0.1657 -0.3345
 1454SOL    HW115821   3.191   1.165  10.609  0.8755 -4.0056 -0.7315
 1454SOL    HW215822   3.138   1.231  10.727  0.2363 -0.8136  0.6981
 1455SOL     OW15823   2.837   2.629   3.506  0.2903 -0.0044  0.2560
 1455SOL    HW115824   2.901   2.558   3.509  0.4374  0.1776  1.4513
 1455SOL    HW215825   2.868   2.685   3.435 -0.1684 -2.7442 -2.1008
 1456SOL     OW15826   3.885   1.591   9.563  0.2190  0.0299 -0.6131
 1456SOL    HW115827   3.854   1.521   9.506  0.1679  0.5126 -1.1831
 1456SOL    HW215828   3.848   1.559   9.645 -0.0054 -2.8589 -1.8422
 1457SOL     OW15829   4.314   0.274   6.086 -0.4236 -0.2677  0.2954
 1457SOL    HW115830   4.220   0.262   6.094 -0.3245 -0.9684  0.4291
 1457SOL    HW215831   4.341   0.256   5.996  1.3327  0.5272  0.6580
 1458SOL     OW15832   0.409   4.649  10.452 -0.0588 -0.0113  0.0014
 1458SOL    HW115833   0.369   4.646  10.366 -2.0281 -0.4175  0.9394
 1458SOL    HW215834   0.428   0.018  10.471  0.2399 -0.3198  1.2257
 1459SOL     OW15835   0.281   1.745  16.742 -0.5237 -0.0490 -0.4927
 1459SOL    HW115836   0.337   1.821  16.727  1.6771 -0.9936  2.8663
 1459SOL    HW215837   0.202   1.767  16.692 -0.7253 -2.2111 -1.1268
 1460SOL     OW15838   0.347   0.429   7.116  0.0999  0.0761  0.2618
 1460SOL    HW115839   0.422   0.449   7.059 -0.0061  2.8506  1.1100
 1460SOL    HW215840   0.336   0.512   7.162 -0.2684  0.4195 -0.4507
 1461SOL     OW15841   1.003   2.639   7.767  0.1760  0.1625 -0.0264
 1461SOL    HW115842   1.014   2.569   7.831 -0.7387  0.8398  0.8623
 1461SOL    HW215843   1.064   2.613   7.698 -1.6549 -1.1211 -1.1713
 1462SOL     OW15844   1.034   1.990   8.692  0.4995 -0.3694  0.1314
 1462SOL    HW115845   1.126   1.965   8.681  1.5001  3.9494 -1.5912
 1462SOL    HW215846   1.038   2.086   8.686 -2.3420 -0.4199 -2.3333
 1463SOL     OW15847   3.593   3.359   3.014  0.9499 -0.3457 -0.4406
 1463SOL    HW115848   3.620   3.268   3.026  0.2910 -0.3904  0.7069
 1463SOL    HW215849   3.530   3.362   3.086  1.0655 -2.2010 -0.2729
 1464SOL     OW15850   3.768   0.260   6.985 -0.0279  0.0809 -0.4430
 1464SOL    HW115851   3.816   0.281   6.904  0.2944 -0.9464 -0.5213
 1464SOL    HW215852   3.835   0.299   7.041  1.5049 -1.4482 -1.2349
 1465SOL     OW15853   0.888   1.859   7.234  0.1072 -0.3880  0.0579
 1465SOL    HW115854   0.921   1.947   7.216  1.6708 -1.2672 -1.3895
 1465SOL    HW215855   0.911   1.819   7.150 -0.1757 -1.9881  0.7387
 1466SOL     OW15856   4.714   1.883   7.763  0.3595  0.0580  0.7820
 1466SOL    HW115857   0.014   1.959   7.817 -0.1179  1.1349 -0.5291
 1466SOL    HW215858   0.023   1.814   7.821  0.6110  0.3725  1.0194
 1467SOL     OW15859   3.272   4.624   8.627  0.0946  0.4490  0.1623
 1467SOL    HW115860   3.256   4.578   8.544  2.1213 -0.4371  0.2497
 1467SOL    HW215861   3.283   4.717   8.608  3.1978  0.3478  1.3973
 1468SOL     OW15862   3.949   1.988   2.370  0.3025 -0.2544 -0.2040
 1468SOL    HW115863   3.958   1.949   2.283 -0.5546 -0.8309 -0.0351
 1468SOL    HW215864   3.963   2.081   2.353  0.7793 -0.6703 -2.1039
 1469SOL     OW15865   3.955   0.248  12.334 -0.2194 -0.1825  0.1829
 1469SOL    HW115866   3.992   0.278  12.251  1.1657 -0.1359  0.8000
 1469SOL    HW215867   4.007   0.304  12.393 -1.1696  1.6694 -0.7278
 1470SOL     OW15868   2.019   1.340   8.229 -0.3219  0.2164 -0.0405
 1470SOL    HW115869   2.045   1.406   8.164  0.0147  0.1341  0.0141
 1470SOL    HW215870   2.100   1.334   8.279  0.0805 -1.1728 -0.8624
 1471SOL     OW15871   0.062   1.372  14.756 -0.0225  0.2861  0.3946
 1471SOL    HW115872   0.043   1.465  14.768 -0.4019  0.2211  0.2789
 1471SOL    HW215873   0.010   1.331  14.688 -1.9205  0.5012  1.7273
 1472SOL     OW15874   3.071   2.819   2.890 -0.2230 -0.1436 -0.5079
 1472SOL    HW115875   3.017   2.743   2.909 -1.0516  0.6649  0.3694
 1472SOL    HW215876   3.073   2.809   2.795  0.3217  0.6850 -0.5859
 1473SOL     OW15877   4.408   2.636  10.611 -0.7352 -0.4291  0.5522
 1473SOL    HW115878   4.377   2.556  10.653  0.0641 -0.3419  1.2996
 1473SOL    HW215879   4.420   2.698  10.683  0.0574  2.6378 -2.2183
 1474SOL     OW15880   0.683   1.091   2.647 -0.2678  0.0875  0.3744
 1474SOL    HW115881   0.768   1.130   2.625 -0.0923 -1.0589 -0.9639
 1474SOL    HW215882   0.693   1.016   2.589 -0.4828 -0.2976  0.8376
 1475SOL     OW15883   2.348   1.650   8.306 -0.1561 -0.3163  0.1085
 1475SOL    HW115884   2.298   1.685   8.233 -0.9087 -0.2704  0.6488
 1475SOL    HW215885   2.330   1.710   8.379 -0.4560  0.4969 -0.6322
 1476SOL     OW15886   0.303   2.090   7.957  0.3728 -0.0648  0.3029
 1476SOL    HW115887   0.226   2.041   7.987 -0.0302  0.6092  0.3666
 1476SOL    HW215888   0.256   2.153   7.902  1.1599  1.2423  1.1434
 1477SOL     OW15889   4.718   2.233  14.913  0.2659  0.4617 -0.1002
 1477SOL    HW115890   4.676   2.281  14.841  1.7498  0.6043 -0.8847
 1477SOL    HW215891   0.070   2.290  14.932  2.2866 -2.5259  0.7913
 1478SOL     OW15892   2.434   2.748   8.049 -0.1989 -0.1533  0.1103
 1478SOL    HW115893   2.444   2.678   7.984  2.9730 -1.0639  1.6064
 1478SOL    HW215894   2.345   2.776   8.028 -0.4892 -1.4434 -0.3934
 1479SOL     OW15895   2.893   2.526  11.412  0.2732 -0.5964 -0.1704
 1479SOL    HW115896   2.965   2.567  11.458  0.8411 -1.3373 -0.4008
 1479SOL    HW215897   2.913   2.553  11.322  2.6846  1.0857  0.8954
 1480SOL     OW15898   4.359   1.267   9.886 -0.4308 -0.3923 -0.3929
 1480SOL    HW115899   4.449   1.296   9.903 -1.2716  1.3220  1.1682
 1480SOL    HW215900   4.336   1.284   9.794 -1.6864  0.2763  0.0470
 1481SOL     OW15901   2.015   1.350   7.849  0.3187 -0.5511 -0.8282
 1481SOL    HW115902   1.960   1.273   7.832 -3.3810  1.9617 -0.2104
 1481SOL    HW215903   2.048   1.377   7.764 -0.7300  0.7552 -0.8169
 1482SOL     OW15904   1.115   3.833   2.841  0.5421 -0.6507 -0.4435
 1482SOL    HW115905   1.109   3.830   2.745  1.5951  0.3930 -0.5396
 1482SOL    HW215906   1.092   3.740   2.846 -1.4359 -0.3832 -4.4897
 1483SOL     OW15907   0.621   1.857   3.932 -0.3436 -0.2648  0.5497
 1483SOL    HW115908   0.614   1.788   3.998 -0.0532 -2.8744 -2.1171
 1483SOL    HW215909   0.580   1.928   3.980  2.6238  0.9046  1.3715
 1484SOL     OW15910   3.357   4.300   5.965  0.0948 -0.1062 -0.1863
 1484SOL    HW115911   3.444   4.326   5.995 -1.4979  0.2457  4.1754
 1484SOL    HW215912   3.324   4.247   6.038 -2.4411  0.2136 -1.0888
 1485SOL     OW15913   0.985   3.549   2.337 -0.1527 -0.4768  0.2625
 1485SOL    HW115914   0.980   3.464   2.380  0.4140  0.0084  1.2852
 1485SOL    HW215915   0.976   3.534   2.243  0.6433 -1.7318  0.3898
 1486SOL     OW15916   0.919   3.327  12.943  0.1536  0.6397 -0.0058
 1486SOL    HW115917   0.953   3.241  12.967  1.8313  0.3693 -3.3307
 1486SOL    HW215918   1.005   3.368  12.955  0.3620  0.7047 -1.7735
 1487SOL     OW15919   2.862   0.138   2.242 -0.0548  0.4152 -0.4327
 1487SOL    HW115920   2.903   0.073   2.300  1.1390  1.9540  0.4284
 1487SOL    HW215921   2.786   0.168   2.292 -0.7890 -0.4387 -1.0364
 1488SOL     OW15922   1.194   3.991   5.019 -0.4605 -0.5563  0.2571
 1488SOL    HW115923   1.208   3.922   4.954  0.4201 -0.3184  0.1979
 1488SOL    HW215924   1.280   4.033   5.022 -0.4165 -0.6440  0.2308
 1489SOL     OW15925   4.341   3.621   5.853 -0.0428 -0.5920 -0.4034
 1489SOL    HW115926   4.410   3.602   5.916  0.4589 -2.7783 -1.5973
 1489SOL    HW215927   4.271   3.563   5.884 -0.1229  0.5925  1.5667
 1490SOL     OW15928   2.134   3.080   5.464  0.0757  0.7815 -0.4288
 1490SOL    HW115929   2.099   2.991   5.476 -1.7137  1.2719 -2.0234
 1490SOL    HW215930   2.220   3.057   5.430  0.1129 -0.1776  0.2941
 1491SOL     OW15931   1.090   3.146  12.630  1.2817  0.5280 -0.1565
 1491SOL    HW115932   0.999   3.162  12.606  2.2278  2.1800 -2.6746
 1491SOL    HW215933   1.088   3.093  12.709 -0.7404  0.5283 -0.2235
 1492SOL     OW15934   1.585   0.448   4.595 -0.0020 -0.2907  0.0699
 1492SOL    HW115935   1.579   0.536   4.630  0.4939 -1.0006  1.9505
 1492SOL    HW215936   1.539   0.388   4.654  1.6917  0.1400  1.8388
 1493SOL     OW15937   1.206   2.261  16.671  0.1491 -0.4723 -0.4268
 1493SOL    HW115938   1.289   2.278  16.715  0.8356 -3.2045 -0.6910
 1493SOL    HW215939   1.139   2.300  16.728  1.6772  2.4379 -0.6390
 1494SOL     OW15940   4.367   4.363   2.387  0.2501  0.3356 -0.4488
 1494SOL    HW115941   4.397   4.440   2.340  1.8733 -1.0923 -1.7614
 1494SOL    HW215942   4.283   4.352   2.344  0.3683  2.3840 -1.1919
 1495SOL     OW15943   0.199   3.106   6.641  0.1721  0.0538 -0.0217
 1495SOL    HW115944   0.223   3.191   6.679  1.0277 -0.1972 -0.0122
 1495SOL    HW215945   0.161   3.055   6.712 -0.6846  0.0171 -0.4982
 1496SOL     OW15946   3.391   1.498  15.498 -0.4328  0.5650  0.1567
 1496SOL    HW115947   3.407   1.417  15.450 -1.3023  1.1796 -1.1718
 1496SOL    HW215948   3.343   1.555  15.438 -1.6107 -1.2428 -0.6176
 1497SOL     OW15949   0.675   2.755   7.981 -0.1434  0.1678  0.9860
 1497SOL    HW115950   0.767   2.778   7.984  0.5857 -2.7105  0.7187
 1497SOL    HW215951   0.663   2.670   8.023 -3.3770  0.2571  0.2743
 1498SOL     OW15952   3.865   4.002   1.838 -0.0127  0.2255  0.1277
 1498SOL    HW115953   3.927   4.060   1.883  0.9871  0.5155 -1.6598
 1498SOL    HW215954   3.794   4.061   1.814 -2.0765 -2.7448 -0.9608
 1499SOL     OW15955   1.956   0.150   6.717  0.0650  0.1615  0.0616
 1499SOL    HW115956   1.935   0.082   6.781  0.6335 -1.3057 -1.2818
 1499SOL    HW215957   2.011   0.105   6.652 -0.4091 -1.0417  0.4902
 1500SOL     OW15958   4.426   0.816   5.784 -0.2570  0.1416  0.7601
 1500SOL    HW115959   4.455   0.779   5.868 -1.9997  0.4319  1.4920
 1500SOL    HW215960   4.336   0.784   5.786 -0.2381 -0.1027 -1.8193
 1501SOL     OW15961   3.108   2.977   1.137 -0.1496 -0.4904  0.1947
 1501SOL    HW115962   3.082   3.057   1.091 -1.4117 -1.4433 -0.7451
 1501SOL    HW215963   3.056   2.916   1.085 -1.0250  0.2102  0.2458
 1502SOL     OW15964   1.851   3.100   8.158  0.4004 -0.5547  0.9555
 1502SOL    HW115965   1.829   3.154   8.083  0.2692 -0.8742  0.7652
 1502SOL    HW215966   1.895   3.161   8.217 -1.6749  0.6863  1.2075
 1503SOL     OW15967   1.413   1.179  15.842 -0.1738 -0.3323  0.0908
 1503SOL    HW115968   1.371   1.100  15.877  0.4583  0.0430  1.6949
 1503SOL    HW215969   1.497   1.143  15.813  0.5200 -0.5706  2.4058
 1504SOL     OW15970   0.841   0.982   4.983 -0.7765  0.1579 -0.1363
 1504SOL    HW115971   0.839   1.077   4.998  1.3114  0.1640  0.0654
 1504SOL    HW215972   0.897   0.971   4.907 -0.6113  0.6610 -0.0925
 1505SOL     OW15973   3.438   4.391   8.692 -0.5517 -1.1265 -0.1825
 1505SOL    HW115974   3.375   4.450   8.651  1.6818  1.9257  0.8160
 1505SOL    HW215975   3.441   4.427   8.781 -0.1571 -1.7506  0.0602
 1506SOL     OW15976   1.032   1.838   0.520 -0.2650 -0.3707  0.0232
 1506SOL    HW115977   0.975   1.773   0.480 -1.2522  0.9049 -0.6354
 1506SOL    HW215978   1.114   1.823   0.472 -1.2317 -0.2605 -1.6535
 1507SOL     OW15979   0.235   0.344   2.968  0.6295 -0.0016  0.2745
 1507SOL    HW115980   0.140   0.341   2.962  0.7109 -1.2889 -0.4480
 1507SOL    HW215981   0.249   0.373   3.058 -0.2161  2.7150 -0.4849
 1508SOL     OW15982   2.325   4.708   3.585 -0.2010  0.2416  0.2015
 1508SOL    HW115983   2.402   4.667   3.626 -0.3089 -0.8246 -0.6743
 1508SOL    HW215984   2.312   0.063   3.640 -0.9267  0.8330 -0.8077
 1509SOL     OW15985   1.012   4.293   3.678 -0.0037  0.1793  0.3599
 1509SOL    HW115986   0.934   4.246   3.708  1.1662 -0.4823  2.3580
 1509SOL    HW215987   0.975   4.380   3.664  0.4639  0.4290  0.6773
 1510SOL     OW15988   2.494   1.131  15.379 -0.4030 -0.6094 -0.5766
 1510SOL    HW115989   2.480   1.077  15.301  0.3146 -1.5165 -0.0735
 1510SOL    HW215990   2.412   1.181  15.382 -0.7524 -1.1772 -0.6322
 1511SOL     OW15991   2.721   2.585   6.336  0.0672  0.1782  0.0479
 1511SOL    HW115992   2.650   2.522   6.350  0.7627 -0.9077 -1.3059
 1511SOL    HW215993   2.755   2.557   6.250  0.4455  0.5977  0.0597
 1512SOL     OW15994   4.458   1.775   6.106 -0.0389  0.0991  0.3825
 1512SOL    HW115995   4.488   1.685   6.100  0.6460  0.4988 -2.5033
 1512SOL    HW215996   4.432   1.771   6.014 -0.6369  0.4772  0.5373
 1513SOL     OW15997   4.132   3.222   1.265 -0.6100  0.3709  0.1334
 1513SOL    HW115998   4.112   3.198   1.355 -0.9996 -1.6966 -0.4928
 1513SOL    HW215999   4.079   3.161   1.212 -1.1501  1.3871 -0.4941
 1514SOL     OW16000   1.557   0.200   5.171 -0.0912 -0.1002  0.0108
 1514SOL    HW116001   1.569   0.209   5.265 -0.1799  2.0317 -0.1689
 1514SOL    HW216002   1.643   0.191   5.130 -0.2779  0.7017 -0.5802
 1515SOL     OW16003   3.570   2.228   0.422 -0.3934  0.1568  0.2245
 1515SOL    HW116004   3.514   2.168   0.471 -0.1519  0.5188  0.9608
 1515SOL    HW216005   3.512   2.302   0.442 -1.7057 -0.7314 -0.3493
 1516SOL     OW16006   3.736   3.374  13.309  0.5182  0.1390  0.0373
 1516SOL    HW116007   3.735   3.365  13.404  1.1235  2.2295  0.2323
 1516SOL    HW216008   3.799   3.445  13.296  1.2769 -0.0737  2.5799
 1517SOL     OW16009   2.567   0.857   5.103 -0.2138 -0.3216  0.3727
 1517SOL    HW116010   2.636   0.857   5.036 -1.0705  1.3013 -0.5094
 1517SOL    HW216011   2.521   0.773   5.098 -2.2599  0.7757  0.8179
 1518SOL     OW16012   0.357   4.590   4.691  0.5278 -0.7300 -0.4778
 1518SOL    HW116013   0.447   4.578   4.721  0.9860 -1.2240 -2.0565
 1518SOL    HW216014   0.321   4.626   4.772  2.8437  2.1475 -0.7216
 1519SOL     OW16015   2.319   2.713  14.258 -0.4989  0.2890  0.4689
 1519SOL    HW116016   2.262   2.750  14.325  0.7111  4.4655 -0.7882
 1519SOL    HW216017   2.346   2.791  14.210  1.6493 -0.4407  0.4725
 1520SOL     OW16018   1.161   0.383   6.137 -0.0923  0.1058  0.1099
 1520SOL    HW116019   1.208   0.437   6.074  2.7120  1.0601  3.0237
 1520SOL    HW216020   1.144   0.445   6.209 -1.5697 -0.9616  0.6757
 1521SOL     OW16021   3.848   3.144  12.961 -0.2618  0.2675 -0.0963
 1521SOL    HW116022   3.853   3.191  12.878  2.1735  1.9985  1.0452
 1521SOL    HW216023   3.939   3.147  12.990 -0.6515  0.4438  1.1256
 1522SOL     OW16024   2.051   1.263  14.230  0.4293  0.0581 -0.2512
 1522SOL    HW116025   1.978   1.203  14.244  0.2791  0.1842 -0.4907
 1522SOL    HW216026   2.040   1.285  14.137 -0.0046  0.5323 -0.0862
 1523SOL     OW16027   2.046   1.267   1.339  0.1365 -0.3880  0.9016
 1523SOL    HW116028   2.098   1.234   1.412  1.6069  1.9770  0.9156
 1523SOL    HW216029   1.970   1.301   1.387 -0.2908 -0.7169  0.4633
 1524SOL     OW16030   0.181   1.792   1.778  0.4115  0.1827  0.1639
 1524SOL    HW116031   0.204   1.770   1.868 -2.9835 -1.4823  0.6181
 1524SOL    HW216032   0.148   1.708   1.747 -0.8146  1.0384 -0.8704
 1525SOL     OW16033   4.529   4.639   7.657  0.2068 -0.2618 -0.0139
 1525SOL    HW116034   4.586   4.676   7.590 -2.2959  0.2635 -1.8619
 1525SOL    HW216035   4.557   4.682   7.738 -1.3255 -0.4405  0.6166
 1526SOL     OW16036   2.208   1.780   5.517  0.4164  0.5489  0.1707
 1526SOL    HW116037   2.134   1.776   5.577  2.1216  3.3017  2.4445
 1526SOL    HW216038   2.159   1.793   5.436  0.2537 -1.7263 -0.0879
 1527SOL     OW16039   4.463   3.642  11.484 -0.3924  0.3032 -0.2131
 1527SOL    HW116040   4.458   3.712  11.550 -4.2469  0.2749 -0.4629
 1527SOL    HW216041   4.494   3.567  11.533 -1.4068 -2.1431 -3.2911
 1528SOL     OW16042   2.407   0.317   6.962 -0.6299  0.4230 -0.1880
 1528SOL    HW116043   2.409   0.359   7.048  0.8935 -2.6719  1.3080
 1528SOL    HW216044   2.495   0.280   6.955 -0.0493  2.0379 -1.5416
 1529SOL     OW16045   1.546   4.487   4.518  0.6999  0.1928  0.0645
 1529SOL    HW116046   1.515   4.524   4.600 -2.6065  0.6300 -1.3580
 1529SOL    HW216047   1.525   4.559   4.458 -1.0798  0.0025  0.4478
 1530SOL     OW16048   3.623   1.493   8.183 -0.0248 -0.3260 -0.8825
 1530SOL    HW116049   3.538   1.525   8.212  0.4737 -1.9649  2.3931
 1530SOL    HW216050   3.626   1.399   8.201 -0.4604 -0.2118 -0.1841
 1531SOL     OW16051   1.363   2.759   1.416 -0.2316  0.3234 -0.3753
 1531SOL    HW116052   1.348   2.817   1.491  0.4811  0.9677 -0.7284
 1531SOL    HW216053   1.277   2.744   1.377  0.9149 -4.1696 -1.1554
 1532SOL     OW16054   1.629   4.237   9.530  0.0495 -0.4444  0.3230
 1532SOL    HW116055   1.649   4.286   9.609  3.6903 -0.7679 -0.3870
 1532SOL    HW216056   1.612   4.151   9.569  0.1718 -0.2957  0.7027
 1533SOL     OW16057   3.426   3.093   3.383  0.1124  0.0791 -0.6333
 1533SOL    HW116058   3.483   3.039   3.328  1.3501  0.0910  0.6437
 1533SOL    HW216059   3.341   3.049   3.382  0.0167  0.2328  0.9196
 1534SOL     OW16060   4.178   2.698   0.498 -0.6479  0.2845  0.0644
 1534SOL    HW116061   4.262   2.743   0.505  0.3592 -1.9335  1.9005
 1534SOL    HW216062   4.142   2.743   0.421 -1.6313 -0.2530  0.2099
 1535SOL     OW16063   3.699   1.183   3.679 -0.3269 -0.0566  0.0343
 1535SOL    HW116064   3.751   1.258   3.709  0.5440 -1.1228  1.2201
 1535SOL    HW216065   3.691   1.126   3.756 -0.8868 -0.3396 -0.2408
 1536SOL     OW16066   1.073   2.218   2.124  0.3568  0.0770  0.4060
 1536SOL    HW116067   1.030   2.257   2.200  0.4792 -0.0390  0.5347
 1536SOL    HW216068   1.094   2.290   2.065  2.4859 -2.1464 -1.5270
 1537SOL     OW16069   0.573   0.400   2.815 -0.3831 -0.2062  0.1353
 1537SOL    HW116070   0.564   0.314   2.854 -2.2624  0.2722  0.7293
 1537SOL    HW216071   0.554   0.463   2.885 -0.7787 -1.1120  0.8480
 1538SOL     OW16072   0.697   3.766   2.018  0.4566  0.1759 -0.0880
 1538SOL    HW116073   0.761   3.749   1.950  0.9681  0.8752  0.2188
 1538SOL    HW216074   0.712   3.860   2.029  1.5287 -0.0492  0.3406
 1539SOL     OW16075   3.585   1.819  16.544 -0.4448  0.1092 -0.2773
 1539SOL    HW116076   3.653   1.774  16.595 -1.3633  0.4462  1.2364
 1539SOL    HW216077   3.519   1.847  16.607 -1.8770 -1.5792 -1.0172
 1540SOL     OW16078   2.452   2.252  14.086 -0.2324  0.7975  0.4657
 1540SOL    HW116079   2.456   2.158  14.073 -0.3122  0.8286  0.2162
 1540SOL    HW216080   2.484   2.266  14.175 -0.3186 -1.0999  0.7969
 1541SOL     OW16081   0.592   1.040   5.838 -0.1542  0.2417 -0.9065
 1541SOL    HW116082   0.518   1.032   5.899  1.8822  0.5159  1.5831
 1541SOL    HW216083   0.543   1.064   5.759  0.9259  1.6260 -1.1575
 1542SOL     OW16084   3.842   1.337  12.780  0.8092 -0.2002  0.0612
 1542SOL    HW116085   3.755   1.311  12.808  0.3136  0.9126 -0.4228
 1542SOL    HW216086   3.871   1.404  12.842 -0.5818  0.4899 -0.0313
 1543SOL     OW16087   4.245   4.608   6.427  0.6075 -0.4695 -0.2489
 1543SOL    HW116088   4.277   4.693   6.458 -0.9905 -1.3486  3.7477
 1543SOL    HW216089   4.206   4.574   6.508 -1.0106  1.7961 -0.0619
 1544SOL     OW16090   2.637   0.878  11.391 -0.0933 -0.1938 -0.4098
 1544SOL    HW116091   2.616   0.947  11.454  1.9788 -0.9919  1.1562
 1544SOL    HW216092   2.723   0.909  11.363 -0.0866  1.2323  1.1633
 1545SOL     OW16093   4.653   2.570   6.095 -0.2859  0.2137 -0.3310
 1545SOL    HW116094   4.615   2.623   6.025  0.3621 -2.1544 -2.4712
 1545SOL    HW216095   4.584   2.504   6.100  1.7562 -1.7624  1.6721
 1546SOL     OW16096   2.973   3.874   7.355  0.2182  0.3764  0.5092
 1546SOL    HW116097   2.943   3.820   7.282 -0.0841  2.2921 -0.7998
 1546SOL    HW216098   3.057   3.834   7.377 -1.8542 -3.5953  1.1682
 1547SOL     OW16099   1.608   2.324   6.076 -0.0651 -0.4689  0.1351
 1547SOL    HW116100   1.609   2.413   6.111 -0.5226 -0.7609  0.8743
 1547SOL    HW216101   1.693   2.283   6.056  1.2939  2.2942  0.2245
 1548SOL     OW16102   1.669   3.534  13.252 -0.0509 -0.2285 -0.2044
 1548SOL    HW116103   1.750   3.499  13.214  1.4534  1.2109  1.7045
 1548SOL    HW216104   1.702   3.592  13.320  0.7419 -2.0503  0.9781
 1549SOL     OW16105   4.225   1.509   4.474  0.6507 -0.2996  0.2485
 1549SOL    HW116106   4.229   1.416   4.450  0.2214 -0.2871  0.1254
 1549SOL    HW216107   4.317   1.524   4.497  0.7616  1.2238 -1.1439
 1550SOL     OW16108   2.133   1.445   5.050 -0.4686  0.0557 -0.4427
 1550SOL    HW116109   2.044   1.418   5.026  0.4237 -2.2890 -1.1102
 1550SOL    HW216110   2.139   1.443   5.145 -0.5436  2.5446 -0.3870
 1551SOL     OW16111   1.758   4.207   5.623  0.1732  0.3083 -0.0723
 1551SOL    HW116112   1.681   4.262   5.637  0.1886  0.4114 -0.3834
 1551SOL    HW216113   1.827   4.228   5.686 -0.5917  0.5198  0.6971
 1552SOL     OW16114   3.697   0.001   6.973  0.4180  0.3346  0.2418
 1552SOL    HW116115   3.741   0.010   7.058 -3.2688 -0.4780  2.2464
 1552SOL    HW216116   3.686   0.095   6.955  1.0559  0.0355 -1.6878
 1553SOL     OW16117   0.533   0.262   1.144  0.4296 -0.4730 -0.3649
 1553SOL    HW116118   0.466   0.259   1.212  0.1991  0.0381 -0.5648
 1553SOL    HW216119   0.550   0.169   1.132 -0.8889 -0.7223 -0.2723
 1554SOL     OW16120   1.070   1.267   6.964  0.2196  0.0677  0.1641
 1554SOL    HW116121   0.994   1.323   6.971 -0.6657 -1.3946  2.3185
 1554SOL    HW216122   1.128   1.318   6.908 -4.8181  2.7544 -2.5858
 1555SOL     OW16123   2.986   2.714   3.275  0.0794 -0.4506  0.2990
 1555SOL    HW116124   3.073   2.713   3.235 -0.8470  1.6691 -1.7807
 1555SOL    HW216125   2.965   2.626   3.243 -2.0085 -1.1432  3.6125
 1556SOL     OW16126   0.128   2.646   5.377 -0.0793 -0.1130  0.3529
 1556SOL    HW116127   0.092   2.734   5.365 -0.8051 -0.6777 -1.5911
 1556SOL    HW216128   0.081   2.593   5.312  1.7687  1.1545 -2.0307
 1557SOL     OW16129   1.472   0.209   7.737  0.3121 -0.1049 -0.5713
 1557SOL    HW116130   1.469   0.304   7.722  2.0861  0.1225  0.5703
 1557SOL    HW216131   1.383   0.194   7.769  0.3369  0.3784 -0.2779
 1558SOL     OW16132   0.939   4.543   7.073 -0.1580  0.1170  0.5963
 1558SOL    HW116133   0.939   4.623   7.021 -1.3383 -0.4433 -0.2476
 1558SOL    HW216134   1.030   4.517   7.057 -0.5254  0.5207 -2.0942
 1559SOL     OW16135   0.613   1.520   6.589  0.3925 -0.3321 -0.0736
 1559SOL    HW116136   0.668   1.484   6.519  0.5668  0.9389 -0.5914
 1559SOL    HW216137   0.662   1.484   6.663  1.1126 -0.2493 -0.5085
 1560SOL     OW16138   1.314   1.586  16.010  0.1581 -0.0422  0.1973
 1560SOL    HW116139   1.368   1.586  15.931 -0.0594 -3.1356  0.0270
 1560SOL    HW216140   1.343   1.509  16.059  2.3209  1.4706  1.3016
 1561SOL     OW16141   0.752   1.902   4.500  0.0142  0.5947 -0.4137
 1561SOL    HW116142   0.795   1.970   4.448 -0.9270 -0.4942 -2.6376
 1561SOL    HW216143   0.722   1.952   4.576  0.3508  0.9272 -0.4970
 1562SOL     OW16144   3.007   2.562  12.618 -0.0020 -0.2745 -0.2718
 1562SOL    HW116145   2.961   2.592  12.539 -0.6841  0.2099  0.3138
 1562SOL    HW216146   3.087   2.522  12.583  1.6240 -0.0228  3.2386
 1563SOL     OW16147   0.456   3.093   7.829  0.0313 -0.2198 -0.1952
 1563SOL    HW116148   0.518   3.040   7.779 -0.1265  1.2283 -1.9214
 1563SOL    HW216149   0.451   3.038   7.907  0.7940  2.0230  1.4319
 1564SOL     OW16150   1.651   3.392   8.379 -0.1491 -0.5112 -0.1997
 1564SOL    HW116151   1.639   3.356   8.291 -0.3439  1.8149 -1.1378
 1564SOL    HW216152   1.576   3.364   8.430 -0.7517  0.5475 -0.5082
 1565SOL     OW16153   0.327   3.293  11.164 -0.4818 -0.0885  0.2450
 1565SOL    HW116154   0.366   3.358  11.106 -1.0613  0.4551  0.4562
 1565SOL    HW216155   0.400   3.287  11.226 -0.8563  0.1021  0.7082
 1566SOL     OW16156   1.346   3.168   1.816 -0.1449  0.4647  0.0485
 1566SOL    HW116157   1.402   3.245   1.821  0.0724  0.2816  0.4806
 1566SOL    HW216158   1.400   3.103   1.770  0.5201  2.1622 -1.5719
 1567SOL     OW16159   0.328   2.732   2.562 -0.0426  0.0866  0.0962
 1567SOL    HW116160   0.319   2.674   2.638  0.9773 -2.7966 -1.9979
 1567SOL    HW216161   0.336   2.811   2.616  1.5278  0.7317 -1.0759
 1568SOL     OW16162   3.942   3.206   5.845  0.3731 -0.3753 -0.2514
 1568SOL    HW116163   3.994   3.147   5.898  1.0149  0.3803 -0.0343
 1568SOL    HW216164   3.939   3.284   5.900 -1.6225  0.0555 -0.9487
 1569SOL     OW16165   3.150   1.759   5.531  0.0534 -0.3277 -0.3436
 1569SOL    HW116166   3.117   1.677   5.565 -2.9744  2.2778  2.9834
 1569SOL    HW216167   3.245   1.751   5.541  0.1551 -0.0085 -1.0558
 1570SOL     OW16168   0.326   1.954   0.715 -0.0648  0.0483  0.1807
 1570SOL    HW116169   0.379   2.018   0.668 -0.9528  1.1479  0.6680
 1570SOL    HW216170   0.285   1.901   0.647  2.1325 -3.0711  1.2943
 1571SOL     OW16171   4.205   2.413   1.713  0.1466  0.2262 -0.4705
 1571SOL    HW116172   4.222   2.325   1.747 -1.8119 -0.9454 -2.5806
 1571SOL    HW216173   4.241   2.399   1.626 -2.9097 -0.4577 -1.6363
 1572SOL     OW16174   4.527   4.360   1.941 -0.0149 -0.2260  0.1077
 1572SOL    HW116175   4.460   4.304   1.902 -1.3264  0.7898  0.9187
 1572SOL    HW216176   4.535   4.435   1.882 -0.5178  1.1414  1.7879
 1573SOL     OW16177   1.800   0.360   6.586 -0.1428 -0.4672 -0.8202
 1573SOL    HW116178   1.740   0.355   6.512 -1.4868  1.9289  0.0979
 1573SOL    HW216179   1.837   0.274   6.567 -2.0377 -1.4966  0.1023
 1574SOL     OW16180   0.647   3.819   6.395 -0.2778 -0.4795 -0.0750
 1574SOL    HW116181   0.597   3.778   6.324 -0.3219 -1.2574  0.4069
 1574SOL    HW216182   0.735   3.791   6.369 -0.0552  0.5677 -0.4685
 1575SOL     OW16183   2.865   3.216   1.869  0.1069 -0.0525 -0.8739
 1575SOL    HW116184   2.793   3.152   1.864  0.0766  0.1350 -2.9277
 1575SOL    HW216185   2.924   3.171   1.930 -1.3934 -1.3173 -0.3435
 1576SOL     OW16186   3.491   0.442   5.250  0.4336  0.2631  0.5903
 1576SOL    HW116187   3.411   0.491   5.229  0.9819  0.7511 -0.3729
 1576SOL    HW216188   3.473   0.398   5.333  0.7266 -0.8610  0.0487
 1577SOL     OW16189   2.576   2.836  10.470  0.5139  0.4592 -0.4458
 1577SOL    HW116190   2.528   2.755  10.453  0.8435  0.5579 -1.7832
 1577SOL    HW216191   2.613   2.817  10.557  0.0191  2.2599  0.1471
 1578SOL     OW16192   0.073   1.528  16.538 -0.6629 -0.6685  0.0772
 1578SOL    HW116193   0.133   1.602  16.525 -1.7781  0.2743  0.2865
 1578SOL    HW216194   0.111   1.460  16.482  0.1218 -1.0473  1.0753
 1579SOL     OW16195   0.340   4.143  14.017 -0.7645 -0.2177  0.3827
 1579SOL    HW116196   0.363   4.118  13.927  0.4683  0.3610  0.5369
 1579SOL    HW216197   0.421   4.162  14.064 -0.5925  2.2526 -0.9088
 1580SOL     OW16198   4.025   0.195   3.937  0.0674 -0.5013 -0.1740
 1580SOL    HW116199   3.976   0.174   3.858  2.0866 -3.4165 -0.6484
 1580SOL    HW216200   4.101   0.244   3.905 -0.3258 -0.3513 -0.8812
 1581SOL     OW16201   1.562   2.853   6.968 -0.1247  0.3390 -0.1217
 1581SOL    HW116202   1.594   2.934   7.008  2.8440  0.0498 -1.9139
 1581SOL    HW216203   1.581   2.880   6.878  1.9965 -0.6710  0.0190
 1582SOL     OW16204   3.520   2.029   4.908 -0.0589 -0.4593  0.4409
 1582SOL    HW116205   3.428   2.029   4.934 -0.8069 -1.1385 -2.2362
 1582SOL    HW216206   3.507   2.046   4.815  0.1778  1.3882  0.7492
 1583SOL     OW16207   3.199   0.581  12.097  0.3108 -0.2032  0.5902
 1583SOL    HW116208   3.198   0.486  12.085  0.7051  0.0866 -1.6624
 1583SOL    HW216209   3.291   0.602  12.081  1.1370 -2.2598  2.6411
 1584SOL     OW16210   1.046   2.936  10.348 -0.5918 -0.5531  0.2690
 1584SOL    HW116211   1.035   2.925  10.254  0.7181  0.8444 -0.0536
 1584SOL    HW216212   1.055   2.842  10.366  1.9833  0.0013  1.9244
 1585SOL     OW16213   2.080   4.327   4.486  0.1854  0.2605  0.0515
 1585SOL    HW116214   2.131   4.306   4.408 -0.7878  0.3163 -0.6045
 1585SOL    HW216215   2.088   4.251   4.543  1.6919  1.1852  1.0906
 1586SOL     OW16216   2.090   1.207  13.161 -0.3103  0.4408  0.0635
 1586SOL    HW116217   2.054   1.238  13.078 -1.9656 -2.3666 -0.2505
 1586SOL    HW216218   2.012   1.171  13.202  1.6565 -2.1605  1.5326
 1587SOL     OW16219   1.043   2.816   1.744  0.1628  0.1947 -0.3202
 1587SOL    HW116220   0.968   2.790   1.691  0.8366 -0.8626 -0.7698
 1587SOL    HW216221   1.049   2.728   1.782 -0.6513 -0.3685 -1.5167
 1588SOL     OW16222   4.031   3.283   2.507 -0.3678  0.6941  0.3043
 1588SOL    HW116223   4.066   3.290   2.418 -2.6881  2.3675 -0.4714
 1588SOL    HW216224   3.981   3.365   2.506  0.4645  1.2069 -0.8528
 1589SOL     OW16225   4.419   1.828  14.635 -0.7455 -0.7619  0.0665
 1589SOL    HW116226   4.496   1.874  14.601  0.2646 -0.7016  2.3656
 1589SOL    HW216227   4.416   1.864  14.724  2.0070 -1.0354  0.2509
 1590SOL     OW16228   3.919   1.266   6.953  0.3256  0.0853  0.1513
 1590SOL    HW116229   3.972   1.188   6.941 -3.6920 -2.6197 -0.0407
 1590SOL    HW216230   3.860   1.255   6.878 -0.8837 -1.3818  1.3077
 1591SOL     OW16231   0.686   0.795  13.525 -0.2186  0.4323  0.1409
 1591SOL    HW116232   0.780   0.807  13.536 -0.0589 -1.2738  0.6052
 1591SOL    HW216233   0.668   0.718  13.579 -2.6651 -0.1726 -1.5526
 1592SOL     OW16234   3.609   3.957   6.000 -0.2597 -0.1317 -0.3851
 1592SOL    HW116235   3.519   3.928   6.014  0.4732 -0.9246  2.7604
 1592SOL    HW216236   3.602   4.052   5.995  1.1352  0.0471  0.7946
 1593SOL     OW16237   3.443   3.945  14.160  0.3933  0.1135 -0.1634
 1593SOL    HW116238   3.431   4.008  14.231 -0.9032 -0.6939  0.3439
 1593SOL    HW216239   3.501   3.880  14.199 -0.8812 -1.1430 -0.3566
 1594SOL     OW16240   0.775   0.462   9.110  0.7042 -0.2221  0.6903
 1594SOL    HW116241   0.792   0.555   9.094  3.7155 -0.8280  0.4440
 1594SOL    HW216242   0.858   0.439   9.151  1.1207 -1.1741 -0.6844
 1595SOL     OW16243   3.647   2.287   3.455 -0.4693  0.0275 -0.3649
 1595SOL    HW116244   3.640   2.348   3.381 -1.5876  1.2871  0.7741
 1595SOL    HW216245   3.585   2.222   3.425  0.7657 -0.8021 -1.1292
 1596SOL     OW16246   2.126   3.958   7.891 -0.1682  0.7768  0.6562
 1596SOL    HW116247   2.221   3.967   7.895 -0.1987  0.3723  2.2678
 1596SOL    HW216248   2.103   4.039   7.937  1.3903  0.8297  1.3535
 1597SOL     OW16249   4.095   3.431  16.915  0.0741 -0.0513 -0.3290
 1597SOL    HW116250   4.154   3.467  16.982  3.4319 -0.8077 -2.8368
 1597SOL    HW216251   4.039   3.504  16.891  1.9209  0.9646 -1.5753
 1598SOL     OW16252   2.199   3.842   8.358 -0.2644 -0.2849 -0.7655
 1598SOL    HW116253   2.278   3.800   8.322  0.5126 -0.6814  1.4275
 1598SOL    HW216254   2.174   3.784   8.430 -0.7137  0.1551 -0.5736
 1599SOL     OW16255   1.982   1.692   0.743 -0.2264  0.6191 -0.3895
 1599SOL    HW116256   1.906   1.684   0.800  0.7812 -0.6740  0.7359
 1599SOL    HW216257   2.048   1.644   0.792  0.3913  1.4528 -0.4004
 1600SOL     OW16258   4.646   1.982  17.239 -0.1348 -0.1201  0.1535
 1600SOL    HW116259   4.603   1.974  17.324 -0.2755 -0.6836  0.0327
 1600SOL    HW216260   4.570   2.013  17.190 -0.5607 -0.6941  0.4562
 1601SOL     OW16261   2.942   3.491   0.180 -0.1506  0.8865 -0.1518
 1601SOL    HW116262   2.988   3.554   0.235  0.2318  1.0164 -0.6163
 1601SOL    HW216263   2.949   3.411   0.231 -1.2268 -0.7829 -2.6344
 1602SOL     OW16264   0.474   0.450  15.827  0.3824  0.0953 -0.0987
 1602SOL    HW116265   0.403   0.439  15.764 -1.1284 -0.7079  1.7488
 1602SOL    HW216266   0.543   0.484  15.770  0.2552  2.0770  0.9248
 1603SOL     OW16267   0.823   0.836   6.256 -0.5198 -0.8005  0.1872
 1603SOL    HW116268   0.898   0.881   6.294 -1.7450  1.8835 -0.5975
 1603SOL    HW216269   0.752   0.897   6.237  0.3464  0.1462  0.0032
 1604SOL     OW16270   1.175   0.094  17.063 -0.7652 -0.9004 -0.2764
 1604SOL    HW116271   1.153   0.047  17.143  0.3009 -0.3642  0.3260
 1604SOL    HW216272   1.197   0.024  17.002 -0.1204  0.9810 -2.2464
 1605SOL     OW16273   0.072   4.554   3.533 -0.2433  0.9510 -0.2091
 1605SOL    HW116274   0.123   4.635   3.532  0.0276  0.7430 -1.6999
 1605SOL    HW216275   0.126   4.508   3.598 -2.5510  0.7693  1.6152
 1606SOL     OW16276   2.602   0.630   3.236 -0.1655 -0.5514 -0.2474
 1606SOL    HW116277   2.597   0.599   3.327  2.6867 -2.6117 -0.7794
 1606SOL    HW216278   2.583   0.723   3.249 -0.5897 -0.5964 -0.5500
 1607SOL     OW16279   0.053   2.862   3.886  0.2584  0.6991  0.2942
 1607SOL    HW116280   0.075   2.787   3.941  3.4714  1.3802 -0.0546
 1607SOL    HW216281   4.692   2.886   3.924  0.3701  0.5968  0.6008
 1608SOL     OW16282   1.441   0.325   8.434 -0.1146 -0.7692  0.3466
 1608SOL    HW116283   1.499   0.326   8.357  0.8521 -1.8902  1.0641
 1608SOL    HW216284   1.444   0.418   8.453 -2.7395 -0.4477 -0.7340
 1609SOL     OW16285   0.622   1.796  13.084 -0.1912  0.5853 -0.3030
 1609SOL    HW116286   0.583   1.775  12.999  1.0628  1.5036 -1.1067
 1609SOL    HW216287   0.542   1.802  13.135 -2.5210 -1.6080 -3.6514
 1610SOL     OW16288   4.184   3.869   9.293  0.1949  0.2304  0.0231
 1610SOL    HW116289   4.228   3.879   9.209  0.7856  2.2707  0.5673
 1610SOL    HW216290   4.171   3.776   9.311 -2.3609  0.6207  0.1904
 1611SOL     OW16291   4.577   1.074   2.323  0.3333  0.0248 -0.3417
 1611SOL    HW116292   4.518   1.050   2.252 -0.9785  1.8379  0.1418
 1611SOL    HW216293   4.626   1.141   2.277  0.7452 -1.1285 -1.5745
 1612SOL     OW16294   2.734   1.804  12.492 -0.2232 -0.2060 -0.1503
 1612SOL    HW116295   2.713   1.858  12.417 -0.0997 -1.5307 -1.1330
 1612SOL    HW216296   2.814   1.760  12.465  0.9264  2.2152 -0.6171
 1613SOL     OW16297   2.062   1.588  15.049 -0.0013 -0.0224 -0.3843
 1613SOL    HW116298   2.028   1.499  15.058  0.5599 -0.1324  0.6661
 1613SOL    HW216299   2.108   1.596  15.132  0.5401 -2.4244 -0.4393
 1614SOL     OW16300   0.552   1.087   6.724  0.4620 -0.3086 -0.1416
 1614SOL    HW116301   0.547   1.030   6.648 -1.9450  0.0735 -0.2852
 1614SOL    HW216302   0.487   1.154   6.700 -1.2447 -1.8689  0.1200
 1615SOL     OW16303   2.649   2.224   5.365  0.2237  0.6387 -0.1378
 1615SOL    HW116304   2.592   2.147   5.367 -0.1555  0.9060 -0.6717
 1615SOL    HW216305   2.688   2.204   5.450 -1.2330 -0.0472  0.3619
 1616SOL     OW16306   1.033   2.902   4.314  0.2182  0.0455  0.2131
 1616SOL    HW116307   0.956   2.846   4.318  1.6894 -1.9946  0.2830
 1616SOL    HW216308   0.997   2.982   4.351  1.5095  0.2872  0.9297
 1617SOL     OW16309   0.127   1.698   9.095 -0.2564 -0.3350 -0.3224
 1617SOL    HW116310   0.183   1.776   9.092 -1.4951  0.6360  1.4120
 1617SOL    HW216311   0.080   1.724   9.016 -6.6766 -3.5487  2.4043
 1618SOL     OW16312   4.060   1.672   7.079  0.5348 -0.1033 -0.1818
 1618SOL    HW116313   4.108   1.596   7.048  0.1793  0.0335 -1.0651
 1618SOL    HW216314   4.019   1.707   7.000  1.0065 -0.9623 -0.8140
 1619SOL     OW16315   0.807   3.635   3.322  0.1439 -0.1393 -0.2379
 1619SOL    HW116316   0.788   3.543   3.343 -2.8181  0.7107  0.7755
 1619SOL    HW216317   0.745   3.662   3.255 -1.0334  0.8970  1.2790
 1620SOL     OW16318   0.030   1.769  17.466 -0.7952  0.1344 -0.0146
 1620SOL    HW116319   0.091   1.838  17.491 -0.9394  1.2388 -2.7246
 1620SOL    HW216320   0.089   1.700  17.496  1.5759  3.0437  1.9920
 1621SOL     OW16321   1.538   0.800   4.903  0.4606 -0.6461  0.5041
 1621SOL    HW116322   1.546   0.890   4.935 -0.3991 -0.2748 -0.3019
 1621SOL    HW216323   1.484   0.754   4.967 -0.5707 -0.8008 -0.4660
 1622SOL     OW16324   2.829   2.432   6.132  0.4996 -0.6069 -0.8433
 1622SOL    HW116325   2.881   2.426   6.052  0.3654  0.2055 -0.9848
 1622SOL    HW216326   2.761   2.370   6.106  0.9341 -0.8019 -1.5198
 1623SOL     OW16327   3.440   2.040   7.575 -0.1601  0.5448 -0.0588
 1623SOL    HW116328   3.488   2.013   7.653 -0.0689 -2.4154 -1.1604
 1623SOL    HW216329   3.405   1.954   7.555  1.5095 -0.4296  1.1856
 1624SOL     OW16330   1.078   0.236   0.310 -0.1097  0.4047  0.1912
 1624SOL    HW116331   1.078   0.155   0.258 -1.0166  2.3308 -2.7891
 1624SOL    HW216332   1.170   0.261   0.306  0.7741 -2.4110  2.9506
 1625SOL     OW16333   3.553   2.991   2.317  0.0565  0.1640 -0.6161
 1625SOL    HW116334   3.558   3.058   2.385 -0.1574  0.5302 -0.9592
 1625SOL    HW216335   3.567   3.051   2.243  0.4755  1.0326  0.1729
 1626SOL     OW16336   2.895   4.531   5.733  0.4321  0.3746 -0.0360
 1626SOL    HW116337   2.875   4.624   5.719 -1.2905 -0.1803 -1.2399
 1626SOL    HW216338   2.988   4.541   5.752  0.1758 -0.0472  1.4946
 1627SOL     OW16339   1.683   2.901   6.715  0.4135 -0.1616 -0.3146
 1627SOL    HW116340   1.768   2.944   6.728 -0.0323 -0.2264  2.7688
 1627SOL    HW216341   1.708   2.832   6.653  0.7946 -1.4561  1.2620
 1628SOL     OW16342   1.540   2.873   0.796  0.0490 -0.7363  0.0268
 1628SOL    HW116343   1.474   2.912   0.854 -0.1493 -0.7554 -0.1878
 1628SOL    HW216344   1.523   2.917   0.713 -0.6478  0.7626  0.9533
 1629SOL     OW16345   0.252   0.950   9.139 -0.0900  0.2819 -0.4409
 1629SOL    HW116346   0.199   0.992   9.071 -1.6042 -0.4175  0.3079
 1629SOL    HW216347   0.256   0.864   9.097 -0.7131 -0.9468  2.0315
 1630SOL     OW16348   2.030   0.257  14.312  0.2787 -0.7116 -0.2102
 1630SOL    HW116349   2.046   0.180  14.366 -0.2440  0.2939  1.3754
 1630SOL    HW216350   1.949   0.224  14.272 -0.4626 -1.0764  1.5808
 1631SOL     OW16351   2.042   1.550  14.593 -0.5049 -0.0844  0.6663
 1631SOL    HW116352   2.061   1.604  14.669 -0.9291 -0.3296  0.9418
 1631SOL    HW216353   1.993   1.614  14.542  3.2538  1.3457 -1.1972
 1632SOL     OW16354   4.529   1.637  17.365 -0.5454 -0.0307 -0.1553
 1632SOL    HW116355   4.606   1.682  17.398  1.4724 -2.5901 -1.3709
 1632SOL    HW216356   4.491   1.607  17.447 -0.4257  2.6634  0.8885
 1633SOL     OW16357   1.821   2.756   7.900 -0.2139 -0.5329  0.3984
 1633SOL    HW116358   1.790   2.686   7.956 -0.9486 -0.1432  0.4836
 1633SOL    HW216359   1.749   2.819   7.893  0.0261 -0.4801 -1.6709
 1634SOL     OW16360   4.216   1.466  17.426  0.3924 -0.3855  0.0401
 1634SOL    HW116361   4.161   1.543  17.415  1.9894  0.6705 -0.5870
 1634SOL    HW216362   4.223   1.443  17.333 -0.0423  1.9169 -0.5493
 1635SOL     OW16363   3.759   1.219   4.878  0.8009 -0.4066 -0.2915
 1635SOL    HW116364   3.726   1.235   4.790 -0.4099  0.5672  0.3284
 1635SOL    HW216365   3.853   1.214   4.862  1.4107 -0.8856  3.3979
 1636SOL     OW16366   0.475   1.497   6.185 -0.2157  0.0636 -0.1685
 1636SOL    HW116367   0.568   1.476   6.173 -0.0402  1.2071 -0.8350
 1636SOL    HW216368   0.438   1.528   6.102 -0.6632  0.1035  0.0496
 1637SOL     OW16369   2.148   3.446   6.283 -0.3716  0.4856 -0.0931
 1637SOL    HW116370   2.059   3.448   6.246  0.4080  0.4650 -1.9956
 1637SOL    HW216371   2.136   3.371   6.341  0.3647  1.4074  1.2314
 1638SOL     OW16372   3.949   3.506   9.532  0.0803 -0.4480  0.3385
 1638SOL    HW116373   3.926   3.597   9.548 -0.9626 -0.7620  0.5861
 1638SOL    HW216374   3.864   3.477   9.501 -0.4038  1.0222  0.2836
 1639SOL     OW16375   4.308   0.558   3.686  0.1099 -0.2615 -0.3979
 1639SOL    HW116376   4.398   0.530   3.700 -0.4026 -2.0218 -0.5284
 1639SOL    HW216377   4.291   0.524   3.598 -0.4912 -0.4342 -0.2159
 1640SOL     OW16378   4.217   0.645   5.500  0.3567 -0.0191 -0.4685
 1640SOL    HW116379   4.138   0.607   5.461  0.1658 -0.2880  0.1891
 1640SOL    HW216380   4.208   0.613   5.590 -1.7523 -0.1533 -0.7256
 1641SOL     OW16381   1.943   1.911   5.379 -0.6230  0.0581 -0.2862
 1641SOL    HW116382   1.850   1.924   5.363 -1.0825 -0.4187  1.9743
 1641SOL    HW216383   1.992   1.951   5.307  2.6162 -0.8235  1.4149
 1642SOL     OW16384   1.735   0.573   7.398  0.3123  0.2658  0.3389
 1642SOL    HW116385   1.813   0.523   7.421  0.3633 -0.1203 -0.6762
 1642SOL    HW216386   1.756   0.596   7.307  1.7796  1.1060  0.8805
 1643SOL     OW16387   3.842   0.652   5.852 -0.3834  0.8402  0.5427
 1643SOL    HW116388   3.926   0.617   5.822 -1.2028 -0.4633 -0.2674
 1643SOL    HW216389   3.848   0.746   5.833  0.3522  0.6979  0.0755
 1644SOL     OW16390   3.719   1.958   0.334 -0.4926 -0.1551  0.2002
 1644SOL    HW116391   3.663   1.906   0.392 -2.8858  0.4193 -1.5863
 1644SOL    HW216392   3.678   2.044   0.344 -1.3091 -0.2420 -2.3323
 1645SOL     OW16393   1.515   0.199   2.351  0.1015  0.2321  0.0787
 1645SOL    HW116394   1.577   0.270   2.364  1.0888 -0.7749  0.7752
 1645SOL    HW216395   1.469   0.240   2.277  0.3875  1.0739  0.3642
 1646SOL     OW16396   1.126   3.657   7.248  0.0236 -0.0734  0.0067
 1646SOL    HW116397   1.041   3.701   7.247 -0.8024 -1.6637  0.5473
 1646SOL    HW216398   1.116   3.604   7.169 -0.5794 -2.1961  1.4760
 1647SOL     OW16399   2.640   1.591   2.906 -0.5332 -0.0274 -0.1261
 1647SOL    HW116400   2.624   1.499   2.883  3.0421 -0.2491 -1.7565
 1647SOL    HW216401   2.614   1.643   2.830  0.0690  1.1102  0.4434
 1648SOL     OW16402   3.048   1.661   8.543  0.2433 -0.3408  0.0953
 1648SOL    HW116403   2.999   1.587   8.578 -1.3656  0.8561  0.3545
 1648SOL    HW216404   3.067   1.701   8.628 -1.0739  0.6681 -0.0840
 1649SOL     OW16405   0.132   1.068   3.947 -0.2782  0.3621  0.3716
 1649SOL    HW116406   0.219   1.074   3.907 -0.4772  1.3919  0.0985
 1649SOL    HW216407   0.154   1.006   4.017  0.0582  0.2071  0.1304
 1650SOL     OW16408   2.399   2.551   7.355  0.2877  0.1211  0.6133
 1650SOL    HW116409   2.365   2.640   7.345  2.0209  0.7327  0.2572
 1650SOL    HW216410   2.318   2.501   7.344  1.0971 -1.0992  0.1325
 1651SOL     OW16411   3.523   3.660   3.190  0.1241  0.1732 -0.1488
 1651SOL    HW116412   3.438   3.618   3.171  0.6636 -1.3160  0.7084
 1651SOL    HW216413   3.556   3.656   3.100  0.7053 -0.3979  0.0910
 1652SOL     OW16414   4.440   2.765   3.736 -0.0458  0.2013 -0.2404
 1652SOL    HW116415   4.529   2.738   3.756  0.1539  1.1382  0.1244
 1652SOL    HW216416   4.411   2.791   3.823  1.4146 -0.3174  0.3950
 1653SOL     OW16417   2.595   0.078   3.267 -0.0769 -0.0732  0.4762
 1653SOL    HW116418   2.527   0.012   3.284 -1.2371  1.8482  3.3328
 1653SOL    HW216419   2.586   0.127   3.349 -0.8476  0.4502  0.0775
 1654SOL     OW16420   4.560   3.411  13.768  0.4395  0.5169 -0.1993
 1654SOL    HW116421   4.498   3.466  13.720  0.7887  1.2341  0.1791
 1654SOL    HW216422   4.506   3.347  13.814  2.7044  0.2107  2.0205
 1655SOL     OW16423   1.402   1.669   3.097  0.2573 -0.0950 -0.2682
 1655SOL    HW116424   1.317   1.669   3.141 -0.3480  0.4819 -1.4570
 1655SOL    HW216425   1.463   1.685   3.169 -0.2142 -0.1483  0.1401
 1656SOL     OW16426   4.489   3.401  15.505  0.0586  0.3322 -0.3161
 1656SOL    HW116427   4.576   3.382  15.540  0.0126 -1.6863 -1.2802
 1656SOL    HW216428   4.484   3.496  15.512  0.2131  0.3162 -0.0197
 1657SOL     OW16429   2.224   3.917   4.100 -0.0243  0.2152  0.1536
 1657SOL    HW116430   2.186   4.004   4.106 -1.3508 -0.3577  0.0893
 1657SOL    HW216431   2.302   3.939   4.050 -0.8293 -0.1829 -1.2843
 1658SOL     OW16432   3.087   4.470  10.282 -0.4811 -0.0847  0.3102
 1658SOL    HW116433   3.174   4.512  10.286 -0.4890  0.1248 -1.5193
 1658SOL    HW216434   3.047   4.511  10.205  0.2517 -1.9832 -1.0698
 1659SOL     OW16435   0.392   0.659   5.444 -0.5105 -0.1805  0.3793
 1659SOL    HW116436   0.332   0.733   5.445  0.0094  0.2603 -1.3396
 1659SOL    HW216437   0.362   0.616   5.364  0.1366  1.1783 -0.5928
 1660SOL     OW16438   0.799   2.578  17.111 -0.4089 -0.3262 -0.4281
 1660SOL    HW116439   0.778   2.509  17.174 -1.6533  0.6200  0.1977
 1660SOL    HW216440   0.894   2.573  17.103 -0.3184  0.5636  0.0666
 1661SOL     OW16441   4.376   1.631   8.688  0.0072  0.2010  0.1432
 1661SOL    HW116442   4.364   1.721   8.717  0.6867 -0.3391  2.1567
 1661SOL    HW216443   4.432   1.592   8.755 -1.3677 -1.3960  0.3740
 1662SOL     OW16444   4.482   1.617   0.161  0.3553  0.0681 -0.1114
 1662SOL    HW116445   4.569   1.580   0.176  0.0672 -1.1025 -1.3223
 1662SOL    HW216446   4.479   1.623   0.065 -1.7406 -2.5641 -0.2349
 1663SOL     OW16447   0.533   2.224   4.955  0.4867 -0.7055 -0.2557
 1663SOL    HW116448   0.557   2.313   4.982 -0.5662 -1.1315  2.0329
 1663SOL    HW216449   0.551   2.170   5.032  0.4649  1.1746  1.0655
 1664SOL     OW16450   3.667   4.581   1.191 -0.1676 -0.0871  1.2784
 1664SOL    HW116451   3.572   4.572   1.198 -0.2846 -0.3146 -0.6618
 1664SOL    HW216452   3.684   4.500   1.239 -0.8133  0.5297  2.5699
 1665SOL     OW16453   3.700   4.412   8.595  0.1673  0.2382 -0.0132
 1665SOL    HW116454   3.612   4.395   8.629  0.4349  0.6332  0.8922
 1665SOL    HW216455   3.682   4.419   8.502  0.4109  0.4062 -0.0457
 1666SOL     OW16456   1.889   0.078  17.252  0.3646  0.0666 -0.0331
 1666SOL    HW116457   1.973   0.104  17.290 -0.5315 -1.8157  3.1658
 1666SOL    HW216458   1.917   0.027  17.176  0.6145  1.9094 -1.1875
 1667SOL     OW16459   4.514   3.977   1.788  0.1992 -0.0165  0.1437
 1667SOL    HW116460   4.458   4.050   1.763  0.3977  0.7488  1.9567
 1667SOL    HW216461   4.582   3.995   1.724 -0.7702  2.3567 -0.2181
 1668SOL     OW16462   3.112   4.510   2.641  0.5886  0.1180  0.1511
 1668SOL    HW116463   3.118   4.487   2.549 -1.1289 -2.4529  0.6791
 1668SOL    HW216464   3.079   4.425   2.672  0.8328  0.9497  2.6854
 1669SOL     OW16465   2.235   0.077   2.626 -0.3718  0.3831 -0.4607
 1669SOL    HW116466   2.160   0.107   2.677 -0.9967 -1.7393 -0.1134
 1669SOL    HW216467   2.202   0.081   2.536 -0.9934 -0.1502 -0.2587
 1670SOL     OW16468   3.096   2.681   8.216 -0.4581 -0.2302 -0.5901
 1670SOL    HW116469   3.174   2.626   8.224 -0.5298 -0.0648  1.2450
 1670SOL    HW216470   3.026   2.631   8.257 -0.3939  1.0345  1.0699
 1671SOL     OW16471   2.714   0.363   3.693  0.2481  0.1763 -1.0066
 1671SOL    HW116472   2.674   0.362   3.780 -0.2936  0.3928 -1.2531
 1671SOL    HW216473   2.778   0.434   3.698  0.9201 -0.4100 -1.2133
 1672SOL     OW16474   3.335   1.153   7.966 -0.4941  0.0374  0.1451
 1672SOL    HW116475   3.380   1.069   7.963 -1.1908 -0.3273 -0.0218
 1672SOL    HW216476   3.415   1.200   7.990  0.1555 -0.0255 -1.9205
 1673SOL     OW16477   4.553   4.431  16.052 -0.3474  0.0411 -0.0238
 1673SOL    HW116478   4.520   4.503  16.106  1.1545 -0.9542  2.2154
 1673SOL    HW216479   4.468   4.414  16.012 -0.9703  0.8486  0.9536
 1674SOL     OW16480   0.597   3.632   9.671 -0.0353  0.1540 -0.2776
 1674SOL    HW116481   0.633   3.545   9.652 -1.6128 -0.7767  1.0367
 1674SOL    HW216482   0.536   3.633   9.597 -1.0694  0.6782  0.5857
 1675SOL     OW16483   0.563   4.423   9.185  0.1554  0.1465 -0.2343
 1675SOL    HW116484   0.597   4.362   9.251 -0.4211 -1.1532 -1.1292
 1675SOL    HW216485   0.607   4.390   9.106  0.1335 -1.2060  0.3146
 1676SOL     OW16486   3.872   3.889   6.651  0.2337  0.1362 -0.0970
 1676SOL    HW116487   3.809   3.891   6.723  1.3776  0.6740  0.8863
 1676SOL    HW216488   3.866   3.975   6.610 -3.7083 -0.2325 -0.2908
 1677SOL     OW16489   0.527   3.766  14.364  0.2745 -0.1076 -0.1383
 1677SOL    HW116490   0.565   3.840  14.316  0.7608  1.1167  2.1575
 1677SOL    HW216491   0.600   3.705  14.371  0.1843 -0.1538  0.3881
 1678SOL     OW16492   3.269   2.430  12.549 -0.3625  0.2182  0.4007
 1678SOL    HW116493   3.357   2.418  12.513  0.2078 -1.3752  2.3786
 1678SOL    HW216494   3.286   2.480  12.628 -2.1926  0.1946  0.8121
 1679SOL     OW16495   2.691   2.829   2.161  0.0023 -0.1725  0.4446
 1679SOL    HW116496   2.696   2.739   2.128  2.5889  0.5425 -1.0621
 1679SOL    HW216497   2.623   2.859   2.101 -0.8444 -1.0340  0.9472
 1680SOL     OW16498   3.155   0.050   5.126  0.1111 -0.6185 -0.3379
 1680SOL    HW116499   3.095   0.074   5.055  0.4875  1.4551  0.0516
 1680SOL    HW216500   3.129   0.117   5.190 -0.4311  1.4647 -2.7418
 1681SOL     OW16501   1.270   1.942  14.372  0.1683 -0.3820  0.0187
 1681SOL    HW116502   1.185   1.986  14.375  0.1989 -0.3804  0.8259
 1681SOL    HW216503   1.277   1.884  14.447 -1.4106 -0.7680 -0.1207
 1682SOL     OW16504   2.275   2.538  14.054 -0.6454 -0.4402 -0.1128
 1682SOL    HW116505   2.313   2.598  14.118 -2.3289 -0.4456  0.8931
 1682SOL    HW216506   2.190   2.580  14.041  0.0629  1.2235  0.5442
 1683SOL     OW16507   0.940   2.838   6.131  0.1983  0.5939 -0.2862
 1683SOL    HW116508   1.031   2.869   6.127  0.4140  0.0509  0.3684
 1683SOL    HW216509   0.926   2.823   6.225  1.6199  0.6266 -0.0694
 1684SOL     OW16510   2.381   4.592   7.972  0.1828  0.7095 -0.3388
 1684SOL    HW116511   2.393   4.558   8.060 -1.7301 -0.0546 -0.3835
 1684SOL    HW216512   2.336   4.675   7.989 -0.8702  0.2066 -0.6795
 1685SOL     OW16513   2.515   3.879   3.680  0.4028  0.5593 -0.0465
 1685SOL    HW116514   2.610   3.882   3.676  0.3349  1.8862 -0.5937
 1685SOL    HW216515   2.496   3.807   3.620 -1.3023  1.9241 -1.1203
 1686SOL     OW16516   0.764   0.212   0.879 -0.4124  0.7768 -0.1040
 1686SOL    HW116517   0.773   0.242   0.789 -1.4450  1.1731 -0.0794
 1686SOL    HW216518   0.853   0.178   0.891 -0.4764  1.1218  1.3916
 1687SOL     OW16519   3.080   0.960  14.707  0.1384  0.1824  0.0176
 1687SOL    HW116520   3.100   0.935  14.617  1.5919  0.8546  0.1526
 1687SOL    HW216521   3.066   1.054  14.695 -0.6710 -0.3013 -2.8852
 1688SOL     OW16522   2.122   1.457   5.342  0.5720 -0.1029  0.1694
 1688SOL    HW116523   2.031   1.467   5.371  0.7803 -2.1797  1.5351
 1688SOL    HW216524   2.166   1.447   5.426  0.7416 -0.1561  0.0743
 1689SOL     OW16525   0.929   2.551   0.119 -0.3081 -0.3867 -0.3663
 1689SOL    HW116526   0.868   2.623   0.130  0.0575 -0.6081  3.0636
 1689SOL    HW216527   0.893   2.485   0.179 -0.3457  0.6503  0.7492
 1690SOL     OW16528   2.779   2.735   8.058 -0.0996 -0.2025  0.3313
 1690SOL    HW116529   2.803   2.732   7.966  0.1477 -1.4952  0.4409
 1690SOL    HW216530   2.735   2.820   8.064  0.7808  0.3536 -1.3244
 1691SOL     OW16531   3.068   4.100   6.669 -0.0003 -0.2255  0.5720
 1691SOL    HW116532   3.138   4.161   6.648 -1.5131  0.9460 -1.0075
 1691SOL    HW216533   3.073   4.105   6.765  3.2192 -0.1295  0.4139
 1692SOL     OW16534   1.351   0.556   5.959 -0.3451  0.3734  0.4476
 1692SOL    HW116535   1.435   0.521   5.991 -0.5045 -2.3928 -2.1424
 1692SOL    HW216536   1.309   0.482   5.916 -0.1493 -0.7587  2.1990
 1693SOL     OW16537   2.567   1.677   4.222 -0.0553 -0.1932  0.3134
 1693SOL    HW116538   2.486   1.727   4.230  0.8960  1.6295 -1.3128
 1693SOL    HW216539   2.629   1.749   4.230 -0.3707  0.0939  0.1994
 1694SOL     OW16540   2.875   2.821   5.506  0.2508  0.2032  0.7048
 1694SOL    HW116541   2.847   2.756   5.443 -0.0968 -0.5606  1.6391
 1694SOL    HW216542   2.965   2.791   5.524 -0.1365 -1.7185 -0.6414
 1695SOL     OW16543   1.316   2.048   3.014 -0.0883  0.1481 -0.2935
 1695SOL    HW116544   1.322   1.968   2.962 -0.7598  1.0403 -1.7417
 1695SOL    HW216545   1.225   2.042   3.044  0.0885 -0.8346  0.0244
 1696SOL     OW16546   1.152   1.254  15.825 -0.1934 -0.0763 -0.0471
 1696SOL    HW116547   1.236   1.219  15.854 -0.2334  0.0275  0.1985
 1696SOL    HW216548   1.089   1.182  15.820  0.7747 -0.8836 -0.6780
 1697SOL     OW16549   1.948   4.364  11.101 -0.5814 -0.2512  0.9488
 1697SOL    HW116550   1.991   4.445  11.074  0.1783 -0.5344  1.3146
 1697SOL    HW216551   1.908   4.383  11.187 -1.6633  0.3260  0.3215
 1698SOL     OW16552   4.620   3.131   7.504  0.6277 -0.1518  0.4214
 1698SOL    HW116553   4.709   3.150   7.474  0.6455 -1.2240 -0.2096
 1698SOL    HW216554   4.568   3.126   7.424 -1.2048 -0.4424  1.6407
 1699SOL     OW16555   0.293   3.520   7.003 -0.3372 -0.2049 -0.7170
 1699SOL    HW116556   0.275   3.575   7.079 -1.5601  0.9519 -1.8338
 1699SOL    HW216557   0.236   3.563   6.939  2.8881  1.6065 -2.3814
 1700SOL     OW16558   1.033   0.203   2.783 -0.7835  0.3951 -0.2349
 1700SOL    HW116559   1.073   0.288   2.764  0.5092  0.0151  0.7545
 1700SOL    HW216560   0.946   0.195   2.744 -0.2604 -0.6419 -1.2168
 1701SOL     OW16561   1.022   2.172   9.693  0.2360  0.6516  0.1659
 1701SOL    HW116562   0.944   2.229   9.693 -0.3786 -0.1911 -1.6816
 1701SOL    HW216563   0.984   2.102   9.745  0.3356  1.5595  1.4589
 1702SOL     OW16564   3.244   4.654   2.408  0.4414 -0.1240 -0.6906
 1702SOL    HW116565   3.191   4.575   2.399 -0.6137  0.4860  0.2834
 1702SOL    HW216566   3.166   4.707   2.423  1.2395  0.6102  0.8464
 1703SOL     OW16567   1.194   4.079  15.563 -0.5751  0.4134 -0.0439
 1703SOL    HW116568   1.146   4.117  15.489 -1.5959  1.5896  1.2357
 1703SOL    HW216569   1.258   4.031  15.511  1.4822  0.3093  2.5802
 1704SOL     OW16570   4.500   1.507   6.945 -0.5962 -0.6630 -0.6806
 1704SOL    HW116571   4.479   1.446   6.874 -0.1737 -1.5466 -0.0421
 1704SOL    HW216572   4.530   1.449   7.015  0.2753  1.0597  0.3868
 1705SOL     OW16573   3.760   1.764   5.314  0.0658 -0.3799  0.1766
 1705SOL    HW116574   3.745   1.855   5.341  0.5584 -1.2138  3.2935
 1705SOL    HW216575   3.855   1.774   5.300  0.1927  0.7451  1.7951
 1706SOL     OW16576   1.747   2.776   4.631  0.0452 -0.5078 -0.4181
 1706SOL    HW116577   1.704   2.849   4.585  1.6607  1.6644  1.5290
 1706SOL    HW216578   1.700   2.768   4.714  0.4655  0.8271 -0.0549
 1707SOL     OW16579   2.494   3.522   5.315 -1.1724 -0.8606  0.0057
 1707SOL    HW116580   2.423   3.463   5.293 -1.6241 -1.1776  2.3232
 1707SOL    HW216581   2.506   3.558   5.228 -1.0200 -0.6008  0.1325
 1708SOL     OW16582   1.978   2.039   8.736  0.3757  0.5070 -0.2337
 1708SOL    HW116583   1.930   2.029   8.818  0.5756 -2.6492 -0.5125
 1708SOL    HW216584   1.997   1.948   8.713  0.2997  0.5442 -0.4470
 1709SOL     OW16585   2.943   3.132  14.284  0.1544 -0.0348 -0.7165
 1709SOL    HW116586   2.870   3.117  14.223 -0.6618  0.4744  0.1364
 1709SOL    HW216587   2.921   3.176  14.366  0.5602  0.2454 -0.7550
 1710SOL     OW16588   2.404   0.340   7.468 -0.3181  0.1739  0.5648
 1710SOL    HW116589   2.426   0.433   7.482  1.0531  0.3082 -2.5469
 1710SOL    HW216590   2.394   0.305   7.557 -0.9540  0.3071  0.5471
 1711SOL     OW16591   0.956   3.312   7.635 -0.2258  0.3912  0.0037
 1711SOL    HW116592   0.919   3.252   7.699  1.7918  0.3108  1.1082
 1711SOL    HW216593   1.042   3.323   7.675 -0.9663  0.0882  1.6508
 1712SOL     OW16594   0.917   3.811  17.412 -0.5226 -0.4003 -0.2543
 1712SOL    HW116595   0.978   3.884  17.403  1.1119 -1.7873 -0.4634
 1712SOL    HW216596   0.889   3.829  17.502  0.5749  0.2322 -0.0435
 1713SOL     OW16597   4.219   2.390   7.189 -0.0341  0.8924 -0.5028
 1713SOL    HW116598   4.275   2.460   7.222  0.7096  0.9380 -1.8389
 1713SOL    HW216599   4.191   2.345   7.268  1.7147 -0.2561 -0.5374
 1714SOL     OW16600   2.718   2.228   7.049  0.2455 -0.4553 -0.6968
 1714SOL    HW116601   2.666   2.268   6.980 -1.0193 -0.5973  0.1696
 1714SOL    HW216602   2.799   2.279   7.045 -0.5609  0.8273 -0.7399
 1715SOL     OW16603   1.740   3.080   4.933  0.2277  0.2920  0.4005
 1715SOL    HW116604   1.664   3.093   4.877  0.7059 -1.4307 -0.6333
 1715SOL    HW216605   1.754   3.172   4.957  1.4886  0.5398 -1.3382
 1716SOL     OW16606   3.149   3.638   2.221  0.8955  0.4201  0.3103
 1716SOL    HW116607   3.131   3.575   2.151  0.5894 -0.4682  1.1981
 1716SOL    HW216608   3.159   3.720   2.173 -0.7432  0.5585  0.2026
 1717SOL     OW16609   2.929   3.948   0.008  0.4865  0.4827 -0.1195
 1717SOL    HW116610   2.909   3.887  17.630 -2.4098 -0.2226  1.2851
 1717SOL    HW216611   2.883   3.893   0.072 -0.9541  2.4320  0.5471
 1718SOL     OW16612   1.882   2.606   9.924 -0.0343 -0.6839  0.5095
 1718SOL    HW116613   1.929   2.645   9.850  0.6799 -0.6541  0.9809
 1718SOL    HW216614   1.850   2.686   9.966  0.3759 -0.3268  0.1455
 1719SOL     OW16615   1.172   4.552   7.316  0.4590 -0.4843 -0.7804
 1719SOL    HW116616   1.160   4.647   7.315  0.0160 -0.5390 -0.5954
 1719SOL    HW216617   1.165   4.534   7.223 -1.8677 -1.0174 -0.5016
 1720SOL     OW16618   3.160   4.152   6.926 -0.2999  0.0245  0.0813
 1720SOL    HW116619   3.218   4.095   6.875  0.2170  1.1369 -0.5764
 1720SOL    HW216620   3.186   4.119   7.012  1.9503  2.1094  0.2018
 1721SOL     OW16621   1.648   4.596   3.268 -0.3232  0.1946  0.1912
 1721SOL    HW116622   1.620   4.622   3.180 -1.3872  0.2716  0.5494
 1721SOL    HW216623   1.653   4.501   3.257 -1.2879  0.1593  0.1087
 1722SOL     OW16624   3.612   3.555   2.424  0.2971  0.0471 -0.2624
 1722SOL    HW116625   3.530   3.514   2.398 -0.1206  1.3143 -0.9221
 1722SOL    HW216626   3.591   3.646   2.405 -0.4820  0.2505  1.5617
 1723SOL     OW16627   0.488   1.237   8.282 -0.1570  0.0063  0.1325
 1723SOL    HW116628   0.545   1.230   8.359  0.5766 -0.2454 -0.4204
 1723SOL    HW216629   0.474   1.144   8.265  1.3427  0.1252 -1.6981
 1724SOL     OW16630   2.627   2.037   3.087  0.4329 -0.3963  0.0950
 1724SOL    HW116631   2.690   2.013   3.019  0.7782  2.8784 -0.7260
 1724SOL    HW216632   2.639   1.964   3.148 -0.1139 -0.7971 -0.2782
 1725SOL     OW16633   2.273   3.638   2.853 -0.1020 -0.0661  0.2878
 1725SOL    HW116634   2.192   3.677   2.820  0.9420  0.8915 -1.1187
 1725SOL    HW216635   2.330   3.676   2.787  0.9935 -4.4722 -1.3516
 1726SOL     OW16636   0.570   0.188  14.139  0.4323 -0.3846 -0.2822
 1726SOL    HW116637   0.572   0.254  14.069 -0.7251 -0.8830 -0.7846
 1726SOL    HW216638   0.533   0.117  14.087  1.2214 -1.0742  0.0953
 1727SOL     OW16639   4.265   3.117   0.905  0.3061  0.3042  0.4047
 1727SOL    HW116640   4.341   3.115   0.846 -1.1317  0.0365 -1.4113
 1727SOL    HW216641   4.211   3.191   0.877 -1.4366 -1.8025 -1.8272
 1728SOL     OW16642   2.876   0.282  11.544  0.4555 -0.1510 -0.4313
 1728SOL    HW116643   2.790   0.255  11.513  1.1978 -3.1154  0.0291
 1728SOL    HW216644   2.855   0.374  11.530 -0.9788 -0.2251  1.3253
 1729SOL     OW16645   4.150   3.446  10.026 -0.0871  0.0505 -0.0784
 1729SOL    HW116646   4.107   3.417   9.946 -1.5842  3.6810 -0.5773
 1729SOL    HW216647   4.075   3.495  10.060  0.2091  0.5521 -0.1399
 1730SOL     OW16648   1.339   2.676   1.121 -0.8066  0.2740  0.6453
 1730SOL    HW116649   1.268   2.662   1.183 -0.9306 -1.3051  0.1406
 1730SOL    HW216650   1.409   2.613   1.141 -1.8859 -0.8804  0.7913
 1731SOL     OW16651   2.993   1.419   4.313  0.5891  0.6505 -0.1489
 1731SOL    HW116652   2.930   1.447   4.379 -1.0045 -0.4599 -1.1918
 1731SOL    HW216653   3.038   1.503   4.308 -1.2652  1.8744  3.4396
 1732SOL     OW16654   1.742   0.715   5.280 -0.3438  0.3188 -0.2080
 1732SOL    HW116655   1.662   0.748   5.240  0.4454  1.2669 -1.0268
 1732SOL    HW216656   1.723   0.622   5.265  0.3804  0.3677 -1.4809
 1733SOL     OW16657   1.245   2.492   4.202 -0.2314 -0.4679  0.2467
 1733SOL    HW116658   1.234   2.399   4.183 -0.0806 -0.7188  1.3901
 1733SOL    HW216659   1.241   2.490   4.298  0.6613 -0.6004  0.2817
 1734SOL     OW16660   1.526   2.146   7.269 -0.2348 -0.2116  0.6009
 1734SOL    HW116661   1.575   2.200   7.331 -1.3381  1.4616  0.0039
 1734SOL    HW216662   1.517   2.213   7.202 -4.5995 -0.7693  0.6578
 1735SOL     OW16663   1.791   2.642   2.311  0.4041 -0.0177 -0.5337
 1735SOL    HW116664   1.840   2.717   2.345  0.3260  1.2634 -3.2941
 1735SOL    HW216665   1.714   2.681   2.270  1.8802  1.8229 -1.5544
 1736SOL     OW16666   2.077   3.612  17.011 -0.4775  0.0840  0.6023
 1736SOL    HW116667   2.095   3.638  17.101  1.1991  2.2161 -0.3490
 1736SOL    HW216668   2.117   3.525  17.012 -1.3631 -0.3880 -3.0495
 1737SOL     OW16669   2.065   0.785  10.838  0.0399  0.0334  0.1514
 1737SOL    HW116670   2.045   0.879  10.840  0.8675  0.2271 -0.8085
 1737SOL    HW216671   2.069   0.756  10.929  0.3318 -2.6111 -0.6976
 1738SOL     OW16672   4.682   4.233   2.449  0.6581 -0.0472  0.7516
 1738SOL    HW116673   0.036   4.210   2.399  0.2733 -2.5200  1.3229
 1738SOL    HW216674   4.624   4.165   2.415  1.8768 -0.5075 -0.3581
 1739SOL     OW16675   2.959   0.783   6.233  0.6439 -0.1516 -0.1812
 1739SOL    HW116676   2.875   0.785   6.187  1.0926 -1.5948 -1.0984
 1739SOL    HW216677   2.946   0.719   6.303  0.4679 -1.5320 -1.4603
 1740SOL     OW16678   3.720   0.983   8.079  0.2844 -0.7909  0.1902
 1740SOL    HW116679   3.762   0.939   8.153  1.1529 -1.2346 -0.5644
 1740SOL    HW216680   3.796   0.996   8.023  0.8625  0.3128  1.2355
 1741SOL     OW16681   0.354   0.362   8.081 -0.8391  0.7097  0.1770
 1741SOL    HW116682   0.441   0.323   8.069  0.2175  2.9192  0.6456
 1741SOL    HW216683   0.316   0.298   8.142  3.0051 -0.4755  1.3559
 1742SOL     OW16684   0.426   4.354   5.150 -0.2532  0.0903 -0.0725
 1742SOL    HW116685   0.379   4.437   5.159 -0.8330 -0.0848 -1.4763
 1742SOL    HW216686   0.514   4.389   5.161 -1.6761  4.5108 -2.6480
 1743SOL     OW16687   1.975   4.136   4.698  0.0198  0.6726 -0.0855
 1743SOL    HW116688   1.994   4.115   4.789 -1.6924 -1.3095 -0.1794
 1743SOL    HW216689   1.998   4.057   4.648  0.0042  0.5695  0.0723
 1744SOL     OW16690   1.370   3.602   0.780 -0.2489 -0.0916  0.0316
 1744SOL    HW116691   1.303   3.671   0.774 -1.4633 -1.1893  0.8692
 1744SOL    HW216692   1.415   3.624   0.862  2.0344 -1.5669 -0.8371
 1745SOL     OW16693   3.891   0.452   2.631 -0.5374  0.3487  0.2724
 1745SOL    HW116694   3.826   0.418   2.692 -0.4164 -1.0095 -0.3375
 1745SOL    HW216695   3.835   0.497   2.568 -0.3547 -1.0539 -0.8971
 1746SOL     OW16696   2.037   3.868   3.607  0.0709  0.7235 -0.0892
 1746SOL    HW116697   2.057   3.774   3.603 -1.4414  0.2865  2.4822
 1746SOL    HW216698   2.052   3.890   3.699 -2.8686 -1.1155  0.8482
 1747SOL     OW16699   0.955   1.577   9.429  0.0823  0.5027  0.0984
 1747SOL    HW116700   0.961   1.643   9.359  1.5222  1.1989  0.8846
 1747SOL    HW216701   1.014   1.512   9.391  0.5703 -0.6302  2.8104
 1748SOL     OW16702   0.038   4.362  14.239  0.4319 -0.2952 -0.0557
 1748SOL    HW116703   4.697   4.417  14.284  0.1326 -1.6756  1.1855
 1748SOL    HW216704   0.030   4.287  14.298  0.6869 -1.0584 -0.9932
 1749SOL     OW16705   1.807   3.776   4.370  0.5576 -0.1590  0.3366
 1749SOL    HW116706   1.838   3.819   4.291 -1.2044  3.4445  1.5883
 1749SOL    HW216707   1.849   3.691   4.359  1.3546  0.5668 -2.0103
 1750SOL     OW16708   1.431   2.865   5.849 -0.1855  0.6648  0.3828
 1750SOL    HW116709   1.481   2.785   5.831  2.0462  2.1857 -0.2455
 1750SOL    HW216710   1.494   2.924   5.891 -0.8029  2.0840 -0.6636
 1751SOL     OW16711   3.681   4.178   1.773 -0.2335 -0.3947 -0.5094
 1751SOL    HW116712   3.653   4.232   1.846  2.1222 -0.5081  0.4682
 1751SOL    HW216713   3.612   4.195   1.708 -0.4730 -0.1978 -0.1999
 1752SOL     OW16714   4.688   0.117   0.417 -0.2843 -0.4753 -0.8864
 1752SOL    HW116715   0.035   0.170   0.379  1.4678 -2.6447 -0.7384
 1752SOL    HW216716   4.620   0.181   0.399 -0.2201 -0.5266 -1.3032
 1753SOL     OW16717   0.907   3.261  16.599 -0.2865  0.3018  0.1669
 1753SOL    HW116718   0.937   3.340  16.643  0.4639  0.5246 -0.7429
 1753SOL    HW216719   0.882   3.298  16.514 -0.3807 -1.9590 -0.8104
 1754SOL     OW16720   2.571   2.425   4.934 -0.3002  0.1025 -0.5556
 1754SOL    HW116721   2.513   2.358   4.970 -2.5951  2.5212  0.2520
 1754SOL    HW216722   2.527   2.510   4.925  1.0477  0.9335  0.6588
 1755SOL     OW16723   0.742   4.563   7.788 -0.0470 -0.0785  0.6116
 1755SOL    HW116724   0.761   4.473   7.813  1.8663  1.2312  3.8278
 1755SOL    HW216725   0.647   4.553   7.790 -0.2348  0.8604 -3.9552
 1756SOL     OW16726   3.237   1.125  17.296 -0.1874  0.0110 -0.3073
 1756SOL    HW116727   3.156   1.170  17.318 -0.8151  0.0308 -2.6298
 1756SOL    HW216728   3.263   1.091  17.382  0.2863 -1.3698 -0.9895
 1757SOL     OW16729   3.449   3.491   3.682  0.1634 -0.0410  0.0361
 1757SOL    HW116730   3.430   3.400   3.658  1.9578 -0.8013  1.4995
 1757SOL    HW216731   3.511   3.511   3.611 -1.3950  0.6798 -1.1221
 1758SOL     OW16732   3.177   4.450   3.762 -0.0461  0.0756  0.5580
 1758SOL    HW116733   3.088   4.477   3.786 -0.4158 -1.0517  0.4734
 1758SOL    HW216734   3.144   4.379   3.708 -0.8942  0.0416  1.1175
 1759SOL     OW16735   2.128   0.206  10.522  0.6191 -0.6334 -0.1257
 1759SOL    HW116736   2.085   0.288  10.544  1.0185 -0.9817  2.0285
 1759SOL    HW216737   2.093   0.150  10.592  0.1394  0.3007  0.3788
 1760SOL     OW16738   3.866   1.070   7.873 -0.1934  0.3027  0.7955
 1760SOL    HW116739   3.888   1.139   7.811 -1.4516  0.4986  0.5643
 1760SOL    HW216740   3.883   0.989   7.826  0.9325  0.0209  1.6934
 1761SOL     OW16741   3.174   1.556   8.104 -0.0262 -0.4377 -0.1436
 1761SOL    HW116742   3.250   1.513   8.142  1.2082  0.4363 -1.6114
 1761SOL    HW216743   3.189   1.644   8.139  2.0516 -1.9142  2.7199
 1762SOL     OW16744   2.190   2.672  16.255  0.0358 -0.1058 -0.1060
 1762SOL    HW116745   2.176   2.614  16.330 -1.0953 -2.6158 -2.2391
 1762SOL    HW216746   2.132   2.743  16.281 -2.0073 -2.5038  1.9180
 1763SOL     OW16747   2.850   3.338   3.584  0.3126 -0.3097 -0.1826
 1763SOL    HW116748   2.922   3.398   3.607  1.2384 -2.0940  1.5407
 1763SOL    HW216749   2.823   3.304   3.669 -1.4292 -0.8158 -0.9529
 1764SOL     OW16750   2.420   1.386  13.014  0.7655  0.2230  0.1048
 1764SOL    HW116751   2.387   1.377  13.104  0.8653 -1.1786 -0.0071
 1764SOL    HW216752   2.432   1.481  13.015 -0.9613  0.4494 -2.7138
 1765SOL     OW16753   3.801   3.602   9.319  0.0155 -0.0844  0.2869
 1765SOL    HW116754   3.773   3.606   9.228  0.6790 -0.9721  0.0479
 1765SOL    HW216755   3.768   3.685   9.354 -1.0525  0.1600 -1.2720
 1766SOL     OW16756   1.508   0.681   1.874 -0.1117  0.1208  0.7381
 1766SOL    HW116757   1.602   0.699   1.881  0.4456 -2.0007 -1.2316
 1766SOL    HW216758   1.510   0.654   1.782  0.4949 -0.2142  0.8438
 1767SOL     OW16759   2.204   2.701  10.062  0.5939  0.5528 -0.0901
 1767SOL    HW116760   2.294   2.735  10.057  0.4693  0.8825 -0.1161
 1767SOL    HW216761   2.195   2.673   9.971  1.4657 -1.3872  0.4204
 1768SOL     OW16762   1.211   2.845   6.794  0.2534  0.1756 -0.1993
 1768SOL    HW116763   1.208   2.791   6.715 -1.2260  0.8691 -0.6375
 1768SOL    HW216764   1.303   2.870   6.802  0.6521 -0.8993 -1.5212
 1769SOL     OW16765   2.411   3.911   7.922 -0.0899  0.1465  0.3222
 1769SOL    HW116766   2.465   3.842   7.960  1.4852  0.0176 -2.1377
 1769SOL    HW216767   2.404   3.876   7.833  0.9291  1.1133 -0.1416
 1770SOL     OW16768   0.861   0.260  16.039 -0.4683  0.4017 -0.0436
 1770SOL    HW116769   0.778   0.286  16.001 -0.3488  2.3274  1.0126
 1770SOL    HW216770   0.867   0.327  16.107  0.5155  1.6217 -1.3387
 1771SOL     OW16771   3.476   3.924   3.384  0.3469  0.0645  0.0949
 1771SOL    HW116772   3.511   3.898   3.469  2.7287  1.2740 -0.5025
 1771SOL    HW216773   3.473   4.015   3.411 -0.4983 -0.0368  0.3287
 1772SOL     OW16774   2.755   4.430   5.253 -0.3467  0.3082  0.6642
 1772SOL    HW116775   2.839   4.476   5.251 -0.2907  0.1183 -0.9145
 1772SOL    HW216776   2.690   4.486   5.294  0.2370  2.0896 -0.8447
 1773SOL     OW16777   2.320   0.169   3.747  0.3645 -0.1005  0.0968
 1773SOL    HW116778   2.353   0.124   3.825  1.8065 -0.1997 -0.5574
 1773SOL    HW216779   2.347   0.261   3.756 -0.1001  0.3932 -3.6647
 1774SOL     OW16780   4.362   3.366   2.484 -0.2416 -0.1421  0.0530
 1774SOL    HW116781   4.374   3.445   2.433  0.4002  0.8713  1.7646
 1774SOL    HW216782   4.345   3.304   2.413  0.1077  1.5644 -1.5172
 1775SOL     OW16783   3.094   2.402   7.724  0.5645 -0.0695  0.0344
 1775SOL    HW116784   3.160   2.402   7.794  1.3938  2.5036 -0.7622
 1775SOL    HW216785   3.146   2.380   7.647 -1.0896 -0.5816 -0.9265
 1776SOL     OW16786   0.136   0.843   6.808  0.2584  0.0944 -0.2558
 1776SOL    HW116787   0.178   0.761   6.832 -2.4089 -1.0842  0.4460
 1776SOL    HW216788   0.166   0.856   6.718  3.5433  0.6080  0.9488
 1777SOL     OW16789   0.464   3.792   4.299 -0.1728 -0.0881  0.4885
 1777SOL    HW116790   0.440   3.831   4.216 -1.1591  2.0586  1.7861
 1777SOL    HW216791   0.411   3.712   4.305  2.3626 -1.8723 -0.9626
 1778SOL     OW16792   0.213   3.428   8.125  0.1419  0.1926 -0.3043
 1778SOL    HW116793   0.158   3.493   8.082 -1.3010 -1.5024 -1.0423
 1778SOL    HW216794   0.157   3.351   8.136  1.3480 -0.5611  0.6181
 1779SOL     OW16795   0.017   1.941  12.214 -0.2920  0.5151 -0.1313
 1779SOL    HW116796   4.707   1.864  12.261 -2.3176  1.2064 -0.4366
 1779SOL    HW216797   4.712   1.932  12.122 -1.3642 -0.5879  0.3031
 1780SOL     OW16798   2.226   0.790   5.271  0.3712  0.1445  0.1214
 1780SOL    HW116799   2.215   0.783   5.177 -0.0173  1.8149  0.0281
 1780SOL    HW216800   2.285   0.716   5.285  1.9350  1.0430 -1.6039
 1781SOL     OW16801   0.868   1.209  16.740 -0.2578 -0.4505  0.1487
 1781SOL    HW116802   0.792   1.267  16.730  1.4467  1.8819  0.6123
 1781SOL    HW216803   0.837   1.163  16.818  1.7001 -1.6751  0.2006
 1782SOL     OW16804   2.915   2.066   4.562 -0.1491 -0.0901 -0.4238
 1782SOL    HW116805   2.904   1.971   4.572 -2.4633  0.2572  0.4320
 1782SOL    HW216806   2.987   2.077   4.624 -0.6550  1.2604 -0.0726
 1783SOL     OW16807   0.107   1.220   4.943  0.4187 -0.0096 -0.1269
 1783SOL    HW116808   0.159   1.265   5.010 -0.2691  0.6112 -0.0146
 1783SOL    HW216809   0.172   1.219   4.873 -1.1944  0.0337 -1.5898
 1784SOL     OW16810   1.088   1.491  10.456 -0.1919 -0.1624  0.1321
 1784SOL    HW116811   1.007   1.449  10.483  1.1273 -3.1772 -0.6582
 1784SOL    HW216812   1.101   1.544  10.535 -0.7074 -2.0006  1.4498
 1785SOL     OW16813   3.285   0.630   4.364 -0.6012  0.2622 -0.1136
 1785SOL    HW116814   3.341   0.642   4.287  1.5230 -2.0798  1.0612
 1785SOL    HW216815   3.313   0.546   4.400  0.3595  0.7365  0.2386
 1786SOL     OW16816   2.852   2.924  10.000  0.4944 -0.0560  0.6455
 1786SOL    HW116817   2.855   2.936   9.905 -1.2376  0.7180  0.6856
 1786SOL    HW216818   2.852   3.013  10.035 -0.7089 -0.2234  1.0698
 1787SOL     OW16819   2.761   2.112   7.472 -0.6343  0.0956 -0.7812
 1787SOL    HW116820   2.832   2.158   7.518  0.4239 -1.8491 -0.4758
 1787SOL    HW216821   2.813   2.050   7.421  0.1708  1.4448 -1.6070
 1788SOL     OW16822   3.080   2.906  11.851  0.3303  0.0277  0.3190
 1788SOL    HW116823   3.161   2.939  11.813  0.9790  1.0178  2.5063
 1788SOL    HW216824   3.118   2.843  11.912  0.6295 -0.2892 -0.1994
 1789SOL     OW16825   4.471   1.697  15.362 -0.6533 -0.0338 -0.4270
 1789SOL    HW116826   4.506   1.609  15.375 -1.5328 -0.3242 -0.0432
 1789SOL    HW216827   4.554   1.743  15.352 -0.2369 -0.9117 -0.9372
 1790SOL     OW16828   3.421   1.685   0.115  0.0165 -0.0273  0.2686
 1790SOL    HW116829   3.402   1.776   0.139  0.4627  0.7793 -2.3949
 1790SOL    HW216830   3.470   1.643   0.185  0.1496  0.3593  0.4055
 1791SOL     OW16831   1.803   1.626  15.083 -0.5974 -0.2138 -0.1060
 1791SOL    HW116832   1.789   1.611  14.990 -0.8833 -0.7050  0.0162
 1791SOL    HW216833   1.899   1.621  15.081 -0.6838 -1.3268 -1.1108
 1792SOL     OW16834   3.407   1.404   9.591  0.3079 -0.4135  0.1052
 1792SOL    HW116835   3.483   1.389   9.647  2.2747  1.7976 -1.9633
 1792SOL    HW216836   3.374   1.316   9.575  0.7300 -0.7036  0.8052
 1793SOL     OW16837   0.266   1.684   2.810 -0.0900  0.5563 -0.5467
 1793SOL    HW116838   0.330   1.617   2.834 -0.2105  0.2227 -1.1499
 1793SOL    HW216839   0.188   1.629   2.797  0.5365 -0.6933  1.0477
 1794SOL     OW16840   2.817   2.984  16.654  0.1901  0.3354 -0.3417
 1794SOL    HW116841   2.907   2.981  16.623  0.1520 -1.4860 -0.2477
 1794SOL    HW216842   2.787   2.898  16.625  0.2852  0.4878 -0.8842
 1795SOL     OW16843   1.613   2.555   4.340  0.3819  1.1250  0.0169
 1795SOL    HW116844   1.546   2.487   4.328 -0.2799  1.5898  1.1092
 1795SOL    HW216845   1.553   2.628   4.356  0.5322  0.9657  1.2491
 1796SOL     OW16846   1.699   1.019  14.362 -0.2705  0.3416  1.0161
 1796SOL    HW116847   1.792   1.003  14.347 -0.2100 -0.2485  2.0570
 1796SOL    HW216848   1.711   1.080  14.434  0.8921 -1.1925  2.1424
 1797SOL     OW16849   1.257   2.574   1.910  0.2692  0.7395 -0.4782
 1797SOL    HW116850   1.257   2.559   1.815  0.9428 -0.1586 -0.3322
 1797SOL    HW216851   1.192   2.514   1.946  0.0696  0.3362 -1.5080
 1798SOL     OW16852   1.348   2.580   3.506 -0.2111  0.5133 -0.1904
 1798SOL    HW116853   1.413   2.516   3.476 -1.8031  0.2206 -3.0916
 1798SOL    HW216854   1.282   2.518   3.538 -2.3809  2.3027 -1.1796
 1799SOL     OW16855   1.703   1.709   2.439 -0.6476 -0.4218  0.3860
 1799SOL    HW116856   1.693   1.726   2.345  1.4909 -0.0969  0.2198
 1799SOL    HW216857   1.784   1.658   2.443 -0.5614 -0.2310  1.0721
 1800SOL     OW16858   3.293   2.915   0.676 -0.4060 -0.1594  0.2665
 1800SOL    HW116859   3.226   2.863   0.721 -1.3880 -0.2699 -1.3470
 1800SOL    HW216860   3.347   2.940   0.752  0.0701  1.4673 -0.6053
 1801SOL     OW16861   2.376   2.045   3.590 -0.2313 -0.1135 -0.3404
 1801SOL    HW116862   2.317   2.005   3.654  0.9698 -0.7487  0.3831
 1801SOL    HW216863   2.393   1.967   3.538 -0.6658  0.1373 -0.8518
 1802SOL     OW16864   1.261   2.424   5.085  0.0224  1.0536 -0.3508
 1802SOL    HW116865   1.205   2.496   5.057  1.2800  1.5782 -1.4705
 1802SOL    HW216866   1.206   2.345   5.077  1.0254  0.3024  0.0816
 1803SOL     OW16867   1.353   1.339   8.984 -0.3363  0.3667  0.3461
 1803SOL    HW116868   1.395   1.319   9.068 -0.4216  2.0163  0.7884
 1803SOL    HW216869   1.407   1.409   8.947  0.9180 -1.4957 -1.3041
 1804SOL     OW16870   4.254   1.969   2.071 -0.6026  0.0340  0.0136
 1804SOL    HW116871   4.228   1.878   2.087 -0.9070 -0.5220 -3.6603
 1804SOL    HW216872   4.326   1.952   2.009 -1.0591 -0.5168 -0.3624
 1805SOL     OW16873   4.636   3.721   7.288  0.0584  0.0722  0.0100
 1805SOL    HW116874   4.651   3.739   7.381 -1.4509 -0.4393  0.3616
 1805SOL    HW216875   4.660   3.629   7.279 -2.0798 -0.4430 -0.6014
 1806SOL     OW16876   1.697   0.003   2.810  0.2804  0.1437  0.3940
 1806SOL    HW116877   1.739   0.063   2.748  0.7172 -1.7068 -1.0932
 1806SOL    HW216878   1.626   4.699   2.751  1.0859 -2.4894  0.6259
 1807SOL     OW16879   3.277   4.008   7.145  0.4370 -0.2736  0.3191
 1807SOL    HW116880   3.259   4.003   7.238  0.2423  1.3937  0.3695
 1807SOL    HW216881   3.371   3.990   7.153  0.8116  0.7179 -1.8000
 1808SOL     OW16882   1.189   1.725   7.886 -0.4766  0.0996  0.1626
 1808SOL    HW116883   1.260   1.673   7.849  0.0002 -0.0286  1.2618
 1808SOL    HW216884   1.159   1.756   7.800  1.0074  0.9966 -0.0394
 1809SOL     OW16885   3.936   4.064  15.132 -0.0097 -0.0546 -0.7351
 1809SOL    HW116886   4.007   4.005  15.158 -0.0342  1.7740  3.5490
 1809SOL    HW216887   3.995   4.132  15.101 -2.0933  2.4555  0.7287
 1810SOL     OW16888   4.639   4.630   7.346 -0.0635 -0.1186  0.0532
 1810SOL    HW116889   4.608   4.721   7.352 -2.0006 -0.7584 -0.0260
 1810SOL    HW216890   4.642   4.627   7.250  1.2889  0.0820  0.0952
 1811SOL     OW16891   0.345   2.315  13.242  0.0752 -0.1916  0.1496
 1811SOL    HW116892   0.418   2.259  13.217  0.9045  1.1748 -0.4903
 1811SOL    HW216893   0.346   2.321  13.337  1.3613  2.3846 -0.0120
 1812SOL     OW16894   4.232   0.227   4.229  0.2191 -0.6425  0.1250
 1812SOL    HW116895   4.198   0.275   4.305 -0.2134 -1.1582  0.2624
 1812SOL    HW216896   4.214   0.294   4.163  1.9415  1.2486  1.5749
 1813SOL     OW16897   3.761   1.560   5.473 -0.5625  0.3434 -0.1548
 1813SOL    HW116898   3.771   1.643   5.426  1.6135  0.4218  0.4451
 1813SOL    HW216899   3.674   1.549   5.511  0.0100 -1.0225  0.7689
 1814SOL     OW16900   1.898   1.237  16.420 -0.1498 -0.3789 -0.1960
 1814SOL    HW116901   1.847   1.234  16.501 -0.4340 -0.1729 -0.3665
 1814SOL    HW216902   1.845   1.170  16.377 -0.3797 -1.1096  1.2025
 1815SOL     OW16903   1.359   1.860   2.810  0.1735 -0.1829 -0.4724
 1815SOL    HW116904   1.442   1.848   2.856  0.0403 -1.5943 -0.5991
 1815SOL    HW216905   1.392   1.868   2.721  0.0337  3.0601 -0.2248
 1816SOL     OW16906   2.964   1.029  10.196  0.8936  0.5478 -0.5496
 1816SOL    HW116907   3.023   0.954  10.191 -0.1299 -0.3553  0.9013
 1816SOL    HW216908   2.972   1.048  10.289 -1.0591 -0.1987 -0.2265
 1817SOL     OW16909   4.050   1.558   5.165  0.1129  0.1116 -0.3884
 1817SOL    HW116910   4.138   1.587   5.191  0.8213 -1.3659 -1.1703
 1817SOL    HW216911   4.053   1.471   5.203  0.3365 -0.0583 -0.7934
 1818SOL     OW16912   4.116   3.266  12.905 -0.2388 -0.2537  0.4975
 1818SOL    HW116913   4.168   3.291  12.828 -0.7391  0.3126  0.3457
 1818SOL    HW216914   4.184   3.242  12.969  0.7499  0.5785 -0.2388
 1819SOL     OW16915   4.063   1.407   5.862 -0.2969  0.5407  0.1346
 1819SOL    HW116916   4.030   1.488   5.901  0.0623  1.0626 -0.6556
 1819SOL    HW216917   4.042   1.430   5.771  0.7275  0.5295 -0.1039
 1820SOL     OW16918   2.013   1.663   3.660 -0.0554 -0.3003  0.5026
 1820SOL    HW116919   1.982   1.751   3.639  1.9585 -0.0334 -1.3252
 1820SOL    HW216920   2.029   1.630   3.572 -1.0738 -2.7318  1.2273
 1821SOL     OW16921   4.119   0.002   4.589 -0.5131 -0.0826  0.4760
 1821SOL    HW116922   4.040   4.720   4.535 -0.1724  0.1531 -0.0408
 1821SOL    HW216923   4.118   4.655   4.655  0.4036 -0.0462  0.5223
 1822SOL     OW16924   1.584   0.800   7.923 -0.3384  0.6278  0.0065
 1822SOL    HW116925   1.644   0.726   7.910 -0.0469  0.8183  0.2588
 1822SOL    HW216926   1.554   0.812   7.833 -0.9449  0.8144  0.2354
 1823SOL     OW16927   1.502   1.669   9.169  0.0404  0.4780 -0.1212
 1823SOL    HW116928   1.469   1.600   9.227 -2.1832 -0.0507 -2.0157
 1823SOL    HW216929   1.596   1.658   9.183 -0.0392 -0.2397 -0.1352
 1824SOL     OW16930   4.454   2.460  11.731 -0.1225 -0.1589 -0.4105
 1824SOL    HW116931   4.537   2.422  11.758  0.6698  2.4821  0.8858
 1824SOL    HW216932   4.461   2.446  11.636  3.8710  0.4922 -0.1729
 1825SOL     OW16933   1.068   1.414   3.984  0.1587 -0.1451  0.0126
 1825SOL    HW116934   1.060   1.419   3.889 -0.6286 -2.4485 -0.0436
 1825SOL    HW216935   1.162   1.413   4.002  0.0516 -1.5138  0.4669
 1826SOL     OW16936   3.178   3.852   6.032 -0.3748 -0.1006 -0.0936
 1826SOL    HW116937   3.212   3.764   6.048  1.0522  0.6544  1.0714
 1826SOL    HW216938   3.125   3.837   5.954 -1.8953 -1.6265  1.2498
 1827SOL     OW16939   3.476   0.786  15.390  0.3440 -0.4196  0.3688
 1827SOL    HW116940   3.419   0.712  15.371 -0.7616  0.2616  0.9966
 1827SOL    HW216941   3.436   0.849  15.330  1.7983  0.6350  0.5207
 1828SOL     OW16942   2.204   3.065  10.792  0.0723 -0.1325  0.7799
 1828SOL    HW116943   2.237   3.145  10.833 -1.7422  1.3083 -0.5889
 1828SOL    HW216944   2.287   3.018  10.781  0.0205  0.0305 -0.3147
 1829SOL     OW16945   4.159   0.183   2.616 -0.1399  0.0258  0.4635
 1829SOL    HW116946   4.205   0.254   2.661 -1.9071  1.4864 -0.0622
 1829SOL    HW216947   4.224   0.173   2.547  0.0777  1.3011  0.4939
 1830SOL     OW16948   2.100   2.980   3.933  0.5907  0.1084 -0.1261
 1830SOL    HW116949   2.010   2.977   3.967 -0.1119  1.5951 -1.8617
 1830SOL    HW216950   2.115   3.072   3.955  1.6077  0.3841 -1.9519
 1831SOL     OW16951   0.519   0.482  10.502  0.2984  0.3457 -0.1487
 1831SOL    HW116952   0.431   0.500  10.535 -0.6488  0.0944 -2.5189
 1831SOL    HW216953   0.565   0.561  10.531  0.2123  0.0081  0.8792
 1832SOL     OW16954   1.615   0.958   6.227 -0.0961 -0.1520  0.0207
 1832SOL    HW116955   1.678   0.987   6.161 -0.2008 -0.9148 -0.4222
 1832SOL    HW216956   1.543   1.015   6.202 -0.2221 -0.0868  0.5336
 1833SOL     OW16957   2.901   2.232   6.381  0.0214 -0.3207  0.0565
 1833SOL    HW116958   2.843   2.192   6.446  0.7816 -1.3277  0.1119
 1833SOL    HW216959   2.850   2.302   6.339 -2.8941 -1.3987  1.7798
 1834SOL     OW16960   1.929   3.164   5.267 -0.4784 -0.1576  0.6343
 1834SOL    HW116961   1.953   3.179   5.359 -0.4225 -4.4243  1.3312
 1834SOL    HW216962   1.931   3.068   5.262  1.8194 -0.0947  0.5020
 1835SOL     OW16963   0.009   4.078  10.600  0.2117 -0.1785 -0.2852
 1835SOL    HW116964   4.658   4.077  10.540 -1.3072  1.9155  1.5332
 1835SOL    HW216965   4.708   4.149  10.660 -0.2788 -0.7695  0.2153
 1836SOL     OW16966   0.872   3.969   8.060  0.0394 -0.4372  0.4260
 1836SOL    HW116967   0.924   4.043   8.091  0.9602 -0.7169 -0.4304
 1836SOL    HW216968   0.812   3.948   8.132  1.7506  3.1555  2.8581
 1837SOL     OW16969   1.495   3.979  17.434 -0.2551  0.2267 -0.1248
 1837SOL    HW116970   1.490   3.999  17.527  0.0501 -0.6911  0.0874
 1837SOL    HW216971   1.589   3.973  17.421 -0.1962  0.7486  0.0386
 1838SOL     OW16972   1.664   1.730   4.718 -0.0215  0.5208  0.8740
 1838SOL    HW116973   1.643   1.808   4.768  0.1582  0.5875  0.8457
 1838SOL    HW216974   1.742   1.690   4.758 -0.5815 -0.6349  0.8113
 1839SOL     OW16975   0.940   4.075   2.250 -0.2817  0.4794  0.6096
 1839SOL    HW116976   1.018   4.130   2.241 -0.6519  1.0007  0.6162
 1839SOL    HW216977   0.974   3.994   2.287  1.1407  0.8015  0.0176
 1840SOL     OW16978   3.516   0.408   8.568 -0.0075 -0.3895  0.0325
 1840SOL    HW116979   3.550   0.415   8.657  0.0688 -0.0474 -0.0214
 1840SOL    HW216980   3.428   0.444   8.583 -0.1243 -0.6927  0.0721
 1841SOL     OW16981   2.242   3.134   5.816 -0.3577  0.4504 -0.2863
 1841SOL    HW116982   2.263   3.172   5.731 -1.0661  3.8084  1.0425
 1841SOL    HW216983   2.333   3.124   5.844 -0.6410 -0.2985  0.3846
 1842SOL     OW16984   0.013   4.684  11.070 -0.0600  0.0205 -0.5047
 1842SOL    HW116985   0.033   4.669  11.163 -0.2979 -0.9155 -0.6061
 1842SOL    HW216986   0.031   4.604  11.021  2.9029  1.0969 -1.1720
 1843SOL     OW16987   1.791   3.821   8.340 -0.1544  0.0946 -0.4218
 1843SOL    HW116988   1.709   3.868   8.350 -0.9752 -1.4222  0.0103
 1843SOL    HW216989   1.798   3.755   8.409  1.3010  0.0399 -0.6257
 1844SOL     OW16990   3.365   4.508   2.973  0.1222 -0.1875 -0.0135
 1844SOL    HW116991   3.360   4.540   2.883 -0.1252 -0.6379 -0.1558
 1844SOL    HW216992   3.273   4.500   2.996  0.2060 -1.6867 -0.2238
 1845SOL     OW16993   3.467   0.912   2.925 -0.2427  0.8323 -0.1514
 1845SOL    HW116994   3.505   0.869   3.001  1.5061 -1.9713 -2.5588
 1845SOL    HW216995   3.379   0.875   2.918 -0.0382 -0.0280  1.8574
 1846SOL     OW16996   1.554   1.437   5.091  0.5681 -0.0876 -0.4006
 1846SOL    HW116997   1.569   1.422   4.998  2.1388 -2.0880  0.1691
 1846SOL    HW216998   1.591   1.353   5.120 -0.0524 -0.2681 -0.1209
 1847SOL     OW16999   0.210   4.007   0.866 -0.4779 -0.3765 -0.3755
 1847SOL    HW117000   0.234   4.026   0.775 -0.9568  3.9311  0.4363
 1847SOL    HW217001   0.138   4.068   0.879 -2.0799 -2.2228 -0.4303
 1848SOL     OW17002   3.994   1.529   6.773 -0.2335 -0.1608  0.1440
 1848SOL    HW117003   4.057   1.487   6.715  0.6935  1.5617 -0.1222
 1848SOL    HW217004   4.037   1.534   6.858 -1.7092 -1.0213  0.9416
 1849SOL     OW17005   0.135   2.044   1.886  0.1445 -0.7049 -0.6281
 1849SOL    HW117006   0.162   1.967   1.835 -0.3398 -0.1175 -1.7751
 1849SOL    HW217007   0.069   2.014   1.948 -1.6704  1.9347 -1.2957
 1850SOL     OW17008   4.078   1.056   9.027  0.7497 -0.3673  0.3712
 1850SOL    HW117009   3.996   1.016   8.998  1.8035 -1.3025 -1.2856
 1850SOL    HW217010   4.069   1.032   9.120 -2.5486 -0.7384 -0.0441
 1851SOL     OW17011   4.597   4.000   5.423 -0.7406 -0.7384 -0.0822
 1851SOL    HW117012   4.592   4.008   5.518 -1.9435 -0.8839 -0.1348
 1851SOL    HW217013   4.630   3.911   5.407  0.1989 -0.6460  1.3255
 1852SOL     OW17014   2.424   1.093   4.687 -0.0759 -0.1804 -0.1265
 1852SOL    HW117015   2.449   1.130   4.602  0.2323  1.4304  0.6655
 1852SOL    HW217016   2.456   1.161   4.746 -1.6897  0.4701 -0.0291
 1853SOL     OW17017   3.448   2.791   4.054  0.1430  0.1841 -0.2658
 1853SOL    HW117018   3.390   2.800   4.129 -0.2761 -0.4256 -0.5128
 1853SOL    HW217019   3.486   2.878   4.050 -2.0105  1.1919  1.1019
 1854SOL     OW17020   1.280   1.235   7.153  0.3646  0.5236  0.0865
 1854SOL    HW117021   1.200   1.268   7.112 -0.3350 -0.9680  0.2572
 1854SOL    HW217022   1.264   1.143   7.174 -1.0506  1.0693  1.4103
 1855SOL     OW17023   1.858   4.636   6.898 -0.0529  0.4229 -0.3382
 1855SOL    HW117024   1.870   4.556   6.848 -0.2293 -1.0852  2.0220
 1855SOL    HW217025   1.895   4.611   6.983  0.1006  0.9205 -0.2562
 1856SOL     OW17026   0.907   1.719   8.703 -0.5645  0.2361 -0.1467
 1856SOL    HW117027   0.837   1.696   8.643 -2.1097 -0.2869  1.8503
 1856SOL    HW217028   0.951   1.797   8.669  0.9895 -0.2859  0.6528
 1857SOL     OW17029   2.485   2.845  12.644  0.0198 -0.8295 -0.2460
 1857SOL    HW117030   2.564   2.845  12.698  0.8217  0.6683 -1.4095
 1857SOL    HW217031   2.480   2.933  12.606  2.7878 -0.0419  1.1958
 1858SOL     OW17032   2.025   4.374   8.343 -0.0404  0.2219  0.2618
 1858SOL    HW117033   2.057   4.294   8.383 -1.4753 -0.3861  0.2033
 1858SOL    HW217034   2.108   4.389   8.297 -0.4338  0.9843 -0.2039
 1859SOL     OW17035   0.295   1.502   2.214 -0.3405  0.2340 -0.1002
 1859SOL    HW117036   0.302   1.449   2.294 -2.6295  0.9394  0.5756
 1859SOL    HW217037   0.328   1.583   2.253 -0.0731  0.3797 -0.6287
 1860SOL     OW17038   2.905   3.285   3.328 -0.1422  0.3552 -0.2669
 1860SOL    HW117039   2.937   3.196   3.313  2.0051  0.8680  1.2800
 1860SOL    HW217040   2.883   3.288   3.421  0.0278 -0.8271 -0.1807
 1861SOL     OW17041   3.053   0.475   4.293  0.2926 -0.2231 -0.1815
 1861SOL    HW117042   3.018   0.472   4.382 -0.1553  0.5473 -0.3295
 1861SOL    HW217043   3.115   0.546   4.310  0.1633 -0.1823  0.1081
 1862SOL     OW17044   0.071   2.245   3.976  0.5521  0.0417  0.0393
 1862SOL    HW117045   0.120   2.165   3.991  0.6721  0.1516  0.2321
 1862SOL    HW217046   0.004   2.230   4.043  0.1736 -0.3643 -0.4285
 1863SOL     OW17047   0.242   1.787   3.432  0.0563 -0.2554  0.2195
 1863SOL    HW117048   0.207   1.703   3.403 -2.0793  0.4953  0.6222
 1863SOL    HW217049   0.336   1.771   3.426 -0.4121 -2.2097 -1.8304
 1864SOL     OW17050   2.775   0.422   7.969 -0.1337 -0.2875  0.6821
 1864SOL    HW117051   2.689   0.382   7.987 -1.2919  2.1937  0.6925
 1864SOL    HW217052   2.759   0.507   8.010  0.6286  0.9960 -1.6660
 1865SOL     OW17053   1.148   3.414   1.409 -0.2830  0.4228 -0.2716
 1865SOL    HW117054   1.109   3.501   1.401 -1.8853 -0.3436 -0.9425
 1865SOL    HW217055   1.086   3.360   1.359 -0.8925  1.7534 -0.9503
 1866SOL     OW17056   1.970   1.650   4.040 -0.2151 -0.4310 -0.1618
 1866SOL    HW117057   1.936   1.711   4.106 -0.1560 -0.5175 -0.0518
 1866SOL    HW217058   1.964   1.576   4.100 -1.5190 -0.8818 -0.8361
 1867SOL     OW17059   1.962   4.584   3.679  0.0774 -0.3858  0.4824
 1867SOL    HW117060   1.906   4.511   3.654 -0.8338 -0.3331  2.4337
 1867SOL    HW217061   2.047   4.547   3.653 -0.1481 -0.5605 -0.0049
 1868SOL     OW17062   0.300   0.260  14.217  0.1163 -0.0124  0.0315
 1868SOL    HW117063   0.291   0.354  14.200  3.8690  0.0676 -1.4800
 1868SOL    HW217064   0.395   0.260  14.216  0.1044 -3.7700 -2.1192
 1869SOL     OW17065   3.358   4.594   9.884 -0.1514 -1.1863 -0.4245
 1869SOL    HW117066   3.403   4.582   9.968 -3.1687  1.7712  1.6168
 1869SOL    HW217067   3.416   4.658   9.843 -1.7547  1.1810  0.9888
 1870SOL     OW17068   1.969   1.517   2.179 -0.2454  0.0857  0.3128
 1870SOL    HW117069   2.064   1.503   2.174 -0.2091  0.2676  0.4632
 1870SOL    HW217070   1.967   1.593   2.122  0.1064 -0.2161 -0.1006
 1871SOL     OW17071   1.505   0.698  13.047 -0.3235 -0.3221  0.4146
 1871SOL    HW117072   1.490   0.742  12.963  0.5086  1.9426  1.4546
 1871SOL    HW217073   1.434   0.634  13.050 -0.1024 -0.6407 -0.9389
 1872SOL     OW17074   3.184   4.115   8.938 -0.3575  1.0251  0.0834
 1872SOL    HW117075   3.187   4.133   9.032 -0.4451 -1.8348  0.6398
 1872SOL    HW217076   3.088   4.112   8.938 -0.3273 -0.4159  2.0478
 1873SOL     OW17077   0.798   1.249   5.055  0.6785  0.1843 -0.4018
 1873SOL    HW117078   0.840   1.255   5.142  1.3206  1.3281 -0.7898
 1873SOL    HW217079   0.722   1.306   5.066  1.3445  0.6953  1.6386
 1874SOL     OW17080   3.437   2.813   6.282 -0.4329 -0.5529 -0.2666
 1874SOL    HW117081   3.482   2.733   6.256 -0.0694 -0.0835 -1.1192
 1874SOL    HW217082   3.503   2.852   6.340  2.2611 -2.6321 -1.9359
 1875SOL     OW17083   4.343   0.974   2.678 -0.3637  0.4901 -0.5476
 1875SOL    HW117084   4.252   0.945   2.685 -0.2264  0.1750 -0.0801
 1875SOL    HW217085   4.379   0.904   2.624  0.8904  3.0183 -2.9992
 1876SOL     OW17086   1.082   3.792   3.221  0.2104  0.0799 -0.1699
 1876SOL    HW117087   1.144   3.843   3.168  2.1872 -0.8117  1.2803
 1876SOL    HW217088   0.995   3.804   3.185  0.8196  2.6554 -0.7739
 1877SOL     OW17089   1.931   2.273   2.666  0.0107  0.1165  0.9006
 1877SOL    HW117090   1.857   2.218   2.691 -0.0349 -0.9433 -1.5697
 1877SOL    HW217091   1.886   2.338   2.613  0.5799 -2.1412 -2.3492
 1878SOL     OW17092   3.269   2.012  15.297  0.3546 -0.3107 -0.7122
 1878SOL    HW117093   3.348   1.958  15.295  0.1113 -0.6147 -1.9032
 1878SOL    HW217094   3.240   1.997  15.387  3.6797  0.9974  0.5827
 1879SOL     OW17095   2.372   4.182   3.179 -0.2590 -0.2593  0.2832
 1879SOL    HW117096   2.383   4.087   3.179 -0.3538 -0.2735 -0.1360
 1879SOL    HW217097   2.446   4.217   3.128 -0.4390 -2.7454 -1.7181
 1880SOL     OW17098   1.285   3.152  12.165  0.1292  0.1594 -0.2322
 1880SOL    HW117099   1.369   3.193  12.145 -1.9722  4.4076 -0.3575
 1880SOL    HW217100   1.221   3.198  12.112 -2.8436 -1.2472  2.1413
 1881SOL     OW17101   2.507   3.377   7.109 -0.0568 -0.3141 -0.1503
 1881SOL    HW117102   2.455   3.412   7.037 -0.5905 -0.5604  0.1148
 1881SOL    HW217103   2.466   3.428   7.179  1.4991  1.2638 -0.4002
 1882SOL     OW17104   0.506   2.976   4.192  0.0889 -0.6125  0.1643
 1882SOL    HW117105   0.419   2.984   4.154  0.5266  0.0057 -0.7106
 1882SOL    HW217106   0.526   2.882   4.182 -2.1031 -1.0762  0.0806
 1883SOL     OW17107   0.974   3.440   9.839 -0.0275 -0.2541 -0.1633
 1883SOL    HW117108   1.000   3.362   9.790  4.0591  1.0243 -0.0537
 1883SOL    HW217109   1.061   3.480   9.837 -0.4426  0.6581 -0.3117
 1884SOL     OW17110   3.567   3.138   9.393  0.0181  0.2230  0.0073
 1884SOL    HW117111   3.592   3.063   9.339 -0.1045  0.3330 -0.2020
 1884SOL    HW217112   3.526   3.203   9.337  0.6738  1.1211  0.5567
 1885SOL     OW17113   3.354   1.647   5.078 -0.6664  0.0524 -0.4082
 1885SOL    HW117114   3.363   1.597   5.159  0.8817  0.1014 -0.5583
 1885SOL    HW217115   3.297   1.719   5.106 -1.3777 -0.1526 -1.3061
 1886SOL     OW17116   0.566   0.066   8.859 -0.0107 -0.1641  0.2620
 1886SOL    HW117117   0.547   0.159   8.867 -0.7959 -0.3537  0.6857
 1886SOL    HW217118   0.606   0.046   8.944 -1.0619  1.0543  1.0499
 1887SOL     OW17119   0.480   0.531   3.491 -0.1040  0.4187 -0.2780
 1887SOL    HW117120   0.493   0.622   3.518  0.1366  0.0467  0.8605
 1887SOL    HW217121   0.550   0.487   3.539  0.7103  0.5317 -1.3445
 1888SOL     OW17122   4.100   4.510   3.851  0.0021  0.0606  0.8512
 1888SOL    HW117123   4.185   4.520   3.894  1.9264 -1.7746 -2.5219
 1888SOL    HW217124   4.136   4.533   3.765  3.0029 -0.0631  2.0691
 1889SOL     OW17125   4.518   2.263   7.031  0.4129  0.4451  0.6756
 1889SOL    HW117126   4.458   2.260   6.957 -0.8678 -2.5894  1.8159
 1889SOL    HW217127   4.587   2.207   6.997 -0.5153 -0.9539  1.0947
 1890SOL     OW17128   3.140   0.528   9.970  0.5905  0.5544 -0.1082
 1890SOL    HW117129   3.196   0.485  10.034 -0.5346 -0.1303  0.4021
 1890SOL    HW217130   3.208   0.589   9.940 -0.1744  0.1415 -2.6608
 1891SOL     OW17131   3.243   3.127  11.406  0.1440 -0.0877 -0.5695
 1891SOL    HW117132   3.174   3.071  11.439  0.9751 -0.1215  1.1091
 1891SOL    HW217133   3.189   3.187  11.355  1.3470  2.5034  1.2201
 1892SOL     OW17134   4.656   3.397   3.034 -0.0629 -0.3993 -0.6528
 1892SOL    HW117135   4.722   3.412   2.967 -0.7861  0.9863 -1.0382
 1892SOL    HW217136   4.594   3.340   2.989 -0.8089  0.2470 -0.4416
 1893SOL     OW17137   2.642   3.656   7.068  0.4992  0.3615  0.1458
 1893SOL    HW117138   2.616   3.564   7.075  3.8180 -0.6363 -0.5312
 1893SOL    HW217139   2.565   3.706   7.094  0.9789  0.1714  1.8889
 1894SOL     OW17140   2.159   0.095   7.099 -1.0219 -0.1928 -0.2876
 1894SOL    HW117141   2.145   0.022   7.159  0.0045 -1.7042 -1.8671
 1894SOL    HW217142   2.240   0.058   7.063 -0.6306 -0.4323  0.8356
 1895SOL     OW17143   0.678   1.561   9.117 -0.4529 -0.2078  0.5463
 1895SOL    HW117144   0.741   1.610   9.066  0.3255 -1.1778  0.5813
 1895SOL    HW217145   0.637   1.632   9.167 -1.4794 -2.1149  2.4312
 1896SOL     OW17146   1.866   4.465   4.370 -0.4047 -0.4758 -0.3140
 1896SOL    HW117147   1.801   4.399   4.346 -2.5624  1.1041  1.1888
 1896SOL    HW217148   1.932   4.409   4.413 -0.9477 -1.5191 -0.8484
 1897SOL     OW17149   0.709   2.097   1.516  0.5199 -0.8540  0.2864
 1897SOL    HW117150   0.779   2.032   1.506  2.4754  1.3357 -0.2699
 1897SOL    HW217151   0.639   2.049   1.470  0.6728 -1.6402  0.8729
 1898SOL     OW17152   3.064   2.468   2.530 -0.4860 -0.0331 -0.0025
 1898SOL    HW117153   3.114   2.529   2.584  0.2798 -0.5834 -0.1014
 1898SOL    HW217154   3.059   2.394   2.591 -1.3287 -0.4588 -0.5750
 1899SOL     OW17155   2.279   1.733   3.545 -0.1943 -0.5895  0.0214
 1899SOL    HW117156   2.281   1.739   3.641  2.5233  1.2298 -0.1564
 1899SOL    HW217157   2.267   1.639   3.529 -0.1076 -0.2988 -1.6590
 1900SOL     OW17158   3.578   2.599   8.215 -0.1256  0.4636  0.1516
 1900SOL    HW117159   3.636   2.632   8.284 -0.9561  1.2060  0.4970
 1900SOL    HW217160   3.596   2.627   8.126  0.7297 -0.9695 -0.1280
 1901SOL     OW17161   2.133   2.860   6.418 -0.0341 -0.4964  0.2151
 1901SOL    HW117162   2.055   2.895   6.376  0.1516  1.8369  1.8230
 1901SOL    HW217163   2.154   2.927   6.483  0.9493 -1.9739  1.4490
 1902SOL     OW17164   4.191   3.656  10.312 -0.1812 -0.5614  0.1076
 1902SOL    HW117165   4.128   3.584  10.309  0.0489 -0.8300  1.5561
 1902SOL    HW217166   4.277   3.617  10.294  0.8243  1.1678  1.1906
 1903SOL     OW17167   0.919   1.430   0.613 -0.2660  0.1296  0.6999
 1903SOL    HW117168   0.887   1.495   0.676 -1.0860 -1.7015  2.2037
 1903SOL    HW217169   0.886   1.347   0.648  0.2596 -0.7287 -0.8721
 1904SOL     OW17170   2.485   0.833  13.084  0.0088  0.3482 -0.0855
 1904SOL    HW117171   2.399   0.874  13.089 -0.7694 -1.1816 -1.1968
 1904SOL    HW217172   2.500   0.800  13.173  0.8414  0.7744 -0.0597
 1905SOL     OW17173   2.004   0.415   6.761  0.2399  0.3430  1.0236
 1905SOL    HW117174   1.942   0.468   6.711  1.8482  1.9452  0.6935
 1905SOL    HW217175   1.975   0.328   6.734 -0.9193  1.3122 -0.8861
 1906SOL     OW17176   4.082   0.443   8.070  0.1486  0.3714 -0.4754
 1906SOL    HW117177   4.151   0.457   8.136 -0.6404 -1.5446  0.7641
 1906SOL    HW217178   4.055   0.533   8.055 -0.3182  0.2866 -0.1478
 1907SOL     OW17179   2.298   3.188   3.204  0.4439  0.3723  0.3767
 1907SOL    HW117180   2.387   3.189   3.240  0.2561 -1.5129  0.9223
 1907SOL    HW217181   2.299   3.257   3.138  1.0567  0.2783  0.2873
 1908SOL     OW17182   1.792   4.426   8.436  0.2735 -0.0817  0.4461
 1908SOL    HW117183   1.881   4.433   8.402  0.0127  2.6497  0.3275
 1908SOL    HW217184   1.812   4.371   8.512 -0.4018 -0.9581 -0.0035
 1909SOL     OW17185   2.680   1.359   7.620  0.7171 -0.1365  0.0611
 1909SOL    HW117186   2.715   1.323   7.701  0.1469  0.3979  0.5521
 1909SOL    HW217187   2.589   1.381   7.641  0.8458  0.6142 -0.1555
 1910SOL     OW17188   0.426   2.747   4.457  0.0660  0.6591 -0.6638
 1910SOL    HW117189   0.437   2.657   4.426 -1.8863  0.8663 -1.9492
 1910SOL    HW217190   0.385   2.781   4.378 -0.0084 -1.2974 -1.4857
 1911SOL     OW17191   3.259   4.275   4.691 -0.2233  0.3304 -0.2960
 1911SOL    HW117192   3.183   4.287   4.748 -0.1770  0.5086 -0.2731
 1911SOL    HW217193   3.332   4.298   4.748 -0.0687  0.9598 -0.7479
 1912SOL     OW17194   0.197   1.117   0.779  0.4269 -0.0541 -0.3177
 1912SOL    HW117195   0.146   1.072   0.846 -1.9692  0.7786 -1.6067
 1912SOL    HW217196   0.142   1.192   0.759  1.5997  0.5249 -1.3993
 1913SOL     OW17197   4.162   4.448  14.141  0.8960  0.0517  0.4401
 1913SOL    HW117198   4.162   4.435  14.235  0.8480  1.4663  0.6381
 1913SOL    HW217199   4.252   4.426  14.117  0.5947  1.5018 -2.0686
 1914SOL     OW17200   2.415   2.197  11.007  0.3236  0.2384  0.4011
 1914SOL    HW117201   2.385   2.286  10.986  0.9666  0.8994  2.3640
 1914SOL    HW217202   2.348   2.140  10.969  1.0380 -0.4033  0.1015
 1915SOL     OW17203   3.486   4.687  16.868 -0.7801  0.0044  0.0956
 1915SOL    HW117204   3.391   4.700  16.873 -0.5939  1.6453 -0.6508
 1915SOL    HW217205   3.526   0.024  16.931  0.9157  0.3639 -1.3211
 1916SOL     OW17206   3.407   0.559  13.117  0.3988 -0.0559  0.2117
 1916SOL    HW117207   3.492   0.516  13.115  0.6108  0.4829 -1.7902
 1916SOL    HW217208   3.357   0.505  13.056  0.4054 -1.2377  1.2511
 1917SOL     OW17209   2.717   4.641   0.675 -0.3355 -0.0615 -0.0870
 1917SOL    HW117210   2.742   4.686   0.595  3.6084  0.5552  1.4857
 1917SOL    HW217211   2.668   4.571   0.631 -2.4340  0.1833  1.8562
 1918SOL     OW17212   0.676   2.586   5.472  0.3719  0.1175  0.0773
 1918SOL    HW117213   0.697   2.493   5.465  2.1912  0.7448 -2.8514
 1918SOL    HW217214   0.587   2.601   5.442 -0.7159 -2.0719  2.1975
 1919SOL     OW17215   3.942   3.062   2.121  0.6935 -0.4728 -0.4862
 1919SOL    HW117216   3.917   3.024   2.205 -0.9156 -0.3278 -0.8942
 1919SOL    HW217217   3.982   3.145   2.149 -0.3946 -0.2726  0.4661
 1920SOL     OW17218   0.703   0.070   6.447  0.3245 -0.2339  0.3411
 1920SOL    HW117219   0.645   0.008   6.403 -1.1939  1.3261  0.1667
 1920SOL    HW217220   0.710   0.134   6.376  0.7140 -1.3608 -0.6351
 1921SOL     OW17221   4.641   2.893   8.381 -0.2554 -0.1735  0.6626
 1921SOL    HW117222   4.700   2.903   8.306 -1.6404 -3.3749 -0.8703
 1921SOL    HW217223   4.614   2.801   8.374  0.4941 -0.2759 -0.9727
 1922SOL     OW17224   4.049   3.562   2.761  0.4935 -0.2859  0.2209
 1922SOL    HW117225   3.966   3.537   2.721  0.2947 -1.0809  1.1244
 1922SOL    HW217226   4.031   3.648   2.800  2.1632 -0.3586  1.1595
 1923SOL     OW17227   4.717   4.268  16.197 -0.7965 -0.5035 -0.0854
 1923SOL    HW117228   0.011   4.322  16.274 -0.5940 -0.7848  0.0685
 1923SOL    HW217229   4.668   4.330  16.143 -0.9260  0.5143  1.2071
 1924SOL     OW17230   3.280   3.646   0.092  0.2407 -0.3084 -0.2381
 1924SOL    HW117231   3.346   3.584   0.125  1.3890  0.6891 -0.6711
 1924SOL    HW217232   3.223   3.646   0.169  0.5637  0.6620  0.0010
 1925SOL     OW17233   3.269   3.463   5.770  0.3580  0.0525 -0.5462
 1925SOL    HW117234   3.360   3.488   5.754  0.8439  0.0686  2.2577
 1925SOL    HW217235   3.274   3.371   5.798  2.2457  0.2795 -0.1400
 1926SOL     OW17236   0.612   3.371   9.340  0.0751 -0.0707 -0.0983
 1926SOL    HW117237   0.669   3.404   9.270 -1.7917  0.6574 -1.2783
 1926SOL    HW217238   0.612   3.278   9.317  1.3063  0.1004 -0.8042
 1927SOL     OW17239   1.451   3.108  17.351 -0.5699  0.2450 -0.2290
 1927SOL    HW117240   1.379   3.169  17.336  0.3159  1.1915 -0.6406
 1927SOL    HW217241   1.487   3.127  17.264  0.8267  1.7234  0.6656
 1928SOL     OW17242   3.886   2.591   2.218  0.4739  0.4912  0.2955
 1928SOL    HW117243   3.971   2.590   2.174  1.0721 -0.4451  1.4612
 1928SOL    HW217244   3.836   2.583   2.137  0.6461  0.7015  0.1685
 1929SOL     OW17245   1.124   2.535   8.545  0.0082  0.1161  0.6420
 1929SOL    HW117246   1.194   2.565   8.488  2.0589 -2.5108  1.7988
 1929SOL    HW217247   1.130   2.594   8.620  2.2260  1.2648 -0.4516
 1930SOL     OW17248   4.493   2.886   1.876  0.0173  0.1152  0.0496
 1930SOL    HW117249   4.442   2.963   1.852  0.6741  0.9866  1.4743
 1930SOL    HW217250   4.443   2.808   1.851 -0.3068  1.1203 -2.3885
 1931SOL     OW17251   0.469   3.045   6.857 -0.1963 -0.0019  0.3929
 1931SOL    HW117252   0.452   3.125   6.906  1.6700  1.0895 -0.7427
 1931SOL    HW217253   0.389   3.020   6.810  0.7672  1.4226 -1.9977
 1932SOL     OW17254   0.491   2.811  17.430  0.2415 -0.5136  0.2385
 1932SOL    HW117255   0.397   2.830  17.430  0.2301 -0.5670  0.0975
 1932SOL    HW217256   0.497   2.722  17.396 -1.4833  0.3491 -2.3362
 1933SOL     OW17257   0.390   1.308   6.656 -0.3504 -0.1346 -0.0076
 1933SOL    HW117258   0.477   1.344   6.638 -0.4329 -1.1583 -2.3876
 1933SOL    HW217259   0.330   1.380   6.639 -0.1938 -0.1429 -0.5757
 1934SOL     OW17260   2.750   1.272   7.872  0.1725  0.6519  0.0835
 1934SOL    HW117261   2.832   1.310   7.902  0.6820 -0.1925 -0.2468
 1934SOL    HW217262   2.706   1.235   7.949  0.7713 -1.0138 -0.3731
 1935SOL     OW17263   0.429   2.202   3.747  0.0938 -0.1549 -0.4296
 1935SOL    HW117264   0.505   2.151   3.718  1.6924  2.4609 -0.8370
 1935SOL    HW217265   0.384   2.241   3.672  1.4244 -0.0056 -1.1685
 1936SOL     OW17266   3.179   2.199   7.362  0.1636  0.0367 -0.1151
 1936SOL    HW117267   3.118   2.173   7.430 -0.9009 -0.1559 -1.1305
 1936SOL    HW217268   3.250   2.238   7.412  1.5336 -1.7634 -0.6507
 1937SOL     OW17269   2.652   1.216   4.551  0.2151  0.0753 -0.7751
 1937SOL    HW117270   2.671   1.171   4.468 -0.1214  2.5931 -2.2169
 1937SOL    HW217271   2.727   1.192   4.605 -0.4356  4.2047  1.9376
 1938SOL     OW17272   2.138   1.517   8.051  0.0916  0.6202 -0.6034
 1938SOL    HW117273   2.115   1.478   7.967  1.1291 -0.2691 -0.4755
 1938SOL    HW217274   2.103   1.604   8.031  1.4496  1.0016 -1.2898
 1939SOL     OW17275   4.573   0.532   6.805  0.0135  0.0513  0.5582
 1939SOL    HW117276   4.590   0.446   6.768  1.3299  0.8923 -0.8036
 1939SOL    HW217277   4.618   0.593   6.746  1.3965 -2.1481 -0.6198
 1940SOL     OW17278   4.329   0.756   5.027  0.2326  0.0416 -0.0013
 1940SOL    HW117279   4.338   0.668   4.989 -1.9146 -0.8355  1.4721
 1940SOL    HW217280   4.269   0.730   5.097  0.7194 -0.8615  0.0838
 1941SOL     OW17281   4.114   1.999   4.669  0.7235 -0.2013  0.0582
 1941SOL    HW117282   4.076   1.981   4.755  1.2260 -0.8013  0.1580
 1941SOL    HW217283   4.103   2.093   4.661  0.4648 -0.2609 -0.2999
 1942SOL     OW17284   1.226   0.089   6.847  0.5405 -0.0723 -0.0015
 1942SOL    HW117285   1.264   0.001   6.838  1.4904  0.1080  2.2473
 1942SOL    HW217286   1.240   0.125   6.759  0.5185  1.0215  0.4497
 1943SOL     OW17287   3.454   2.663   3.360  0.1911  0.4767 -0.4647
 1943SOL    HW117288   3.428   2.571   3.359 -1.5395  0.9398  0.5562
 1943SOL    HW217289   3.380   2.708   3.319  0.0179 -0.1756 -0.8702
 1944SOL     OW17290   4.567   2.456   4.473  0.0155  0.4186  0.5218
 1944SOL    HW117291   4.550   2.546   4.502  1.8209  0.5292  1.2197
 1944SOL    HW217292   4.582   2.409   4.555 -0.2703  1.4599  1.1710
 1945SOL     OW17293   1.449   3.004   6.609 -0.1222 -0.4062  0.7184
 1945SOL    HW117294   1.535   3.019   6.649  1.6807 -0.0557 -3.2796
 1945SOL    HW217295   1.464   2.936   6.544 -1.1108  3.0304 -3.1085
 1946SOL     OW17296   1.623   1.343   5.452 -0.2419  0.9302 -0.3979
 1946SOL    HW117297   1.551   1.314   5.509  0.7171  0.2061  0.4662
 1946SOL    HW217298   1.630   1.260   5.404  1.8437  0.0387  1.4591
 1947SOL     OW17299   0.055   2.442   4.864  0.1777 -0.5348  0.1198
 1947SOL    HW117300   0.125   2.377   4.865  1.0951  0.4392 -0.2463
 1947SOL    HW217301   4.714   2.400   4.805  0.6772 -1.3946  0.1875
 1948SOL     OW17302   4.193   4.030  11.489  0.2993  0.1591  0.2503
 1948SOL    HW117303   4.167   4.016  11.580 -0.2282 -2.0019 -0.2182
 1948SOL    HW217304   4.141   4.107  11.466  0.1701 -0.2566 -0.8725
 1949SOL     OW17305   3.450   1.698   7.388 -0.3731 -0.4118  0.0222
 1949SOL    HW117306   3.432   1.727   7.477 -0.2062  0.8915 -0.3700
 1949SOL    HW217307   3.542   1.673   7.390 -0.0324  1.2347  3.1762
 1950SOL     OW17308   1.665   4.355   4.126 -0.3644 -0.1609  0.3676
 1950SOL    HW117309   1.594   4.388   4.180 -0.5444 -0.9438  0.6172
 1950SOL    HW217310   1.642   4.262   4.120 -0.3029 -0.0982 -0.7497
 1951SOL     OW17311   4.416   0.208   7.043  0.7157 -0.3262  0.7238
 1951SOL    HW117312   4.450   0.174   6.960  0.9348 -2.2926  1.6010
 1951SOL    HW217313   4.492   0.221   7.100  2.6790  0.0939 -2.0008
 1952SOL     OW17314   0.246   1.102  12.975 -0.1222 -0.1601 -0.2645
 1952SOL    HW117315   0.198   1.184  12.961  1.0221  0.0394 -2.9582
 1952SOL    HW217316   0.279   1.126  13.062  0.5860 -1.2149 -0.2459
 1953SOL     OW17317   1.776   3.698   8.815  0.1551 -0.3024  0.9793
 1953SOL    HW117318   1.774   3.648   8.733 -0.2660  2.7493 -0.8768
 1953SOL    HW217319   1.686   3.699   8.847 -0.0937  1.9778  0.2406
 1954SOL     OW17320   3.797   3.514   2.657 -0.1947  0.5086  0.0014
 1954SOL    HW117321   3.784   3.604   2.630  0.1574  1.1754  2.0597
 1954SOL    HW217322   3.708   3.487   2.678  1.0205 -2.2506  1.6267
 1955SOL     OW17323   3.970   1.910   9.996 -0.0243 -0.0126  0.2233
 1955SOL    HW117324   3.981   1.897   9.901  2.7381 -0.9253  0.6608
 1955SOL    HW217325   3.880   1.943  10.002  0.5158  1.9340 -2.2877
 1956SOL     OW17326   0.357   2.408   5.693 -0.3214 -0.0505  0.1520
 1956SOL    HW117327   0.267   2.386   5.715 -0.1403 -0.3484  0.6136
 1956SOL    HW217328   0.360   2.487   5.747 -0.5448 -0.1246  0.2740
 1957SOL     OW17329   2.166   0.660   3.707 -0.2259 -0.3694  0.5197
 1957SOL    HW117330   2.120   0.709   3.775 -2.9790 -2.3961  0.0716
 1957SOL    HW217331   2.233   0.723   3.680 -2.4946  1.0025 -1.8360
 1958SOL     OW17332   4.072   1.330   2.509 -0.5440  0.4678  0.3461
 1958SOL    HW117333   4.145   1.280   2.472 -0.7890 -0.7832  1.5655
 1958SOL    HW217334   4.080   1.297   2.599 -0.1828  1.3378  0.6256
 1959SOL     OW17335   4.098   2.275   8.974  0.5923 -0.1198 -0.1050
 1959SOL    HW117336   4.189   2.298   8.959  0.9216 -0.5187  1.3324
 1959SOL    HW217337   4.056   2.361   8.973 -0.2338 -0.5158  0.2419
 1960SOL     OW17338   2.593   2.078  11.460 -0.0428 -0.3917  0.0850
 1960SOL    HW117339   2.563   1.992  11.431 -2.8132 -0.5560  3.4242
 1960SOL    HW217340   2.565   2.132  11.385  0.5489 -1.9725 -1.2703
 1961SOL     OW17341   3.504   2.200   6.264  0.0370  0.6381 -0.3071
 1961SOL    HW117342   3.437   2.268   6.256 -1.0270 -0.4121 -0.4566
 1961SOL    HW217343   3.449   2.123   6.248 -0.2461  0.9799 -0.9903
 1962SOL     OW17344   2.415   4.449   8.566  0.1287  0.2118  0.1779
 1962SOL    HW117345   2.340   4.474   8.621 -0.5489 -0.8520 -0.2446
 1962SOL    HW217346   2.480   4.519   8.574  0.4795 -0.4008  2.6341
 1963SOL     OW17347   2.126   3.594   3.620 -0.0123  0.1740 -0.7435
 1963SOL    HW117348   2.197   3.531   3.631  1.3170  2.0934  1.5583
 1963SOL    HW217349   2.106   3.567   3.530 -0.1452  2.2102 -1.3103
 1964SOL     OW17350   4.390   0.690   7.813 -0.0719  0.5275  0.1795
 1964SOL    HW117351   4.329   0.622   7.784 -0.8797  1.4991 -0.4245
 1964SOL    HW217352   4.334   0.741   7.871 -0.6046 -0.9104  0.9409
 1965SOL     OW17353   4.549   4.107   0.250 -0.6416 -0.3544 -0.1910
 1965SOL    HW117354   4.457   4.124   0.231 -0.3825  1.3494  0.0653
 1965SOL    HW217355   4.591   4.192   0.235  2.2322 -1.7222  0.0247
 1966SOL     OW17356   1.822   0.254   5.090 -0.0632  0.3526  0.2723
 1966SOL    HW117357   1.805   0.310   5.014  0.8438 -3.0035 -2.4168
 1966SOL    HW217358   1.886   0.189   5.062  0.4114  0.4446  1.1384
 1967SOL     OW17359   0.602   0.311   8.026  0.8547 -0.2362 -0.1569
 1967SOL    HW117360   0.614   0.394   7.979 -2.9595 -0.4714 -1.5640
 1967SOL    HW217361   0.681   0.262   8.002  1.2476  0.1252  0.3928
 1968SOL     OW17362   0.344   2.573   0.810 -0.1438  0.0546 -0.0307
 1968SOL    HW117363   0.382   2.583   0.897 -1.5679 -1.0966  0.7456
 1968SOL    HW217364   0.402   2.616   0.747  0.8422 -1.6081 -0.2656
 1969SOL     OW17365   2.862   1.252   3.109  0.7917  0.3019 -0.4249
 1969SOL    HW117366   2.841   1.345   3.104 -0.2977  0.1321  0.9290
 1969SOL    HW217367   2.942   1.256   3.161  0.4171  0.0646  0.1745
 1970SOL     OW17368   0.554   0.194  10.513 -0.3772 -0.5273  0.2085
 1970SOL    HW117369   0.520   0.282  10.499 -1.3979 -0.9291  0.2029
 1970SOL    HW217370   0.649   0.197  10.497 -0.5071  1.1501 -0.2980
 1971SOL     OW17371   3.219   0.771   6.070 -0.3119 -0.4122  0.5546
 1971SOL    HW117372   3.138   0.728   6.098 -0.7838  0.1906  0.1145
 1971SOL    HW217373   3.195   0.862   6.086 -0.7463 -0.4110 -0.1152
 1972SOL     OW17374   3.535   1.217   7.480  0.4582  0.1471 -0.0557
 1972SOL    HW117375   3.446   1.252   7.490  1.1697  1.2394  2.3296
 1972SOL    HW217376   3.537   1.138   7.427  0.3936  0.7206 -0.9147
 1973SOL     OW17377   2.541   1.770   7.073  0.3220 -0.5501  0.1610
 1973SOL    HW117378   2.575   1.799   7.157  0.7438 -0.9859  0.1413
 1973SOL    HW217379   2.480   1.700   7.098  0.7488 -0.8603  0.3216
 1974SOL     OW17380   3.932   2.584  10.854  0.1077  0.4814 -0.1767
 1974SOL    HW117381   3.852   2.620  10.893 -0.4178 -1.5932  0.6848
 1974SOL    HW217382   3.936   2.502  10.903 -0.9959 -1.2022 -2.8972
 1975SOL     OW17383   3.658   2.415   9.429 -0.8909  0.3229  0.0423
 1975SOL    HW117384   3.676   2.478   9.499 -0.4718 -0.4168  0.6055
 1975SOL    HW217385   3.570   2.448   9.412 -0.6800  1.4993  1.2401
 1976SOL     OW17386   4.099   1.067   3.107  0.4747  0.1243  0.4358
 1976SOL    HW117387   4.130   0.993   3.160 -1.7197 -0.5645  0.7786
 1976SOL    HW217388   4.103   1.036   3.017  0.2625  0.5556  0.2789
 1977SOL     OW17389   1.919   1.145  15.339 -0.2767 -0.3678  0.1370
 1977SOL    HW117390   1.835   1.163  15.382 -0.5206 -2.0649  0.3733
 1977SOL    HW217391   1.918   1.050  15.348 -0.3054 -0.3269  0.5848
 1978SOL     OW17392   4.040   1.514   1.840 -0.2559  0.4380 -0.8152
 1978SOL    HW117393   4.131   1.484   1.841 -0.3650  0.1010 -0.9672
 1978SOL    HW217394   4.044   1.594   1.787 -2.7030  1.4833  0.5961
 1979SOL     OW17395   2.367   4.116   5.900  0.3846  0.3770 -0.0821
 1979SOL    HW117396   2.404   4.190   5.947  3.7636  0.8807 -3.4886
 1979SOL    HW217397   2.343   4.068   5.980 -0.1992 -1.0686 -1.1136
 1980SOL     OW17398   1.954   1.078   3.529  0.8937 -0.8032 -0.0880
 1980SOL    HW117399   2.024   1.028   3.488 -0.4534 -0.0717 -3.3234
 1980SOL    HW217400   1.891   1.008   3.546 -1.4221  1.4232  0.4645
 1981SOL     OW17401   0.728   1.169  15.774  0.8080 -0.1488 -0.0141
 1981SOL    HW117402   0.799   1.113  15.742  1.0301 -0.7152  1.4544
 1981SOL    HW217403   0.673   1.183  15.698  1.4789  0.9603 -0.2976
 1982SOL     OW17404   4.017   3.898   0.934 -0.0578 -0.6008 -0.0523
 1982SOL    HW117405   3.978   3.843   0.867  1.5064 -0.7122 -0.8900
 1982SOL    HW217406   3.997   3.847   1.012 -0.8494  2.2427  1.6100
 1983SOL     OW17407   3.604   4.463  10.769 -0.2345 -0.0845 -0.6229
 1983SOL    HW117408   3.607   4.369  10.753  3.1192 -0.2194  0.7534
 1983SOL    HW217409   3.674   4.479  10.833 -1.4340 -0.8819  0.8793
 1984SOL     OW17410   3.954   0.275   9.115 -0.3363  0.9315  0.0384
 1984SOL    HW117411   3.981   0.228   9.193  2.3083  2.7275  0.1969
 1984SOL    HW217412   4.042   0.291   9.082 -0.1560 -2.4827 -1.0510
 1985SOL     OW17413   4.064   1.680  17.354 -0.1044  0.7072 -0.1614
 1985SOL    HW117414   4.067   1.729  17.436 -0.9547 -1.8796  1.3924
 1985SOL    HW217415   3.973   1.686  17.326 -0.1384 -2.2096 -0.5860
 1986SOL     OW17416   1.122   1.885   2.263  0.1165 -0.1363 -0.5920
 1986SOL    HW117417   1.167   1.969   2.258  1.0582 -0.6501 -0.6901
 1986SOL    HW217418   1.045   1.912   2.313  0.1485 -1.1768  0.0268
 1987SOL     OW17419   0.693   3.893   7.854 -0.2497  0.3245  0.1570
 1987SOL    HW117420   0.762   3.902   7.920  3.1815 -0.0581 -3.3627
 1987SOL    HW217421   0.622   3.945   7.891 -0.3715 -0.2818  0.7676
 1988SOL     OW17422   3.340   4.683   3.752 -0.2905  0.1536 -0.2909
 1988SOL    HW117423   3.272   4.616   3.757 -0.4273  0.1979 -1.5784
 1988SOL    HW217424   3.380   4.658   3.669  2.4182 -0.9675  1.3598
 1989SOL     OW17425   3.360   1.343   4.485  0.0639 -0.7445 -0.1042
 1989SOL    HW117426   3.426   1.326   4.418  0.7107 -0.6647  0.5090
 1989SOL    HW217427   3.416   1.370   4.559 -0.1757 -0.2705 -0.0963
 1990SOL     OW17428   1.968   0.649   1.289 -0.1443 -0.3627  0.3600
 1990SOL    HW117429   2.019   0.730   1.282  0.4279 -0.5598  2.1360
 1990SOL    HW217430   2.025   0.608   1.354 -1.1934 -1.1968  0.7431
 1991SOL     OW17431   2.786   3.065   5.198  0.3017 -0.7861 -0.0972
 1991SOL    HW117432   2.761   2.996   5.136 -1.0176 -0.7800  0.4235
 1991SOL    HW217433   2.706   3.087   5.247  0.6087  1.8308 -0.7623
 1992SOL     OW17434   4.421   1.549  17.592 -0.1948 -0.0336 -0.3492
 1992SOL    HW117435   4.343   1.522  17.543  0.6543 -0.4559 -1.4745
 1992SOL    HW217436   4.465   1.464  17.586  1.5227  0.9924 -2.4729
 1993SOL     OW17437   1.116   4.109  14.886  0.2240 -0.2390  0.1811
 1993SOL    HW117438   1.084   4.137  14.800 -3.2974 -1.1657  1.1769
 1993SOL    HW217439   1.036   4.092  14.936  0.0306 -1.4566 -0.5267
 1994SOL     OW17440   1.765   1.620   9.271  0.1639  0.1532  0.7112
 1994SOL    HW117441   1.812   1.650   9.194 -2.0024  1.4410 -0.1141
 1994SOL    HW217442   1.836   1.632   9.334  3.2507  0.4264 -2.8533
 1995SOL     OW17443   3.129   3.098   7.888  0.5626  0.5577 -0.2707
 1995SOL    HW117444   3.155   3.031   7.951 -2.0648  0.0240  0.2428
 1995SOL    HW217445   3.191   3.169   7.903  0.8270  0.4840 -1.0238
 1996SOL     OW17446   1.504   0.003   7.446 -0.1086 -0.7605 -0.5402
 1996SOL    HW117447   1.458   4.646   7.473 -0.8339 -1.2259 -3.1460
 1996SOL    HW217448   1.444   0.053   7.391 -1.9800 -2.2790  0.1196
 1997SOL     OW17449   4.633   3.519   5.032  0.3846  0.0990  0.4473
 1997SOL    HW117450   4.633   3.592   5.093  2.1671 -1.5177  2.3570
 1997SOL    HW217451   4.663   3.556   4.949 -2.3005 -0.4477 -0.7884
 1998SOL     OW17452   0.315   4.187  16.618  0.0584 -0.1891  0.2890
 1998SOL    HW117453   0.227   4.156  16.641 -0.6330 -0.3715 -2.6735
 1998SOL    HW217454   0.299   4.273  16.658  0.3215  0.2516 -0.5580
 1999SOL     OW17455   1.213   0.093   2.119  0.0199  0.4945 -0.2437
 1999SOL    HW117456   1.267   0.171   2.104 -0.2209  0.8725  0.8979
 1999SOL    HW217457   1.128   0.124   2.150  0.3688 -0.9333  2.0496
 2000SOL     OW17458   2.841   3.946  17.267  0.0664 -0.6008  0.2460
 2000SOL    HW117459   2.828   4.017  17.204  0.2761 -0.8864 -0.1176
 2000SOL    HW217460   2.915   3.990  17.309 -1.5302  0.6406  1.7137
 2001SOL     OW17461   1.496   2.647   3.758 -0.0597  0.7114  0.6180
 2001SOL    HW117462   1.430   2.610   3.700  1.1288  1.8327 -1.4647
 2001SOL    HW217463   1.573   2.641   3.701  2.0330 -3.2205  3.8756
 2002SOL     OW17464   1.574   2.493   2.752 -0.0168 -0.4869 -0.3078
 2002SOL    HW117465   1.620   2.519   2.833  2.8783 -1.2554 -1.6939
 2002SOL    HW217466   1.553   2.400   2.765  1.0117 -1.1224 -3.2468
 2003SOL     OW17467   3.656   0.665   7.849  0.5216  0.0915  0.1558
 2003SOL    HW117468   3.693   0.578   7.861  1.0919  0.6406  2.3086
 2003SOL    HW217469   3.603   0.649   7.771  0.7189  1.7415 -0.3089
 2004SOL     OW17470   0.563   1.400   5.110  0.6727  0.6586  0.0708
 2004SOL    HW117471   0.582   1.386   5.202  0.3891  1.1745  0.2063
 2004SOL    HW217472   0.518   1.483   5.122  0.4503  0.6191 -0.4947
 2005SOL     OW17473   2.785   1.186  16.484  0.3170  0.4315 -0.2664
 2005SOL    HW117474   2.735   1.243  16.544 -0.0309  1.2942 -1.3766
 2005SOL    HW217475   2.833   1.133  16.548 -1.7938 -1.5733 -0.3085
 2006SOL     OW17476   0.168   3.852   3.866  0.0767  0.4412  0.2063
 2006SOL    HW117477   0.177   3.765   3.827 -1.4234  0.8781 -1.1472
 2006SOL    HW217478   0.251   3.888   3.833 -0.4578  1.4093 -0.0726
 2007SOL     OW17479   4.566   2.387  14.684  0.4017 -0.0774  0.3054
 2007SOL    HW117480   4.545   2.418  14.596  2.7455 -1.0416 -0.5783
 2007SOL    HW217481   4.510   2.309  14.688 -0.9030  0.7017 -2.8913
 2008SOL     OW17482   1.194   4.292   7.685  0.0433 -0.0160 -0.1525
 2008SOL    HW117483   1.233   4.206   7.696  0.0241  0.0500  0.4353
 2008SOL    HW217484   1.259   4.345   7.730 -1.0218  0.7918  0.4471
 2009SOL     OW17485   1.631   2.457   8.262  0.1054  0.4288 -0.5944
 2009SOL    HW117486   1.618   2.551   8.273  0.9719  0.6628 -1.5064
 2009SOL    HW217487   1.679   2.447   8.179 -1.2806 -0.1183 -1.3293
 2010SOL     OW17488   1.536   1.801   3.325 -0.4010  0.3844  0.3454
 2010SOL    HW117489   1.586   1.875   3.359  0.5522 -1.1797  2.3801
 2010SOL    HW217490   1.466   1.781   3.388 -0.9003  1.9033  0.2730
 2011SOL     OW17491   1.362   1.147   2.703  0.4105 -0.1674  0.0489
 2011SOL    HW117492   1.426   1.161   2.773 -0.9244  1.6378  0.8941
 2011SOL    HW217493   1.286   1.196   2.732  1.1144 -0.0665  1.7631
 2012SOL     OW17494   1.289   3.222   5.349  0.4793  0.3436  0.2985
 2012SOL    HW117495   1.246   3.145   5.314  1.3907 -0.6702  1.4259
 2012SOL    HW217496   1.370   3.226   5.298  0.3536 -0.5102  0.0475
 2013SOL     OW17497   4.618   2.623  12.294  0.4005 -0.4838  0.2158
 2013SOL    HW117498   4.576   2.668  12.368 -0.1479  1.0091 -1.0241
 2013SOL    HW217499   4.652   2.545  12.339 -0.7647 -0.9879  0.2234
 2014SOL     OW17500   0.852   3.154   7.824  0.1268 -0.2526  0.4444
 2014SOL    HW117501   0.788   3.105   7.772  2.2689 -1.5747 -0.9053
 2014SOL    HW217502   0.792   3.204   7.880  0.5568 -0.4261  1.0588
 2015SOL     OW17503   2.705   2.237  16.192 -0.1420 -0.4937  0.3378
 2015SOL    HW117504   2.624   2.193  16.219  0.9872 -1.9420  1.4313
 2015SOL    HW217505   2.673   2.315  16.148  0.7831  0.6698  1.7516
 2016SOL     OW17506   3.380   1.809   7.150 -0.2433 -0.0967 -0.0116
 2016SOL    HW117507   3.438   1.759   7.093  0.4106  0.1574  0.4286
 2016SOL    HW217508   3.404   1.765   7.231 -1.1297  1.3493  1.0466
 2017SOL     OW17509   2.605   0.607   9.095  0.0499  0.0005 -0.3208
 2017SOL    HW117510   2.549   0.682   9.076  1.7481  1.5214  0.7577
 2017SOL    HW217511   2.542   0.535   9.087 -2.9716  2.5194  1.0009
 2018SOL     OW17512   2.070   1.140  11.884 -0.0621  0.9823 -0.4244
 2018SOL    HW117513   2.000   1.093  11.840  0.7814 -1.9599  1.3707
 2018SOL    HW217514   2.016   1.204  11.931 -0.9293 -1.6371  2.1696
 2019SOL     OW17515   1.337   3.729   2.266 -0.3224 -0.3086 -0.7627
 2019SOL    HW117516   1.415   3.716   2.213 -0.3274 -0.9844 -0.6028
 2019SOL    HW217517   1.266   3.701   2.208 -0.4487 -2.2866  0.3515
 2020SOL     OW17518   2.835   0.995   8.496 -0.1408  0.5511 -0.1217
 2020SOL    HW117519   2.910   1.033   8.451  0.5962 -0.3929  0.3181
 2020SOL    HW217520   2.870   0.908   8.510 -0.9555  0.2459  0.0579
 2021SOL     OW17521   2.518   3.585   8.699 -0.0970  0.3312  0.0072
 2021SOL    HW117522   2.459   3.606   8.771  1.3747  0.0322  1.2950
 2021SOL    HW217523   2.591   3.544   8.745 -1.6362 -1.8391  0.5222
 2022SOL     OW17524   1.853   3.658   9.146 -0.6960  0.2872  0.0018
 2022SOL    HW117525   1.834   3.746   9.178 -1.3429 -0.4454  1.5798
 2022SOL    HW217526   1.933   3.667   9.093 -1.2157 -0.2934 -0.8864
 2023SOL     OW17527   4.217   3.984   4.474 -0.1252 -0.6101 -0.2465
 2023SOL    HW117528   4.280   4.027   4.533 -1.2206  0.9659 -0.2175
 2023SOL    HW217529   4.272   3.945   4.406  2.0768 -3.5432  3.2063
 2024SOL     OW17530   1.518   2.151   2.196 -0.2220 -0.1832  0.1602
 2024SOL    HW117531   1.569   2.230   2.210  0.5013 -0.9153  1.6780
 2024SOL    HW217532   1.438   2.197   2.173  0.1095  1.3275  2.0239
 2025SOL     OW17533   4.299   1.298  15.431  0.3946 -0.0793  0.6467
 2025SOL    HW117534   4.230   1.232  15.433  0.1981  0.1647  2.2865
 2025SOL    HW217535   4.354   1.277  15.356 -1.4913  0.7789 -0.9726
 2026SOL     OW17536   1.337   2.838   1.983  0.0389  0.2753 -0.0232
 2026SOL    HW117537   1.392   2.849   1.906  1.5111  0.2762  1.0426
 2026SOL    HW217538   1.312   2.749   1.961  1.3452 -0.0265 -0.2519
 2027SOL     OW17539   2.107   3.362   7.974 -0.3842  0.0015 -0.8047
 2027SOL    HW117540   2.121   3.453   7.998  1.5119 -0.4731 -0.1652
 2027SOL    HW217541   2.194   3.341   7.941 -0.8756 -1.6980 -1.0232
 2028SOL     OW17542   1.525   3.246  13.863  0.6097 -0.0245 -0.0823
 2028SOL    HW117543   1.527   3.244  13.768  0.3739 -1.0130 -0.0638
 2028SOL    HW217544   1.614   3.213  13.875  0.6232 -0.8525 -2.6093
 2029SOL     OW17545   3.624   0.589   7.071 -0.1144 -0.2074 -0.2025
 2029SOL    HW117546   3.700   0.572   7.016 -0.3238 -1.7302 -0.0267
 2029SOL    HW217547   3.596   0.500   7.091  1.5095 -0.6551  0.0783
 2030SOL     OW17548   3.656   4.692   7.936  0.1482 -0.3437 -0.0657
 2030SOL    HW117549   3.575   4.708   7.888 -0.2608 -1.8361  0.1297
 2030SOL    HW217550   3.652   0.047   7.992  2.0167  1.3431 -2.2631
 2031SOL     OW17551   4.336   4.476   7.812 -0.0438 -0.0276  0.1142
 2031SOL    HW117552   4.349   4.552   7.869 -1.6024  0.3650 -0.0551
 2031SOL    HW217553   4.386   4.517   7.740 -0.1384  1.8782  1.1306
 2032SOL     OW17554   1.425   3.328  16.174  0.6859 -0.5765  0.1218
 2032SOL    HW117555   1.381   3.395  16.122 -0.6502 -0.2648  1.6475
 2032SOL    HW217556   1.477   3.284  16.106 -0.2888 -1.2643 -0.1771
 2033SOL     OW17557   3.888   0.486   6.099 -0.7270 -0.0245 -0.7918
 2033SOL    HW117558   3.935   0.527   6.026 -0.2839  2.3758  0.8305
 2033SOL    HW217559   3.801   0.525   6.103 -0.5095  0.1479  2.2498
 2034SOL     OW17560   4.139   1.887   9.188 -0.1700  0.3309  0.6410
 2034SOL    HW117561   4.203   1.829   9.148 -2.4667 -0.3839 -2.0473
 2034SOL    HW217562   4.114   1.841   9.268 -1.0294 -0.0893  0.1429
 2035SOL     OW17563   1.530   1.721  11.480 -0.3815  0.2146  0.4017
 2035SOL    HW117564   1.490   1.790  11.428  0.3841 -0.9645 -1.7503
 2035SOL    HW217565   1.606   1.759  11.523 -1.0963  2.6339 -0.5099
 2036SOL     OW17566   0.286   3.395  14.883  0.5721  0.5614  0.3265
 2036SOL    HW117567   0.252   3.431  14.801 -1.0349 -3.1978 -0.6957
 2036SOL    HW217568   0.372   3.438  14.883  0.3043  1.0983 -0.9164
 2037SOL     OW17569   4.244   1.329   0.283  0.1795 -0.1136  0.2273
 2037SOL    HW117570   4.280   1.301   0.367 -2.7138  0.3651  1.6151
 2037SOL    HW217571   4.332   1.325   0.245  0.2300 -1.4963  0.5082
 2038SOL     OW17572   4.282   1.995   6.575  0.8072 -0.2476 -0.3193
 2038SOL    HW117573   4.239   1.915   6.545  1.8688 -0.5456 -1.0739
 2038SOL    HW217574   4.228   2.062   6.533 -0.9342  1.2308  4.2549
 2039SOL     OW17575   2.562   2.195   3.742  0.1025  0.6914  0.5372
 2039SOL    HW117576   2.509   2.260   3.788 -1.3920  1.1105 -1.7833
 2039SOL    HW217577   2.492   2.151   3.694 -0.2262  2.4004 -0.5447
 2040SOL     OW17578   4.106   3.573   9.307  0.6549  0.0893  0.1604
 2040SOL    HW117579   4.029   3.596   9.256  1.3405  2.3199  0.1372
 2040SOL    HW217580   4.071   3.544   9.392  0.0395  0.0759 -0.0976
 2041SOL     OW17581   1.493   2.312   5.827  0.1834 -0.7511 -0.2018
 2041SOL    HW117582   1.495   2.313   5.923 -0.0272 -1.2369 -0.1934
 2041SOL    HW217583   1.500   2.407   5.813  1.1383 -0.4681  2.2371
 2042SOL     OW17584   3.092   4.231   3.639  0.3132 -0.1282  0.1520
 2042SOL    HW117585   3.161   4.265   3.582  0.6245 -2.0501 -0.6212
 2042SOL    HW217586   3.112   4.138   3.634  0.6258 -0.1084  0.8815
 2043SOL     OW17587   2.423   1.356   4.603 -0.0264  0.0524 -0.8826
 2043SOL    HW117588   2.439   1.411   4.680 -0.4928  2.3103 -2.3892
 2043SOL    HW217589   2.513   1.331   4.583  0.8250  1.9668  0.6029
 2044SOL     OW17590   0.442   1.805   8.013  0.0637 -0.0364 -0.4115
 2044SOL    HW117591   0.518   1.848   7.974  0.0889 -0.1262 -0.4610
 2044SOL    HW217592   0.388   1.884   8.024 -0.6476 -0.7030  0.9739
 2045SOL     OW17593   0.497   0.978   1.257 -0.2428  0.4022 -0.1294
 2045SOL    HW117594   0.439   0.997   1.331 -0.4233 -3.6351  0.7638
 2045SOL    HW217595   0.572   1.035   1.271 -1.6935  1.7776  2.2488
 2046SOL     OW17596   3.399   3.458   3.996  0.3425 -0.3391  0.5955
 2046SOL    HW117597   3.314   3.455   4.041 -0.9184  1.5145 -1.6706
 2046SOL    HW217598   3.399   3.390   3.930 -3.7011 -1.3117  1.5788
 2047SOL     OW17599   0.995   0.431   5.305  0.1632  0.0402 -0.0579
 2047SOL    HW117600   0.927   0.393   5.361 -0.3243  0.4038 -0.3984
 2047SOL    HW217601   0.945   0.495   5.254  1.0321  0.8949  0.1570
 2048SOL     OW17602   4.689   3.489  11.790  0.0299  0.2823 -0.6046
 2048SOL    HW117603   0.027   3.496  11.863 -0.6174  1.8825 -0.2118
 2048SOL    HW217604   4.620   3.449  11.844 -1.1369  1.3447 -1.2983
 2049SOL     OW17605   0.600   3.440   1.629  0.4169  0.3952  0.2034
 2049SOL    HW117606   0.657   3.396   1.690 -0.6925  0.8405  1.5619
 2049SOL    HW217607   0.514   3.412   1.661  0.1206  1.6796  0.5491
 2050SOL     OW17608   3.338   0.394   9.091 -0.1575  0.1488  0.2671
 2050SOL    HW117609   3.266   0.451   9.066 -1.3652 -1.5335 -0.1091
 2050SOL    HW217610   3.416   0.445   9.112 -2.0122  2.6777  0.8886
 2051SOL     OW17611   3.070   1.294   8.494  0.2737  0.3593  0.3130
 2051SOL    HW117612   3.063   1.207   8.454  1.2629 -0.2134  1.3968
 2051SOL    HW217613   3.148   1.324   8.446  0.6676 -0.7360  0.2845
 2052SOL     OW17614   3.314   0.279   9.339  0.2431  0.2400 -0.2017
 2052SOL    HW117615   3.252   0.214   9.306 -2.0750  1.9764  0.6865
 2052SOL    HW217616   3.324   0.339   9.265 -0.0960  0.1030 -0.3591
 2053SOL     OW17617   3.407   3.651  10.134  0.3666  0.6476  0.9544
 2053SOL    HW117618   3.430   3.695  10.216 -0.9100  1.4163  0.8940
 2053SOL    HW217619   3.487   3.601  10.120  0.7388  1.4640  0.1758
 2054SOL     OW17620   1.081   3.076   1.889 -0.2785  0.1076 -0.1914
 2054SOL    HW117621   1.152   3.116   1.839  1.4923 -0.6887  1.6775
 2054SOL    HW217622   1.071   2.990   1.846 -1.7211  1.0197 -1.6891
 2055SOL     OW17623   0.096   3.523   3.540  0.8364  0.4260 -0.0474
 2055SOL    HW117624   0.034   3.596   3.543  1.4514  0.9424 -0.0686
 2055SOL    HW217625   0.043   3.453   3.500  1.4794  0.2357 -0.5723
 2056SOL     OW17626   1.495   2.768   0.252 -0.3922  0.0854  0.1539
 2056SOL    HW117627   1.547   2.733   0.324  1.8698  0.0377 -1.5408
 2056SOL    HW217628   1.557   2.762   0.180 -1.3876  1.5103 -0.8193
 2057SOL     OW17629   2.200   3.762   0.773  0.3389 -0.5993 -0.2693
 2057SOL    HW117630   2.272   3.699   0.771  0.6754 -0.2539  0.9345
 2057SOL    HW217631   2.199   3.785   0.680  1.3640 -1.6750 -0.5492
 2058SOL     OW17632   4.252   4.442   5.385  0.7409  0.0435 -0.5393
 2058SOL    HW117633   4.163   4.445   5.418  1.0788  0.8375  0.2820
 2058SOL    HW217634   4.235   4.451   5.292  0.1839  0.5245 -0.3898
 2059SOL     OW17635   2.473   3.201   2.684  0.0664 -0.1734 -0.2167
 2059SOL    HW117636   2.465   3.267   2.615 -0.1869  1.3283  1.2607
 2059SOL    HW217637   2.525   3.131   2.644  0.5106  0.5961 -0.9877
 2060SOL     OW17638   4.176   3.038   1.472  0.2087 -0.1146 -0.0270
 2060SOL    HW117639   4.139   2.957   1.506 -0.7173  0.1789 -0.3459
 2060SOL    HW217640   4.226   3.000   1.399  0.2882 -1.1525  0.5682
 2061SOL     OW17641   2.925   1.851  10.081 -0.2246 -0.1166  0.1646
 2061SOL    HW117642   2.970   1.885  10.004  0.3654 -0.1894  0.4774
 2061SOL    HW217643   2.957   1.901  10.157 -0.9964 -1.0754  1.1184
 2062SOL     OW17644   0.407   0.439   7.477  0.2448 -0.7205 -0.1084
 2062SOL    HW117645   0.410   0.415   7.569 -0.2004  1.8106  0.5490
 2062SOL    HW217646   0.407   0.534   7.491  0.1395 -0.6611 -0.5062
 2063SOL     OW17647   3.443   3.782  10.385 -0.2695 -0.0417  0.5580
 2063SOL    HW117648   3.379   3.741  10.443 -0.6619  0.8163  0.7330
 2063SOL    HW217649   3.513   3.786  10.451  1.3904 -0.2023 -1.1946
 2064SOL     OW17650   2.302   2.448  10.979 -0.2873 -0.1201  0.2231
 2064SOL    HW117651   2.335   2.537  10.972 -1.3978  0.2331 -0.6611
 2064SOL    HW217652   2.226   2.454  11.036 -2.0385  0.8902 -2.1910
 2065SOL     OW17653   0.365   0.919   7.321 -0.7348 -0.0955  0.4747
 2065SOL    HW117654   0.331   0.995   7.273 -0.5150 -0.4272 -0.2064
 2065SOL    HW217655   0.429   0.961   7.379  1.1672 -0.8335 -1.1050
 2066SOL     OW17656   2.399   3.947   3.396  0.4581 -0.1461 -0.6613
 2066SOL    HW117657   2.394   3.929   3.302  0.4090  0.9996 -0.8817
 2066SOL    HW217658   2.456   3.876   3.424 -1.9071 -2.0104 -0.5446
 2067SOL     OW17659   1.975   1.674   7.859 -0.0368 -0.1342 -0.2446
 2067SOL    HW117660   1.904   1.689   7.797 -1.2482  1.3254  1.5107
 2067SOL    HW217661   2.012   1.761   7.845  0.8164 -0.9215 -2.8923
 2068SOL     OW17662   0.916   3.165  13.849 -0.1493  0.3055  0.1758
 2068SOL    HW117663   0.821   3.161  13.839 -0.2561  0.6732  1.0215
 2068SOL    HW217664   0.944   3.078  13.819 -1.1949  0.2960 -0.7451
 2069SOL     OW17665   4.055   2.003  11.140  0.3924  0.1969  0.1207
 2069SOL    HW117666   4.107   1.951  11.078 -0.8544  0.3043 -1.0245
 2069SOL    HW217667   4.100   1.977  11.221 -1.2213 -2.9518  0.0318
 2070SOL     OW17668   1.003   0.506  13.645  0.0214  0.0649  0.0374
 2070SOL    HW117669   0.964   0.590  13.622  0.0640  0.1706  0.3643
 2070SOL    HW217670   1.007   0.471  13.556  0.8888  0.6847 -0.1603
 2071SOL     OW17671   3.027   2.062   6.946 -0.4563  0.2327  0.2208
 2071SOL    HW117672   2.946   2.027   6.984 -0.3443  0.4081  0.6186
 2071SOL    HW217673   3.064   2.109   7.020 -2.1381  3.3880 -0.9372
 2072SOL     OW17674   3.670   0.024   3.729 -0.1487 -0.2144 -0.0272
 2072SOL    HW117675   3.757   4.721   3.697 -0.0361  0.1588 -0.0231
 2072SOL    HW217676   3.641   0.090   3.666 -1.4178  0.7694  1.5946
 2073SOL     OW17677   2.623   0.526   9.663 -0.5602 -0.6517 -0.1963
 2073SOL    HW117678   2.579   0.594   9.612  0.7830 -0.7036 -1.3907
 2073SOL    HW217679   2.612   0.449   9.607  1.1482  0.5703 -2.1787
 2074SOL     OW17680   3.820   0.306   8.628  0.1763  0.2519 -0.1796
 2074SOL    HW117681   3.893   0.247   8.609  1.3228  0.9086  2.3001
 2074SOL    HW217682   3.851   0.325   8.716 -1.1157  0.6936  0.1714
 2075SOL     OW17683   2.005   2.481   1.374 -0.3004  0.9933 -0.2009
 2075SOL    HW117684   2.049   2.405   1.412  0.0202  0.7133 -1.1363
 2075SOL    HW217685   2.073   2.547   1.389 -0.8171  1.3448  0.6101
 2076SOL     OW17686   1.713   2.759   5.956  0.2756 -0.4574 -0.1992
 2076SOL    HW117687   1.753   2.784   5.874 -0.3701  2.6369  0.4323
 2076SOL    HW217688   1.698   2.844   5.997  0.0919  0.0255 -1.2957
 2077SOL     OW17689   2.606   0.978   3.914  0.1503 -0.0426  0.1776
 2077SOL    HW117690   2.556   1.058   3.901  0.8633 -0.0422 -2.5458
 2077SOL    HW217691   2.692   1.011   3.888  0.9838 -1.4509  1.1235
 2078SOL     OW17692   3.066   4.555  10.621  0.3719  0.0747 -0.1405
 2078SOL    HW117693   3.054   4.506  10.703  1.0335  0.2941  0.0849
 2078SOL    HW217694   3.006   4.518  10.556  1.4694 -0.9601 -0.5729
 2079SOL     OW17695   3.810   1.027   7.123 -0.0947 -0.0849  0.1589
 2079SOL    HW117696   3.782   1.091   7.057  1.9389  0.8476  0.1966
 2079SOL    HW217697   3.818   1.084   7.199  2.2009 -0.8008  0.4735
 2080SOL     OW17698   1.435   3.757   2.657 -0.8502  0.3898 -0.5311
 2080SOL    HW117699   1.494   3.831   2.645  1.1160 -1.1781 -0.3539
 2080SOL    HW217700   1.361   3.791   2.606  0.1687  1.8886 -1.0043
 2081SOL     OW17701   3.669   1.153   3.041 -0.0438  0.3020 -0.1720
 2081SOL    HW117702   3.681   1.248   3.039 -0.9527  0.4407  0.7191
 2081SOL    HW217703   3.584   1.150   3.086 -0.6708 -2.9397 -1.5579
 2082SOL     OW17704   4.663   0.412   8.424 -0.2718 -0.1700 -0.0743
 2082SOL    HW117705   4.628   0.366   8.501 -0.7312  0.3400  0.0203
 2082SOL    HW217706   4.658   0.340   8.362  1.6254  1.3554 -1.9999
 2083SOL     OW17707   2.260   1.618   9.942 -0.3485  0.0048  0.2298
 2083SOL    HW117708   2.330   1.557   9.920  1.6445  1.8347  1.5704
 2083SOL    HW217709   2.302   1.695   9.979 -1.0869  1.4544 -2.0070
 2084SOL     OW17710   2.542   1.479   9.925  0.1556 -0.2896 -0.4279
 2084SOL    HW117711   2.612   1.521   9.974  0.2559  0.5755 -1.3154
 2084SOL    HW217712   2.590   1.407   9.884  0.6573 -0.0011 -0.3472
 2085SOL     OW17713   1.020   4.574  13.631 -0.4948 -0.5373 -0.0104
 2085SOL    HW117714   1.060   4.541  13.712 -0.0415  0.5860  0.2143
 2085SOL    HW217715   1.081   4.534  13.569  0.2215 -0.1464  0.4383
 2086SOL     OW17716   4.482   0.676   2.291 -0.5172  0.3059 -0.0615
 2086SOL    HW117717   4.556   0.678   2.230  0.9098 -2.5464  1.5485
 2086SOL    HW217718   4.412   0.641   2.237 -2.2028  1.6244  1.2810
 2087SOL     OW17719   3.292   0.522  15.013  0.4654 -0.0096  0.6349
 2087SOL    HW117720   3.233   0.448  15.030  1.6754 -0.6972  1.8991
 2087SOL    HW217721   3.259   0.552  14.929  3.7158 -0.4225 -0.7655
 2088SOL     OW17722   0.768   1.525   7.130 -0.0125  0.2468  0.0648
 2088SOL    HW117723   0.710   1.464   7.174 -2.1727  1.8307 -0.5787
 2088SOL    HW217724   0.786   1.480   7.047  1.0503  0.8866 -0.0612
 2089SOL     OW17725   0.552   1.371  13.018 -0.2674 -1.1825 -0.0768
 2089SOL    HW117726   0.463   1.403  13.031  1.0074  2.6878 -0.7040
 2089SOL    HW217727   0.576   1.430  12.946  1.0124 -0.0674  1.2735
 2090SOL     OW17728   1.905   2.548   5.922  0.1381  0.4017  0.4450
 2090SOL    HW117729   1.989   2.589   5.943  0.5608 -0.3199  0.1839
 2090SOL    HW217730   1.839   2.617   5.926  1.4187  1.6119  0.7191
 2091SOL     OW17731   2.839   2.252   2.988 -0.2999 -0.0943 -0.2516
 2091SOL    HW117732   2.807   2.186   2.927 -1.0213 -0.0284  0.0463
 2091SOL    HW217733   2.755   2.294   3.009  0.1562 -0.0444  1.4866
 2092SOL     OW17734   0.434   0.997   2.669  0.0709  0.1418 -0.1412
 2092SOL    HW117735   0.364   1.053   2.701  1.4462  2.8628 -1.9855
 2092SOL    HW217736   0.514   1.046   2.683 -0.0725  0.8536 -1.8138
 2093SOL     OW17737   1.834   1.724  14.512  0.0842 -0.4294 -0.4069
 2093SOL    HW117738   1.836   1.813  14.477  0.6934  0.4385  1.7964
 2093SOL    HW217739   1.803   1.666  14.442  1.2521 -0.5341 -0.8405
 2094SOL     OW17740   2.397   3.534   9.604  0.1045  0.0954 -0.0913
 2094SOL    HW117741   2.372   3.460   9.660 -0.3866  0.1715 -0.2016
 2094SOL    HW217742   2.456   3.579   9.664  0.9325  0.6270 -1.3270
 2095SOL     OW17743   2.564   4.355   1.027  0.3307 -0.0281 -0.9246
 2095SOL    HW117744   2.476   4.388   1.009 -0.5072 -1.1141  1.2009
 2095SOL    HW217745   2.613   4.361   0.945 -0.1006  2.1767 -1.0290
 2096SOL     OW17746   1.573   3.285   5.694  0.2120 -0.3333 -0.2349
 2096SOL    HW117747   1.611   3.214   5.643  1.3185  0.2412 -0.2157
 2096SOL    HW217748   1.647   3.345   5.701 -0.7016  0.7252  0.4672
 2097SOL     OW17749   1.517   1.947  14.270  0.2947  0.1921 -0.7738
 2097SOL    HW117750   1.488   1.931  14.180 -0.6883 -1.7606 -0.1005
 2097SOL    HW217751   1.438   1.966  14.321  0.7019  1.2076 -0.5381
 2098SOL     OW17752   0.670   0.947  17.567 -0.0993 -0.0420  0.0747
 2098SOL    HW117753   0.659   1.041  17.576  1.2960 -0.0138  1.5382
 2098SOL    HW217754   0.672   0.929  17.473 -1.2275  0.7586 -0.1053
 2099SOL     OW17755   0.591   1.743  16.181 -0.0714  0.3097 -0.2216
 2099SOL    HW117756   0.526   1.695  16.233 -0.4410  2.1925  1.0267
 2099SOL    HW217757   0.672   1.725  16.228 -0.3042 -0.4321 -0.0981
 2100SOL     OW17758   1.600   1.463   9.664  0.4125 -0.2200 -0.3212
 2100SOL    HW117759   1.669   1.427   9.607  0.3393  0.0711 -0.5922
 2100SOL    HW217760   1.608   1.558   9.654 -1.7766  0.2937  2.8749
 2101SOL     OW17761   1.823   4.714  11.019  0.0474 -0.1861 -0.4776
 2101SOL    HW117762   1.744   0.028  11.059  0.3711  0.4842 -0.4650
 2101SOL    HW217763   1.799   4.699  10.928 -0.6612  1.6923 -0.5868
 2102SOL     OW17764   4.128   3.848   3.565  0.0915 -0.6125 -0.1737
 2102SOL    HW117765   4.104   3.938   3.541 -0.7304 -0.5104  1.0032
 2102SOL    HW217766   4.221   3.859   3.584  0.2983 -0.7290 -1.0983
 2103SOL     OW17767   1.932   3.851   7.219 -0.2632  0.6448  0.3523
 2103SOL    HW117768   1.946   3.918   7.153  0.1306 -0.2946 -0.5293
 2103SOL    HW217769   1.922   3.903   7.298 -0.7500  0.0865  0.6586
 2104SOL     OW17770   1.673   0.558  12.174  0.2679 -0.7622  0.4217
 2104SOL    HW117771   1.615   0.599  12.111  0.8673 -1.0245 -0.3066
 2104SOL    HW217772   1.612   0.493  12.209 -2.3381  0.6008 -1.6407
 2105SOL     OW17773   3.444   3.672   4.721 -0.2071 -0.0320 -0.1837
 2105SOL    HW117774   3.532   3.635   4.729 -0.0297  0.4218 -0.0546
 2105SOL    HW217775   3.417   3.616   4.648  0.6565 -0.8031  0.0902
 2106SOL     OW17776   4.096   0.854   3.998  0.2514 -0.7806 -0.4903
 2106SOL    HW117777   4.103   0.769   3.955  2.0160 -0.5853 -0.5838
 2106SOL    HW217778   4.030   0.893   3.940  0.8247 -0.2546 -0.7869
 2107SOL     OW17779   1.233   0.310   5.268  0.3167 -0.1889  0.3144
 2107SOL    HW117780   1.285   0.336   5.343 -1.3813  1.8791  0.7882
 2107SOL    HW217781   1.147   0.338   5.300 -0.2220 -1.3022 -0.1487
 2108SOL     OW17782   0.800   2.155   7.398  0.2955  0.0762  0.1502
 2108SOL    HW117783   0.830   2.244   7.414 -0.0638 -0.0973  1.8508
 2108SOL    HW217784   0.853   2.132   7.322 -0.4269  1.2758 -0.7144
 2109SOL     OW17785   0.127   3.525  15.401 -0.8136  0.6704  0.1481
 2109SOL    HW117786   0.081   3.609  15.409  0.4737  1.2591  1.2485
 2109SOL    HW217787   0.149   3.528  15.307 -0.1114  0.1567  0.2973
 2110SOL     OW17788   2.721   3.945   7.924 -0.4125 -0.3814 -0.1729
 2110SOL    HW117789   2.678   4.001   7.989  1.7454 -0.3837  1.2773
 2110SOL    HW217790   2.648   3.888   7.901  0.4320 -0.9758 -1.3787
 2111SOL     OW17791   2.486   3.112   8.178  0.0580  0.5656  0.1181
 2111SOL    HW117792   2.452   3.111   8.089  2.3147  0.2958 -0.7497
 2111SOL    HW217793   2.576   3.142   8.164 -0.4201  1.5277 -0.9080
 2112SOL     OW17794   1.452   4.496  13.061 -0.0424  0.5454 -0.4560
 2112SOL    HW117795   1.521   4.430  13.062 -0.2901  0.2806 -0.8935
 2112SOL    HW217796   1.488   4.567  13.007  3.0584 -1.1431 -0.5890
 2113SOL     OW17797   1.938   1.033   3.944 -0.0570  0.1537  0.0766
 2113SOL    HW117798   1.963   0.943   3.962 -2.6187 -0.3900  0.9241
 2113SOL    HW217799   1.868   1.010   3.882 -0.2646  1.3475 -0.1328
 2114SOL     OW17800   0.949   2.324   2.341 -0.2617  0.3795 -0.5690
 2114SOL    HW117801   0.893   2.385   2.293 -2.8904 -1.6995 -0.0822
 2114SOL    HW217802   0.989   2.384   2.404 -0.1181  0.2734 -0.5577
 2115SOL     OW17803   4.594   2.173   7.572  0.3592  0.2384 -0.5172
 2115SOL    HW117804   4.572   2.183   7.479  0.4962 -1.4472 -0.7322
 2115SOL    HW217805   4.528   2.119   7.615  1.5258 -1.0552 -0.3355
 2116SOL     OW17806   1.986   1.193   1.956  0.2012 -0.6604  0.6122
 2116SOL    HW117807   1.918   1.238   1.905 -0.8063 -2.0379  0.7333
 2116SOL    HW217808   2.031   1.267   1.996 -0.6797 -0.9248  2.0832
 2117SOL     OW17809   4.572   3.900   2.262  0.2112  0.0560  0.2391
 2117SOL    HW117810   4.610   3.957   2.195  0.5825  1.3458  1.5557
 2117SOL    HW217811   4.510   3.853   2.207  0.2528  0.2631  0.0101
 2118SOL     OW17812   1.438   2.226   6.784  0.2104  0.2174  0.1394
 2118SOL    HW117813   1.490   2.163   6.834 -0.4095  0.0664  0.6036
 2118SOL    HW217814   1.508   2.266   6.733 -0.9684  1.4943 -0.4820
 2119SOL     OW17815   0.011   1.583   1.752  0.4441 -0.0349  0.0683
 2119SOL    HW117816   0.002   1.536   1.835  1.6337  0.9793  0.7700
 2119SOL    HW217817   0.045   1.509   1.701 -1.3559 -2.2209  2.0174
 2120SOL     OW17818   3.480   4.569  16.295  0.1620  0.0788  0.2811
 2120SOL    HW117819   3.442   4.575  16.383 -1.0784 -0.2879 -0.2182
 2120SOL    HW217820   3.573   4.584  16.307 -0.0616  1.7832 -0.1320
 2121SOL     OW17821   1.491   0.657   3.911  0.2954  0.6485  0.2041
 2121SOL    HW117822   1.554   0.660   3.983 -0.6489  2.3956  0.9694
 2121SOL    HW217823   1.546   0.614   3.847  0.9416  1.0596  0.4887
 2122SOL     OW17824   0.494   1.952   2.175 -0.4019  0.4749 -0.6728
 2122SOL    HW117825   0.459   2.014   2.111  0.2548  0.8782 -0.6329
 2122SOL    HW217826   0.419   1.898   2.201  0.5573 -0.1939  0.6870
 2123SOL     OW17827   4.450   2.620   3.498 -0.4236  0.1692  0.0499
 2123SOL    HW117828   4.425   2.700   3.545  0.5544  0.9074 -0.6986
 2123SOL    HW217829   4.524   2.657   3.450  1.3314 -2.2496  0.8816
 2124SOL     OW17830   0.149   0.885   6.256 -0.0139 -0.8034 -0.2560
 2124SOL    HW117831   0.162   0.882   6.161  0.4777 -1.1278 -0.1773
 2124SOL    HW217832   0.161   0.791   6.262 -1.0800 -0.9459 -0.3525
 2125SOL     OW17833   2.177   2.043   3.890  0.6303  0.3320 -0.7892
 2125SOL    HW117834   2.128   1.968   3.925  0.3621  1.2670  0.7969
 2125SOL    HW217835   2.132   2.111   3.940  1.9210  2.0213 -1.9483
 2126SOL     OW17836   3.301   3.037   6.175  0.3702  0.1323  0.1053
 2126SOL    HW117837   3.346   2.993   6.103 -1.1363 -0.6071 -0.4010
 2126SOL    HW217838   3.323   2.975   6.244 -3.1248  0.8667  1.8844
 2127SOL     OW17839   0.803   0.283  12.828 -0.4921  0.3821  0.2134
 2127SOL    HW117840   0.725   0.262  12.776  1.2943 -2.3899 -1.3521
 2127SOL    HW217841   0.805   0.375  12.802  1.1731 -0.7681 -3.7203
 2128SOL     OW17842   3.133   4.158   5.798  0.0356 -0.4168 -0.1568
 2128SOL    HW117843   3.216   4.159   5.750  0.5461  0.4221  0.7547
 2128SOL    HW217844   3.164   4.116   5.879 -0.0109 -1.3037 -0.5936
 2129SOL     OW17845   1.677   1.459   3.803 -0.1727 -0.1213  0.2374
 2129SOL    HW117846   1.739   1.397   3.763 -0.5582 -0.1844 -0.2592
 2129SOL    HW217847   1.626   1.401   3.860  0.7455 -0.9096  0.2766
 2130SOL     OW17848   4.304   2.898  17.407  0.2372 -0.1391  0.5014
 2130SOL    HW117849   4.300   2.805  17.426  0.4560 -0.2310  0.1013
 2130SOL    HW217850   4.382   2.899  17.351  0.2255  1.0806  0.4992
 2131SOL     OW17851   1.463   4.285  17.243 -0.0044  0.2452 -0.1315
 2131SOL    HW117852   1.422   4.368  17.265  1.4370  1.4622 -2.0473
 2131SOL    HW217853   1.402   4.226  17.288  1.4845 -0.3649  1.0880
 2132SOL     OW17854   1.994   2.817   5.494  0.2610 -0.0108  0.4845
 2132SOL    HW117855   1.939   2.793   5.420 -0.1683 -2.1081  1.4760
 2132SOL    HW217856   2.071   2.766   5.472 -0.3553 -0.2831 -1.0061
 2133SOL     OW17857   0.330   4.334   6.135 -0.1298 -0.0595 -0.7708
 2133SOL    HW117858   0.316   4.401   6.202 -3.2952 -1.9071  0.3851
 2133SOL    HW217859   0.417   4.353   6.099 -0.7281  1.6944 -1.3337
 2134SOL     OW17860   2.546   3.847   0.849 -0.0444 -0.0711  0.0541
 2134SOL    HW117861   2.478   3.809   0.793 -0.7766 -0.3927  1.1383
 2134SOL    HW217862   2.570   3.773   0.905 -0.6243 -1.7596 -1.9200
 2135SOL     OW17863   0.197   1.778   0.561  0.0393  0.0584 -0.3724
 2135SOL    HW117864   0.199   1.778   0.465 -0.6224 -0.4637 -0.3816
 2135SOL    HW217865   0.125   1.838   0.580  0.7127  1.3028 -1.7360
 2136SOL     OW17866   4.584   3.349   3.940  0.0871 -0.3449  0.0646
 2136SOL    HW117867   4.632   3.294   4.003  0.2693 -0.1748  0.0743
 2136SOL    HW217868   4.630   3.433   3.949  0.1176 -0.4728  1.0908
 2137SOL     OW17869   0.902   0.154   5.115 -1.0831  0.1815 -0.5514
 2137SOL    HW117870   0.956   0.120   5.187 -2.8487 -1.1061  0.1738
 2137SOL    HW217871   0.859   0.073   5.088  1.3784 -1.2047 -0.3479
 2138SOL     OW17872   1.067   1.375   8.191 -0.8103 -0.0722  0.0145
 2138SOL    HW117873   1.025   1.451   8.151  0.7836  0.0135 -1.4745
 2138SOL    HW217874   0.991   1.325   8.220  0.4660 -1.8719  0.2416
 2139SOL     OW17875   0.646   2.584   1.276 -0.4972 -0.6546  0.6535
 2139SOL    HW117876   0.654   2.490   1.259  3.2367  0.4812 -3.9436
 2139SOL    HW217877   0.737   2.612   1.262 -0.4987 -0.7494  0.4463
 2140SOL     OW17878   4.031   0.420   8.437 -0.0177  0.2021 -0.0845
 2140SOL    HW117879   4.059   0.372   8.515 -1.4250  0.0848  0.3440
 2140SOL    HW217880   4.105   0.434   8.378 -0.1538 -0.5310 -0.4223
 2141SOL     OW17881   4.503   0.345   3.600 -0.1592  0.2110  0.0264
 2141SOL    HW117882   4.527   0.369   3.689  0.2707 -0.7547  0.1719
 2141SOL    HW217883   4.590   0.352   3.560  0.1226  0.9413  0.7726
 2142SOL     OW17884   2.006   2.550  10.153  0.3524 -0.1004 -0.3952
 2142SOL    HW117885   1.973   2.543  10.064  0.9867 -2.0775 -0.4706
 2142SOL    HW217886   2.082   2.608  10.141  0.9672 -1.2928 -2.1870
 2143SOL     OW17887   4.501   2.317  17.475 -0.7028 -0.4832  0.1712
 2143SOL    HW117888   4.415   2.345  17.445 -1.0513 -3.0790 -1.2445
 2143SOL    HW217889   4.486   2.303  17.569  0.4907 -1.9305  0.1456
 2144SOL     OW17890   4.673   1.194  14.935  0.4520 -0.0121  0.2356
 2144SOL    HW117891   0.015   1.249  14.891  2.4581 -2.2691  0.4032
 2144SOL    HW217892   4.615   1.257  14.978  2.4761  1.0212  1.4405
 2145SOL     OW17893   2.944   4.148   7.269  0.1841  0.0994 -0.1682
 2145SOL    HW117894   2.914   4.065   7.307  0.3482  0.7031  1.2844
 2145SOL    HW217895   2.924   4.215   7.334  0.6986 -1.7648  1.9190
 2146SOL     OW17896   1.076   0.445   1.755  0.0743 -0.1548  0.2391
 2146SOL    HW117897   1.070   0.409   1.843  2.4769 -0.1218  0.4275
 2146SOL    HW217898   1.049   0.534   1.778  0.1940 -0.5394  1.8443
 2147SOL     OW17899   3.561   1.443  13.340 -0.1667  0.2933  0.0742
 2147SOL    HW117900   3.539   1.376  13.405 -1.5331 -0.0885 -0.7742
 2147SOL    HW217901   3.656   1.451  13.344 -0.0604  0.4936 -3.1517
 2148SOL     OW17902   0.659   3.316  17.088  0.1153  0.1090 -0.2364
 2148SOL    HW117903   0.730   3.255  17.068  2.0346  2.1444  0.3293
 2148SOL    HW217904   0.622   3.253  17.149 -0.9278 -0.5032 -1.4915
 2149SOL     OW17905   1.052   2.050   3.046  0.5770 -0.9273  0.6916
 2149SOL    HW117906   1.024   2.031   3.135  0.0454 -0.3014  0.6535
 2149SOL    HW217907   0.977   2.006   3.006 -0.4918  0.5018  1.1301
 2150SOL     OW17908   1.887   0.932   5.413 -0.0410  0.1874 -0.2925
 2150SOL    HW117909   1.851   0.847   5.387  2.3606 -0.4744 -1.4141
 2150SOL    HW217910   1.906   0.977   5.331  0.8678 -1.4302 -0.9469
 2151SOL     OW17911   1.643   3.874   6.161  0.2518 -0.2346  1.1723
 2151SOL    HW117912   1.578   3.831   6.217 -0.3677 -1.8818 -0.8067
 2151SOL    HW217913   1.719   3.819   6.178  0.5407 -0.5431 -1.1507
 2152SOL     OW17914   2.995   0.086   8.313 -0.3478 -0.1836  0.0850
 2152SOL    HW117915   3.012   0.010   8.368  0.5713  0.3176  0.4821
 2152SOL    HW217916   2.958   0.041   8.237  0.5680  0.0938 -0.5176
 2153SOL     OW17917   3.068   0.422   9.430  0.1132  0.2242  0.2511
 2153SOL    HW117918   3.145   0.373   9.400 -1.1446  0.1434 -2.8227
 2153SOL    HW217919   3.008   0.406   9.358 -0.1279  0.2725  0.4405
 2154SOL     OW17920   1.424   0.687   5.124 -0.2166  0.2311  0.2014
 2154SOL    HW117921   1.455   0.665   5.212 -1.0531 -1.2984  0.1001
 2154SOL    HW217922   1.418   0.601   5.085 -2.8148  0.9543 -0.9666
 2155SOL     OW17923   2.376   2.021   2.969 -0.3547 -0.5975  0.1299
 2155SOL    HW117924   2.461   2.034   3.011 -0.2233 -2.1022  0.3218
 2155SOL    HW217925   2.396   1.988   2.882 -0.2459 -0.9405  0.2863
 2156SOL     OW17926   1.686   0.869  15.232 -0.5494  0.1205  0.1655
 2156SOL    HW117927   1.701   0.859  15.138 -2.4709 -1.4996  0.0475
 2156SOL    HW217928   1.777   0.853  15.259 -0.5478  1.5229  1.0071
 2157SOL     OW17929   1.144   1.246   3.156  0.0485 -0.1780 -0.6283
 2157SOL    HW117930   1.085   1.183   3.113  0.0718  0.7585 -2.0478
 2157SOL    HW217931   1.133   1.316   3.091 -1.7088  0.8490  0.7446
 2158SOL     OW17932   1.034   0.142   4.106 -0.1792  0.2988  0.1107
 2158SOL    HW117933   1.055   0.148   4.013  1.1464 -1.8292  0.2741
 2158SOL    HW217934   1.073   0.224   4.138  0.8669 -0.8146  1.7025
 2159SOL     OW17935   4.708   0.078   6.158  0.3247  0.5059 -0.4951
 2159SOL    HW117936   4.619   0.061   6.126  0.8423 -0.2658 -1.5725
 2159SOL    HW217937   4.702   0.027   6.239 -1.0890  1.7126  0.1436
 2160SOL     OW17938   2.508   4.378   4.069 -0.0612  0.3318  0.6165
 2160SOL    HW117939   2.478   4.466   4.092  2.2220  1.4562 -0.6441
 2160SOL    HW217940   2.509   4.379   3.973 -1.4397 -0.0259  0.5977
 2161SOL     OW17941   0.285   4.383  15.776  0.0089  0.1035  0.0250
 2161SOL    HW117942   0.335   4.460  15.803 -1.2713  1.7287 -2.1900
 2161SOL    HW217943   0.202   4.393  15.822 -0.1930  0.1953 -0.3559
 2162SOL     OW17944   2.595   4.125   4.651 -0.7733  0.1209  0.3229
 2162SOL    HW117945   2.673   4.102   4.701 -1.8098 -0.2358  1.7713
 2162SOL    HW217946   2.622   4.203   4.603 -1.0874  0.6192  0.9486
 2163SOL     OW17947   1.409   0.215   4.595 -0.6879 -0.5231 -0.1972
 2163SOL    HW117948   1.347   0.185   4.661  0.5089  2.6026  2.3144
 2163SOL    HW217949   1.410   0.140   4.535  0.7824 -1.7404  1.3440
 2164SOL     OW17950   0.259   4.087   5.811 -0.2430 -0.3302 -0.1204
 2164SOL    HW117951   0.170   4.122   5.803  0.2975  1.1454  0.4054
 2164SOL    HW217952   0.264   4.072   5.906  4.0973  1.5052 -0.1066
 2165SOL     OW17953   4.721   2.146  17.592  0.1622 -0.4937 -0.5046
 2165SOL    HW117954   4.671   2.198  17.529 -1.0158 -3.1521 -1.7584
 2165SOL    HW217955   4.667   2.071  17.614 -0.5988  0.0207 -0.6252
 2166SOL     OW17956   1.198   3.308  16.755  0.0863  0.1373  0.2932
 2166SOL    HW117957   1.113   3.266  16.743  0.4176 -0.0831 -1.2716
 2166SOL    HW217958   1.224   3.300  16.847 -0.5529  0.5700  0.5084
 2167SOL     OW17959   1.722   1.877  11.113  0.3745 -0.3423 -0.6609
 2167SOL    HW117960   1.675   1.959  11.095 -0.5226 -0.6789  0.1978
 2167SOL    HW217961   1.764   1.864  11.028 -1.2559  1.1198 -1.6856
 2168SOL     OW17962   0.304   3.530   5.229  0.2247 -0.0681 -0.5286
 2168SOL    HW117963   0.392   3.549   5.259 -0.6324  0.0156  1.8880
 2168SOL    HW217964   0.312   3.458   5.166 -0.2108 -0.5204 -0.0596
 2169SOL     OW17965   0.796   1.143  11.930 -0.0947  0.3703 -0.1190
 2169SOL    HW117966   0.709   1.153  11.891  0.1818  2.7039 -0.1254
 2169SOL    HW217967   0.791   1.051  11.956 -0.6219  0.6918  0.9047
 2170SOL     OW17968   3.647   0.297   4.338 -0.4657  0.4871  0.3797
 2170SOL    HW117969   3.717   0.300   4.272 -1.7687 -1.7541 -1.0864
 2170SOL    HW217970   3.612   0.212   4.311 -0.3907  0.1431  1.3850
 2171SOL     OW17971   0.620   1.023   7.262  0.2038 -0.4681  0.2866
 2171SOL    HW117972   0.554   1.058   7.202  1.6880  0.0594 -1.0130
 2171SOL    HW217973   0.691   1.085   7.246  0.5322 -0.4773  1.6888
 2172SOL     OW17974   1.774   3.763   0.307 -0.0551  0.4452 -0.4629
 2172SOL    HW117975   1.792   3.779   0.215  2.5666  1.9309  0.2997
 2172SOL    HW217976   1.843   3.803   0.360 -0.7373 -0.1452  0.8727
 2173SOL     OW17977   1.703   1.264   2.715 -0.0146 -0.1129 -0.1742
 2173SOL    HW117978   1.780   1.282   2.770  0.0547  0.7637 -0.5642
 2173SOL    HW217979   1.665   1.351   2.728  1.0797  0.7323 -2.6203
 2174SOL     OW17980   3.858   0.978  13.244 -0.4949 -0.0226 -0.7221
 2174SOL    HW117981   3.818   1.013  13.164  2.1817  0.9978 -1.6192
 2174SOL    HW217982   3.827   0.888  13.245 -0.9291  0.1092 -1.9781
 2175SOL     OW17983   1.742   1.374   7.562  0.0516 -0.0334 -0.4949
 2175SOL    HW117984   1.775   1.300   7.613  1.3627  0.7158 -0.2417
 2175SOL    HW217985   1.675   1.330   7.509 -0.8992  0.1355  0.5545
 2176SOL     OW17986   0.960   3.553  10.920 -0.0390 -0.5066 -0.0189
 2176SOL    HW117987   1.040   3.504  10.901 -0.4566 -1.5132  0.8068
 2176SOL    HW217988   0.981   3.637  10.880  0.2209 -1.6192 -2.2709
 2177SOL     OW17989   0.758   4.039   7.597 -0.0137 -0.5017 -0.0415
 2177SOL    HW117990   0.725   3.987   7.670  1.7947 -0.4825  0.7978
 2177SOL    HW217991   0.847   4.047   7.632  0.4731 -1.4725 -1.0486
 2178SOL     OW17992   0.662   3.832  15.409  0.2748 -0.2944  0.2276
 2178SOL    HW117993   0.716   3.889  15.463 -3.6277  1.4625  2.2625
 2178SOL    HW217994   0.682   3.862  15.321  2.5892  0.7607  1.1171
 2179SOL     OW17995   0.903   2.668   2.868 -0.5223 -0.1994  0.0812
 2179SOL    HW117996   0.934   2.753   2.898  0.8005 -0.3795 -0.7947
 2179SOL    HW217997   0.856   2.637   2.946 -0.1088  0.0043  0.4128
 2180SOL     OW17998   3.692   1.038   6.076 -0.5307 -0.1145  0.1714
 2180SOL    HW117999   3.647   1.120   6.054 -2.0469 -0.8272  0.6333
 2180SOL    HW218000   3.651   0.991   6.003 -0.7724 -1.8376  1.4092
 2181SOL     OW18001   4.412   2.921   4.972 -0.5297 -0.2032  0.5125
 2181SOL    HW118002   4.485   2.983   4.968  0.2471 -1.0524  1.6259
 2181SOL    HW218003   4.436   2.880   5.055 -0.0443 -0.3653  0.2952
 2182SOL     OW18004   3.197   3.616   3.453  0.4805 -0.4018  0.2059
 2182SOL    HW118005   3.248   3.666   3.517  0.6460  1.1107 -1.0999
 2182SOL    HW218006   3.176   3.539   3.506 -0.9232 -1.1121 -1.3436
 2183SOL     OW18007   1.094   2.079   7.956  0.5121 -0.3143 -0.0962
 2183SOL    HW118008   1.012   2.071   8.004 -1.1026  0.7077 -2.6976
 2183SOL    HW218009   1.122   2.168   7.979 -0.3282 -0.5826  1.9631
 2184SOL     OW18010   3.019   3.913  16.907  0.1818  0.1725  0.2616
 2184SOL    HW118011   3.048   3.968  16.979 -0.4090 -0.7620  1.2283
 2184SOL    HW218012   2.926   3.936  16.906 -0.3974 -2.1291 -2.0075
 2185SOL     OW18013   4.573   1.403   8.282 -0.5593 -0.2438  0.2641
 2185SOL    HW118014   4.541   1.470   8.343  0.1058 -0.2580  0.6330
 2185SOL    HW218015   4.601   1.456   8.207 -0.4351 -0.7038 -0.0107
 2186SOL     OW18016   4.035   2.099  13.165  0.3309  0.1781 -0.3703
 2186SOL    HW118017   4.050   2.006  13.181  0.0369  0.5149  1.8282
 2186SOL    HW218018   4.104   2.126  13.104  2.9440 -2.0878  1.6060
 2187SOL     OW18019   1.393   1.358   4.275  0.2622 -0.7054 -0.3781
 2187SOL    HW118020   1.487   1.352   4.289 -0.0194  1.1258  2.3407
 2187SOL    HW218021   1.378   1.270   4.240  0.6829 -0.7379 -0.4743
 2188SOL     OW18022   3.436   1.795   5.412 -0.7792 -0.3735 -0.3489
 2188SOL    HW118023   3.525   1.832   5.407  0.1435 -2.5223 -0.0078
 2188SOL    HW218024   3.395   1.845   5.342 -1.0598 -0.3224 -0.1461
 2189SOL     OW18025   0.025   0.062   9.552  0.6045 -0.0086  0.0524
 2189SOL    HW118026   0.095   0.042   9.614 -0.3224 -4.3932 -0.2893
 2189SOL    HW218027   4.692   0.108   9.614 -0.0228  0.9361 -1.2168
 2190SOL     OW18028   3.778   0.855   4.818 -0.7451  0.6339  0.1567
 2190SOL    HW118029   3.711   0.880   4.882 -0.8400 -1.9086  1.0760
 2190SOL    HW218030   3.752   0.764   4.803  0.4470  0.4130 -0.5129
 2191SOL     OW18031   1.883   1.000   2.113 -0.1176 -0.6383 -0.3044
 2191SOL    HW118032   1.927   0.925   2.072  1.4653  1.4725 -2.4906
 2191SOL    HW218033   1.924   1.071   2.064  2.6861 -1.6604  0.6102
 2192SOL     OW18034   4.200   2.782   5.310  0.2776 -0.7986  0.1221
 2192SOL    HW118035   4.164   2.809   5.394  1.4136 -0.6968  0.5859
 2192SOL    HW218036   4.123   2.754   5.262 -0.1490 -1.3775  1.1486
 2193SOL     OW18037   0.552   2.786   6.579 -0.1312  0.0240 -0.0693
 2193SOL    HW118038   0.641   2.815   6.599 -0.3815  0.7735 -0.0591
 2193SOL    HW218039   0.527   2.743   6.661  0.6652  2.6049  1.5143
 2194SOL     OW18040   1.191   2.556   0.105  0.2122 -0.3336  0.0390
 2194SOL    HW118041   1.220   2.533   0.193  1.2325  1.5044  0.2047
 2194SOL    HW218042   1.097   2.571   0.109  0.4549  0.9469  0.9893
 2195SOL     OW18043   3.286   3.338   7.938 -0.0627 -0.9210  0.2990
 2195SOL    HW118044   3.252   3.389   8.011 -0.2697  1.3205 -1.3415
 2195SOL    HW218045   3.377   3.369   7.940 -0.2975 -0.0391 -2.8739
 2196SOL     OW18046   3.336   2.319   8.329 -0.0421  0.4460  0.1236
 2196SOL    HW118047   3.425   2.314   8.362  1.0979  1.1632 -2.7780
 2196SOL    HW218048   3.316   2.225   8.329  0.3397  0.3652 -0.8565
 2197SOL     OW18049   3.910   2.357  11.641 -0.5599 -0.2290 -0.4300
 2197SOL    HW118050   3.900   2.331  11.549  0.8358  0.9685 -0.9203
 2197SOL    HW218051   3.926   2.450  11.630  1.6315 -0.6026 -0.4281
 2198SOL     OW18052   2.211   4.141   8.384  0.0593  0.2921  0.0580
 2198SOL    HW118053   2.296   4.185   8.376 -0.0113  0.1568 -1.4711
 2198SOL    HW218054   2.222   4.050   8.356  0.3824 -0.1168  1.5315
 2199SOL     OW18055   3.175   2.316   2.314  0.0628 -0.0130  0.0769
 2199SOL    HW118056   3.124   2.359   2.382 -1.9553  1.5893 -2.4639
 2199SOL    HW218057   3.237   2.264   2.365 -0.7619 -0.9027  0.1846
 2200SOL     OW18058   0.731   0.951  14.994 -0.5469 -0.6226 -0.3848
 2200SOL    HW118059   0.800   0.884  14.992 -1.9082 -2.0469  0.4077
 2200SOL    HW218060   0.672   0.931  14.922 -0.3601  0.1348 -0.7462
 2201SOL     OW18061   1.993   0.785   8.048 -0.3043 -0.1722 -0.6134
 2201SOL    HW118062   1.914   0.816   8.091 -0.3683  1.6756 -2.0397
 2201SOL    HW218063   2.057   0.794   8.118 -1.0006  0.8713 -0.1113
 2202SOL     OW18064   3.014   2.521   6.376 -0.0212  0.1633 -0.2987
 2202SOL    HW118065   2.923   2.547   6.363  0.1976  0.5087 -1.1130
 2202SOL    HW218066   3.067   2.591   6.339 -0.3695  0.9407  0.6378
 2203SOL     OW18067   0.062   0.669   7.257  0.2944 -0.1103  0.1318
 2203SOL    HW118068   0.058   0.738   7.191  0.9580 -0.4148 -0.2203
 2203SOL    HW218069   0.157   0.662   7.266  0.6893  1.8743 -2.6175
 2204SOL     OW18070   0.117   3.134  17.011 -0.4383 -0.4775 -0.3719
 2204SOL    HW118071   0.203   3.124  17.052 -1.0478 -1.4623  0.6828
 2204SOL    HW218072   0.142   3.216  16.969 -1.0558  0.9278  1.9686
 2205SOL     OW18073   4.463   3.330   3.662  0.0922  0.0555 -0.1173
 2205SOL    HW118074   4.418   3.246   3.665 -0.7805  0.5546  0.5684
 2205SOL    HW218075   4.515   3.326   3.743 -2.1760  1.8937  1.4149
 2206SOL     OW18076   0.850   1.345   2.876  0.2678 -0.2579 -0.1479
 2206SOL    HW118077   0.810   1.361   2.790  1.6601  0.0113 -0.7496
 2206SOL    HW218078   0.904   1.423   2.887  2.4666 -1.8027 -0.0454
 2207SOL     OW18079   3.746   1.226   4.357 -0.3555 -0.8134  0.2622
 2207SOL    HW118080   3.828   1.183   4.336 -1.1243 -2.0273 -0.2669
 2207SOL    HW218081   3.763   1.317   4.331  1.6214 -0.9834  1.0191
 2208SOL     OW18082   2.953   1.709   8.294  1.0285 -0.4411  0.0707
 2208SOL    HW118083   3.004   1.790   8.285 -2.1978  1.6528  0.5712
 2208SOL    HW218084   2.980   1.685   8.383  1.3523 -1.6453 -0.3603
 2209SOL     OW18085   1.896   3.952   6.842 -0.3907  0.1814  0.2261
 2209SOL    HW118086   1.838   3.921   6.912  0.2771  0.6610  0.9921
 2209SOL    HW218087   1.958   3.879   6.839  0.3164  0.7141  1.7676
 2210SOL     OW18088   1.760   3.684   2.670 -0.0584  0.3865  0.4376
 2210SOL    HW118089   1.719   3.731   2.597  3.0549  1.3881 -0.6452
 2210SOL    HW218090   1.798   3.614   2.618 -2.0605 -0.7429  0.4749
 2211SOL     OW18091   4.127   3.213   6.312 -0.2484  0.1468  0.0673
 2211SOL    HW118092   4.199   3.251   6.262 -0.4926  1.4162  0.6577
 2211SOL    HW218093   4.109   3.288   6.369  0.6616  1.2344 -1.0844
 2212SOL     OW18094   3.272   0.508   4.885  0.2258  0.0136 -0.4218
 2212SOL    HW118095   3.336   0.471   4.824  0.0561 -2.7823  1.1069
 2212SOL    HW218096   3.201   0.445   4.874 -1.5939  2.0528 -0.3362
 2213SOL     OW18097   1.768   0.253  11.391  0.4805  0.1866 -0.3157
 2213SOL    HW118098   1.735   0.282  11.476 -0.7691 -2.3060  0.0311
 2213SOL    HW218099   1.718   0.307  11.329 -1.0550  0.5424  1.2243
 2214SOL     OW18100   0.674   2.893  14.898  0.5082  0.0287  0.4340
 2214SOL    HW118101   0.628   2.964  14.943  2.0392  0.4718  1.3160
 2214SOL    HW218102   0.669   2.822  14.962 -1.9005 -0.2371 -0.0301
 2215SOL     OW18103   2.086   4.445   6.019 -0.1386 -0.3588 -0.2658
 2215SOL    HW118104   2.025   4.436   6.092 -0.0636  1.0048 -0.0482
 2215SOL    HW218105   2.171   4.442   6.064  0.3343 -1.0727 -1.1843
 2216SOL     OW18106   3.110   1.906   6.112  0.3046  0.4346 -0.0933
 2216SOL    HW118107   3.035   1.896   6.170 -1.0859  2.4949 -1.5472
 2216SOL    HW218108   3.077   1.970   6.049 -2.3716  1.0029  1.9141
 2217SOL     OW18109   2.367   3.536   7.283 -0.3345  0.1992  0.5695
 2217SOL    HW118110   2.291   3.593   7.271  0.4937  0.7059 -2.2293
 2217SOL    HW218111   2.440   3.597   7.292 -2.1164  2.6436 -1.5734
 2218SOL     OW18112   4.609   0.261   5.839 -0.0796  0.9380 -0.0469
 2218SOL    HW118113   4.653   0.224   5.762  2.2085  0.9663  1.2348
 2218SOL    HW218114   4.542   0.196   5.861 -0.8575  1.7320 -0.0794
 2219SOL     OW18115   0.821   2.064   2.102 -0.4256  0.8058  0.2234
 2219SOL    HW118116   0.817   2.146   2.054  0.8661 -0.1614 -1.5250
 2219SOL    HW218117   0.915   2.051   2.102 -0.5505 -0.0544 -1.1207
 2220SOL     OW18118   3.494   1.978  14.350  0.0325 -0.2350  0.3482
 2220SOL    HW118119   3.573   1.940  14.310  0.1111  1.6308 -1.2412
 2220SOL    HW218120   3.485   1.900  14.405  0.0307  0.3833  1.2344
 2221SOL     OW18121   1.031   1.891   5.965 -0.1227  0.0795 -0.0642
 2221SOL    HW118122   0.943   1.923   5.986  0.5638  0.2456  2.4785
 2221SOL    HW218123   1.083   1.948   6.021  0.2472  1.0031 -1.3338
 2222SOL     OW18124   2.909   3.992   8.859  0.6334 -0.2498  0.3827
 2222SOL    HW118125   2.947   3.916   8.904  0.2373 -0.6447  0.0584
 2222SOL    HW218126   2.816   3.971   8.869 -0.1123  1.2801 -3.4107
 2223SOL     OW18127   1.859   0.290   2.968 -0.0529 -0.2124  0.6223
 2223SOL    HW118128   1.896   0.297   3.056  0.2463 -0.4496  0.5155
 2223SOL    HW218129   1.780   0.240   2.989  0.6397 -1.2435  0.8100
 2224SOL     OW18130   3.585   3.180   0.807 -0.1388 -0.8415  0.1013
 2224SOL    HW118131   3.550   3.259   0.849  1.9962 -0.3035  0.8853
 2224SOL    HW218132   3.578   3.213   0.717  1.0585 -0.4556  0.1512
 2225SOL     OW18133   3.930   0.779   3.347 -0.3939 -0.0296  0.3178
 2225SOL    HW118134   3.904   0.863   3.310  1.9820  0.7199  0.3385
 2225SOL    HW218135   4.022   0.805   3.353 -1.0929  2.1702  1.6344
 2226SOL     OW18136   0.507   4.126  12.302 -0.0942 -0.6040  0.0267
 2226SOL    HW118137   0.484   4.129  12.395 -0.0909  0.4761 -0.0067
 2226SOL    HW218138   0.591   4.170  12.300 -2.1337  3.2387 -1.4759
 2227SOL     OW18139   1.762   3.502   4.840 -0.1675 -0.5179  0.4781
 2227SOL    HW118140   1.856   3.483   4.843  0.2043  1.1564 -0.3003
 2227SOL    HW218141   1.752   3.575   4.779 -0.1381 -1.6475 -0.8808
 2228SOL     OW18142   2.885   3.720   9.789  0.5467 -0.4293  0.0302
 2228SOL    HW118143   2.914   3.644   9.840 -0.9412 -1.4800 -0.6684
 2228SOL    HW218144   2.941   3.706   9.713 -2.9647 -0.2677 -2.6126
 2229SOL     OW18145   3.396   3.444   2.357 -0.3194 -0.6067 -0.0257
 2229SOL    HW118146   3.313   3.491   2.353 -1.3042 -2.4319 -1.2800
 2229SOL    HW218147   3.360   3.355   2.349  1.0586 -1.0794 -0.8647
 2230SOL     OW18148   0.244   2.690   2.119  0.0905 -0.0440 -0.1829
 2230SOL    HW118149   0.268   2.751   2.188  1.6786  0.8939 -1.5535
 2230SOL    HW218150   0.149   2.703   2.127 -0.1036 -1.2225 -0.6183
 2231SOL     OW18151   3.129   3.178   4.986  0.0324 -0.2532 -0.0508
 2231SOL    HW118152   3.055   3.191   4.927  0.2458  0.0372 -0.2523
 2231SOL    HW218153   3.204   3.224   4.950  0.3396 -1.4428 -0.9109
 2232SOL     OW18154   1.900   1.957   7.321 -0.1108 -0.3224  0.0153
 2232SOL    HW118155   1.876   1.920   7.406  0.9056 -3.3228 -1.0116
 2232SOL    HW218156   1.984   1.995   7.347  0.9638 -1.2835 -2.0826
 2233SOL     OW18157   0.773   3.030  16.470  0.3608 -0.1040  0.7928
 2233SOL    HW118158   0.819   3.096  16.520  0.4111 -1.0199  1.9520
 2233SOL    HW218159   0.772   2.967  16.542 -2.1250  1.5080  2.1613
 2234SOL     OW18160   2.604   2.366   6.403  0.1321 -0.5607 -0.4666
 2234SOL    HW118161   2.607   2.377   6.498 -1.4693  0.1374 -0.4950
 2234SOL    HW218162   2.523   2.317   6.393 -1.5916  1.3497  3.9877
 2235SOL     OW18163   3.926   3.962   3.048  0.0284 -0.1430 -0.4534
 2235SOL    HW118164   3.855   3.928   3.103  0.3396  1.3453  0.8836
 2235SOL    HW218165   3.959   4.030   3.107 -0.9188 -0.6628  0.6782
 2236SOL     OW18166   4.569   1.625   6.702  0.0840  0.1875 -0.7121
 2236SOL    HW118167   4.610   1.551   6.747 -0.2731  0.0546 -0.5994
 2236SOL    HW218168   4.554   1.580   6.618 -1.3687 -0.3286 -0.1759
 2237SOL     OW18169   3.100   2.904   4.950 -0.5476 -0.5273  0.4961
 2237SOL    HW118170   3.094   2.998   4.967 -0.2812 -0.8975  2.5774
 2237SOL    HW218171   3.009   2.888   4.925 -0.3880 -0.1244 -0.3283
 2238SOL     OW18172   4.499   2.719  11.802 -0.1505  0.3196  0.2230
 2238SOL    HW118173   4.464   2.634  11.776  1.8080 -1.2771  2.9233
 2238SOL    HW218174   4.557   2.726  11.727  0.3676  1.9402  0.7582
 2239SOL     OW18175   4.558   0.749   4.383 -0.2885 -0.4813  0.0960
 2239SOL    HW118176   4.645   0.721   4.412  0.1636  1.1839  0.3242
 2239SOL    HW218177   4.574   0.840   4.359 -0.2889 -0.0957  1.5392
 2240SOL     OW18178   3.645   4.047  15.942 -1.0471 -0.2877 -0.0845
 2240SOL    HW118179   3.626   3.982  15.875 -1.5500 -1.1821  0.9195
 2240SOL    HW218180   3.740   4.038  15.943 -0.6875  3.3016 -0.8618
 2241SOL     OW18181   4.592   2.432   8.115 -0.3074  0.5869  0.3837
 2241SOL    HW118182   4.573   2.389   8.032 -1.7372  0.1552  0.9351
 2241SOL    HW218183   4.503   2.458   8.140  0.5555  2.1422  1.8481
 2242SOL     OW18184   2.812   0.163  13.761  0.1861 -0.0293  0.2210
 2242SOL    HW118185   2.719   0.154  13.781  0.4880 -0.9599  1.2666
 2242SOL    HW218186   2.841   0.139  13.850  0.3456  0.9173  0.4178
 2243SOL     OW18187   4.433   1.319   6.255  0.0509  0.0590  0.3809
 2243SOL    HW118188   4.351   1.289   6.295 -0.3257 -0.5535 -0.8689
 2243SOL    HW218189   4.442   1.247   6.193  0.5524  0.2877  0.1887
 2244SOL     OW18190   3.514   4.336  17.126  0.2838  0.1789  0.8330
 2244SOL    HW118191   3.554   4.376  17.048 -1.0323 -2.2928 -1.0716
 2244SOL    HW218192   3.578   4.345  17.197  0.4795 -1.3226  0.8506
 2245SOL     OW18193   4.066   2.843  13.242 -0.3124 -0.4915 -0.4592
 2245SOL    HW118194   4.055   2.927  13.288  2.1688 -1.4811  1.9619
 2245SOL    HW218195   4.001   2.843  13.172  0.2449  2.3971 -1.0007
 2246SOL     OW18196   0.296   1.923   7.453 -0.1363 -0.7473  0.0854
 2246SOL    HW118197   0.279   2.004   7.500  0.8950 -0.2496 -0.3719
 2246SOL    HW218198   0.384   1.946   7.422 -0.2673 -1.3514 -0.7539
 2247SOL     OW18199   3.118   2.768   7.944  0.3869 -0.0247 -0.4497
 2247SOL    HW118200   3.128   2.734   8.033  0.6841  1.3236  0.0387
 2247SOL    HW218201   3.051   2.712   7.905 -2.0145  3.5823 -1.5188
 2248SOL     OW18202   1.107   3.532   5.571  0.2875  0.3694 -0.1207
 2248SOL    HW118203   1.194   3.494   5.583  0.9869  2.1707  0.5625
 2248SOL    HW218204   1.128   3.623   5.551  1.7701 -0.0347 -0.3907
 2249SOL     OW18205   4.277   2.391  10.688 -0.3321  0.2405 -0.7095
 2249SOL    HW118206   4.337   2.369  10.759  0.2897  2.5665 -0.5255
 2249SOL    HW218207   4.248   2.303  10.663  0.0255 -0.3021  0.8004
 2250SOL     OW18208   0.871   4.478   7.409  0.4738 -0.2096  0.0726
 2250SOL    HW118209   0.942   4.505   7.352 -0.4666 -0.0043 -1.0052
 2250SOL    HW218210   0.828   4.562   7.428  1.2162 -0.5543  3.3496
 2251SOL     OW18211   0.020   4.215   1.373  0.5955  0.1073 -0.3115
 2251SOL    HW118212   4.716   4.305   1.355  0.9592 -0.0114 -1.4360
 2251SOL    HW218213   0.005   4.174   1.288  0.2851 -1.1324  0.3279
 2252SOL     OW18214   1.401   0.844   7.744  0.3232 -0.0283 -0.2823
 2252SOL    HW118215   1.355   0.786   7.683 -2.6238  0.6348  1.3089
 2252SOL    HW218216   1.331   0.902   7.773 -0.8272 -1.4977 -0.1269
 2253SOL     OW18217   3.034   3.033   7.618  0.1498  0.3317  0.1887
 2253SOL    HW118218   3.049   3.104   7.555  1.0854  0.7595  0.9015
 2253SOL    HW218219   3.097   3.058   7.685 -1.3680  2.0764  0.9497
 2254SOL     OW18220   3.619   3.150   4.602 -0.3625  0.3417  0.1827
 2254SOL    HW118221   3.528   3.181   4.613 -0.6125  0.3385 -1.8346
 2254SOL    HW218222   3.648   3.158   4.693 -1.0994  1.8709  0.2924
 2255SOL     OW18223   3.262   1.748  16.787  0.2384  0.5627  0.2732
 2255SOL    HW118224   3.321   1.820  16.809  2.0427 -1.3023  1.5017
 2255SOL    HW218225   3.249   1.707  16.873  0.2418 -0.3365 -0.1546
 2256SOL     OW18226   2.156   2.718   4.111  0.8109  0.1275 -0.4649
 2256SOL    HW118227   2.085   2.781   4.117  0.2853 -0.4792 -0.3271
 2256SOL    HW218228   2.112   2.660   4.050  1.0493  0.2763 -0.7771
 2257SOL     OW18229   2.108   2.423   6.083  0.5017 -0.2494 -0.2025
 2257SOL    HW118230   2.025   2.423   6.037 -0.2998 -0.4681  1.2557
 2257SOL    HW218231   2.168   2.399   6.011  1.7716 -0.7023  1.0011
 2258SOL     OW18232   4.710   0.411   4.511  0.4099  0.1563 -0.0691
 2258SOL    HW118233   4.701   0.363   4.428  2.2511 -0.8625  0.3302
 2258SOL    HW218234   4.618   0.421   4.537  0.2572 -1.4773  0.0747
 2259SOL     OW18235   1.799   3.895   7.957  0.2788  0.8292 -0.2615
 2259SOL    HW118236   1.763   3.942   8.032 -1.9580  0.5578 -1.1663
 2259SOL    HW218237   1.833   3.972   7.911  0.2382 -0.2419 -2.0905
 2260SOL     OW18238   0.817   0.742   2.214 -0.1786 -0.3648  0.5169
 2260SOL    HW118239   0.761   0.682   2.265 -1.2933  2.3710  2.4977
 2260SOL    HW218240   0.761   0.782   2.148 -0.9535 -1.4121  0.5273
 2261SOL     OW18241   2.781   4.548  16.597 -0.2910 -0.3221  0.2495
 2261SOL    HW118242   2.846   4.521  16.532  0.3802  0.6461  0.5145
 2261SOL    HW218243   2.690   4.544  16.568 -0.0042 -1.6381 -0.4881
 2262SOL     OW18244   4.152   2.399  11.094  0.3143  0.0955  0.1831
 2262SOL    HW118245   4.082   2.351  11.050  0.8795  0.9603 -1.6584
 2262SOL    HW218246   4.199   2.320  11.119  1.9179  1.5981  1.9244
 2263SOL     OW18247   3.855   4.530   3.311 -0.3307 -0.1561 -0.3819
 2263SOL    HW118248   3.815   4.446   3.333 -0.5160  0.5261  1.9493
 2263SOL    HW218249   3.858   4.532   3.215 -1.2451  0.9325 -0.3966
 2264SOL     OW18250   2.144   3.571   8.174  0.4363  0.0546  0.2873
 2264SOL    HW118251   2.137   3.580   8.269 -1.9853  0.1017  0.0877
 2264SOL    HW218252   2.235   3.542   8.165 -0.2726 -1.5252 -1.6002
 2265SOL     OW18253   1.989   2.755   4.541  0.1879  0.6614  0.1103
 2265SOL    HW118254   1.973   2.848   4.521  1.2942  0.7859 -0.1836
 2265SOL    HW218255   1.902   2.749   4.581  0.4298 -0.5649  0.4365
 2266SOL     OW18256   3.433   4.524   4.312  0.0199  0.0783  0.0677
 2266SOL    HW118257   3.392   4.604   4.280  0.2620  0.3287  0.3797
 2266SOL    HW218258   3.361   4.486   4.361  0.2834  0.6526  0.9080
 2267SOL     OW18259   4.537   1.303   7.151  0.1365  0.0209 -0.3147
 2267SOL    HW118260   4.501   1.243   7.216  0.9581  0.9692  1.0302
 2267SOL    HW218261   4.533   1.391   7.188  0.5748  0.2297 -0.7658
 2268SOL     OW18262   3.119   0.005   4.779  0.2485  0.5948  0.2748
 2268SOL    HW118263   3.032   0.014   4.739 -0.7684 -1.7459  1.9471
 2268SOL    HW218264   3.174   0.007   4.701  2.2441 -2.5908  1.5909
 2269SOL     OW18265   4.433   1.908   9.219  0.3324 -0.5163  0.3714
 2269SOL    HW118266   4.432   1.902   9.315 -1.2096 -2.2786  0.2448
 2269SOL    HW218267   4.425   1.815   9.197 -0.7810  0.0021 -1.3849
 2270SOL     OW18268   1.915   3.603  16.796 -0.1379 -0.1144 -0.2762
 2270SOL    HW118269   1.967   3.631  16.871 -0.3065 -0.8242  0.1041
 2270SOL    HW218270   1.854   3.543  16.840 -2.8306  1.6794 -1.5268
 2271SOL     OW18271   4.290   0.068   2.937 -0.6294  0.0958  0.3783
 2271SOL    HW118272   4.198   0.060   2.915 -0.7554 -0.5740  1.1290
 2271SOL    HW218273   4.305   0.066   3.032 -0.2547 -0.4485  0.3083
 2272SOL     OW18274   4.468   1.371   9.140  0.3232  0.0702  0.3159
 2272SOL    HW118275   4.545   1.404   9.186  0.3367 -0.6991  0.8349
 2272SOL    HW218276   4.510   1.340   9.059  0.1377 -0.4544  0.4271
 2273SOL     OW18277   2.310   4.126  12.374  0.4569 -0.2573 -0.1468
 2273SOL    HW118278   2.244   4.170  12.320  0.7426  2.0481  1.4138
 2273SOL    HW218279   2.304   4.038  12.336  2.2418 -0.2414 -0.4528
 2274SOL     OW18280   0.918   1.123   0.093 -0.0997 -0.1109 -0.2220
 2274SOL    HW118281   0.999   1.168   0.118 -0.5267  0.5312 -0.0150
 2274SOL    HW218282   0.868   1.190   0.048 -0.7741  0.0556  0.7739
 2275SOL     OW18283   0.427   4.143   2.115 -0.5411 -0.1192 -0.1727
 2275SOL    HW118284   0.486   4.098   2.174 -0.6477  1.1492  0.8971
 2275SOL    HW218285   0.493   4.175   2.053  1.1537 -1.2764  1.0476
 2276SOL     OW18286   0.193   4.099  15.087 -0.5266  0.1985  0.3515
 2276SOL    HW118287   0.257   4.133  15.024 -0.4640  0.3909  0.5167
 2276SOL    HW218288   0.154   4.030  15.033 -1.7234  1.0323  0.1485
 2277SOL     OW18289   2.462   1.889   6.831  0.3992 -0.1534  0.3913
 2277SOL    HW118290   2.481   1.852   6.917 -1.4204  2.3739  1.8661
 2277SOL    HW218291   2.417   1.965   6.867  1.2933  0.1791  0.7967
 2278SOL     OW18292   0.194   3.226  11.665  0.2766  0.5433 -0.1474
 2278SOL    HW118293   0.107   3.210  11.629 -0.3960  0.9653  1.2635
 2278SOL    HW218294   0.225   3.296  11.607 -0.1009  0.4534 -0.4581
 2279SOL     OW18295   0.053   3.744   8.594 -0.1360  0.3124  0.0371
 2279SOL    HW118296   0.134   3.741   8.542  0.7431 -0.0563  1.4219
 2279SOL    HW218297   0.000   3.697   8.529  1.0369 -0.6329 -0.2389
 2280SOL     OW18298   1.009   0.801   9.842 -0.5439  0.4516  0.0364
 2280SOL    HW118299   1.060   0.826   9.919 -0.6197 -1.0132  0.5539
 2280SOL    HW218300   0.919   0.828   9.860 -1.2139 -2.4120  0.8636
 2281SOL     OW18301   1.178   3.009   9.871 -0.4306  0.4217  0.1868
 2281SOL    HW118302   1.230   3.058   9.934 -1.0872  1.3475  0.0082
 2281SOL    HW218303   1.120   3.067   9.821 -1.5104 -0.2544  0.6594
 2282SOL     OW18304   4.381   3.348  14.683  0.2628 -0.1683 -0.0054
 2282SOL    HW118305   4.402   3.422  14.625 -3.7647  1.3343  0.4620
 2282SOL    HW218306   4.322   3.296  14.628  0.8629 -1.7662  0.8646
 2283SOL     OW18307   3.932   3.711  14.959 -0.9993  0.3160 -0.5484
 2283SOL    HW118308   3.916   3.634  15.013 -1.2767  0.2696 -0.6988
 2283SOL    HW218309   3.996   3.763  15.009 -1.1145  1.6937 -1.8336
 2284SOL     OW18310   0.823   0.138   2.646  0.1227 -0.4431  0.4436
 2284SOL    HW118311   0.811   0.060   2.592 -1.2869 -0.2771  0.4940
 2284SOL    HW218312   0.745   0.127   2.702 -1.2159  0.9348 -1.1401
 2285SOL     OW18313   2.995   2.386   4.945  0.3490  0.4741  0.3586
 2285SOL    HW118314   2.983   2.424   5.033 -0.0048 -0.7193  0.8224
 2285SOL    HW218315   3.070   2.440   4.921  0.6195  0.0169  0.1963
 2286SOL     OW18316   3.870   3.889   9.665  0.0179  0.4512 -0.3008
 2286SOL    HW118317   3.860   3.809   9.717 -2.0663  0.1215 -1.2033
 2286SOL    HW218318   3.965   3.895   9.671  0.1229 -1.5790  0.0343
 2287SOL     OW18319   3.976   2.562  16.438 -0.2384 -0.3574 -0.1416
 2287SOL    HW118320   3.908   2.510  16.397 -2.4080  0.3614  2.5473
 2287SOL    HW218321   4.005   2.624  16.370 -0.8214  0.9966  0.8410
 2288SOL     OW18322   0.548   3.853  16.923 -0.3726  0.0083  0.1947
 2288SOL    HW118323   0.576   3.944  16.917 -0.6721  0.1093  0.3334
 2288SOL    HW218324   0.623   3.805  16.958  0.3593  0.5672 -0.6146
 2289SOL     OW18325   3.885   2.094   6.402  0.3104 -0.2538 -0.3652
 2289SOL    HW118326   3.967   2.129   6.438 -0.7518  0.5591  1.2175
 2289SOL    HW218327   3.879   2.000   6.422 -0.6281  0.0933  0.9293
 2290SOL     OW18328   1.167   3.913   4.343  0.8060 -0.4103  0.3269
 2290SOL    HW118329   1.100   3.979   4.357  3.1336  1.9620  0.3178
 2290SOL    HW218330   1.185   3.889   4.434  1.5617 -1.2611 -0.0398
 2291SOL     OW18331   2.823   4.053   7.567  0.2358 -0.3684  0.2321
 2291SOL    HW118332   2.917   4.039   7.551  0.7236  0.1290  2.6489
 2291SOL    HW218333   2.804   4.135   7.522  1.9693 -0.5605 -0.8634
 2292SOL     OW18334   0.665   1.715   2.749  0.0663 -0.1210  0.3317
 2292SOL    HW118335   0.741   1.742   2.801 -0.2181 -1.9862  1.6992
 2292SOL    HW218336   0.713   1.648   2.700 -2.1033  0.0561 -2.0583
 2293SOL     OW18337   2.234   3.077   0.633  0.3603  0.3245 -0.2206
 2293SOL    HW118338   2.295   3.005   0.617  0.5611  0.1888  1.1672
 2293SOL    HW218339   2.181   3.052   0.709  1.4694 -1.8500 -0.1679
 2294SOL     OW18340   1.444   2.413   2.028 -0.2198 -0.4500 -0.0071
 2294SOL    HW118341   1.380   2.482   2.010 -0.7976 -1.2398 -0.9994
 2294SOL    HW218342   1.471   2.387   1.941  0.7526 -1.4046  0.5777
 2295SOL     OW18343   2.174   4.292  12.159 -0.3394  0.3895 -0.3469
 2295SOL    HW118344   2.094   4.289  12.107 -0.0738 -3.3763 -0.5349
 2295SOL    HW218345   2.203   4.383  12.156  0.4044  0.1409 -0.9516
 2296SOL     OW18346   0.508   4.002   9.486 -0.6308  0.1343 -0.4639
 2296SOL    HW118347   0.428   3.969   9.528 -0.0768 -0.3644  0.2039
 2296SOL    HW218348   0.563   3.988   9.563 -2.1497 -1.0904  0.3932
 2297SOL     OW18349   3.502   1.651   4.854  0.2250 -0.3335  0.1215
 2297SOL    HW118350   3.435   1.640   4.921  1.1331  3.8291  1.6509
 2297SOL    HW218351   3.576   1.680   4.907 -0.6548 -2.1956  2.3658
 2298SOL     OW18352   4.373   3.079   3.550  0.1604 -0.1882  0.7181
 2298SOL    HW118353   4.390   3.062   3.457  0.7746 -0.7875  0.9380
 2298SOL    HW218354   4.300   3.025   3.581 -0.6913  1.8338  2.1775
 2299SOL     OW18355   4.384   1.818   4.401  0.2290  0.2817 -0.3928
 2299SOL    HW118356   4.314   1.837   4.338  0.7012  3.0549 -0.0948
 2299SOL    HW218357   4.384   1.727   4.373  2.7635  0.0238  0.3979
 2300SOL     OW18358   3.386   0.565   6.080  0.0141  0.1009 -0.8108
 2300SOL    HW118359   3.325   0.504   6.119  1.6299 -1.1822 -0.2937
 2300SOL    HW218360   3.335   0.644   6.064  1.7950  1.1211 -1.5364
 2301SOL     OW18361   3.316   2.993   4.795  0.0982  0.0470 -0.2189
 2301SOL    HW118362   3.346   2.926   4.733  0.1733 -0.2266  0.1117
 2301SOL    HW218363   3.274   2.934   4.858 -0.6882  0.3220 -0.4931
 2302SOL     OW18364   0.641   3.293   6.181 -0.3477  0.0511  0.1413
 2302SOL    HW118365   0.638   3.309   6.087  0.1996  0.1746  0.1451
 2302SOL    HW218366   0.729   3.327   6.197 -0.4891  0.6045 -0.2898
 2303SOL     OW18367   0.368   1.651   0.144 -0.1821  0.0177  0.0912
 2303SOL    HW118368   0.274   1.640   0.152 -0.1874 -0.5064 -0.6492
 2303SOL    HW218369   0.376   1.642   0.049 -0.2080 -0.3406  0.1216
 2304SOL     OW18370   4.417   0.028   3.177  0.9577  0.1517  0.0982
 2304SOL    HW118371   4.497   0.026   3.124 -0.5363  2.4749 -2.2278
 2304SOL    HW218372   4.438   0.106   3.228  2.8728 -0.0474 -0.3577
 2305SOL     OW18373   4.410   1.322   2.123  0.2558 -0.1129  0.6059
 2305SOL    HW118374   4.420   1.325   2.218 -1.8943 -0.1759  0.8276
 2305SOL    HW218375   4.402   1.227   2.109  0.3097 -0.1787  1.0291
 2306SOL     OW18376   2.271   3.647   6.141 -0.3533  0.6065  0.2215
 2306SOL    HW118377   2.356   3.625   6.103 -0.6862  2.2654 -1.4905
 2306SOL    HW218378   2.247   3.568   6.190  0.3745  1.0756  1.3293
 2307SOL     OW18379   1.026   1.599   7.472  0.3680  0.5632  0.0838
 2307SOL    HW118380   0.983   1.520   7.506 -0.5453  1.1602  0.3272
 2307SOL    HW218381   1.014   1.596   7.377  0.4001 -0.7792  0.1186
 2308SOL     OW18382   4.668   1.179   9.459 -0.1461 -0.6141  0.3026
 2308SOL    HW118383   4.659   1.239   9.385  0.4312 -1.4379 -0.4356
 2308SOL    HW218384   4.585   1.133   9.445 -1.1286  1.2173  0.1135
 2309SOL     OW18385   3.579   3.881   9.599  0.1778 -0.1061  0.1041
 2309SOL    HW118386   3.553   3.822   9.529 -1.4567  1.3089 -0.4822
 2309SOL    HW218387   3.674   3.869   9.604  0.0719 -0.9129  0.1512
 2310SOL     OW18388   4.595   2.239   5.144  0.0101 -0.1748  0.0671
 2310SOL    HW118389   4.599   2.147   5.169 -2.9423  0.5848  3.2549
 2310SOL    HW218390   4.544   2.264   5.221 -0.0206  1.9149 -0.6456
 2311SOL     OW18391   3.737   1.588   6.686  0.1673  0.2249 -0.5296
 2311SOL    HW118392   3.744   1.681   6.707  1.1825  0.0675 -0.1630
 2311SOL    HW218393   3.822   1.552   6.712 -0.4091 -0.6656  0.1044
 2312SOL     OW18394   4.187   2.072   0.438 -0.6979  0.1218 -0.2634
 2312SOL    HW118395   4.122   2.008   0.406  1.9449 -2.5967 -0.2178
 2312SOL    HW218396   4.155   2.108   0.520 -0.0300  2.6486 -1.1219
 2313SOL     OW18397   0.147   1.525   3.108 -0.0625  0.5090  0.5156
 2313SOL    HW118398   0.154   1.489   3.020 -0.4282 -1.0211  1.1064
 2313SOL    HW218399   0.104   1.454   3.156 -0.2062  1.1735  1.3812
 2314SOL     OW18400   2.347   3.847   5.025 -0.0713  0.2568 -0.3371
 2314SOL    HW118401   2.256   3.852   5.054  0.7848  0.9748  2.2945
 2314SOL    HW218402   2.382   3.930   5.058 -1.4523  0.5598  0.3810
 2315SOL     OW18403   0.820   2.670   0.745  0.8976  0.0045 -0.7543
 2315SOL    HW118404   0.850   2.713   0.665  0.2826 -1.1160 -1.5990
 2315SOL    HW218405   0.842   2.578   0.732 -1.5150 -0.6590 -0.1441
 2316SOL     OW18406   0.539   3.046   7.395  0.3247  0.4407 -0.7891
 2316SOL    HW118407   0.495   3.128   7.417  0.5049  0.4876 -0.6068
 2316SOL    HW218408   0.471   2.980   7.404  1.0281 -0.3378 -1.1307
 2317SOL     OW18409   3.898   1.178  16.790 -0.5488 -0.4608  0.3395
 2317SOL    HW118410   3.833   1.232  16.835 -0.8796 -0.4086 -0.1996
 2317SOL    HW218411   3.893   1.116  16.863 -0.0012 -0.1130  0.6698
 2318SOL     OW18412   4.085   1.831  17.582  0.2832  0.5204  0.2067
 2318SOL    HW118413   4.167   1.881  17.578  0.0666  0.7609 -1.2200
 2318SOL    HW218414   4.095   1.798  17.672 -1.6177 -0.0187  0.2130
 2319SOL     OW18415   3.615   3.734   1.777  0.8908 -0.0416  0.2580
 2319SOL    HW118416   3.705   3.749   1.749  1.0385 -0.6076  0.4315
 2319SOL    HW218417   3.576   3.689   1.703 -0.3138 -0.2972  1.0553
 2320SOL     OW18418   3.654   3.575  15.122 -0.0905  0.0502 -0.3884
 2320SOL    HW118419   3.746   3.548  15.132  0.2557  1.5749  0.6794
 2320SOL    HW218420   3.638   3.539  15.035 -1.0020  2.7882 -1.3466
 2321SOL     OW18421   4.026   0.294  16.087 -0.3314 -0.0885 -0.0675
 2321SOL    HW118422   4.029   0.203  16.119 -0.3605 -1.4169 -3.8299
 2321SOL    HW218423   3.998   0.274  15.998  0.9494 -0.2469 -0.4378
 2322SOL     OW18424   4.254   0.036   8.692  0.3818 -0.4195 -0.3849
 2322SOL    HW118425   4.274   4.676   8.649 -0.2109  0.1131 -1.6740
 2322SOL    HW218426   4.251   0.019   8.787  1.4433  1.1044 -0.0899
 2323SOL     OW18427   1.990   3.393  15.084 -0.1881 -0.2785  0.3612
 2323SOL    HW118428   1.990   3.433  15.171  1.8743  0.1222  0.1743
 2323SOL    HW218429   2.019   3.469  15.032  0.3280  0.5537  1.8697
 2324SOL     OW18430   1.466   2.316   5.385 -0.7750 -0.3403  0.3004
 2324SOL    HW118431   1.438   2.250   5.323 -0.8367 -1.3545  1.4179
 2324SOL    HW218432   1.510   2.264   5.452 -1.1148 -0.7275  0.2198
 2325SOL     OW18433   2.548   0.740  11.755  0.4632  0.5621  0.2813
 2325SOL    HW118434   2.626   0.688  11.776  0.5089  0.9352  1.0424
 2325SOL    HW218435   2.533   0.721  11.663  1.0323 -0.9789  0.5099
 2326SOL     OW18436   4.309   0.499   8.312 -0.1171 -0.4446 -0.6808
 2326SOL    HW118437   4.375   0.434   8.285 -1.2001 -0.6985 -2.7618
 2326SOL    HW218438   4.323   0.516   8.405 -3.3660  2.1465 -0.6545
 2327SOL     OW18439   4.629   3.557   1.746 -0.0869  0.5664  0.1796
 2327SOL    HW118440   4.687   3.489   1.711  0.3193  0.7828  0.4251
 2327SOL    HW218441   4.674   3.576   1.828 -2.2186 -1.9732  1.9187
 2328SOL     OW18442   1.386   3.228   7.639 -0.3387 -0.5416 -0.0959
 2328SOL    HW118443   1.305   3.241   7.590 -2.0640  0.6565  3.0047
 2328SOL    HW218444   1.356   3.210   7.729  0.7944  1.0002  0.5873
 2329SOL     OW18445   3.720   4.181   3.999  0.2455  0.9955  0.4322
 2329SOL    HW118446   3.808   4.217   3.989  0.7735 -0.1124  0.9810
 2329SOL    HW218447   3.681   4.254   4.047 -0.7483 -0.0289  1.2086
 2330SOL     OW18448   3.345   4.074  12.900  0.1536  0.2972  0.1110
 2330SOL    HW118449   3.337   4.120  12.984 -1.2696  2.3363 -1.1380
 2330SOL    HW218450   3.307   3.993  12.934 -0.5760  0.0887 -1.2045
 2331SOL     OW18451   1.614   4.213   2.175 -0.3058 -0.1445  0.5405
 2331SOL    HW118452   1.658   4.178   2.098 -2.3334 -0.1552 -0.6311
 2331SOL    HW218453   1.533   4.162   2.186 -0.2424 -0.5878 -1.0137
 2332SOL     OW18454   3.432   0.145   4.739  0.2891  0.0386  0.4191
 2332SOL    HW118455   3.441   0.071   4.679  0.1235  1.7295 -1.7206
 2332SOL    HW218456   3.475   0.114   4.819 -2.7370  2.8684  3.1242
 2333SOL     OW18457   4.401   4.391   6.083 -0.5762 -0.2489  0.1155
 2333SOL    HW118458   4.333   4.451   6.113 -1.5581 -1.0732 -0.4188
 2333SOL    HW218459   4.385   4.387   5.989  0.2047 -0.3623 -0.0133
 2334SOL     OW18460   2.366   3.542  11.045 -0.3537 -0.1568  0.7671
 2334SOL    HW118461   2.284   3.507  11.079 -1.4958 -0.5054 -2.4568
 2334SOL    HW218462   2.398   3.603  11.112 -1.1925 -0.6706  1.6446
 2335SOL     OW18463   2.750   3.119   7.427  0.2214  0.2131  0.5942
 2335SOL    HW118464   2.668   3.168   7.432  0.2507  0.3797 -0.7233
 2335SOL    HW218465   2.775   3.124   7.519  3.5727 -0.8942 -0.2488
 2336SOL     OW18466   1.678   2.122   2.669  0.3132 -0.0477  0.1045
 2336SOL    HW118467   1.612   2.054   2.662 -1.3062  1.5253  0.3008
 2336SOL    HW218468   1.642   2.151   2.753  1.2139  1.2656  0.0406
 2337SOL     OW18469   4.391   3.618   4.897  0.4019 -0.5355  0.1998
 2337SOL    HW118470   4.462   3.558   4.877  0.3259 -0.6462  0.2587
 2337SOL    HW218471   4.438   3.683   4.950 -0.5175  0.9837 -0.8537
 2338SOL     OW18472   3.578   3.077   9.669 -0.2370 -0.2023 -0.2596
 2338SOL    HW118473   3.633   3.142   9.712 -0.7332  0.2928 -0.3704
 2338SOL    HW218474   3.563   3.114   9.582  0.0459  0.5675  0.0213
 2339SOL     OW18475   3.607   1.215   8.177  0.6014  0.1709 -0.1898
 2339SOL    HW118476   3.641   1.206   8.266  0.8174  1.6639 -0.1189
 2339SOL    HW218477   3.626   1.132   8.133 -0.9659 -0.0960 -0.3545
 2340SOL     OW18478   1.009   2.447  15.632  0.0505  0.0233 -0.3043
 2340SOL    HW118479   0.942   2.466  15.697  0.9748  1.0016  0.3706
 2340SOL    HW218480   1.061   2.527  15.634  0.3085 -0.1043 -1.9202
 2341SOL     OW18481   1.664   4.544   2.094 -0.3766  0.2399 -0.3216
 2341SOL    HW118482   1.572   4.558   2.073 -0.6259 -0.3920  0.3566
 2341SOL    HW218483   1.708   4.621   2.059  1.9171 -1.3971 -1.0609
 2342SOL     OW18484   0.136   2.880  17.124  0.2236  0.3276 -0.0582
 2342SOL    HW118485   0.105   2.969  17.109 -2.0741 -0.2112  1.4766
 2342SOL    HW218486   0.225   2.883  17.088  0.2605 -1.0222 -0.0847
 2343SOL     OW18487   0.785   2.800   7.579  0.0567  0.5293 -0.5322
 2343SOL    HW118488   0.824   2.761   7.657 -2.6935  0.0286  0.5911
 2343SOL    HW218489   0.855   2.844   7.531 -1.2526  2.6819 -0.4744
 2344SOL     OW18490   0.705   3.932  11.708 -0.3959  0.1622  0.4339
 2344SOL    HW118491   0.657   3.929  11.625 -1.4552 -1.0387  1.0860
 2344SOL    HW218492   0.717   4.024  11.734  0.7221  0.1853 -0.1734
 2345SOL     OW18493   3.158   3.275   6.187 -0.0111 -0.1445 -0.2074
 2345SOL    HW118494   3.111   3.244   6.109  0.3814 -0.7689 -0.2009
 2345SOL    HW218495   3.202   3.190   6.197 -1.3625 -0.8743 -0.4085
 2346SOL     OW18496   0.714   1.960   8.616 -0.6253 -0.1501  0.6406
 2346SOL    HW118497   0.788   1.948   8.557  0.1386 -2.4332  2.0518
 2346SOL    HW218498   0.680   2.047   8.595  1.9885  1.1426  1.7531
 2347SOL     OW18499   0.865   4.111   3.990 -0.5829 -0.4441 -0.2111
 2347SOL    HW118500   0.852   4.199   4.025  0.1924 -0.2664 -0.3753
 2347SOL    HW218501   0.961   4.111   3.991 -0.5800 -1.0767 -0.1997
 2348SOL     OW18502   0.544   1.980  13.456 -0.2711 -0.7097  0.0928
 2348SOL    HW118503   0.544   2.022  13.370 -1.1412  0.5286  0.6908
 2348SOL    HW218504   0.470   2.018  13.505  0.1529  0.2839 -0.0270
 2349SOL     OW18505   3.859   4.060   9.444 -0.1777  0.3675 -0.3427
 2349SOL    HW118506   3.869   3.998   9.515  3.0588  2.2664  0.8687
 2349SOL    HW218507   3.824   4.135   9.491 -0.2139  0.6609 -0.8292
 2350SOL     OW18508   4.010   1.068   6.641  0.3047  0.3671  0.9586
 2350SOL    HW118509   3.954   1.024   6.578  1.5181  1.2949 -0.7526
 2350SOL    HW218510   4.007   1.015   6.721 -1.8789  1.1357  1.3970
 2351SOL     OW18511   0.578   0.429   6.953  0.1376  0.6273  0.0123
 2351SOL    HW118512   0.580   0.518   6.918  1.0222  0.6248  0.0436
 2351SOL    HW218513   0.664   0.446   6.993  0.7766 -0.0111 -1.0775
 2352SOL     OW18514   2.718   0.085   7.311 -0.0873 -0.0822 -0.8654
 2352SOL    HW118515   2.634   0.046   7.286  0.0491 -0.7510 -0.2522
 2352SOL    HW218516   2.766   0.087   7.228 -1.0367  1.4771 -1.3891
 2353SOL     OW18517   1.223   2.533   4.772 -0.0442  0.4658  0.0580
 2353SOL    HW118518   1.190   2.595   4.838  2.2813  1.1097  0.5958
 2353SOL    HW218519   1.316   2.552   4.781 -0.0989 -0.1537  2.0285
 2354SOL     OW18520   4.573   2.631   8.337 -0.0434 -0.0172 -0.0534
 2354SOL    HW118521   4.654   2.582   8.349  0.4439  0.1961 -2.4088
 2354SOL    HW218522   4.510   2.565   8.309  0.7072  0.3005 -2.5057
 2355SOL     OW18523   0.768   3.121   9.595 -0.0058 -0.3959 -0.1012
 2355SOL    HW118524   0.737   3.086   9.679 -0.4263 -2.3312 -1.0583
 2355SOL    HW218525   0.738   3.044   9.548  1.4092  0.0865 -1.7695
 2356SOL     OW18526   4.628   2.058  11.663  0.8848 -0.0978  0.3036
 2356SOL    HW118527   4.538   2.057  11.630  1.0097  0.0354 -0.0409
 2356SOL    HW218528   4.623   2.095  11.752  2.0531 -2.5459  1.3857
 2357SOL     OW18529   4.558   0.403   8.783  0.1945  0.2112 -0.2469
 2357SOL    HW118530   4.522   0.364   8.703 -1.6468  0.6213  0.3975
 2357SOL    HW218531   4.642   0.357   8.785 -0.5233 -1.0085  1.0508
 2358SOL     OW18532   1.837   2.534   8.578  0.4835  0.2340 -0.6497
 2358SOL    HW118533   1.866   2.447   8.550 -1.1567 -0.7468  0.6908
 2358SOL    HW218534   1.833   2.532   8.674  3.2920 -0.5253 -0.5358
 2359SOL     OW18535   1.530   2.167  13.136 -0.5047  0.1592 -0.1421
 2359SOL    HW118536   1.459   2.123  13.183 -0.8823  0.4496 -0.4475
 2359SOL    HW218537   1.509   2.259  13.148 -1.6334  0.0254 -1.0910
 2360SOL     OW18538   4.573   4.675   6.860 -0.4725 -0.3683 -0.3361
 2360SOL    HW118539   4.622   4.692   6.940  0.9172  2.5535 -1.8045
 2360SOL    HW218540   4.565   4.580   6.866  2.1850 -0.5431  0.1726
 2361SOL     OW18541   2.882   0.656   3.196  0.6343 -0.2048  0.1251
 2361SOL    HW118542   2.787   0.664   3.188  0.6065  1.4705  2.1254
 2361SOL    HW218543   2.908   0.748   3.203 -0.2573 -0.0480  1.2729
 2362SOL     OW18544   2.633   1.549  12.547  0.1103 -0.4577  0.7294
 2362SOL    HW118545   2.666   1.633  12.516  2.7884 -2.9018 -2.9639
 2362SOL    HW218546   2.599   1.506  12.469  0.7302 -0.4748  0.4669
 2363SOL     OW18547   0.682   0.413   8.384 -0.4760 -0.2363 -0.0910
 2363SOL    HW118548   0.748   0.403   8.316 -0.4157  0.4576 -0.1284
 2363SOL    HW218549   0.638   0.328   8.380  0.8597 -0.8854 -0.7544
 2364SOL     OW18550   2.621   4.633   8.657 -0.3645 -0.2558 -0.3125
 2364SOL    HW118551   2.670   4.649   8.577 -1.1115 -0.3570 -0.7827
 2364SOL    HW218552   2.693   4.630   8.721  0.6167 -1.2260 -1.4550
 2365SOL     OW18553   1.165   2.676   7.455  0.4595  0.5399  0.3520
 2365SOL    HW118554   1.166   2.611   7.385  1.2260 -0.7971  1.6181
 2365SOL    HW218555   1.100   2.739   7.423  1.1917  0.6872 -0.8419
 2366SOL     OW18556   2.569   2.388   4.116 -0.3270 -0.0034 -0.5764
 2366SOL    HW118557   2.503   2.375   4.184 -0.5950  2.1564 -0.4233
 2366SOL    HW218558   2.517   2.370   4.037  0.6211  2.8207 -1.8520
 2367SOL     OW18559   3.451   4.328   3.194  0.2539 -0.2576  0.3321
 2367SOL    HW118560   3.494   4.388   3.132  1.5495 -3.3300 -1.7446
 2367SOL    HW218561   3.360   4.336   3.166  0.3014  0.7599  0.4696
 2368SOL     OW18562   1.551   3.657   9.110 -0.0573 -0.1748  0.1264
 2368SOL    HW118563   1.527   3.608   9.188  1.9983 -0.8012  0.3553
 2368SOL    HW218564   1.518   3.743   9.133 -0.1517 -1.0091  3.0457
 2369SOL     OW18565   4.674   2.763   7.806 -0.3255  0.3418 -0.2566
 2369SOL    HW118566   4.625   2.751   7.888  0.0964  0.9678  0.0874
 2369SOL    HW218567   4.637   2.849   7.787 -1.6203 -0.2853 -0.5757
 2370SOL     OW18568   1.742   0.831   2.955 -0.5543 -0.3744 -0.2538
 2370SOL    HW118569   1.679   0.795   2.893  1.4578 -1.1588 -1.8819
 2370SOL    HW218570   1.688   0.827   3.033 -0.4475  0.3225 -0.1435
 2371SOL     OW18571   2.824   1.789   3.206  0.2807  0.8861 -0.3467
 2371SOL    HW118572   2.844   1.698   3.185 -0.3963  0.3562  1.3127
 2371SOL    HW218573   2.836   1.784   3.301  0.2537 -1.4454 -0.4573
 2372SOL     OW18574   1.303   4.041   8.111  0.5090 -0.6044 -0.5056
 2372SOL    HW118575   1.332   3.959   8.071 -0.7750 -2.0424  1.5151
 2372SOL    HW218576   1.369   4.062   8.176 -0.7418  1.4882  0.0708
 2373SOL     OW18577   0.998   1.808   9.228 -0.2661 -0.4941 -0.2905
 2373SOL    HW118578   0.990   1.903   9.225 -0.0769 -0.4856 -0.4847
 2373SOL    HW218579   0.933   1.779   9.164  1.4409 -1.3765 -1.6187
 2374SOL     OW18580   3.356   1.527  15.763 -0.0441  0.6543 -0.3141
 2374SOL    HW118581   3.370   1.533  15.668  1.1156  1.6551 -0.0800
 2374SOL    HW218582   3.260   1.530  15.761 -0.0555  0.6393  0.3470
 2375SOL     OW18583   4.361   0.161   6.357  0.1095  0.1397 -0.2731
 2375SOL    HW118584   4.422   0.221   6.399  0.2771  1.3609 -2.2762
 2375SOL    HW218585   4.338   0.198   6.271 -2.0190 -0.0568  0.1941
 2376SOL     OW18586   4.345   2.271   8.308 -0.0571 -0.2839  0.1315
 2376SOL    HW118587   4.349   2.364   8.286  1.2948 -0.1713  0.8496
 2376SOL    HW218588   4.400   2.290   8.383 -0.5252  0.1010  0.3735
 2377SOL     OW18589   0.766   3.574  14.336 -0.1976 -0.2887  0.3175
 2377SOL    HW118590   0.862   3.573  14.328 -0.3195  0.5422 -1.2515
 2377SOL    HW218591   0.744   3.486  14.306  1.1212  0.1613 -1.9364
 2378SOL     OW18592   4.175   2.747  11.286  0.1861 -0.2451  0.2737
 2378SOL    HW118593   4.136   2.660  11.296  0.2914  0.0126  2.8954
 2378SOL    HW218594   4.098   2.801  11.302  0.1773 -0.1948  0.0579
 2379SOL     OW18595   0.765   0.610   2.772 -0.2317  0.5923  0.5683
 2379SOL    HW118596   0.775   0.515   2.776 -0.7342  0.5837  1.5946
 2379SOL    HW218597   0.716   0.622   2.691  2.0202  0.6618 -0.7951
 2380SOL     OW18598   2.825   1.706   5.826  0.2132 -0.3133 -0.0779
 2380SOL    HW118599   2.786   1.756   5.898 -0.8384  0.0244 -0.8966
 2380SOL    HW218600   2.788   1.747   5.749  0.4899 -0.5143 -0.3166
 2381SOL     OW18601   1.964   3.658   5.540  0.1227 -0.1110 -0.1167
 2381SOL    HW118602   1.918   3.742   5.533  0.2819  0.1781  2.3771
 2381SOL    HW218603   2.052   3.687   5.518 -0.0948  0.8260  0.2605
 2382SOL     OW18604   4.152   1.791   3.213 -0.6241 -0.3754 -0.1910
 2382SOL    HW118605   4.096   1.714   3.207 -0.0593 -0.6433 -1.8735
 2382SOL    HW218606   4.236   1.747   3.223 -1.1654 -1.4845 -0.5214
 2383SOL     OW18607   4.164   2.249   8.645  0.0945  0.2544 -1.2693
 2383SOL    HW118608   4.161   2.154   8.638  1.2194 -0.0222  2.0557
 2383SOL    HW218609   4.085   2.273   8.597 -2.1118  0.0106  2.2522
 2384SOL     OW18610   2.538   1.801  15.930  0.1293 -0.0889 -0.1030
 2384SOL    HW118611   2.564   1.869  15.992  1.1292 -0.5663  0.0058
 2384SOL    HW218612   2.556   1.720  15.977  1.3295 -0.5168 -1.2822
 2385SOL     OW18613   0.510   3.625   0.874  0.1212  0.1906 -0.2067
 2385SOL    HW118614   0.526   3.532   0.888  0.0256  0.1657 -0.2639
 2385SOL    HW218615   0.508   3.637   0.779  0.3833  0.3817 -0.1869
 2386SOL     OW18616   0.231   4.043   0.599  0.1162 -0.2156 -0.2398
 2386SOL    HW118617   0.162   3.994   0.554  0.7864  0.7896 -2.3723
 2386SOL    HW218618   0.309   4.018   0.549  0.3225 -1.4318  0.7058
 2387SOL     OW18619   1.434   3.909  13.692 -0.0125  0.5167 -0.5738
 2387SOL    HW118620   1.377   3.902  13.616  0.3201 -2.3742 -0.5677
 2387SOL    HW218621   1.368   3.951  13.748  0.1215 -0.1246  0.0599
 2388SOL     OW18622   3.090   3.522   8.839  0.6952  0.0327  0.0052
 2388SOL    HW118623   3.035   3.558   8.908  1.6491  0.6051  0.4532
 2388SOL    HW218624   3.171   3.512   8.889  0.0042 -1.7241  0.7657
 2389SOL     OW18625   2.625   3.131   7.030 -0.0040  0.4958  0.6715
 2389SOL    HW118626   2.713   3.163   7.049  0.8748  0.1477 -2.7336
 2389SOL    HW218627   2.575   3.203   7.069 -1.2944 -0.7319  1.2645
 2390SOL     OW18628   2.639   1.032   1.843 -0.0490 -0.4789 -0.0375
 2390SOL    HW118629   2.685   1.040   1.926 -0.1003 -1.4959  0.0903
 2390SOL    HW218630   2.564   0.975   1.858 -0.3897 -0.0781 -0.2380
 2391SOL     OW18631   1.810   1.618  14.253  0.5465 -0.1288  0.0778
 2391SOL    HW118632   1.773   1.577  14.175  0.7047  0.3319 -0.2417
 2391SOL    HW218633   1.894   1.632  14.210  0.9005 -0.0172  0.8071
 2392SOL     OW18634   2.545   2.394   7.535 -0.2223  0.7585 -1.0266
 2392SOL    HW118635   2.488   2.460   7.497 -0.5225 -0.1912 -2.2293
 2392SOL    HW218636   2.537   2.329   7.465  1.9208 -1.9436  1.2044
 2393SOL     OW18637   2.920   0.149   6.294  0.1391  0.5076 -0.4666
 2393SOL    HW118638   2.833   0.112   6.277  0.5279 -0.7040  0.1698
 2393SOL    HW218639   2.966   0.089   6.235 -0.2439 -0.6128  0.3648
 2394SOL     OW18640   1.587   0.004   6.848  0.4190  0.1678  0.2752
 2394SOL    HW118641   1.677   4.704   6.871  1.0950  1.4348 -1.1139
 2394SOL    HW218642   1.597   0.099   6.848  2.2638 -0.0191  0.9445
 2395SOL     OW18643   2.123   2.269   8.068 -0.1325 -0.1130  0.1684
 2395SOL    HW118644   2.110   2.363   8.071  0.1149 -0.0643 -0.3263
 2395SOL    HW218645   2.141   2.243   8.159 -1.1878  0.0379  0.4173
 2396SOL     OW18646   0.676   0.652  13.294 -0.8231 -0.2372  0.1493
 2396SOL    HW118647   0.745   0.707  13.255 -0.3675 -2.6537 -2.4611
 2396SOL    HW218648   0.677   0.697  13.378  1.2397 -1.9312  1.0255
 2397SOL     OW18649   2.883   3.230   9.547  0.1410  0.0288  0.2249
 2397SOL    HW118650   2.934   3.150   9.557  0.4586 -0.1096 -2.5277
 2397SOL    HW218651   2.885   3.246   9.453  0.1962 -2.5478 -0.2212
 2398SOL     OW18652   4.275   1.076   5.690 -0.5832 -0.0407  0.1089
 2398SOL    HW118653   4.314   0.998   5.650  3.1975  2.0785 -0.3255
 2398SOL    HW218654   4.208   1.100   5.626 -1.1860 -0.6639  0.4987
 2399SOL     OW18655   1.264   3.208  14.171  0.4231  0.0760 -0.1151
 2399SOL    HW118656   1.232   3.158  14.247 -0.7897  1.3914  0.2334
 2399SOL    HW218657   1.205   3.282  14.183  0.2265  0.0734 -1.1155
 2400SOL     OW18658   0.586   1.365   2.391  0.4356  0.8441 -0.1662
 2400SOL    HW118659   0.608   1.411   2.310  4.7515 -0.0575  0.4901
 2400SOL    HW218660   0.591   1.277   2.354 -2.9813 -0.0963  1.6723
 2401SOL     OW18661   0.350   1.738  12.893 -0.0959  0.1587  0.0359
 2401SOL    HW118662   0.306   1.680  12.956 -0.5285  0.9006  0.4196
 2401SOL    HW218663   0.282   1.745  12.826  1.6066 -0.7320 -1.7913
 2402SOL     OW18664   1.376   3.371  10.322  0.8087  0.4938 -0.5561
 2402SOL    HW118665   1.305   3.327  10.368  2.0325 -1.5294 -0.6103
 2402SOL    HW218666   1.318   3.431  10.275  0.9783  0.6350 -0.5877
 2403SOL     OW18667   0.039   2.228   8.207 -0.6789  0.1021  0.4240
 2403SOL    HW118668   0.069   2.189   8.125 -0.2063 -0.4092  0.8436
 2403SOL    HW218669   4.712   2.299   8.165 -1.6806 -0.2110  1.0754
 2404SOL     OW18670   4.588   4.529  11.998  0.0832  0.3098 -0.4332
 2404SOL    HW118671   4.657   4.586  12.033 -0.5947 -0.7599  2.6318
 2404SOL    HW218672   4.513   4.588  12.005 -0.6839 -0.8144  0.7433
 2405SOL     OW18673   1.653   1.896   8.504 -0.2957  0.9145 -0.2676
 2405SOL    HW118674   1.738   1.889   8.547  0.7537  3.5703 -1.9018
 2405SOL    HW218675   1.682   1.910   8.414 -1.1789 -0.5073 -0.7851
 2406SOL     OW18676   1.181   3.339   7.838 -0.3687  0.3539 -0.1557
 2406SOL    HW118677   1.260   3.316   7.887 -1.9467 -1.2122  1.6466
 2406SOL    HW218678   1.124   3.337   7.914  0.0431  2.0207  0.2002
 2407SOL     OW18679   2.616   3.493   5.993 -0.2225  0.3851 -0.5748
 2407SOL    HW118680   2.581   3.561   6.050  0.6104  0.9710 -0.7523
 2407SOL    HW218681   2.709   3.483   6.014 -0.7361 -2.6839  0.2876
 2408SOL     OW18682   2.745   3.844   0.600 -0.3404 -0.6898 -0.6310
 2408SOL    HW118683   2.687   3.856   0.675  0.1648 -1.7449 -0.0706
 2408SOL    HW218684   2.784   3.930   0.583 -0.5375 -0.5564 -0.4017
 2409SOL     OW18685   0.183   1.888   5.414 -0.0049  0.1855  0.0826
 2409SOL    HW118686   0.191   1.906   5.508  1.1322  0.5258 -0.0833
 2409SOL    HW218687   0.144   1.970   5.384  2.4437  1.0582 -0.6957
 2410SOL     OW18688   4.320   3.424  14.133  0.1725 -0.1260  0.2077
 2410SOL    HW118689   4.410   3.399  14.111 -1.1999 -1.7275 -3.5808
 2410SOL    HW218690   4.286   3.345  14.175 -0.9401  0.7581  0.9700
 2411SOL     OW18691   3.707   4.447   5.426 -0.2307  0.5826  0.5176
 2411SOL    HW118692   3.625   4.403   5.452  0.5850 -0.8336  0.6866
 2411SOL    HW218693   3.680   4.538   5.421  0.1583  0.5834 -1.5599
 2412SOL     OW18694   2.214   3.369   2.471  0.2548  0.3201  0.6006
 2412SOL    HW118695   2.195   3.275   2.471  3.0367 -0.2061 -1.4207
 2412SOL    HW218696   2.309   3.362   2.476  0.3304 -0.2497 -1.8132
 2413SOL     OW18697   4.407   3.121   7.257 -0.0510  0.6454 -0.5451
 2413SOL    HW118698   4.376   3.086   7.340 -0.8990 -1.2991 -1.6811
 2413SOL    HW218699   4.330   3.099   7.205 -0.1565 -1.1709  0.4091
 2414SOL     OW18700   2.267   0.177  15.769 -0.0699  0.2928  0.0652
 2414SOL    HW118701   2.220   0.247  15.815 -1.4182  0.3847 -1.4139
 2414SOL    HW218702   2.194   0.117  15.755  0.1214  0.4099 -1.4958
 2415SOL     OW18703   3.779   1.749   1.774  0.0447  0.1208  0.2412
 2415SOL    HW118704   3.868   1.723   1.749 -0.3298 -0.8786 -0.0825
 2415SOL    HW218705   3.765   1.698   1.853  1.0873 -2.7162 -1.3861
 2416SOL     OW18706   1.284   4.433   8.426 -0.0866  0.6624 -0.1770
 2416SOL    HW118707   1.265   4.487   8.349  0.3466  1.8482  0.5573
 2416SOL    HW218708   1.379   4.429   8.419 -0.1518  2.2513 -1.8138
 2417SOL     OW18709   4.636   4.213   3.941  0.3494 -0.0145  0.5301
 2417SOL    HW118710   4.656   4.171   3.858  0.6027  0.1455  0.5095
 2417SOL    HW218711   4.556   4.257   3.912 -0.7224 -1.3216  1.4538
 2418SOL     OW18712   4.166   0.908   8.387 -0.4795 -0.1611  0.3551
 2418SOL    HW118713   4.137   0.818   8.372 -0.4253  0.3263 -2.6982
 2418SOL    HW218714   4.260   0.898   8.371 -0.4389 -0.1790  0.5982
 2419SOL     OW18715   1.117   0.239   3.858  0.3055  0.3312  0.1219
 2419SOL    HW118716   1.075   0.261   3.775  1.4363  1.3158 -0.2012
 2419SOL    HW218717   1.208   0.230   3.828  0.6688  2.2374  0.6638
 2420SOL     OW18718   0.051   1.637  11.977  1.2330  0.0111 -0.3023
 2420SOL    HW118719   0.062   1.633  12.072 -0.1363  0.4035 -0.1271
 2420SOL    HW218720   0.065   1.732  11.967 -2.1179  0.5655  0.4267
 2421SOL     OW18721   1.166   2.466  15.927  0.3033 -0.4406  0.0883
 2421SOL    HW118722   1.198   2.396  15.870 -0.3056 -2.4263  2.2252
 2421SOL    HW218723   1.174   2.546  15.874  2.3529 -0.3501  0.5249
 2422SOL     OW18724   2.116   0.537   1.498  0.3822 -0.9632  0.5708
 2422SOL    HW118725   2.195   0.589   1.485 -0.1791 -0.6145 -1.3618
 2422SOL    HW218726   2.160   0.452   1.489  1.3869 -0.2213 -1.4160
 2423SOL     OW18727   0.799   1.393   5.689 -0.6246 -0.4243 -0.4185
 2423SOL    HW118728   0.863   1.446   5.641 -1.3603  1.2227  0.3860
 2423SOL    HW218729   0.802   1.313   5.636 -0.5930 -2.4110  2.6125
 2424SOL     OW18730   1.851   2.389  11.844  0.3133 -0.4455 -0.1426
 2424SOL    HW118731   1.821   2.393  11.935  1.2068  2.1704  0.0370
 2424SOL    HW218732   1.826   2.301  11.817 -0.7398 -0.9204  2.4112
 2425SOL     OW18733   2.542   4.207   7.513  0.3151 -0.1400 -0.2830
 2425SOL    HW118734   2.448   4.223   7.521  0.0987 -1.9937  1.0641
 2425SOL    HW218735   2.578   4.273   7.571  0.5272  0.5642 -1.2271
 2426SOL     OW18736   0.397   4.576   8.995  0.1449 -0.2140 -0.0959
 2426SOL    HW118737   0.444   4.515   9.053  1.4716  3.4223  2.6821
 2426SOL    HW218738   0.426   4.660   9.031  0.2975 -0.4693  0.3778
 2427SOL     OW18739   1.099   3.633   0.992  0.3553 -0.0732 -0.1728
 2427SOL    HW118740   1.012   3.674   0.989 -0.1067 -1.0160  0.3764
 2427SOL    HW218741   1.137   3.686   0.922  3.2692 -0.4090  1.1375
 2428SOL     OW18742   2.089   4.042  10.584 -0.0436 -0.7788 -0.5356
 2428SOL    HW118743   2.185   4.038  10.583  0.0822  1.7331  1.7550
 2428SOL    HW218744   2.076   4.069  10.675  1.3546 -1.1010 -0.2381
 2429SOL     OW18745   0.274   0.801   1.740 -0.3183  0.0882 -0.0860
 2429SOL    HW118746   0.179   0.813   1.733 -0.3079 -0.2436 -0.8110
 2429SOL    HW218747   0.290   0.743   1.666 -1.4086 -0.4018  0.0659
 2430SOL     OW18748   3.535   1.454  10.517 -0.0094 -0.2895  0.3259
 2430SOL    HW118749   3.518   1.371  10.472  2.2415 -1.0399  0.8290
 2430SOL    HW218750   3.613   1.485  10.470 -0.7706 -0.9520 -1.3690
 2431SOL     OW18751   0.808   2.021   0.214  0.5879  0.0205 -0.3341
 2431SOL    HW118752   0.819   1.926   0.207  1.5323  0.1849 -1.0698
 2431SOL    HW218753   0.891   2.052   0.180 -0.6175  3.0828 -0.4511
 2432SOL     OW18754   3.305   0.014   4.199 -0.3672 -0.5826 -0.1544
 2432SOL    HW118755   3.262   4.717   4.116  0.6346 -0.3023 -0.7499
 2432SOL    HW218756   3.259   0.097   4.214 -1.8370 -1.3403 -0.5550
 2433SOL     OW18757   2.821   0.129   7.052  0.2216 -0.0460 -0.5460
 2433SOL    HW118758   2.893   0.106   6.993 -0.1619 -0.7910 -0.7307
 2433SOL    HW218759   2.746   0.087   7.011 -0.7623  1.0599  0.1323
 2434SOL     OW18760   0.226   1.934  13.803 -0.5010 -0.2962  0.1790
 2434SOL    HW118761   0.139   1.911  13.836  0.6593 -0.2494  3.2520
 2434SOL    HW218762   0.270   1.946  13.887  1.1610  2.3317 -1.0866
 2435SOL     OW18763   1.124   3.757   1.604 -0.3167  0.2876 -0.1714
 2435SOL    HW118764   1.090   3.713   1.526 -3.5822 -0.0587  1.4677
 2435SOL    HW218765   1.167   3.684   1.648  1.9051  0.9078 -1.3062
 2436SOL     OW18766   2.046   1.112   8.512  0.3570 -0.3884 -0.4042
 2436SOL    HW118767   2.042   1.156   8.597  1.0743  0.2318 -0.6885
 2436SOL    HW218768   2.114   1.161   8.466  1.6323  0.8476  2.7481
 2437SOL     OW18769   0.927   3.371   5.430  0.1799 -0.2610  0.4289
 2437SOL    HW118770   0.864   3.441   5.413 -1.2523 -2.2049 -2.1589
 2437SOL    HW218771   1.004   3.421   5.458  0.9176 -1.6750  0.9354
 2438SOL     OW18772   1.675   1.942   3.565 -0.4895  0.1436  0.6327
 2438SOL    HW118773   1.766   1.930   3.540 -1.0984  0.8702 -1.8680
 2438SOL    HW218774   1.668   1.892   3.647 -1.5706  0.3325  0.6556
 2439SOL     OW18775   2.293   4.557   4.792  0.4727  0.1494  0.2425
 2439SOL    HW118776   2.333   4.481   4.751  3.1163  1.6305 -0.0010
 2439SOL    HW218777   2.201   4.540   4.776  1.3821 -1.4806 -3.2366
 2440SOL     OW18778   4.279   3.938   2.920  0.0541 -0.0561  0.1798
 2440SOL    HW118779   4.315   3.948   2.831 -0.6208 -2.4858 -0.3478
 2440SOL    HW218780   4.246   4.025   2.940  0.9959  0.8551 -2.1579
 2441SOL     OW18781   0.851   1.039   8.135  0.0865 -0.1237  0.0943
 2441SOL    HW118782   0.811   0.978   8.196  0.0319  0.6140  0.7984
 2441SOL    HW218783   0.829   1.120   8.182  2.0426  1.1203 -1.1608
 2442SOL     OW18784   1.069   1.484  17.289  0.7507 -0.3663 -0.1226
 2442SOL    HW118785   1.111   1.489  17.376 -0.2890  0.4300  0.3258
 2442SOL    HW218786   1.142   1.509  17.232 -0.1698  0.6336 -0.8583
 2443SOL     OW18787   0.344   0.366  13.800 -0.0415  0.3299 -0.2511
 2443SOL    HW118788   0.385   0.291  13.757 -1.2132  0.2985 -1.3411
 2443SOL    HW218789   0.254   0.355  13.767 -0.4212 -0.2873  1.0120
 2444SOL     OW18790   2.575   0.184   8.698 -0.6194 -0.0802 -0.2056
 2444SOL    HW118791   2.593   0.184   8.604 -1.2248  0.6929 -0.3188
 2444SOL    HW218792   2.582   0.088   8.705  1.2297  0.0044 -0.8440
 2445SOL     OW18793   3.684   3.113   3.092 -0.3093  0.0455  0.4082
 2445SOL    HW118794   3.772   3.116   3.054  0.0290  2.1357  1.3306
 2445SOL    HW218795   3.705   3.062   3.170  0.6162 -0.8542 -0.4318
 2446SOL     OW18796   2.579   0.488   8.711 -0.2404 -0.6673  0.6190
 2446SOL    HW118797   2.509   0.498   8.647  0.0447 -2.6025  0.0016
 2446SOL    HW218798   2.614   0.399   8.701  1.5508  0.0559  0.3442
 2447SOL     OW18799   1.921   0.612   3.559 -0.3476  0.5964  0.0353
 2447SOL    HW118800   1.945   0.588   3.469  0.8476  1.6532  0.0638
 2447SOL    HW218801   2.006   0.597   3.601 -0.5345 -1.1215 -0.1907
 2448SOL     OW18802   3.571   0.979   4.505  0.2502  0.5148  0.2623
 2448SOL    HW118803   3.667   0.977   4.512  0.0967 -0.5405  2.2388
 2448SOL    HW218804   3.552   1.034   4.430  0.0237  0.3831  0.2249
 2449SOL     OW18805   4.125   4.317   2.740  0.1374  0.2656 -0.5843
 2449SOL    HW118806   4.183   4.380   2.697  0.7685  1.3541  1.9023
 2449SOL    HW218807   4.163   4.306   2.827 -2.9539  1.1381  0.8830
 2450SOL     OW18808   1.732   4.129   7.113 -0.5727 -0.6553 -0.2650
 2450SOL    HW118809   1.723   4.123   7.017 -0.4732 -1.2535 -0.2345
 2450SOL    HW218810   1.653   4.081   7.137 -2.0534  1.2036 -1.4093
 2451SOL     OW18811   2.632   0.870   9.935  0.0006 -0.0607 -0.1417
 2451SOL    HW118812   2.655   0.951   9.982  0.5608 -0.3477  0.0794
 2451SOL    HW218813   2.690   0.804   9.974  1.3128 -0.4432 -2.7330
 2452SOL     OW18814   3.206   0.435   7.370  0.0798 -0.4531 -0.1926
 2452SOL    HW118815   3.139   0.367   7.363 -0.2140 -0.1461 -0.3619
 2452SOL    HW218816   3.178   0.473   7.453  0.6041  1.6138 -0.9679
 2453SOL     OW18817   3.435   1.374   6.344  0.1114  0.3807 -0.4145
 2453SOL    HW118818   3.372   1.443   6.366 -1.7973 -1.8965  1.2890
 2453SOL    HW218819   3.400   1.305   6.401  1.3442  1.7199  1.9881
 2454SOL     OW18820   3.353   3.599  15.178  0.1638 -0.3798 -0.0251
 2454SOL    HW118821   3.287   3.586  15.109  1.4847 -0.1334 -1.3386
 2454SOL    HW218822   3.300   3.569  15.252  1.6538 -3.2089 -0.1019
 2455SOL     OW18823   0.856   1.934   8.384  0.1674 -0.6604 -0.3371
 2455SOL    HW118824   0.901   2.002   8.333  1.1755 -0.2919  1.0624
 2455SOL    HW218825   0.769   1.939   8.342  0.2820  1.3288 -0.3544
 2456SOL     OW18826   0.018   2.955  11.024 -0.0384 -0.4338 -0.6652
 2456SOL    HW118827   0.093   2.901  10.998 -0.7382 -0.6135 -2.3232
 2456SOL    HW218828   0.054   3.025  11.079 -3.0913 -0.6902  1.6905
 2457SOL     OW18829   4.624   2.568   0.860 -0.3734 -0.4266 -0.5930
 2457SOL    HW118830   4.631   2.473   0.848 -1.6731 -0.6086  0.0815
 2457SOL    HW218831   4.671   2.578   0.942 -0.8496  2.1078 -0.6476
 2458SOL     OW18832   4.616   2.466   7.372  0.5241 -0.2799 -0.5296
 2458SOL    HW118833   4.693   2.432   7.328  0.2966 -1.8352  0.2342
 2458SOL    HW218834   4.652   2.495   7.456 -1.7041 -1.5980  0.8986
 2459SOL     OW18835   0.999   1.620  15.740  0.0496 -0.1052  0.4499
 2459SOL    HW118836   0.951   1.606  15.658  2.3890  1.5926 -1.2194
 2459SOL    HW218837   1.085   1.581  15.722  0.8200  1.2980  1.0716
 2460SOL     OW18838   0.153   3.847   0.415  1.2497  0.3916  0.4247
 2460SOL    HW118839   0.200   3.812   0.339  0.7892  2.9882 -1.0526
 2460SOL    HW218840   0.067   3.858   0.374  1.3712 -0.3911 -0.0385
 2461SOL     OW18841   1.404   2.441   1.413 -0.6713  0.2649 -0.3567
 2461SOL    HW118842   1.391   2.428   1.319 -0.3988  1.8281 -0.6172
 2461SOL    HW218843   1.473   2.508   1.415  0.3822 -0.8124 -0.4555
 2462SOL     OW18844   1.489   3.985   3.115 -0.3144 -0.3314  0.4742
 2462SOL    HW118845   1.503   4.007   3.023 -1.1203  0.4717  0.5403
 2462SOL    HW218846   1.577   4.001   3.149 -1.5993 -0.7489  4.0312
 2463SOL     OW18847   1.187   4.508   6.468 -0.0621 -0.0482 -0.0105
 2463SOL    HW118848   1.144   4.534   6.549 -1.3120  0.4725 -0.8462
 2463SOL    HW218849   1.225   4.423   6.492 -1.9302 -0.9942 -0.3788
 2464SOL     OW18850   3.356   4.605  10.241 -0.3383  0.0737 -0.2073
 2464SOL    HW118851   3.428   4.554  10.203 -2.6004 -2.2216 -1.3943
 2464SOL    HW218852   3.396   4.664  10.305  0.4817  0.2104 -0.8478
 2465SOL     OW18853   3.924   2.065   0.977  0.0568  0.2087  0.8743
 2465SOL    HW118854   3.831   2.066   0.954  0.3657  0.6825 -0.3642
 2465SOL    HW218855   3.941   2.155   0.948  1.2709  0.4002  2.1876
 2466SOL     OW18856   4.369   3.233   2.245  0.4386  0.0689 -0.7135
 2466SOL    HW118857   4.296   3.271   2.196 -0.2083  1.3208  1.2385
 2466SOL    HW218858   4.328   3.147   2.252 -0.4793  0.7421  2.2223
 2467SOL     OW18859   0.700   3.353   3.523  0.6336 -0.2057 -0.2116
 2467SOL    HW118860   0.682   3.263   3.551  0.5552 -0.9471 -2.6906
 2467SOL    HW218861   0.746   3.332   3.442  1.2536 -1.4848  0.4858
 2468SOL     OW18862   1.773   2.393  17.055  0.2469 -0.0755 -0.0735
 2468SOL    HW118863   1.739   2.396  17.144 -1.7120 -0.9573 -0.8029
 2468SOL    HW218864   1.719   2.455  17.005  0.7807  0.8705  0.5184
 2469SOL     OW18865   3.284   1.635   3.164  0.5512 -0.2659 -0.1103
 2469SOL    HW118866   3.269   1.681   3.081  0.6601  0.5007  0.2953
 2469SOL    HW218867   3.279   1.705   3.229 -3.5499  0.3424 -1.0927
 2470SOL     OW18868   4.491   0.520   3.239 -0.0223 -0.8421  0.2851
 2470SOL    HW118869   4.505   0.515   3.144 -1.0542  0.6412  0.0611
 2470SOL    HW218870   4.416   0.461   3.244 -1.5227  1.2305  2.2607
 2471SOL     OW18871   3.781   1.951   8.989 -0.0064  0.1399  0.2790
 2471SOL    HW118872   3.741   2.008   8.923 -1.2320 -0.9123  0.1173
 2471SOL    HW218873   3.810   2.024   9.044 -0.1104  1.0722 -0.9068
 2472SOL     OW18874   3.648   4.367   1.447 -0.7662 -0.2373 -0.2285
 2472SOL    HW118875   3.699   4.321   1.381  1.8055 -0.0938  1.6624
 2472SOL    HW218876   3.717   4.404   1.503 -0.0482 -1.9324  0.0155
 2473SOL     OW18877   3.108   0.586   7.147 -0.1536 -0.3366 -0.0843
 2473SOL    HW118878   3.120   0.660   7.207 -1.2075 -1.1467  1.1045
 2473SOL    HW218879   3.160   0.518   7.188  0.8209  0.9004  0.7402
 2474SOL     OW18880   2.670   1.950  16.454 -0.3799  0.0604  1.0224
 2474SOL    HW118881   2.606   1.955  16.525 -2.3840  1.8375 -0.8948
 2474SOL    HW218882   2.614   1.962  16.377 -0.8457  0.0185  1.3566
 2475SOL     OW18883   2.868   3.198   2.557 -0.3610 -0.2566 -0.1317
 2475SOL    HW118884   2.824   3.115   2.569 -0.0729 -0.4014 -0.0833
 2475SOL    HW218885   2.934   3.187   2.489 -0.2810 -1.5718  0.1653
 2476SOL     OW18886   0.792   4.519  13.943 -0.4951 -0.7494  0.3174
 2476SOL    HW118887   0.789   4.542  14.036  2.8765 -0.9381  0.4952
 2476SOL    HW218888   0.877   4.476  13.930  1.9798  3.8997  0.9953
 2477SOL     OW18889   1.932   4.628   4.184  0.2375 -0.1994  0.6812
 2477SOL    HW118890   1.879   4.597   4.111 -1.7604  1.4354  1.4579
 2477SOL    HW218891   1.919   4.558   4.248  1.5535 -1.8399 -0.8262
 2478SOL     OW18892   0.624   3.238  15.858 -0.0495  0.5946 -0.4174
 2478SOL    HW118893   0.691   3.293  15.897 -1.5345  2.4575 -0.4640
 2478SOL    HW218894   0.541   3.278  15.885  0.0309  1.5539 -1.6135
 2479SOL     OW18895   0.030   0.382   6.082 -0.1053 -0.1255  0.0182
 2479SOL    HW118896   0.043   0.434   6.003 -0.8525 -0.0302 -0.0448
 2479SOL    HW218897   0.071   0.299   6.055  1.6278  0.6236  0.3711
 2480SOL     OW18898   0.212   4.344   7.486  0.4950  0.3185  0.3422
 2480SOL    HW118899   0.255   4.404   7.548  0.1770  0.3655  0.5151
 2480SOL    HW218900   0.119   4.366   7.482  0.2603 -0.8357 -0.4771
 2481SOL     OW18901   4.356   3.341   6.183  0.0714  0.5686 -0.0138
 2481SOL    HW118902   4.389   3.431   6.179  1.5624 -0.0055 -0.5092
 2481SOL    HW218903   4.423   3.288   6.225 -0.7275  0.9908  1.7977
 2482SOL     OW18904   1.025   3.870   6.671 -0.4628 -0.1725  0.0473
 2482SOL    HW118905   0.955   3.930   6.695 -1.4881 -0.1079 -3.2419
 2482SOL    HW218906   0.969   3.794   6.657 -0.7564 -0.7701  4.3704
 2483SOL     OW18907   3.812   3.692   3.295  0.1072  0.5838 -0.4534
 2483SOL    HW118908   3.773   3.779   3.300 -4.4181 -1.4062 -1.1851
 2483SOL    HW218909   3.774   3.650   3.218 -0.2940 -2.7062  1.5289
 2484SOL     OW18910   0.707   4.274   7.416 -0.4028 -0.1990  0.1733
 2484SOL    HW118911   0.767   4.347   7.398  0.5167 -0.7404  1.0877
 2484SOL    HW218912   0.757   4.199   7.445  0.6450  0.5246  0.2181
 2485SOL     OW18913   2.503   2.922   3.525 -0.1260  0.5562 -0.0210
 2485SOL    HW118914   2.557   2.978   3.470  1.0730 -0.8241 -0.2720
 2485SOL    HW218915   2.415   2.941   3.494 -0.0457  0.7362 -0.1311
 2486SOL     OW18916   0.170   0.346   6.864 -0.8719  0.3122  0.0822
 2486SOL    HW118917   0.100   0.339   6.798 -1.3129 -1.4046  0.7390
 2486SOL    HW218918   0.155   0.282   6.934 -2.0961  2.7180  2.0507
 2487SOL     OW18919   0.081   2.784  16.672 -0.3973  0.8660 -0.4916
 2487SOL    HW118920   0.020   2.822  16.735  0.8064  0.5462  0.8699
 2487SOL    HW218921   0.162   2.799  16.721  1.1202  0.2591 -2.8102
 2488SOL     OW18922   2.813   3.753   6.407 -0.4048  0.1448 -0.0684
 2488SOL    HW118923   2.897   3.784   6.440 -0.5790  1.4054 -0.7888
 2488SOL    HW218924   2.797   3.677   6.463  0.0283 -0.3147 -0.5767
 2489SOL     OW18925   2.292   2.244   3.377 -0.3373  0.0294  0.6357
 2489SOL    HW118926   2.341   2.241   3.460  0.2704  0.7877  0.3010
 2489SOL    HW218927   2.223   2.179   3.391  0.2925 -0.8802 -0.5174
 2490SOL     OW18928   0.121   2.664   0.687 -0.1641  0.8506  0.0104
 2490SOL    HW118929   0.050   2.615   0.729 -0.7266  0.3642 -1.5073
 2490SOL    HW218930   0.187   2.652   0.756  0.0506 -1.2345 -0.5415
 2491SOL     OW18931   1.020   2.403   1.930 -0.2274  0.1821  0.1140
 2491SOL    HW118932   0.936   2.360   1.948 -0.2825 -0.1201 -0.8690
 2491SOL    HW218933   0.984   2.487   1.901  0.8341  0.2186 -1.0772
 2492SOL     OW18934   1.253   1.640  13.915 -0.4618  0.0634 -0.2540
 2492SOL    HW118935   1.215   1.727  13.905  3.2990  1.7349  0.3362
 2492SOL    HW218936   1.344   1.664  13.928 -0.3347 -1.6731  2.2362
 2493SOL     OW18937   4.210   3.983   8.621 -0.2096  0.5899  0.1305
 2493SOL    HW118938   4.155   4.011   8.547  0.3027  1.1806 -0.0291
 2493SOL    HW218939   4.232   3.895   8.591 -2.3158  0.5459 -1.3196
 2494SOL     OW18940   0.977   4.103   7.723 -1.1816 -0.1128  0.0658
 2494SOL    HW118941   1.044   4.128   7.787 -0.8322  1.1087 -0.7655
 2494SOL    HW218942   1.040   4.094   7.651  1.1345 -3.7450  2.5346
 2495SOL     OW18943   2.632   0.055   6.874  0.0544  0.3886 -0.5292
 2495SOL    HW118944   2.628   4.690   6.834  0.0845  0.3293 -0.4000
 2495SOL    HW218945   2.606   0.110   6.800 -1.3320 -1.4861 -1.4547
 2496SOL     OW18946   0.125   4.191   8.734 -0.5079 -0.6256  0.0713
 2496SOL    HW118947   0.182   4.114   8.740 -1.0801 -1.0509  0.0755
 2496SOL    HW218948   0.039   4.159   8.708  0.0463 -2.2307  0.1912
 2497SOL     OW18949   3.185   0.057   7.083  0.2132 -0.0063 -1.0415
 2497SOL    HW118950   3.129   0.023   7.153  1.2287  0.4280 -0.0252
 2497SOL    HW218951   3.131   0.107   7.021 -1.8488 -2.1626 -0.9813
 2498SOL     OW18952   4.648   1.797   7.513 -0.2768 -0.2251 -0.0250
 2498SOL    HW118953   4.564   1.752   7.507 -0.1699 -0.5893  1.2410
 2498SOL    HW218954   4.654   1.819   7.606  0.3360  0.1637 -0.1562
 2499SOL     OW18955   1.338   4.636   3.760  0.1435  0.2682  0.3044
 2499SOL    HW118956   1.284   4.680   3.695  0.1626 -1.1588 -0.6839
 2499SOL    HW218957   1.422   4.647   3.715  0.2627 -1.5925  0.0686
 2500SOL     OW18958   2.971   0.099   3.222 -0.1670 -0.3669 -0.3562
 2500SOL    HW118959   2.911   0.170   3.199 -0.5118 -0.8109 -0.8332
 2500SOL    HW218960   3.002   0.108   3.132  3.0034 -1.8536  0.6117
 2501SOL     OW18961   3.818   2.918   1.904 -0.0917 -0.7154  0.0110
 2501SOL    HW118962   3.910   2.897   1.890  0.4003  0.9131  0.8752
 2501SOL    HW218963   3.826   2.968   1.985 -1.7163 -0.3686 -0.0326
 2502SOL     OW18964   0.410   1.992  14.032 -0.4238 -0.5732  0.0682
 2502SOL    HW118965   0.349   2.063  14.052  0.1605  0.1832 -0.8054
 2502SOL    HW218966   0.470   2.002  14.106 -0.2146 -1.9229  0.0748
 2503SOL     OW18967   2.154   1.729  13.047 -0.2012 -0.3579 -0.0394
 2503SOL    HW118968   2.211   1.702  13.119 -1.4382  2.2545  1.9344
 2503SOL    HW218969   2.116   1.645  13.022  1.6817 -1.2146 -0.0233
 2504SOL     OW18970   1.976   3.329   8.238  0.9282 -0.1733  0.2215
 2504SOL    HW118971   2.012   3.412   8.266  1.5864 -0.3389 -0.1322
 2504SOL    HW218972   2.026   3.316   8.157  1.9130  2.3060  0.4480
 2505SOL     OW18973   0.179   3.190  15.571  0.2066 -0.0215 -0.5459
 2505SOL    HW118974   0.264   3.201  15.614 -0.0561  1.3106 -0.3538
 2505SOL    HW218975   0.144   3.274  15.600  0.3509  0.2617 -1.1887
 2506SOL     OW18976   1.242   1.893   8.272  0.3265  0.1343  0.5727
 2506SOL    HW118977   1.319   1.876   8.327  1.0466 -1.3767 -0.9026
 2506SOL    HW218978   1.235   1.986   8.295  0.4103  1.1929 -3.8403
 2507SOL     OW18979   3.368   1.695   4.485  0.1199 -0.7342  0.6872
 2507SOL    HW118980   3.407   1.671   4.569  1.2372 -0.1525  0.3364
 2507SOL    HW218981   3.431   1.660   4.422 -0.1418  0.6420 -0.3200
 2508SOL     OW18982   3.588   1.129   8.952 -0.0164 -0.3834  0.4947
 2508SOL    HW118983   3.558   1.077   8.877 -0.8571 -1.3375  1.4964
 2508SOL    HW218984   3.678   1.150   8.924 -0.5705  2.1627  0.5684
 2509SOL     OW18985   1.071   3.247   7.038  0.3470  0.1000 -0.4536
 2509SOL    HW118986   1.068   3.158   7.003 -0.5906  0.9910 -2.6471
 2509SOL    HW218987   1.164   3.268   7.046  0.1289  0.3456  1.3633
 2510SOL     OW18988   3.305   0.522   7.992 -0.1242  0.5984 -0.0321
 2510SOL    HW118989   3.281   0.566   8.073  1.4937  1.4940 -0.0509
 2510SOL    HW218990   3.268   0.583   7.929 -1.4867  0.7342  0.8940
 2511SOL     OW18991   0.032   1.152   5.864 -0.3680  0.5040 -0.1540
 2511SOL    HW118992   0.073   1.096   5.798 -1.7884  0.2663 -0.8283
 2511SOL    HW218993   4.662   1.130   5.856  0.1255 -2.2641  1.6384
 2512SOL     OW18994   4.198   2.046   9.847  0.5106  0.1085  0.0350
 2512SOL    HW118995   4.256   2.004   9.911  1.3016  0.5369 -0.4079
 2512SOL    HW218996   4.196   2.138   9.871 -0.7374 -0.1174  0.7982
 2513SOL     OW18997   2.765   4.250  16.135 -0.6374  0.4186  0.0547
 2513SOL    HW118998   2.840   4.212  16.181 -0.3874  0.2017 -0.5280
 2513SOL    HW218999   2.760   4.222  16.043  0.7300 -4.1297  1.3840
 2514SOL     OW19000   4.033   3.234   3.551 -0.4249 -0.1025  0.6051
 2514SOL    HW119001   4.078   3.302   3.600  0.4630  0.1382 -0.5248
 2514SOL    HW219002   4.042   3.265   3.461 -4.7262  1.0336  0.5438
 2515SOL     OW19003   4.184   3.455  14.419 -0.1201  0.0858 -0.1619
 2515SOL    HW119004   4.272   3.491  14.406 -1.3317  2.3745 -1.9640
 2515SOL    HW219005   4.204   3.382  14.477 -0.0968  1.2338  1.2896
 2516SOL     OW19006   2.869   3.876  10.413  0.3919  0.1813  0.7352
 2516SOL    HW119007   2.794   3.901  10.467 -1.3851  0.3498 -1.7982
 2516SOL    HW219008   2.918   3.820  10.472 -1.0665 -1.3139  0.5234
 2517SOL     OW19009   1.280   1.297   9.551  0.4983 -0.3061  0.2176
 2517SOL    HW119010   1.272   1.258   9.465  1.8058 -1.1745  0.4923
 2517SOL    HW219011   1.193   1.307   9.590  0.8740  0.6489  0.8232
 2518SOL     OW19012   3.275   2.490   2.023 -0.2715 -0.4801 -0.6362
 2518SOL    HW119013   3.251   2.530   1.939  0.9589  0.7664 -0.3881
 2518SOL    HW219014   3.212   2.531   2.083  0.2381 -1.0914  0.3036
 2519SOL     OW19015   4.167   1.210  12.779 -0.7914 -0.1344  0.2220
 2519SOL    HW119016   4.253   1.196  12.819  0.0757  0.4148 -1.4651
 2519SOL    HW219017   4.124   1.267  12.843 -2.7151 -2.1980  0.7831
 2520SOL     OW19018   3.450   2.744   1.646  0.1417  0.1223  0.5518
 2520SOL    HW119019   3.498   2.737   1.729 -1.1357  0.4546  1.3210
 2520SOL    HW219020   3.362   2.748   1.683  0.2759  0.0249  0.8851
 2521SOL     OW19021   0.660   3.124   4.638 -1.3446  0.3005  0.5633
 2521SOL    HW119022   0.689   3.101   4.549  0.3084  3.7974  0.2037
 2521SOL    HW219023   0.713   3.202   4.652 -1.8288  0.5924  0.7694
 2522SOL     OW19024   0.701   3.938  16.675 -0.0032  0.3639  0.5629
 2522SOL    HW119025   0.697   4.003  16.745  1.8165  1.7487 -0.6138
 2522SOL    HW219026   0.661   3.867  16.725 -0.7758  0.7700  0.5128
 2523SOL     OW19027   4.605   2.855   2.118 -0.0869  0.6524  0.3549
 2523SOL    HW119028   4.545   2.865   2.044  0.5836 -1.8273 -0.5002
 2523SOL    HW219029   4.621   2.761   2.114  1.2242  0.8955 -0.2751
 2524SOL     OW19030   2.142   0.315  16.759  0.0175  0.1896  0.8083
 2524SOL    HW119031   2.062   0.286  16.715  0.5498  0.5473 -0.4008
 2524SOL    HW219032   2.151   0.261  16.837 -0.0820  1.3953  1.6695
 2525SOL     OW19033   0.984   1.746   6.967 -0.9709 -0.4077  0.0741
 2525SOL    HW119034   0.990   1.694   6.887  0.5887 -1.1158  0.6559
 2525SOL    HW219035   1.045   1.817   6.950 -0.3087 -0.7948  0.8414
 2526SOL     OW19036   4.128   1.382   2.936 -0.1211  0.8616 -0.9548
 2526SOL    HW119037   4.204   1.439   2.936  1.2122 -0.8528  3.2310
 2526SOL    HW219038   4.141   1.338   3.020  3.4190  1.4097 -1.2417
 2527SOL     OW19039   3.127   1.047   5.816 -0.5125 -0.7520 -0.0100
 2527SOL    HW119040   3.117   1.102   5.738  0.8842 -0.8493 -0.2520
 2527SOL    HW219041   3.038   1.031   5.846 -0.8049 -0.0557 -0.5156
 2528SOL     OW19042   3.977   2.808   6.556  0.0538 -0.0329 -0.6864
 2528SOL    HW119043   4.042   2.811   6.627  0.9171 -3.5212 -1.3193
 2528SOL    HW219044   4.021   2.860   6.489  3.6578  1.5019  2.8222
 2529SOL     OW19045   3.157   3.234  15.821  0.1204  0.7516 -0.8060
 2529SOL    HW119046   3.243   3.193  15.824  0.7129  2.1417  1.2738
 2529SOL    HW219047   3.120   3.195  15.900  0.6054 -0.1857 -1.0432
 2530SOL     OW19048   2.206   3.342   1.501 -0.2703  0.6929  0.0817
 2530SOL    HW119049   2.195   3.408   1.432 -0.9809  0.8997  0.3900
 2530SOL    HW219050   2.114   3.342   1.527 -0.0201  0.6143  0.9357
 2531SOL     OW19051   1.239   2.597   5.956 -0.8117  0.2868  0.4475
 2531SOL    HW119052   1.206   2.686   5.949 -0.1697  0.6472  2.0313
 2531SOL    HW219053   1.316   2.587   5.900 -0.9494  1.2810  0.0955
 2532SOL     OW19054   1.012   3.321   2.451 -0.3687 -0.1990  0.1492
 2532SOL    HW119055   0.970   3.309   2.537 -1.3408  0.4567 -0.2399
 2532SOL    HW219056   1.100   3.285   2.463 -1.1640 -1.4336  2.3010
 2533SOL     OW19057   1.639   2.535   0.391 -0.3444  0.3612 -0.2623
 2533SOL    HW119058   1.686   2.581   0.461 -1.1821 -2.4601  2.1382
 2533SOL    HW219059   1.564   2.501   0.440  0.0475  0.1127  0.1706
 2534SOL     OW19060   0.111   0.602   2.631 -0.2321 -0.4400 -0.0003
 2534SOL    HW119061   0.148   0.617   2.544 -1.8281  1.0451 -0.4297
 2534SOL    HW219062   0.142   0.676   2.683  0.9756  0.0886 -1.4685
 2535SOL     OW19063   4.173   4.424   8.160  0.5522 -0.6470  0.5770
 2535SOL    HW119064   4.101   4.377   8.202  0.1517 -0.7510 -0.2391
 2535SOL    HW219065   4.128   4.466   8.087  0.9350  0.2849  0.8740
 2536SOL     OW19066   4.448   4.067   3.376  0.4435  0.0573 -0.2053
 2536SOL    HW119067   4.438   3.977   3.346  0.6452 -0.6603  1.9063
 2536SOL    HW219068   4.530   4.093   3.335 -0.3903  0.1949 -1.7836
 2537SOL     OW19069   2.336   4.698   3.304 -0.1450 -0.3054 -0.0745
 2537SOL    HW119070   2.338   4.670   3.396  0.0175 -0.8636 -0.2509
 2537SOL    HW219071   2.262   0.037   3.304  2.5103  2.8925 -0.5596
 2538SOL     OW19072   2.214   1.802   8.491 -0.0196  0.1952 -0.0703
 2538SOL    HW119073   2.222   1.896   8.473 -2.4193 -0.1851 -3.1699
 2538SOL    HW219074   2.150   1.788   8.561  0.6300 -0.1640  0.4493
 2539SOL     OW19075   3.502   3.152   2.562  0.1398  0.6104  0.0771
 2539SOL    HW119076   3.433   3.193   2.615 -0.7421 -0.4053 -0.2940
 2539SOL    HW219077   3.565   3.143   2.634 -1.6362 -1.5082  1.3927
 2540SOL     OW19078   4.115   2.531   0.801  0.0858  0.0623 -0.1499
 2540SOL    HW119079   4.198   2.568   0.772  0.8779 -1.2313  0.4630
 2540SOL    HW219080   4.128   2.442   0.767 -0.9769  0.1873 -0.8619
 2541SOL     OW19081   2.587   0.210   8.411  0.1277 -0.4186 -0.0689
 2541SOL    HW119082   2.601   0.125   8.368  1.3768 -0.8165  1.1101
 2541SOL    HW219083   2.495   0.230   8.397  0.5066  1.9659  0.9393
 2542SOL     OW19084   0.636   3.098   2.651  0.1665  0.1188  0.3304
 2542SOL    HW119085   0.600   3.114   2.563  0.5833 -2.5030 -0.3109
 2542SOL    HW219086   0.709   3.041   2.628  0.0439  0.2059 -0.2791
 2543SOL     OW19087   3.954   1.390   2.090  0.1798  0.4783  0.2328
 2543SOL    HW119088   3.967   1.454   2.160  1.1051  1.5020 -0.8787
 2543SOL    HW219089   3.993   1.433   2.014  0.2035 -1.9964 -1.1932
 2544SOL     OW19090   4.515   1.588  11.946 -0.1761 -0.3246 -0.1079
 2544SOL    HW119091   4.607   1.611  11.955 -0.3209  0.5935 -0.9199
 2544SOL    HW219092   4.528   1.497  11.922 -3.0614 -0.5981 -0.6513
 2545SOL     OW19093   0.693   4.347   3.110 -0.4740 -0.1525  0.2663
 2545SOL    HW119094   0.749   4.418   3.140 -0.7688 -0.3776  1.3693
 2545SOL    HW219095   0.741   4.273   3.147  3.7524  3.2313  1.5015
 2546SOL     OW19096   0.573   2.338   3.960 -0.4465  0.1769  0.3104
 2546SOL    HW119097   0.520   2.299   3.891 -0.6250 -0.1751  0.6452
 2546SOL    HW219098   0.512   2.331   4.034 -0.2039 -0.5403  0.4386
 2547SOL     OW19099   3.476   3.951   7.567 -0.4727  0.3066  0.1299
 2547SOL    HW119100   3.471   3.911   7.654  1.3640  2.3986  1.2170
 2547SOL    HW219101   3.518   3.883   7.514 -1.6262 -0.0271 -0.3521
 2548SOL     OW19102   3.968   4.494   7.099 -0.5722  0.2511  0.0096
 2548SOL    HW119103   4.052   4.480   7.143  0.3101  3.0041 -0.7649
 2548SOL    HW219104   3.911   4.489   7.175  0.3531  2.5241  0.8656
 2549SOL     OW19105   3.837   3.038   0.569  0.2522 -0.1023 -0.5475
 2549SOL    HW119106   3.825   2.981   0.645  0.5879 -2.7369 -2.4593
 2549SOL    HW219107   3.903   3.097   0.607  0.7153  0.7281 -2.6356
 2550SOL     OW19108   2.183   1.579   0.895  0.1869 -0.2606  0.2604
 2550SOL    HW119109   2.175   1.576   0.991  4.3084  0.2077  0.6364
 2550SOL    HW219110   2.275   1.556   0.890  0.3132 -0.0158  1.4121
 2551SOL     OW19111   3.573   1.016   8.700 -0.2645  0.4767 -0.5246
 2551SOL    HW119112   3.668   1.022   8.689 -0.2172 -1.9586 -1.2514
 2551SOL    HW219113   3.524   1.056   8.628  1.4208 -1.5196 -2.7291
 2552SOL     OW19114   2.770   0.140   2.689 -0.5961 -0.2003  0.2629
 2552SOL    HW119115   2.793   0.047   2.687 -1.5847 -0.3974 -1.6083
 2552SOL    HW219116   2.706   0.138   2.761 -0.0343 -2.0792  0.7140
 2553SOL     OW19117   0.335   3.726   3.007  0.6469  0.1511  0.5629
 2553SOL    HW119118   0.350   3.813   2.968 -0.2925  0.2490  0.4350
 2553SOL    HW219119   0.254   3.704   2.962  1.6237  1.2523 -1.7404
 2554SOL     OW19120   2.704   0.936  15.590 -0.4455 -0.2579 -0.1601
 2554SOL    HW119121   2.610   0.923  15.605 -0.4351 -1.4357 -1.0438
 2554SOL    HW219122   2.743   0.871  15.649 -1.4214 -0.2413  0.5053
 2555SOL     OW19123   1.396   1.217  12.926  0.4040  0.0648  0.1708
 2555SOL    HW119124   1.399   1.289  12.863 -0.5806  0.4929  0.6182
 2555SOL    HW219125   1.442   1.263  12.996 -0.0677  1.5503 -0.4976
 2556SOL     OW19126   1.031   2.594  16.580 -0.2506 -0.0921  0.9106
 2556SOL    HW119127   0.973   2.522  16.607 -2.6661  0.8990 -1.7103
 2556SOL    HW219128   1.096   2.552  16.524  0.0269 -1.0103  1.9249
 2557SOL     OW19129   1.023   0.391   5.009 -0.8094  0.5318 -0.0917
 2557SOL    HW119130   1.074   0.343   5.074 -0.7045  0.5873 -0.1349
 2557SOL    HW219131   0.947   0.350   5.051  0.4507 -1.2800  0.4511
 2558SOL     OW19132   2.734   4.253   8.767 -0.9546 -0.4722  0.5649
 2558SOL    HW119133   2.804   4.192   8.792  0.7513 -0.1716 -3.3030
 2558SOL    HW219134   2.784   4.324   8.726 -1.8139 -0.0744  0.2035
 2559SOL     OW19135   4.109   2.899   1.908  0.4340 -0.3397  0.4575
 2559SOL    HW119136   4.181   2.857   1.955  0.5822  0.3191  0.8109
 2559SOL    HW219137   4.115   2.992   1.931  3.8250 -0.1068 -1.3155
 2560SOL     OW19138   3.880   1.703   8.334  0.1918 -0.6159  0.0830
 2560SOL    HW119139   3.948   1.664   8.390  0.2059 -0.9090 -0.1358
 2560SOL    HW219140   3.805   1.661   8.377 -0.1162 -0.1683 -0.0220
 2561SOL     OW19141   2.273   1.214   5.257 -0.0020  0.5185 -0.3001
 2561SOL    HW119142   2.318   1.164   5.325  0.1948  3.6486  1.8536
 2561SOL    HW219143   2.276   1.302   5.293  1.9483  0.3101  0.0607
 2562SOL     OW19144   2.656   2.809  14.445  0.5005 -0.2129 -0.1083
 2562SOL    HW119145   2.609   2.730  14.470  1.5517 -1.0499 -0.7567
 2562SOL    HW219146   2.614   2.840  14.365 -0.7878 -2.0119 -0.1286
 2563SOL     OW19147   3.482   1.869   2.391 -0.0278 -0.5910  0.2130
 2563SOL    HW119148   3.503   1.776   2.401  0.0601 -0.4975  0.8898
 2563SOL    HW219149   3.432   1.878   2.472  1.4348 -2.7300  1.3502
 2564SOL     OW19150   0.120   3.070   0.476  0.3633  0.6486 -0.4316
 2564SOL    HW119151   0.127   3.107   0.564  2.9289  0.0930 -0.4009
 2564SOL    HW219152   0.189   3.007   0.498 -0.7839  0.2606  2.0419
 2565SOL     OW19153   2.862   0.408  17.529  0.5915 -0.0812 -0.4343
 2565SOL    HW119154   2.876   0.313  17.523 -0.9979 -0.2084 -1.9318
 2565SOL    HW219155   2.831   0.414  17.620  0.9050  0.0804 -0.3388
 2566SOL     OW19156   1.742   4.693   8.499  0.3314 -0.0754 -0.6291
 2566SOL    HW119157   1.766   4.603   8.478 -0.0595 -0.0477 -1.1966
 2566SOL    HW219158   1.670   4.710   8.438 -0.3332  1.1275  0.5100
 2567SOL     OW19159   1.544   1.530  10.655 -0.0344 -0.0636 -0.3013
 2567SOL    HW119160   1.571   1.504  10.567  2.2944  1.9886 -0.2118
 2567SOL    HW219161   1.536   1.440  10.687 -3.9970  1.3777  2.6386
 2568SOL     OW19162   1.488   0.030   4.134 -0.4134  0.1279  0.2345
 2568SOL    HW119163   1.555   0.054   4.070  0.5250  1.2848  1.6318
 2568SOL    HW219164   1.471   4.665   4.102 -2.0738  0.9871 -1.2345
 2569SOL     OW19165   4.079   2.587  10.632  0.1422 -0.3690  0.3508
 2569SOL    HW119166   4.014   2.573  10.701  0.6806  0.9318  1.1228
 2569SOL    HW219167   4.147   2.520  10.630 -0.9849 -1.5545  1.5427
 2570SOL     OW19168   2.406   4.524  12.742  0.2893 -0.2825 -0.3632
 2570SOL    HW119169   2.440   4.612  12.722  2.7802 -1.7567 -2.5750
 2570SOL    HW219170   2.467   4.502  12.812  2.5698  0.9768 -1.9567
 2571SOL     OW19171   3.048   0.168   5.612  0.2666 -0.0513 -0.0786
 2571SOL    HW119172   3.079   0.232   5.677  1.2379 -1.1944  0.5820
 2571SOL    HW219173   3.126   0.112   5.612  0.0009 -0.4173 -0.1216
 2572SOL     OW19174   0.639   3.946   5.870  0.4469 -0.3864 -0.3318
 2572SOL    HW119175   0.613   4.006   5.939 -2.3200 -0.1367 -1.6030
 2572SOL    HW219176   0.705   3.889   5.911  0.8433  0.2103 -0.1522
 2573SOL     OW19177   4.078   0.979  13.772 -0.1526 -0.1698  0.1603
 2573SOL    HW119178   4.046   0.898  13.813  1.5257 -1.7200 -1.5512
 2573SOL    HW219179   4.114   0.943  13.691 -0.9055  0.8506 -0.6152
 2574SOL     OW19180   2.903   1.900   7.369 -0.2437 -0.1347 -0.2684
 2574SOL    HW119181   2.910   1.816   7.415 -1.2897  0.5408  1.1442
 2574SOL    HW219182   2.981   1.889   7.315 -0.2445 -3.5313  0.4403
 2575SOL     OW19183   0.661   2.899  12.321 -0.4411  0.1269  0.0935
 2575SOL    HW119184   0.577   2.930  12.289  0.0517  1.1350 -0.2222
 2575SOL    HW219185   0.662   2.810  12.285 -0.3036 -0.5206  1.6674
 2576SOL     OW19186   2.976   0.176   7.822  0.0810 -0.4942  0.2771
 2576SOL    HW119187   3.056   0.206   7.865  0.5881 -1.2430 -0.1241
 2576SOL    HW219188   2.927   0.142   7.897 -1.1446  0.7869  0.0562
 2577SOL     OW19189   1.737   0.068   5.483 -0.0655  0.0485 -0.8071
 2577SOL    HW119190   1.762   0.000   5.545 -0.7219  0.5766  0.0437
 2577SOL    HW219191   1.789   0.045   5.406 -0.4244 -1.6917 -0.5222
 2578SOL     OW19192   2.268   1.018  13.108 -0.0146  0.1828  0.0986
 2578SOL    HW119193   2.212   1.095  13.104  0.4527  0.4952 -0.4325
 2578SOL    HW219194   2.342   1.059  13.153  0.7726  1.6439 -2.5392
 2579SOL     OW19195   0.641   0.565   2.345  0.3495  0.1079  0.0376
 2579SOL    HW119196   0.570   0.529   2.292  0.7939  1.1040 -1.2461
 2579SOL    HW219197   0.603   0.579   2.432 -1.4431 -0.8181 -0.5912
 2580SOL     OW19198   1.591   0.456  14.191  0.4075  0.0267  0.0144
 2580SOL    HW119199   1.533   0.459  14.267 -1.4544 -0.1951 -1.3961
 2580SOL    HW219200   1.527   0.464  14.120  1.2257 -0.3842 -0.7762
 2581SOL     OW19201   4.570   1.276   0.504 -0.0459  0.6055  0.2151
 2581SOL    HW119202   4.511   1.205   0.527 -2.3399  1.3211 -3.4046
 2581SOL    HW219203   4.556   1.285   0.410  0.4535 -2.4480 -0.1642
 2582SOL     OW19204   1.184   4.454   7.035 -0.2016 -0.5337  0.6422
 2582SOL    HW119205   1.186   4.360   7.014 -1.1210 -0.5173  0.4702
 2582SOL    HW219206   1.246   4.479   6.967 -0.1670  0.4381  1.0456
 2583SOL     OW19207   0.400   2.450  10.584  0.6250  0.0634  0.0786
 2583SOL    HW119208   0.337   2.416  10.647 -0.8669  0.9975 -0.8992
 2583SOL    HW219209   0.482   2.405  10.606  0.3127 -0.5886 -0.0889
 2584SOL     OW19210   3.043   3.104   5.952 -0.1572  0.3233  0.1885
 2584SOL    HW119211   3.012   3.070   5.868 -2.3737 -2.0248  1.9590
 2584SOL    HW219212   3.035   3.021   5.999 -2.0858  0.6222  0.3684
 2585SOL     OW19213   3.114   4.385  12.462 -0.0229 -0.2734  0.5193
 2585SOL    HW119214   3.137   4.453  12.399 -0.4836 -1.1301 -0.5653
 2585SOL    HW219215   3.079   4.312  12.411  0.0570 -0.4664  0.7420
 2586SOL     OW19216   4.106   0.557  13.224  0.2639 -0.3173 -0.1528
 2586SOL    HW119217   4.122   0.478  13.174  1.3775  0.3991 -0.9289
 2586SOL    HW219218   4.059   0.530  13.303 -2.3819  1.6384 -1.0810
 2587SOL     OW19219   1.529   2.842   8.295 -0.1086  0.1493 -0.0333
 2587SOL    HW119220   1.619   2.822   8.322 -0.9629  1.0358  3.5286
 2587SOL    HW219221   1.488   2.862   8.379 -1.3556 -1.4198 -0.2964
 2588SOL     OW19222   3.813   3.718   7.626 -0.2066  0.4132  0.2924
 2588SOL    HW119223   3.881   3.776   7.661 -0.1996  1.1870 -0.9962
 2588SOL    HW219224   3.838   3.629   7.650 -3.3361 -0.8606 -1.1842
 2589SOL     OW19225   4.256   2.349   8.011 -0.5933  0.4591 -0.5506
 2589SOL    HW119226   4.218   2.437   8.014  0.0709  0.7450 -0.4798
 2589SOL    HW219227   4.319   2.350   8.083 -1.2963  0.2006  0.0671
 2590SOL     OW19228   1.835   2.634  15.332  0.6321  0.4858 -0.4395
 2590SOL    HW119229   1.870   2.720  15.311  2.6908 -0.2339  0.1212
 2590SOL    HW219230   1.843   2.581  15.253 -0.4854  0.6037 -0.6372
 2591SOL     OW19231   3.394   4.020   9.768  0.4131  0.1471 -0.4833
 2591SOL    HW119232   3.331   3.948   9.777  1.0957 -0.1103  2.3202
 2591SOL    HW219233   3.457   3.980   9.709 -0.6254  0.1254 -1.5806
 2592SOL     OW19234   0.011   0.553  13.232 -0.5894 -0.4714 -0.2112
 2592SOL    HW119235   0.061   0.537  13.152 -2.3125  0.9724 -1.5971
 2592SOL    HW219236   0.073   0.599  13.289 -0.0615 -1.8559  0.3233
 2593SOL     OW19237   1.104   0.610   2.909 -0.3453  0.1195  0.1642
 2593SOL    HW119238   1.026   0.616   2.965 -0.0191  1.1354  0.5081
 2593SOL    HW219239   1.084   0.674   2.841 -2.7212 -0.6606  0.1165
 2594SOL     OW19240   2.380   0.992   8.785 -0.1633 -0.5962  0.3403
 2594SOL    HW119241   2.337   0.945   8.714  0.9582 -2.1521  0.6736
 2594SOL    HW219242   2.356   1.085   8.784  0.1767 -0.4740  2.0189
 2595SOL     OW19243   3.698   2.638   9.069 -0.1928  0.4365  0.2311
 2595SOL    HW119244   3.666   2.590   8.993 -0.1061 -0.2605  0.6318
 2595SOL    HW219245   3.759   2.696   9.023 -0.0159 -0.8079 -1.1084
 2596SOL     OW19246   4.348   1.348   3.880  0.4635  0.5229 -0.0789
 2596SOL    HW119247   4.405   1.360   3.804  0.2010  2.0870 -0.0160
 2596SOL    HW219248   4.265   1.393   3.864 -0.1096 -1.3204 -2.2821
 2597SOL     OW19249   2.780   3.174  10.176  0.5214  0.4268  0.2449
 2597SOL    HW119250   2.743   3.258  10.203 -1.8731 -1.5697  3.3124
 2597SOL    HW219251   2.846   3.154  10.243  0.5702  1.2527  0.4344
 2598SOL     OW19252   0.473   1.689  17.579  0.1201 -0.3610 -0.3290
 2598SOL    HW119253   0.398   1.701  17.521  0.3888  1.2846 -0.3196
 2598SOL    HW219254   0.502   1.600  17.557 -2.4056 -0.6143 -2.5812
 2599SOL     OW19255   4.028   3.548   4.508  0.4607 -0.2926  0.0036
 2599SOL    HW119256   4.070   3.512   4.586 -0.5592  1.2620  1.2654
 2599SOL    HW219257   3.939   3.521   4.529 -0.3342  2.2068 -0.1626
 2600SOL     OW19258   4.663   4.241   6.980  0.3423  0.2550 -0.3666
 2600SOL    HW119259   4.596   4.257   7.047 -0.4638  0.3483 -1.1910
 2600SOL    HW219260   4.619   4.174   6.929  0.0500 -0.9414  1.4699
 2601SOL     OW19261   1.616   3.172  17.143  0.0574  0.0750  0.3343
 2601SOL    HW119262   1.694   3.189  17.197  1.4026 -2.0548 -0.9275
 2601SOL    HW219263   1.653   3.122  17.070  1.2766 -1.0581  1.7118
 2602SOL     OW19264   0.648   2.633  14.159 -0.2806  0.5076  0.7061
 2602SOL    HW119265   0.662   2.687  14.081 -1.4028  0.3034  0.3749
 2602SOL    HW219266   0.711   2.669  14.222  0.7067 -0.0799  0.0639
 2603SOL     OW19267   2.281   4.294   7.657  0.3858  0.4873 -0.5528
 2603SOL    HW119268   2.219   4.354   7.699 -0.0483  1.0729 -1.9966
 2603SOL    HW219269   2.363   4.303   7.705  0.2218  2.4051 -0.6302
 2604SOL     OW19270   0.215   4.628   7.591  0.2889 -0.5099  0.6776
 2604SOL    HW119271   0.180   4.687   7.525  1.0004  0.5503  1.2551
 2604SOL    HW219272   0.307   4.620   7.567  0.5500  1.2846  1.0641
 2605SOL     OW19273   2.281   2.104   4.541 -0.6240  0.1969 -0.2713
 2605SOL    HW119274   2.275   2.117   4.447 -1.9540  1.8353  0.0424
 2605SOL    HW219275   2.235   2.180   4.575  1.4823  1.3566 -0.0064
 2606SOL     OW19276   0.732   4.328   2.136  0.4929  0.3895  0.0255
 2606SOL    HW119277   0.697   4.288   2.216 -2.6127  2.4202 -0.3269
 2606SOL    HW219278   0.668   4.312   2.067  0.9367 -1.1554 -0.0400
 2607SOL     OW19279   0.476   0.106   3.288 -0.4817  0.2705  0.2082
 2607SOL    HW119280   0.518   0.073   3.367  0.1253 -0.1819 -0.3041
 2607SOL    HW219281   0.551   0.123   3.231 -1.6964  1.0822 -1.1384
 2608SOL     OW19282   2.422   2.657  15.751 -0.4129 -0.0967  0.2311
 2608SOL    HW119283   2.359   2.634  15.819 -2.2755  1.3973 -0.9844
 2608SOL    HW219284   2.488   2.710  15.797  0.2835  0.0272 -0.8996
 2609SOL     OW19285   3.476   2.855   9.956  0.4235 -0.0198  0.2397
 2609SOL    HW119286   3.440   2.781  10.004  0.5455 -1.1417 -1.3715
 2609SOL    HW219287   3.403   2.916   9.963  1.9190  1.7905  0.1127
 2610SOL     OW19288   4.608   1.323  17.607 -0.7780 -0.3193  0.2727
 2610SOL    HW119289   4.577   1.235  17.631 -1.9101 -0.6293 -2.3787
 2610SOL    HW219290   4.639   1.356  17.692  3.3544  0.0334 -1.3783
 2611SOL     OW19291   2.823   4.140  10.309 -0.5557 -0.0971  0.2117
 2611SOL    HW119292   2.885   4.157  10.238 -1.9416 -0.4332 -1.0890
 2611SOL    HW219293   2.832   4.045  10.319 -0.6922 -0.1171  0.1441
 2612SOL     OW19294   4.011   1.442   9.893 -0.0417 -0.0065 -0.5170
 2612SOL    HW119295   4.059   1.524   9.902 -0.0293 -0.0384 -0.2704
 2612SOL    HW219296   3.931   1.475   9.852 -0.2630  1.4136  1.0487
 2613SOL     OW19297   4.343   1.268   1.594  0.3444 -0.6076 -0.2077
 2613SOL    HW119298   4.341   1.332   1.665 -2.3404 -1.2534  0.2758
 2613SOL    HW219299   4.259   1.225   1.609  0.2909  0.2193  1.9256
 2614SOL     OW19300   0.140   0.954   1.315  0.1446 -0.2444  0.2265
 2614SOL    HW119301   0.225   0.984   1.348  0.0452  1.4006 -1.0216
 2614SOL    HW219302   0.173   0.939   1.226 -1.3837 -0.9763 -0.2054
 2615SOL     OW19303   3.896   3.559   2.034 -0.1266 -0.2181  0.1789
 2615SOL    HW119304   3.839   3.633   2.013  1.2429  0.6776 -0.3282
 2615SOL    HW219305   3.923   3.578   2.123 -1.7630 -1.8644  1.0393
 2616SOL     OW19306   2.882   4.610  12.935 -0.0444 -0.8297  0.1495
 2616SOL    HW119307   2.796   4.569  12.932 -0.0482 -0.7335 -1.1922
 2616SOL    HW219308   2.939   4.533  12.934 -1.9681 -2.2570  1.7828
 2617SOL     OW19309   1.647   1.100  14.776 -0.0015 -0.0405 -0.0314
 2617SOL    HW119310   1.647   1.195  14.759 -1.8514 -0.0087  0.1346
 2617SOL    HW219311   1.718   1.072  14.718 -1.4354 -1.9900 -0.8215
 2618SOL     OW19312   3.812   2.965   3.292 -0.0358  0.1579 -0.2753
 2618SOL    HW119313   3.892   2.915   3.279 -0.5340 -1.3181  2.3554
 2618SOL    HW219314   3.834   3.003   3.377  1.8248  1.0489 -1.1621
 2619SOL     OW19315   1.181   2.089   4.704 -0.1248 -0.0119 -0.7613
 2619SOL    HW119316   1.191   2.099   4.609 -1.9624 -3.0341 -1.2827
 2619SOL    HW219317   1.092   2.123   4.715 -0.1836 -0.5177  0.3380
 2620SOL     OW19318   1.762   2.013  16.757 -0.2761  0.2991 -0.7084
 2620SOL    HW119319   1.777   2.071  16.833 -1.3490 -1.7215  1.0524
 2620SOL    HW219320   1.754   1.924  16.791  1.8917 -1.4453 -4.7897
 2621SOL     OW19321   0.934   4.506  14.208  0.5328  0.0523  0.7334
 2621SOL    HW119322   0.910   4.567  14.279  0.4972  0.2434  0.5580
 2621SOL    HW219323   1.029   4.499  14.217  0.8031  2.7123  0.0159
 2622SOL     OW19324   1.522   3.385   0.450 -0.1989  0.2827  0.6003
 2622SOL    HW119325   1.583   3.428   0.391 -2.1822 -0.3246 -1.8698
 2622SOL    HW219326   1.443   3.439   0.450  0.9023  1.8565 -0.8338
 2623SOL     OW19327   0.508   4.334  14.990 -0.2851  0.2822 -0.3411
 2623SOL    HW119328   0.417   4.328  14.962 -1.2854  0.8017  2.8719
 2623SOL    HW219329   0.502   4.414  15.043  0.1741  2.0264 -2.9217
 2624SOL     OW19330   0.158   1.319  11.613 -0.1619 -0.0216  0.3785
 2624SOL    HW119331   0.147   1.406  11.574 -0.5753 -0.4775 -0.5190
 2624SOL    HW219332   0.155   1.353  11.703  2.6201 -0.7225  0.7546
 2625SOL     OW19333   1.672   4.073   4.046  0.1243 -0.5995  0.1644
 2625SOL    HW119334   1.730   4.103   3.976 -0.2526  0.0772  0.1448
 2625SOL    HW219335   1.589   4.073   3.999 -0.5370 -2.8595  1.3528
 2626SOL     OW19336   1.156   4.560  10.487  0.0038  0.1262 -0.4242
 2626SOL    HW119337   1.096   4.565  10.562 -1.7455 -1.0152 -1.7628
 2626SOL    HW219338   1.239   4.544  10.533  1.0869 -1.1353 -2.8286
 2627SOL     OW19339   4.034   1.093   9.579  0.2047  0.4087  0.1232
 2627SOL    HW119340   3.943   1.086   9.550  0.1732  1.3128  0.0228
 2627SOL    HW219341   4.026   1.097   9.674  0.4574  2.0207  0.0707
 2628SOL     OW19342   1.941   4.659  16.844  0.5432  0.4224 -0.0133
 2628SOL    HW119343   1.877   4.708  16.792  1.3708  1.3779 -0.1296
 2628SOL    HW219344   1.967   4.588  16.786  0.8054 -0.1473  0.7913
 2629SOL     OW19345   2.811   1.517   4.502 -0.3660  0.3728 -0.2130
 2629SOL    HW119346   2.752   1.588   4.477 -1.6194 -0.5427  0.1802
 2629SOL    HW219347   2.820   1.527   4.597 -0.8490  0.7281 -0.2057
 2630SOL     OW19348   1.316   2.713   2.378 -0.0227  0.5823  0.0964
 2630SOL    HW119349   1.302   2.796   2.422 -0.4536  0.4971  0.1207
 2630SOL    HW219350   1.403   2.724   2.339 -0.3833 -0.2636 -0.9594
 2631SOL     OW19351   2.745   2.244  11.791  0.1387 -0.3421 -1.0143
 2631SOL    HW119352   2.811   2.278  11.852  2.5547  0.9037 -4.3112
 2631SOL    HW219353   2.747   2.315  11.727  0.3340 -0.4347 -1.1117
 2632SOL     OW19354   3.300   3.730   5.339 -0.4011  0.0261  0.1406
 2632SOL    HW119355   3.366   3.799   5.332  0.7280 -0.9472  1.1908
 2632SOL    HW219356   3.321   3.684   5.258  0.1914  0.0046  0.3095
 2633SOL     OW19357   4.053   1.743   2.437 -0.2748 -0.4632 -0.4706
 2633SOL    HW119358   4.015   1.831   2.433  0.3607 -0.1628  0.2559
 2633SOL    HW219359   4.037   1.714   2.526  1.6474  1.7899  0.6165
 2634SOL     OW19360   2.984   2.887   5.805  0.1083  0.6171 -0.0880
 2634SOL    HW119361   2.907   2.870   5.859 -1.3347  1.1066 -1.9635
 2634SOL    HW219362   2.958   2.839   5.726  0.5897 -0.3384  0.3385
 2635SOL     OW19363   4.469   1.500   2.653  0.4369  0.3122 -0.4165
 2635SOL    HW119364   4.423   1.516   2.735  0.9696  0.1833 -0.0919
 2635SOL    HW219365   4.461   1.406   2.663 -1.6284  0.5296 -0.1259
 2636SOL     OW19366   0.689   4.201   3.704  0.8742 -0.0070  0.3946
 2636SOL    HW119367   0.604   4.182   3.664  0.6357  0.4587  0.6912
 2636SOL    HW219368   0.679   4.132   3.769 -0.6257  0.3990  0.5822
 2637SOL     OW19369   1.671   0.103  13.703  0.5164 -0.1065  0.3854
 2637SOL    HW119370   1.613   0.167  13.745  0.6138  1.0218 -1.2003
 2637SOL    HW219371   1.603   0.057  13.653  0.6722 -0.3284  0.3775
 2638SOL     OW19372   3.773   1.668   8.636 -0.0175 -0.3977  0.0980
 2638SOL    HW119373   3.832   1.731   8.676 -0.6535 -0.0440  0.4840
 2638SOL    HW219374   3.689   1.701   8.668  0.5161 -0.0234  1.0938
 2639SOL     OW19375   1.245   4.201   3.514 -0.1103  0.1614 -0.1332
 2639SOL    HW119376   1.197   4.173   3.437  1.6241  0.1828 -1.2164
 2639SOL    HW219377   1.177   4.244   3.567  0.0637 -2.4545  2.1950
 2640SOL     OW19378   2.103   4.504   6.393 -0.1985 -0.3178 -1.1892
 2640SOL    HW119379   2.022   4.465   6.361 -0.4264 -0.0101 -0.9904
 2640SOL    HW219380   2.140   4.430   6.441 -0.7421  0.5253  0.5400
 2641SOL     OW19381   0.756   3.367  12.693  0.0556  0.1924 -0.0587
 2641SOL    HW119382   0.672   3.356  12.736 -1.7399 -1.1257 -3.8253
 2641SOL    HW219383   0.808   3.399  12.766 -0.0389  0.0749  0.0597
 2642SOL     OW19384   4.719   2.443   2.532  0.2820 -0.5191  0.2995
 2642SOL    HW119385   4.634   2.460   2.492 -0.1968 -1.9409  0.7202
 2642SOL    HW219386   0.026   2.534   2.527 -0.9859 -0.1814 -1.1022
 2643SOL     OW19387   3.572   1.046   6.390 -0.1588  0.2759 -0.1014
 2643SOL    HW119388   3.603   1.093   6.312  1.3330 -2.2932 -1.0334
 2643SOL    HW219389   3.557   0.960   6.351  1.8112 -0.7438  1.4486
 2644SOL     OW19390   2.129   3.237   4.539 -0.1283 -0.1334  0.1348
 2644SOL    HW119391   2.052   3.214   4.486 -0.1266  1.8098 -0.7108
 2644SOL    HW219392   2.126   3.329   4.512  0.8011 -0.5134 -1.2826
 2645SOL     OW19393   1.604   2.401   2.248 -0.1495 -0.2531  0.0056
 2645SOL    HW119394   1.664   2.469   2.278 -0.1807  0.0235 -0.5580
 2645SOL    HW219395   1.563   2.430   2.166 -1.8548  2.6952  1.9085
 2646SOL     OW19396   3.145   4.477   5.849  0.2733  0.0684 -0.0259
 2646SOL    HW119397   3.238   4.481   5.872  0.6119 -1.8756 -0.9837
 2646SOL    HW219398   3.104   4.511   5.928  1.7327  1.5484  0.0892
 2647SOL     OW19399   3.333   1.228  14.727  0.3362 -0.5011  0.1335
 2647SOL    HW119400   3.241   1.235  14.701  0.4443 -0.3749 -0.2074
 2647SOL    HW219401   3.371   1.290  14.665  0.5394 -0.5695  0.1911
 2648SOL     OW19402   4.207   3.274   8.424 -0.0448  0.0343  0.6534
 2648SOL    HW119403   4.214   3.224   8.505 -3.0993 -0.2863  0.7267
 2648SOL    HW219404   4.133   3.330   8.445  0.5385  1.5426 -1.2782
 2649SOL     OW19405   3.601   3.309   4.069 -0.6877  0.1352  0.0679
 2649SOL    HW119406   3.569   3.257   4.143  0.9063 -0.4173  0.3797
 2649SOL    HW219407   3.526   3.368   4.076 -0.6705  0.0082  1.4122
 2650SOL     OW19408   1.640   1.401  17.673 -0.5447 -0.4179  0.3285
 2650SOL    HW119409   1.735   1.397  17.657 -0.6266 -2.0432  0.2073
 2650SOL    HW219410   1.642   1.357   0.065 -0.7506  1.3960  1.2500
 2651SOL     OW19411   3.959   1.242  10.235  0.2652  0.2852 -0.2451
 2651SOL    HW119412   4.025   1.249  10.165  1.1836  0.9430  0.6914
 2651SOL    HW219413   4.012   1.275  10.307  0.4176 -1.6830  0.5438
 2652SOL     OW19414   0.285   0.245  16.796 -0.6927  0.0266  0.5046
 2652SOL    HW119415   0.192   0.224  16.791 -0.4798 -0.4332 -1.5121
 2652SOL    HW219416   0.308   0.202  16.878  0.3938 -0.4681 -0.0534
 2653SOL     OW19417   2.532   3.045   6.107  0.1136 -0.5686 -0.3682
 2653SOL    HW119418   2.600   2.996   6.152  0.1956 -0.8759 -0.8273
 2653SOL    HW219419   2.479   3.075   6.182 -0.0590 -2.2912  0.1998
 2654SOL     OW19420   4.223   1.869  10.952  0.2676  0.4167  0.1316
 2654SOL    HW119421   4.302   1.817  10.966 -0.4210 -0.1835  1.7796
 2654SOL    HW219422   4.259   1.945  10.906  0.1887 -0.1344 -0.8603
 2655SOL     OW19423   1.494   4.697  13.544  0.5062 -0.0579  0.1029
 2655SOL    HW119424   1.408   0.017  13.542 -0.9449 -3.0372 -1.0343
 2655SOL    HW219425   1.515   4.705  13.451  0.6226 -1.4123  0.0140
 2656SOL     OW19426   2.898   4.463   1.615  0.4605 -0.0109 -0.0414
 2656SOL    HW119427   2.874   4.409   1.540 -0.0827 -1.0528  0.8789
 2656SOL    HW219428   2.912   4.390   1.675  1.4287  0.0843 -0.1595
 2657SOL     OW19429   3.571   2.999   1.255 -0.0456 -0.1701 -0.5249
 2657SOL    HW119430   3.641   3.032   1.312  0.0421 -0.0757 -0.6860
 2657SOL    HW219431   3.498   3.061   1.259  1.9475  2.3299 -2.6037
 2658SOL     OW19432   1.574   2.020   6.938 -0.5832 -0.1390  0.1622
 2658SOL    HW119433   1.659   2.052   6.970  0.3431 -1.3507 -1.0667
 2658SOL    HW219434   1.582   1.925   6.939  0.5070 -0.0486  0.7725
 2659SOL     OW19435   0.469   3.603   2.021  0.5318 -0.6674  0.3883
 2659SOL    HW119436   0.533   3.548   2.066  1.3338 -0.6448 -0.7221
 2659SOL    HW219437   0.537   3.664   1.990  0.8877 -0.9493  0.6166
 2660SOL     OW19438   4.623   0.536   2.089  0.3202 -0.3752 -0.0529
 2660SOL    HW119439   4.590   0.453   2.122  0.2604  0.3927  1.8121
 2660SOL    HW219440   4.646   0.513   1.999  1.7900  1.8381 -0.2525
 2661SOL     OW19441   2.675   3.188  12.608 -0.4886 -0.1751 -0.3032
 2661SOL    HW119442   2.617   3.124  12.566 -4.3835  1.8649  2.0438
 2661SOL    HW219443   2.635   3.268  12.574 -0.0961 -0.4716 -1.4639
 2662SOL     OW19444   3.458   0.541   7.350  0.7398 -0.5372  0.2728
 2662SOL    HW119445   3.499   0.476   7.292 -0.0971 -1.2980  0.5375
 2662SOL    HW219446   3.369   0.507   7.344 -0.2623  2.1889 -0.4691
 2663SOL     OW19447   1.947   3.736   4.997 -0.1032 -0.3773 -0.0856
 2663SOL    HW119448   2.012   3.749   5.067 -0.4186 -0.4856  0.2261
 2663SOL    HW219449   1.998   3.681   4.938 -1.4373 -0.4922 -1.1207
 2664SOL     OW19450   1.358   0.024   3.417  0.1843 -0.3233  0.4009
 2664SOL    HW119451   1.396   0.002   3.332 -1.2557  0.2901 -0.4140
 2664SOL    HW219452   1.438   0.049   3.463  0.0944 -0.0280  0.3980
 2665SOL     OW19453   1.047   4.084   8.220 -0.1881 -0.7062  0.2916
 2665SOL    HW119454   1.048   4.137   8.300  2.1700  0.2270 -0.3573
 2665SOL    HW219455   1.135   4.097   8.184 -0.7442 -1.7038 -1.4310
 2666SOL     OW19456   2.666   3.816   8.851 -0.2111  0.2488  0.0708
 2666SOL    HW119457   2.578   3.783   8.832  0.9101 -2.5464 -0.2437
 2666SOL    HW219458   2.683   3.783   8.939  0.7236  0.1305 -0.1600
 2667SOL     OW19459   2.185   2.642   6.953 -0.4722 -0.6432 -0.7644
 2667SOL    HW119460   2.248   2.671   7.019  0.1913  0.8196 -2.0462
 2667SOL    HW219461   2.212   2.679   6.869  0.8693 -2.3879 -1.1038
 2668SOL     OW19462   3.760   2.121   4.366 -0.1170 -0.7242  0.3209
 2668SOL    HW119463   3.750   2.037   4.322 -0.0131 -0.7061  0.2631
 2668SOL    HW219464   3.829   2.158   4.311 -1.4543  1.1508 -0.1209
 2669SOL     OW19465   0.485   1.862   5.157 -0.2255  0.2180  0.4572
 2669SOL    HW119466   0.547   1.860   5.084 -1.0899 -0.1584 -0.2688
 2669SOL    HW219467   0.496   1.953   5.184 -2.7033  0.0354  2.1588
 2670SOL     OW19468   2.768   3.435   0.587  0.0704  0.3060  0.0646
 2670SOL    HW119469   2.699   3.494   0.558  0.0849  0.3801  0.1802
 2670SOL    HW219470   2.771   3.468   0.677 -2.0898 -0.0154  0.2588
 2671SOL     OW19471   1.447   2.080   3.655  0.0911  0.1872 -0.2582
 2671SOL    HW119472   1.524   2.023   3.646 -0.0883  0.2962 -2.7392
 2671SOL    HW219473   1.388   2.028   3.600  1.8759 -2.4074  0.2699
 2672SOL     OW19474   0.806   3.654   5.524 -0.7464 -0.7508 -0.0986
 2672SOL    HW119475   0.724   3.635   5.571 -2.5372  2.1959 -2.0250
 2672SOL    HW219476   0.863   3.668   5.600  0.8541 -1.3270 -1.2049
 2673SOL     OW19477   0.643   4.070   5.624 -0.0061  0.0854  0.1174
 2673SOL    HW119478   0.643   4.018   5.704  1.8420  1.1649  0.8162
 2673SOL    HW219479   0.603   4.008   5.563 -0.9461  1.9019 -1.1025
 2674SOL     OW19480   3.255   0.342  14.726 -0.8328 -0.1488 -0.4325
 2674SOL    HW119481   3.348   0.321  14.715 -0.9013 -1.2571  1.1233
 2674SOL    HW219482   3.264   0.435  14.745 -0.5028  0.1564 -2.0394
 2675SOL     OW19483   4.184   1.701   4.253 -0.3113 -0.1122  0.5165
 2675SOL    HW119484   4.192   1.635   4.323 -1.1292 -0.0744  0.6410
 2675SOL    HW219485   4.213   1.657   4.173 -2.3804  1.6459 -1.1924
 2676SOL     OW19486   1.517   3.640  13.782  0.0735 -0.4216 -0.4554
 2676SOL    HW119487   1.603   3.681  13.785  0.1615 -0.4462 -2.3909
 2676SOL    HW219488   1.462   3.717  13.771  0.2071  0.0955  2.5057
 2677SOL     OW19489   2.538   2.748   5.220  0.0240 -0.5075  0.5283
 2677SOL    HW119490   2.476   2.732   5.149 -0.9262 -1.8493  1.6549
 2677SOL    HW219491   2.620   2.750   5.169 -1.1965  1.7615 -1.3199
 2678SOL     OW19492   3.996   3.272  17.243 -0.0805 -0.2903 -0.1566
 2678SOL    HW119493   4.009   3.314  17.327 -0.0395  0.6538 -0.6370
 2678SOL    HW219494   3.903   3.294  17.230 -0.0596 -0.4893 -0.6751
 2679SOL     OW19495   0.247   1.333  15.523  0.2711 -0.4712 -0.1890
 2679SOL    HW119496   0.322   1.387  15.498  0.1350 -0.7221 -1.1275
 2679SOL    HW219497   0.205   1.309  15.440 -1.2873  0.1772  0.4122
 2680SOL     OW19498   1.925   4.512   2.768  0.3786  0.1059  0.2758
 2680SOL    HW119499   1.877   4.579   2.719  1.1377  0.6223  0.2462
 2680SOL    HW219500   1.857   4.488   2.830 -0.0165  0.8850  0.1429
 2681SOL     OW19501   0.945   0.589  13.376 -0.3466 -0.3726  0.6371
 2681SOL    HW119502   0.970   0.612  13.286 -1.1624 -0.2022  0.4523
 2681SOL    HW219503   0.982   0.667  13.416 -4.1690  1.8371 -0.1280
 2682SOL     OW19504   2.521   3.204   3.387 -0.1806  0.7856  0.0158
 2682SOL    HW119505   2.616   3.211   3.400 -0.3839 -0.3885  2.1014
 2682SOL    HW219506   2.488   3.200   3.476  0.1124  0.4158  0.1068
 2683SOL     OW19507   0.846   0.665   6.039  0.1672 -0.0279  0.1667
 2683SOL    HW119508   0.938   0.674   6.063  0.4365 -0.5792 -0.6570
 2683SOL    HW219509   0.812   0.717   6.113 -0.4767  0.4744 -0.4818
 2684SOL     OW19510   1.300   3.350   4.961  0.1566  0.4173  0.2575
 2684SOL    HW119511   1.299   3.413   5.033 -0.0723  0.2605  0.3893
 2684SOL    HW219512   1.390   3.318   4.948  0.8206  2.6635 -0.5825
 2685SOL     OW19513   3.250   0.135   8.474 -0.1905 -0.2757  0.4040
 2685SOL    HW119514   3.238   0.214   8.528 -1.9325 -0.7220  0.6442
 2685SOL    HW219515   3.179   0.150   8.412 -0.8414  2.6546  1.8440
 2686SOL     OW19516   3.550   3.583   7.516  0.2325  0.0891 -0.5836
 2686SOL    HW119517   3.603   3.506   7.492 -0.3589 -1.1569  2.0669
 2686SOL    HW219518   3.549   3.571   7.611  1.1439  1.4514 -0.4213
 2687SOL     OW19519   4.719   0.078  13.562 -0.0771  0.1724  0.3175
 2687SOL    HW119520   4.624   0.069  13.554 -0.1973  1.6989  0.0957
 2687SOL    HW219521   0.021   0.066  13.470  0.0554  1.4462  0.1870
 2688SOL     OW19522   0.685   3.091   3.495 -0.5023 -0.0981  0.2530
 2688SOL    HW119523   0.694   3.004   3.455  0.6513 -0.3204  1.0090
 2688SOL    HW219524   0.589   3.093   3.502 -0.5267 -1.2512  0.3155
 2689SOL     OW19525   2.209   4.619   7.351  0.1242  0.1911 -0.0936
 2689SOL    HW119526   2.282   4.662   7.307  1.2250 -2.4087 -0.8286
 2689SOL    HW219527   2.166   4.690   7.399 -2.4046 -0.3875 -1.5227
 2690SOL     OW19528   0.953   3.851  11.694  0.1051  0.0602 -0.1022
 2690SOL    HW119529   0.959   3.793  11.618  2.2890  1.9646 -1.3891
 2690SOL    HW219530   0.861   3.877  11.697  0.2585  0.8637 -2.2710
 2691SOL     OW19531   4.512   3.661   2.866  0.3714 -0.4777 -0.5810
 2691SOL    HW119532   4.454   3.592   2.833 -0.1045 -0.1656 -0.3987
 2691SOL    HW219533   4.444   3.722   2.892 -0.1863 -1.2474 -0.2258
 2692SOL     OW19534   2.575   3.471   6.671  0.4654  0.3633 -0.9812
 2692SOL    HW119535   2.491   3.482   6.716  2.4554  1.1865  2.4831
 2692SOL    HW219536   2.593   3.379   6.693  0.7097  0.8843  0.9815
 2693SOL     OW19537   3.132   0.634  11.744 -0.4378  0.1231  0.0312
 2693SOL    HW119538   3.178   0.716  11.725  2.2724 -0.8059  2.6995
 2693SOL    HW219539   3.148   0.581  11.665 -1.8718  1.5229 -1.2001
 2694SOL     OW19540   0.958   0.878  14.711 -0.0911 -0.6804 -0.0613
 2694SOL    HW119541   0.990   0.833  14.633 -1.0853 -0.6219 -0.5124
 2694SOL    HW219542   1.014   0.843  14.780 -0.2273 -0.8317 -0.0276
 2695SOL     OW19543   2.607   3.982  15.477 -0.0076 -0.2014 -0.4039
 2695SOL    HW119544   2.672   3.922  15.440  1.0181  1.3828 -1.1653
 2695SOL    HW219545   2.544   3.984  15.405  0.1300 -1.8172 -0.5685
 2696SOL     OW19546   2.016   2.168   2.203 -0.0400 -0.0503 -0.1438
 2696SOL    HW119547   1.961   2.119   2.264  0.7141 -1.6691 -0.7643
 2696SOL    HW219548   1.997   2.253   2.244 -0.8294  0.9109 -2.5015
 2697SOL     OW19549   3.755   3.815   2.042  0.3316  0.1439 -0.1894
 2697SOL    HW119550   3.812   3.875   2.090  2.3775 -3.1670  1.5242
 2697SOL    HW219551   3.672   3.862   2.042 -1.1673 -2.4993 -2.4659
 2698SOL     OW19552   1.794   0.698   6.722 -0.2775  0.1743  0.3927
 2698SOL    HW119553   1.814   0.747   6.642  0.9775  0.2072  0.7298
 2698SOL    HW219554   1.837   0.761   6.780  0.6173 -1.0540  1.0511
 2699SOL     OW19555   2.491   4.031   1.635 -0.0692  0.1233  0.6070
 2699SOL    HW119556   2.457   3.960   1.690  0.3507  1.0437  2.0551
 2699SOL    HW219557   2.583   4.007   1.624 -0.2377 -0.9371  1.4675
 2700SOL     OW19558   0.118   3.355   7.515 -0.6742  0.4235  0.0975
 2700SOL    HW119559   0.211   3.374   7.527 -0.8817  1.0112  0.7741
 2700SOL    HW219560   0.097   3.347   7.608 -0.9202  0.1382  0.0165
 2701SOL     OW19561   0.132   1.725   2.499 -0.1619  0.1719  0.0352
 2701SOL    HW119562   0.046   1.743   2.536  0.4880  2.2235  0.5634
 2701SOL    HW219563   0.183   1.719   2.580 -0.3629 -1.6732  0.0278
 2702SOL     OW19564   0.321   3.930   1.154  0.3058  0.1592  0.6126
 2702SOL    HW119565   0.326   3.996   1.223  1.8725 -0.5479  1.1739
 2702SOL    HW219566   0.317   3.979   1.072  0.8513 -0.6837  0.0747
 2703SOL     OW19567   2.331   0.775   9.931 -0.1457  0.0669  0.0114
 2703SOL    HW119568   2.400   0.767   9.996 -0.4188 -0.1552  0.2753
 2703SOL    HW219569   2.389   0.803   9.860  1.5500  2.5915  2.3724
 2704SOL     OW19570   3.304   3.865  13.937  0.1844 -0.0554  0.1888
 2704SOL    HW119571   3.283   3.779  13.975  0.9991  0.6595  2.2609
 2704SOL    HW219572   3.360   3.892  14.010  1.4897  2.6623 -1.8268
 2705SOL     OW19573   0.262   3.604   7.270  0.2552 -0.2437 -0.5244
 2705SOL    HW119574   0.190   3.662   7.294  1.2720  0.0702  1.8590
 2705SOL    HW219575   0.275   3.560   7.354  0.3837  0.0574 -0.3846
 2706SOL     OW19576   1.731   3.548  15.214 -0.2278 -0.2705 -0.0842
 2706SOL    HW119577   1.671   3.556  15.140  1.3752 -4.5003 -1.8201
 2706SOL    HW219578   1.682   3.491  15.273 -3.6819  2.4291 -0.3605
 2707SOL     OW19579   2.001   3.735   2.400 -0.0401  0.4742 -0.0053
 2707SOL    HW119580   2.065   3.752   2.469 -0.1771 -0.8563  0.4405
 2707SOL    HW219581   1.977   3.825   2.379 -3.4795 -0.5894 -0.6195
 2708SOL     OW19582   4.149   4.676  11.187  0.0782 -0.6017  0.3580
 2708SOL    HW119583   4.079   4.704  11.245 -0.9946 -0.6410 -0.9336
 2708SOL    HW219584   4.216   4.655  11.252  1.0941  0.3622 -0.3728
 2709SOL     OW19585   1.423   3.350   8.825 -0.3429  0.0116 -0.6535
 2709SOL    HW119586   1.333   3.347   8.859 -0.2264  0.3236 -0.3193
 2709SOL    HW219587   1.432   3.441   8.853 -2.3216  0.0927 -0.2525
 2710SOL     OW19588   3.026   0.397   8.080  0.3838 -0.4564  0.3709
 2710SOL    HW119589   2.949   0.370   8.030  0.1783 -0.0791  0.4946
 2710SOL    HW219590   3.038   0.486   8.049 -0.2005 -0.2639  0.7082
 2711SOL     OW19591   0.973   1.967   1.843 -0.2472 -0.4072 -0.0931
 2711SOL    HW119592   0.884   1.935   1.826 -1.0039  2.9796 -2.6411
 2711SOL    HW219593   0.988   2.034   1.776  2.7563 -0.4498  0.5569
 2712SOL     OW19594   2.027   1.182   4.689  0.1384  0.1726  0.2914
 2712SOL    HW119595   2.085   1.144   4.755  0.3632 -0.9224 -0.5181
 2712SOL    HW219596   2.083   1.182   4.611 -1.2445  1.3208 -0.7128
 2713SOL     OW19597   4.197   1.449  17.147 -0.4179 -0.0650  0.3795
 2713SOL    HW119598   4.253   1.432  17.072 -1.8107 -2.4522 -0.0895
 2713SOL    HW219599   4.190   1.544  17.138  2.9816  0.1189 -0.0912
 2714SOL     OW19600   3.233   1.303   8.764 -1.3426  0.3040 -0.3531
 2714SOL    HW119601   3.168   1.282   8.831 -1.7367  1.1729 -0.4596
 2714SOL    HW219602   3.181   1.292   8.684  0.6132 -2.2454 -1.2736
 2715SOL     OW19603   0.135   1.661   7.482  0.4737  0.1223  0.2833
 2715SOL    HW119604   0.052   1.707   7.490  1.0211  1.3851 -1.3485
 2715SOL    HW219605   0.194   1.736   7.476  0.5228  0.2032  1.8015
 2716SOL     OW19606   4.645   4.041   2.694  0.0340 -0.2858  0.0755
 2716SOL    HW119607   4.699   4.116   2.719  2.2701 -1.3110 -1.6978
 2716SOL    HW219608   4.618   4.008   2.780  0.6357 -3.2642 -0.8925
 2717SOL     OW19609   4.427   0.620   2.983  0.0489 -0.2910  0.1226
 2717SOL    HW119610   4.370   0.612   2.906 -0.5690  0.6477  0.4812
 2717SOL    HW219611   4.515   0.609   2.947  1.0415  2.1658  1.8772
 2718SOL     OW19612   0.704   2.477  12.044 -0.0178 -0.8119 -0.0592
 2718SOL    HW119613   0.652   2.521  11.977 -1.2646 -1.3042  0.5824
 2718SOL    HW219614   0.690   2.385  12.021 -0.9854  0.4543 -4.4587
 2719SOL     OW19615   2.895   3.435  10.772  0.6180  0.4040 -0.3919
 2719SOL    HW119616   2.911   3.385  10.852  2.2805  2.1603  0.3828
 2719SOL    HW219617   2.940   3.387  10.702  1.5813 -0.8890  1.1183
 2720SOL     OW19618   1.361   4.063   8.531 -0.0018 -0.4345  0.9279
 2720SOL    HW119619   1.416   4.065   8.610 -0.0777 -0.8940  0.9916
 2720SOL    HW219620   1.403   3.991   8.483  0.3943  0.8627 -0.6775
 2721SOL     OW19621   4.608   1.483   3.731 -0.1249 -0.0930 -0.2168
 2721SOL    HW119622   4.571   1.523   3.653 -0.7766 -1.2303 -0.4817
 2721SOL    HW219623   4.624   1.398   3.689 -2.2756 -0.5740 -0.0440
 2722SOL     OW19624   1.957   4.610  14.684 -0.1048  0.5272 -0.3474
 2722SOL    HW119625   2.028   4.549  14.663 -2.1640 -1.6305 -0.9974
 2722SOL    HW219626   1.969   4.683  14.623  1.0231  0.7748  0.1692
 2723SOL     OW19627   0.676   1.382  17.150 -0.0378  0.1688 -0.2519
 2723SOL    HW119628   0.752   1.434  17.124  0.2276  0.3478  0.8863
 2723SOL    HW219629   0.733   1.327  17.203 -0.1900 -0.9375 -1.2269
 2724SOL     OW19630   2.771   0.286   4.993 -0.4361 -0.3426 -0.2423
 2724SOL    HW119631   2.697   0.260   5.048 -0.0962 -3.2279 -1.1740
 2724SOL    HW219632   2.810   0.342   5.061 -1.1847 -0.1937  0.0664
 2725SOL     OW19633   3.165   1.203   4.596  0.2021  0.0302  0.5057
 2725SOL    HW119634   3.110   1.234   4.524  1.1526 -1.3493 -0.8196
 2725SOL    HW219635   3.243   1.247   4.563 -0.2217 -0.7681 -1.5831
 2726SOL     OW19636   0.134   4.557  13.075 -0.1037 -0.0297 -0.1073
 2726SOL    HW119637   0.096   4.573  13.161 -0.5576  0.5982 -0.4276
 2726SOL    HW219638   0.227   4.575  13.085 -0.0938 -0.2186  0.1286
 2727SOL     OW19639   0.251   2.520   1.868  0.2375  0.2964  0.2385
 2727SOL    HW119640   0.311   2.459   1.910  0.1047  0.0995  0.1408
 2727SOL    HW219641   0.200   2.550   1.944 -2.2780  0.0058 -1.3147
 2728SOL     OW19642   0.457   0.475  13.330 -0.4296 -0.2532  0.0536
 2728SOL    HW119643   0.537   0.526  13.343 -0.1326 -0.5470 -0.5769
 2728SOL    HW219644   0.419   0.469  13.417  0.0607 -2.1437  0.1548
 2729SOL     OW19645   1.789   2.875  13.123 -0.1682  0.0845 -0.0159
 2729SOL    HW119646   1.866   2.932  13.125  0.0436 -0.3014  2.5941
 2729SOL    HW219647   1.742   2.897  13.203 -2.5874 -0.8753 -1.1819
 2730SOL     OW19648   3.774   2.431  13.090  0.1117 -0.0926 -0.4987
 2730SOL    HW119649   3.733   2.357  13.135  0.3807  0.2526  0.2954
 2730SOL    HW219650   3.771   2.496  13.159  1.5476  0.0531 -0.5679
 2731SOL     OW19651   2.086   4.369   7.349  0.1337 -0.0359 -0.0547
 2731SOL    HW119652   2.133   4.303   7.398  0.4998 -0.8435 -1.4843
 2731SOL    HW219653   2.133   4.452   7.354 -0.4141  0.3399 -0.9233
 2732SOL     OW19654   4.346   0.690  13.148  0.3984  0.0798  0.3289
 2732SOL    HW119655   4.395   0.620  13.191 -1.5641 -0.6797  1.3619
 2732SOL    HW219656   4.260   0.654  13.169  0.6314 -0.6554  0.0199
 2733SOL     OW19657   0.349   3.185   0.607  0.3985  0.2063  0.6824
 2733SOL    HW119658   0.415   3.125   0.573 -0.5560 -0.4553 -0.0110
 2733SOL    HW219659   0.326   3.229   0.526  4.8723 -0.2616 -0.8546
 2734SOL     OW19660   1.359   3.104   2.913 -0.2692 -0.3745 -0.0552
 2734SOL    HW119661   1.400   3.162   2.977 -0.2357 -0.3981 -0.0554
 2734SOL    HW219662   1.273   3.145   2.903 -1.4929 -2.3705  2.2349
 2735SOL     OW19663   4.177   0.825   6.143  0.0297 -0.0811 -0.0702
 2735SOL    HW119664   4.088   0.861   6.149 -0.3956 -1.1604  0.1296
 2735SOL    HW219665   4.210   0.857   6.059 -1.4423  1.8976  0.1139
 2736SOL     OW19666   1.986   1.679   5.701 -0.2395  0.2317 -0.1379
 2736SOL    HW119667   1.948   1.767   5.698  0.2383  0.5334  2.4682
 2736SOL    HW219668   1.923   1.628   5.751  1.6932  0.2227  2.3036
 2737SOL     OW19669   3.888   1.262   6.480  0.1582 -0.6099 -0.2624
 2737SOL    HW119670   3.806   1.284   6.524  0.7117  0.5397  0.1936
 2737SOL    HW219671   3.928   1.209   6.549 -1.4901  0.8130  1.7979
 2738SOL     OW19672   3.675   1.045   9.231 -0.5144 -0.4545 -0.3618
 2738SOL    HW119673   3.686   1.074   9.140 -2.4373  2.7941  0.4143
 2738SOL    HW219674   3.634   0.960   9.217 -0.0011 -0.5510 -1.2369
 2739SOL     OW19675   0.230   2.523   7.025 -0.2310 -0.1929  0.0724
 2739SOL    HW119676   0.178   2.480   7.093  1.3242  1.4228  2.3106
 2739SOL    HW219677   0.273   2.595   7.072 -0.2548 -1.1240  1.5042
 2740SOL     OW19678   0.062   2.682  15.490  0.0932  0.1644 -0.0244
 2740SOL    HW119679   0.136   2.658  15.435  0.0283  0.1712 -0.1135
 2740SOL    HW219680   0.001   2.709  15.422  0.6919  0.9423 -0.2380
 2741SOL     OW19681   0.052   3.958   6.235 -0.0345 -0.0248  0.2055
 2741SOL    HW119682   0.116   4.007   6.183  0.6570 -0.9545  0.1813
 2741SOL    HW219683   4.695   4.010   6.229  0.2741  0.3418 -0.6870
 2742SOL     OW19684   3.595   1.863   6.227  0.0213  0.4830 -0.5684
 2742SOL    HW119685   3.555   1.809   6.296  1.2129 -0.1487 -0.3661
 2742SOL    HW219686   3.525   1.920   6.195 -1.5692 -0.4722  1.1738
 2743SOL     OW19687   2.329   3.734  11.810 -0.4844 -0.2662  0.3506
 2743SOL    HW119688   2.374   3.668  11.757 -0.9285  0.7371 -1.2923
 2743SOL    HW219689   2.343   3.814  11.759  0.9161 -1.5103 -1.2236
 2744SOL     OW19690   1.483   1.518  11.659  0.1724  0.3193 -0.4327
 2744SOL    HW119691   1.578   1.514  11.666  0.1827  0.4308 -0.5061
 2744SOL    HW219692   1.470   1.577  11.584  0.4990 -1.1398 -1.6489
 2745SOL     OW19693   0.218   1.946   9.071 -0.1319  0.2425 -0.1804
 2745SOL    HW119694   0.127   1.970   9.054 -0.4358 -0.6221  0.2101
 2745SOL    HW219695   0.268   2.025   9.052  2.7838 -1.6151 -0.2883
 2746SOL     OW19696   0.591   2.077   4.733 -0.3004 -0.6553 -0.2957
 2746SOL    HW119697   0.558   2.124   4.810  1.7150 -1.7789  1.2569
 2746SOL    HW219698   0.557   2.131   4.662 -2.6564 -1.2436  0.3819
 2747SOL     OW19699   0.969   0.803  13.564 -0.0615  0.3965  0.4980
 2747SOL    HW119700   0.952   0.832  13.653  0.3187 -1.7795  1.2879
 2747SOL    HW219701   1.031   0.871  13.538 -2.5291  2.7924  0.8326
 2748SOL     OW19702   0.877   0.007  16.105  0.4470  0.1393  0.7651
 2748SOL    HW119703   0.859   4.712  16.013 -5.2992  1.3843  1.6390
 2748SOL    HW219704   0.884   0.102  16.092  0.3593 -0.0664 -0.8058
 2749SOL     OW19705   1.431   4.149   5.493 -0.2060 -0.5061  0.1793
 2749SOL    HW119706   1.362   4.212   5.470  1.1237  0.7971 -0.2477
 2749SOL    HW219707   1.483   4.212   5.542  0.2797  1.0770 -2.3564
 2750SOL     OW19708   3.336   0.953   9.397 -0.2929  0.2227 -0.5195
 2750SOL    HW119709   3.329   1.048   9.395 -2.3795  0.0647 -0.1605
 2750SOL    HW219710   3.249   0.930   9.365 -0.5022  1.4659 -0.8550
 2751SOL     OW19711   0.143   0.663   3.815  0.1001  0.6015 -0.3592
 2751SOL    HW119712   0.236   0.652   3.796 -0.2385 -0.6259 -1.3395
 2751SOL    HW219713   0.116   0.587   3.867 -0.2040  0.2384 -1.0520
 2752SOL     OW19714   0.498   0.703  15.988 -0.6436 -0.6623 -0.5364
 2752SOL    HW119715   0.405   0.716  16.004  0.2356  0.2157  3.7787
 2752SOL    HW219716   0.503   0.614  15.952 -0.3422 -0.1153 -1.8715
 2753SOL     OW19717   3.866   4.384   3.712 -0.1400 -0.2882  0.1627
 2753SOL    HW119718   3.916   4.348   3.639  0.5368 -2.6117  1.7689
 2753SOL    HW219719   3.931   4.388   3.783  0.2523 -0.3116 -0.1957
 2754SOL     OW19720   2.394   3.820   9.860 -0.3879  0.2734  0.1181
 2754SOL    HW119721   2.323   3.757   9.854 -0.4932  0.3924  0.1257
 2754SOL    HW219722   2.461   3.760   9.826 -1.0408  0.4281 -1.4053
 2755SOL     OW19723   2.566   2.661   3.574 -0.0187  0.0453  0.3300
 2755SOL    HW119724   2.561   2.756   3.558 -0.6923 -0.1708 -0.6788
 2755SOL    HW219725   2.655   2.636   3.551  0.0774 -2.4855  3.4130
 2756SOL     OW19726   1.820   3.385   5.702 -0.2302  0.7671  0.2298
 2756SOL    HW119727   1.841   3.421   5.788  0.5544  1.5080 -0.2775
 2756SOL    HW219728   1.902   3.345   5.676 -2.5292 -3.2563 -0.8953
 2757SOL     OW19729   1.669   0.382  17.038 -0.3492 -0.9015  0.3601
 2757SOL    HW119730   1.692   0.412  16.950  0.4649  0.7486  1.1271
 2757SOL    HW219731   1.665   0.463  17.090 -1.9297  0.3649 -1.7494
 2758SOL     OW19732   3.992   4.568   0.924  0.2094 -0.3139  0.9282
 2758SOL    HW119733   3.992   4.494   0.985 -0.8474 -1.0602  0.0122
 2758SOL    HW219734   3.916   4.610   0.964 -0.4125 -2.1067  1.6695
 2759SOL     OW19735   0.145   4.452   9.104 -0.1198 -0.1198 -0.1983
 2759SOL    HW119736   0.228   4.495   9.085  0.4697 -0.9642  0.4664
 2759SOL    HW219737   0.162   4.402   9.183  1.5679 -1.3043 -1.3078
 2760SOL     OW19738   0.225   2.159   2.287  0.1654  0.6699 -0.3985
 2760SOL    HW119739   0.271   2.123   2.212  2.0629  1.0077  0.6083
 2760SOL    HW219740   0.156   2.092   2.290  0.8914 -0.0367  0.6116
 2761SOL     OW19741   0.278   3.834   7.953  0.2205  0.2742  0.6230
 2761SOL    HW119742   0.308   3.840   8.044  0.3724 -0.6788  0.6396
 2761SOL    HW219743   0.223   3.756   7.961  0.2549  0.2577  0.6962
 2762SOL     OW19744   3.116   0.081  16.021  0.0583 -0.4173 -0.4078
 2762SOL    HW119745   3.148   0.023  15.952  2.8602  0.5563  0.0938
 2762SOL    HW219746   3.186   0.145  16.032  0.4990 -0.9480 -0.0610
 2763SOL     OW19747   4.617   1.078   1.987 -0.5296 -0.0639 -0.0566
 2763SOL    HW119748   4.604   1.077   1.892 -1.5389  1.2893  0.0689
 2763SOL    HW219749   4.549   1.022   2.024  0.3710 -1.2492 -0.2075
 2764SOL     OW19750   1.360   0.800   0.820  0.4947  1.0249  0.1009
 2764SOL    HW119751   1.339   0.768   0.907 -1.0340 -0.6356 -0.8813
 2764SOL    HW219752   1.296   0.871   0.813 -1.5539 -0.6559  2.0537
 2765SOL     OW19753   4.721   3.769   0.755 -0.4868 -0.2644 -0.4869
 2765SOL    HW119754   0.039   3.721   0.828 -1.3941  1.3684  1.0916
 2765SOL    HW219755   0.073   3.771   0.695  1.3036 -0.6247  1.7403
 2766SOL     OW19756   1.682   2.544   0.134  0.1659  0.2747 -0.1160
 2766SOL    HW119757   1.658   2.527   0.225 -0.4538  1.0094 -0.1430
 2766SOL    HW219758   1.775   2.563   0.145  0.1353  1.9069 -2.5727
 2767SOL     OW19759   1.384   4.440   4.192  0.1866 -0.3790 -0.1687
 2767SOL    HW119760   1.344   4.355   4.212  1.0423 -0.7259  0.0928
 2767SOL    HW219761   1.353   4.489   4.268 -0.8862 -2.1258  0.5423
 2768SOL     OW19762   3.245   4.624   9.256 -0.1380  0.2896 -0.2671
 2768SOL    HW119763   3.318   4.675   9.219  0.2535  0.6187  0.9732
 2768SOL    HW219764   3.226   4.665   9.340  0.7026 -0.7300  0.4223
 2769SOL     OW19765   0.552   2.181  12.040 -0.2209  0.3967  0.2073
 2769SOL    HW119766   0.488   2.220  11.980  0.6060 -0.6812 -1.3620
 2769SOL    HW219767   0.499   2.163  12.117  0.8566 -0.7710  0.6612
 2770SOL     OW19768   2.586   4.311  13.268 -0.0822 -0.0413  0.4730
 2770SOL    HW119769   2.522   4.248  13.302 -0.2837  0.4016  0.9039
 2770SOL    HW219770   2.651   4.257  13.222 -0.4063 -0.0358 -0.0002
 2771SOL     OW19771   2.324   3.862   2.021 -0.0244 -0.6505  0.6077
 2771SOL    HW119772   2.228   3.859   2.017 -0.0840 -1.0744  2.4994
 2771SOL    HW219773   2.343   3.827   1.934 -2.2538  0.2165 -0.2191
 2772SOL     OW19774   3.286   0.466   1.924 -0.6765  0.6808  0.8398
 2772SOL    HW119775   3.192   0.478   1.935 -0.6722  1.1367  0.3569
 2772SOL    HW219776   3.311   0.548   1.882 -0.3362 -0.5837 -1.4616
 2773SOL     OW19777   2.604   3.460   6.356  0.8670 -0.1500 -0.4271
 2773SOL    HW119778   2.697   3.474   6.335  1.4295 -1.7597  0.9557
 2773SOL    HW219779   2.597   3.518   6.433  1.7208 -0.9474  0.2526
 2774SOL     OW19780   2.088   4.511   3.035 -0.0405 -0.2489 -0.3375
 2774SOL    HW119781   2.037   4.483   2.959  0.5123  1.6857 -1.4129
 2774SOL    HW219782   2.128   4.587   2.992  2.8027 -1.7585 -0.3784
 2775SOL     OW19783   3.232   1.586   2.237 -0.6402  0.1944 -0.2393
 2775SOL    HW119784   3.309   1.630   2.202 -0.5511 -0.5280 -0.9427
 2775SOL    HW219785   3.190   1.571   2.152 -1.2785 -1.3264  0.3481
 2776SOL     OW19786   3.294   2.150   2.137  0.5331 -0.1766 -0.0858
 2776SOL    HW119787   3.239   2.206   2.191 -0.5619  0.2122 -1.5995
 2776SOL    HW219788   3.384   2.184   2.138  0.1878  0.6896  1.7901
 2777SOL     OW19789   1.019   0.381   3.588 -0.4513 -0.4599  0.1162
 2777SOL    HW119790   0.987   0.470   3.579 -0.3313 -0.4305 -0.0101
 2777SOL    HW219791   1.105   0.389   3.547 -0.2109 -2.8181  0.1660
 2778SOL     OW19792   4.499   1.754   5.829 -0.0485 -0.7467  0.4323
 2778SOL    HW119793   4.492   1.837   5.783  1.3565 -1.1195 -0.4635
 2778SOL    HW219794   4.438   1.697   5.782 -0.6800  0.4662 -0.2286
 2779SOL     OW19795   0.724   4.541   8.492 -0.2039 -0.0655  0.2920
 2779SOL    HW119796   0.695   4.588   8.570 -1.6493  1.5082 -1.1913
 2779SOL    HW219797   0.817   4.548   8.515 -0.3630 -1.2559  1.2471
 2780SOL     OW19798   0.025   2.323  11.560 -0.6259 -0.1280  0.0389
 2780SOL    HW119799   0.007   2.378  11.636  1.9478  0.6735  0.0908
 2780SOL    HW219800   0.033   2.234  11.595 -2.5022 -0.6880 -0.9537
 2781SOL     OW19801   1.053   3.612   6.434  0.1046 -0.4891 -0.2754
 2781SOL    HW119802   1.036   3.533   6.384 -0.4041  1.7289 -3.5987
 2781SOL    HW219803   1.039   3.687   6.376  1.1261 -0.8624 -0.9889
 2782SOL     OW19804   3.922   2.265   2.292  0.7822  0.3358  0.6425
 2782SOL    HW119805   3.939   2.292   2.202 -3.8432 -0.8327 -0.5792
 2782SOL    HW219806   3.836   2.307   2.292  0.7568  0.2934 -0.6747
 2783SOL     OW19807   2.686   1.686   6.422 -0.0616  0.2556 -0.4318
 2783SOL    HW119808   2.708   1.690   6.329  0.9972 -2.4003 -0.3018
 2783SOL    HW219809   2.684   1.591   6.434 -0.0885  0.1183 -1.5397
 2784SOL     OW19810   1.688   4.564   9.692  0.0874 -0.3974 -0.2097
 2784SOL    HW119811   1.671   4.644   9.642 -0.6727 -0.8364 -0.6616
 2784SOL    HW219812   1.648   4.585   9.777  2.7502 -0.2655  1.0129
 2785SOL     OW19813   4.484   3.525   1.472  0.1672 -0.0055  0.2018
 2785SOL    HW119814   4.402   3.482   1.500 -0.6037  1.5922  0.3742
 2785SOL    HW219815   4.527   3.453   1.425 -2.9888 -0.6115 -1.7705
 2786SOL     OW19816   2.533   2.941   7.219  0.2978 -0.2377  0.0486
 2786SOL    HW119817   2.582   2.999   7.161 -0.3778  1.3349  1.0396
 2786SOL    HW219818   2.459   2.992   7.253 -0.0920 -0.0961 -1.0065
 2787SOL     OW19819   1.573   4.316   8.003 -0.0470 -0.1143 -0.1780
 2787SOL    HW119820   1.569   4.348   8.093 -0.1138 -0.1970 -0.1503
 2787SOL    HW219821   1.639   4.247   8.001  1.7474  1.6237  0.4070
 2788SOL     OW19822   1.213   3.117   1.439  0.5256 -0.0445 -0.2812
 2788SOL    HW119823   1.213   3.148   1.349 -1.4030 -1.1741 -0.6783
 2788SOL    HW219824   1.123   3.121   1.473  1.0465  0.1394  1.1087
 2789SOL     OW19825   3.744   2.133   8.303  0.1765 -0.3335  0.3876
 2789SOL    HW119826   3.704   2.049   8.280 -0.1412  0.3428 -1.5636
 2789SOL    HW219827   3.766   2.164   8.215 -0.3884  2.3078  1.1755
 2790SOL     OW19828   3.590   0.056   8.792  0.9491  0.0548  0.6169
 2790SOL    HW119829   3.583   0.064   8.696  0.9599 -0.6836  0.5523
 2790SOL    HW219830   3.685   0.052   8.796  0.8943 -2.0102  0.1729
 2791SOL     OW19831   4.027   3.470   1.798 -0.2724  0.5667  0.2367
 2791SOL    HW119832   4.088   3.540   1.820 -1.3486  2.0130 -1.3541
 2791SOL    HW219833   3.964   3.475   1.870  0.8237 -1.4605  1.3414
 2792SOL     OW19834   2.260   1.841   3.147 -0.2121 -0.2103 -0.3428
 2792SOL    HW119835   2.344   1.801   3.125  1.1811  1.4369  2.0045
 2792SOL    HW219836   2.267   1.914   3.086  0.0463 -0.1604 -0.2546
 2793SOL     OW19837   0.438   3.390  12.458 -0.0060  1.0420  0.3297
 2793SOL    HW119838   0.384   3.416  12.383  0.7301 -2.6678 -1.4698
 2793SOL    HW219839   0.434   3.295  12.462  1.4827  0.9429 -0.7315
 2794SOL     OW19840   1.935   2.065   1.581 -0.3818 -0.4346  0.8311
 2794SOL    HW119841   1.979   1.989   1.542 -1.9940 -0.6925 -0.4661
 2794SOL    HW219842   1.860   2.059   1.522  0.8055 -0.2364 -0.7316
 2795SOL     OW19843   3.261   2.913   5.774  0.1006 -0.3806  0.4350
 2795SOL    HW119844   3.326   2.875   5.833 -0.9458 -1.1898  1.0502
 2795SOL    HW219845   3.179   2.872   5.801  0.0405 -1.1264 -0.8703
 2796SOL     OW19846   4.637   0.684   5.122  0.3381  0.0788  0.0662
 2796SOL    HW119847   4.555   0.716   5.084 -0.6437 -0.9372  1.3830
 2796SOL    HW219848   4.706   0.726   5.069 -0.7503 -2.1973 -3.1678
 2797SOL     OW19849   0.129   4.419   6.993 -0.7967  0.2320  0.2999
 2797SOL    HW119850   0.048   4.368   6.997 -0.1354 -0.9067 -0.8941
 2797SOL    HW219851   0.168   4.392   7.076 -1.1403  1.2789  0.8128
 2798SOL     OW19852   4.616   4.051  14.182  0.1397  0.1218 -0.0021
 2798SOL    HW119853   4.620   4.138  14.141 -0.8641  0.3463  0.3805
 2798SOL    HW219854   4.710   4.050  14.198 -0.0703  0.5409  1.2262
 2799SOL     OW19855   1.705   2.993   6.101  0.2997 -0.1678  0.7581
 2799SOL    HW119856   1.677   2.997   6.192  1.9241 -5.0674  1.4784
 2799SOL    HW219857   1.664   3.073   6.069  0.4334  0.2286  1.5820
 2800SOL     OW19858   0.580   0.407   4.163 -0.2552 -0.5511  0.0532
 2800SOL    HW119859   0.583   0.430   4.256 -0.1024  1.1449 -0.3752
 2800SOL    HW219860   0.641   0.333   4.165 -0.2619 -0.4928  2.4127
 2801SOL     OW19861   3.720   1.976  10.418  0.0572 -0.6208  0.1103
 2801SOL    HW119862   3.755   2.065  10.407  0.7019 -0.6086  2.1073
 2801SOL    HW219863   3.648   1.987  10.356 -1.6167  1.2341  2.3668
 2802SOL     OW19864   0.603   0.320  16.029 -0.5408 -0.4869 -0.2265
 2802SOL    HW119865   0.535   0.285  16.087 -0.5208 -0.4783 -0.1974
 2802SOL    HW219866   0.561   0.376  15.964 -0.6830  1.1937  1.3162
 2803SOL     OW19867   2.736   2.144  11.188 -0.1141 -0.7227  0.3813
 2803SOL    HW119868   2.656   2.187  11.219 -0.3728 -1.1252  0.2700
 2803SOL    HW219869   2.787   2.176  11.262 -2.2548 -0.8611  1.9026
 2804SOL     OW19870   0.425   1.288   8.967 -0.0412  0.8387  0.1156
 2804SOL    HW119871   0.330   1.302   8.956 -0.2500 -0.4260  0.3691
 2804SOL    HW219872   0.457   1.349   8.901 -3.1641  0.7352 -1.5087
 2805SOL     OW19873   1.977   4.329  12.398  0.0535  0.3874 -0.4085
 2805SOL    HW119874   2.024   4.396  12.348 -1.1287  2.0804  0.7607
 2805SOL    HW219875   2.038   4.316  12.470  2.2218  0.5511 -2.2294
 2806SOL     OW19876   3.033   3.069   2.051 -0.0090  0.1240  0.0022
 2806SOL    HW119877   3.035   2.998   2.116 -1.9227 -0.0781 -0.1532
 2806SOL    HW219878   3.120   3.107   2.041  0.2646 -0.7671 -1.0143
 2807SOL     OW19879   2.258   0.215  12.777 -0.6870 -0.5825  0.3561
 2807SOL    HW119880   2.349   0.188  12.789 -0.3688  0.6284  0.6789
 2807SOL    HW219881   2.227   0.150  12.840  0.0946 -0.8123  0.5114
 2808SOL     OW19882   2.029   2.698  14.059 -0.1751 -0.4252 -0.6328
 2808SOL    HW119883   1.991   2.697  13.971 -0.9089 -0.2965 -0.3166
 2808SOL    HW219884   1.947   2.688  14.109 -0.5001  0.0327 -1.0730
 2809SOL     OW19885   2.147   1.263   6.611 -0.2581 -0.3308 -0.1016
 2809SOL    HW119886   2.066   1.244   6.564 -0.2867  0.0710 -0.2140
 2809SOL    HW219887   2.214   1.267   6.543  1.1270  1.0113  1.3382
 2810SOL     OW19888   2.070   3.987  12.058 -0.0076 -0.3669  0.2192
 2810SOL    HW119889   2.013   4.037  12.116 -2.4009 -0.7221 -1.8311
 2810SOL    HW219890   2.123   3.943  12.125  1.5578  2.4215  0.8017
 2811SOL     OW19891   0.695   2.439  15.071 -0.3168 -0.5004  0.5382
 2811SOL    HW119892   0.734   2.351  15.074  2.7698  0.9588  2.8558
 2811SOL    HW219893   0.607   2.419  15.038 -0.2789 -1.9237  1.3016
 2812SOL     OW19894   1.709   1.412   7.924 -0.0032 -0.2377  0.2153
 2812SOL    HW119895   1.775   1.355   7.963  0.6785  0.3372 -0.0922
 2812SOL    HW219896   1.760   1.463   7.862  0.2119  0.9772  1.3935
 2813SOL     OW19897   3.395   2.344   4.990  0.2115 -0.0509  0.0583
 2813SOL    HW119898   3.347   2.418   4.954  0.2516  0.9158  1.9529
 2813SOL    HW219899   3.433   2.305   4.912  0.7035 -1.6823  1.1081
 2814SOL     OW19900   2.956   0.887   4.032  0.0556 -0.2064  0.0862
 2814SOL    HW119901   2.963   0.916   4.123 -1.2721 -0.6894  0.3374
 2814SOL    HW219902   3.026   0.933   3.985 -1.7864  0.1802 -2.2606
 2815SOL     OW19903   2.121   2.227   8.914  0.1391  0.2880 -0.7451
 2815SOL    HW119904   2.077   2.312   8.919 -0.2064 -0.0460  1.8165
 2815SOL    HW219905   2.098   2.205   8.824 -2.5642  0.2485 -0.0667
 2816SOL     OW19906   4.353   1.008   3.740  0.6731  0.0290  0.4092
 2816SOL    HW119907   4.293   1.015   3.815  0.5228  2.7695  0.0488
 2816SOL    HW219908   4.434   1.002   3.790  0.6729 -1.6477  0.2110
 2817SOL     OW19909   1.444   3.983   3.923 -0.1760  0.0980  0.1292
 2817SOL    HW119910   1.351   3.962   3.924 -0.3117  0.6546 -0.7988
 2817SOL    HW219911   1.481   3.908   3.878 -2.3839  1.0592 -3.2946
 2818SOL     OW19912   4.487   3.667  15.485  0.6000 -0.6861 -0.1329
 2818SOL    HW119913   4.572   3.694  15.449  0.3961  0.1529  0.0128
 2818SOL    HW219914   4.437   3.748  15.478  1.5925 -0.2889 -2.8047
 2819SOL     OW19915   4.166   3.554   4.751  0.1542 -0.4794  0.7751
 2819SOL    HW119916   4.215   3.623   4.795 -0.9192 -0.4828  1.9638
 2819SOL    HW219917   4.211   3.557   4.666  0.1981 -1.9781  0.7396
 2820SOL     OW19918   2.703   1.971  16.091 -0.0164 -0.1373  0.3489
 2820SOL    HW119919   2.775   1.940  16.145 -0.3709 -0.2073  0.7779
 2820SOL    HW219920   2.716   2.066  16.081 -1.6061  0.2306  1.7167
 2821SOL     OW19921   1.612   3.766   1.996  0.1518 -0.5563 -0.2612
 2821SOL    HW119922   1.604   3.838   1.934 -1.2703 -1.0948 -0.7211
 2821SOL    HW219923   1.611   3.815   2.078  1.0907 -0.9797  0.0022
 2822SOL     OW19924   0.022   3.134   3.646  0.4177 -0.1180  0.2977
 2822SOL    HW119925   0.047   3.041   3.648 -0.6080 -0.4704 -2.7183
 2822SOL    HW219926   4.661   3.126   3.692  0.0910 -1.2281 -0.4820
 2823SOL     OW19927   4.648   3.995  16.520  0.3366  0.2240 -0.2144
 2823SOL    HW119928   4.613   3.914  16.484  0.9412 -0.3686  0.5576
 2823SOL    HW219929   4.590   4.056  16.474 -0.0767 -0.3298 -0.4158
 2824SOL     OW19930   0.185   4.156  12.931  0.5047 -0.0244  0.3908
 2824SOL    HW119931   0.154   4.158  13.022 -1.9150  0.9991 -0.4743
 2824SOL    HW219932   0.141   4.236  12.906 -1.4905 -0.5280  2.2935
 2825SOL     OW19933   3.658   4.697  10.017 -0.0362  0.2139  0.1896
 2825SOL    HW119934   3.660   4.648  10.099 -1.9995 -1.6485 -0.9000
 2825SOL    HW219935   3.745   4.675   9.983 -0.1001 -1.2060  0.9649
 2826SOL     OW19936   1.447   4.279   6.076  0.2019  0.0811 -0.7091
 2826SOL    HW119937   1.469   4.284   6.169 -2.0495 -0.7364 -0.1372
 2826SOL    HW219938   1.530   4.249   6.039  0.1984  0.8107 -1.3110
 2827SOL     OW19939   3.947   3.352   4.316  0.0409 -0.0642 -0.1509
 2827SOL    HW119940   3.926   3.425   4.373  0.6036 -0.8332  1.0506
 2827SOL    HW219941   3.941   3.393   4.230 -0.5488  0.1331 -0.0089
 2828SOL     OW19942   3.777   1.563   5.118  0.0483  0.5396 -0.4784
 2828SOL    HW119943   3.771   1.601   5.206 -0.4506 -1.0581  0.1867
 2828SOL    HW219944   3.871   1.552   5.107  0.2208  2.3112 -0.7505
 2829SOL     OW19945   1.397   1.556   7.844  0.1485 -0.2906 -0.3786
 2829SOL    HW119946   1.346   1.507   7.910 -2.4954  2.4703 -0.3593
 2829SOL    HW219947   1.455   1.604   7.903  1.9038 -0.3142 -2.0822
 2830SOL     OW19948   0.065   2.590   1.381  0.3980 -0.1320  0.3267
 2830SOL    HW119949   0.087   2.582   1.474  0.4112 -1.4776  0.2113
 2830SOL    HW219950   0.138   2.640   1.344  1.0923 -0.6867  0.9314
 2831SOL     OW19951   4.186   3.023   7.388 -0.0103 -0.1069 -0.2571
 2831SOL    HW119952   4.119   2.955   7.389 -0.8356  0.7339  0.7311
 2831SOL    HW219953   4.139   3.099   7.354  0.5426 -0.2294 -1.3130
 2832SOL     OW19954   2.268   3.643   2.455  0.0905  0.1888  0.3085
 2832SOL    HW119955   2.271   3.547   2.446  0.6420  0.2926 -0.5735
 2832SOL    HW219956   2.263   3.671   2.364 -3.7394 -0.1844  0.3853
 2833SOL     OW19957   4.004   3.039  11.056  0.2774 -0.0222 -0.7502
 2833SOL    HW119958   4.068   2.984  11.012  1.7700  0.7795  0.3994
 2833SOL    HW219959   4.024   3.053  11.148  0.3788  0.2142 -0.8061
 2834SOL     OW19960   1.264   1.783   4.274 -0.2602  0.4516  0.0686
 2834SOL    HW119961   1.261   1.688   4.280  0.5822  0.2607 -2.7186
 2834SOL    HW219962   1.338   1.802   4.332  0.7992  1.2628 -1.5627
 2835SOL     OW19963   0.847   0.934   8.986  0.0004 -0.0873  0.1054
 2835SOL    HW119964   0.901   1.007   9.015 -0.1269  0.0735 -0.0648
 2835SOL    HW219965   0.883   0.912   8.900 -1.1006 -1.5180  0.0189
 2836SOL     OW19966   4.198   1.923   4.985  0.7606 -0.4310  0.1344
 2836SOL    HW119967   4.219   1.880   4.902  1.0344  0.4758 -0.2585
 2836SOL    HW219968   4.255   1.999   4.990  1.8166 -1.2352  0.4751
 2837SOL     OW19969   1.790   1.311   9.035 -0.2537  0.5986  0.4120
 2837SOL    HW119970   1.857   1.251   9.066 -0.3622 -0.6815 -1.8219
 2837SOL    HW219971   1.841   1.353   8.965 -0.8925  1.0165  0.1960
 2838SOL     OW19972   1.729   4.574  10.383  0.2023  0.3527 -0.0297
 2838SOL    HW119973   1.656   4.513  10.379 -0.4230  1.1035 -0.1179
 2838SOL    HW219974   1.759   4.539  10.466 -0.0241 -2.9969 -1.3852
 2839SOL     OW19975   0.945   2.560   9.800  0.1979 -0.2542  0.1375
 2839SOL    HW119976   0.863   2.610   9.798 -0.7185 -1.7816  0.1782
 2839SOL    HW219977   0.925   2.485   9.744 -0.7320 -0.5206  0.8368
 2840SOL     OW19978   3.964   3.708   7.093 -0.3446 -0.6070 -0.3325
 2840SOL    HW119979   4.045   3.747   7.127 -2.3061  0.3671  3.1846
 2840SOL    HW219980   3.988   3.615   7.092  2.4616  0.1073 -1.1881
 2841SOL     OW19981   2.143   3.568   1.281 -0.3257  0.5048  0.1078
 2841SOL    HW119982   2.128   3.602   1.193  0.6245 -0.3294 -0.3745
 2841SOL    HW219983   2.169   3.644   1.333  1.7175  0.1043 -0.3685
 2842SOL     OW19984   3.782   0.026  15.808  0.2838  0.0843 -0.2212
 2842SOL    HW119985   3.782   0.023  15.903 -1.3245 -1.1971 -0.2566
 2842SOL    HW219986   3.764   0.118  15.790 -0.8332 -0.1439 -0.2561
 2843SOL     OW19987   0.117   1.580   0.723  0.5933 -0.3420 -0.4418
 2843SOL    HW119988   0.194   1.535   0.758  0.1090 -0.0730  0.9855
 2843SOL    HW219989   0.149   1.653   0.670  1.3426 -0.3485 -0.0129
 2844SOL     OW19990   1.711   1.638  11.232  0.1720  0.4522  0.4393
 2844SOL    HW119991   1.620   1.610  11.238  0.1601  0.3557 -0.2323
 2844SOL    HW219992   1.707   1.725  11.190  0.2575  0.4560  0.4400
 2845SOL     OW19993   0.155   0.317   0.893  0.8329  0.4782  0.0528
 2845SOL    HW119994   0.073   0.278   0.923  1.1409 -0.1338  0.1044
 2845SOL    HW219995   0.197   0.251   0.838  0.6638  2.8238 -2.8535
 2846SOL     OW19996   0.633   0.098   7.644 -0.1370  0.0635 -0.5114
 2846SOL    HW119997   0.549   0.064   7.612 -0.1923  0.2301 -0.5412
 2846SOL    HW219998   0.667   0.010   7.664  0.2936  0.2945 -0.2378
 2847SOL     OW19999   0.261   1.779  13.574  0.1449 -0.3654  0.0205
 2847SOL    HW120000   0.175   1.762  13.535  0.5344 -0.5742 -0.7402
 2847SOL    HW220001   0.232   1.838  13.644  1.3562  0.4391 -0.1710
 2848SOL     OW20002   4.378   3.608   7.199 -0.4890 -0.2345 -0.5733
 2848SOL    HW120003   4.454   3.656   7.232 -0.1267 -1.4248  0.3592
 2848SOL    HW220004   4.399   3.517   7.222  3.8388  0.6787 -1.0556
 2849SOL     OW20005   1.707   1.232  15.033 -0.8424 -0.2868 -0.1273
 2849SOL    HW120006   1.666   1.291  14.970  2.2757  0.4752 -1.4311
 2849SOL    HW220007   1.791   1.213  14.991 -0.3128  0.3980  0.6253
 2850SOL     OW20008   0.640   2.692  16.130 -0.3289  0.9167 -0.8120
 2850SOL    HW120009   0.612   2.779  16.101 -1.0428  1.4778  1.5379
 2850SOL    HW220010   0.734   2.695  16.115  0.2141 -1.8118  1.8859
 2851SOL     OW20011   0.645   1.002  16.776 -0.4079 -0.2438  0.7075
 2851SOL    HW120012   0.637   1.021  16.869  2.4082  1.5388  0.6007
 2851SOL    HW220013   0.668   0.909  16.779  1.6514  0.3524  2.8457
 2852SOL     OW20014   0.584   1.103   7.001  0.6439 -0.1396 -0.1898
 2852SOL    HW120015   0.617   1.085   6.913 -2.1047 -0.7771 -1.0948
 2852SOL    HW220016   0.572   1.198   6.991 -3.2144 -0.5822  0.2371
 2853SOL     OW20017   3.375   2.816   7.384 -0.4114  0.0553  0.4824
 2853SOL    HW120018   3.336   2.842   7.301  0.8232  3.5595  1.0091
 2853SOL    HW220019   3.301   2.775   7.429 -0.9570  2.3181  1.6359
 2854SOL     OW20020   4.116   1.650  10.300 -0.1265  0.1464  0.0290
 2854SOL    HW120021   4.154   1.586  10.360  0.8028 -0.0151 -0.7303
 2854SOL    HW220022   4.054   1.689  10.362 -1.6951  0.0650 -1.4846
 2855SOL     OW20023   4.542   1.595   3.114 -0.4206  0.0436  0.1676
 2855SOL    HW120024   4.596   1.674   3.107  1.6600 -1.3118  1.1583
 2855SOL    HW220025   4.600   1.531   3.074 -0.0332  1.0481 -0.8719
 2856SOL     OW20026   4.199   3.501   3.718 -0.3116  0.2335 -0.2505
 2856SOL    HW120027   4.247   3.442   3.776  0.6801 -0.3246 -1.6353
 2856SOL    HW220028   4.252   3.483   3.641  1.9462  1.4069  1.0241
 2857SOL     OW20029   2.693   1.087  11.544 -0.3361 -0.1618 -0.1623
 2857SOL    HW120030   2.718   1.081  11.637 -1.5134 -1.7176  0.0414
 2857SOL    HW220031   2.729   1.174  11.524  0.5294 -0.6702 -0.8281
 2858SOL     OW20032   0.122   3.017   1.774 -1.0117 -0.0510 -0.1237
 2858SOL    HW120033   0.087   3.105   1.759 -0.0652  0.2071 -0.8269
 2858SOL    HW220034   0.044   2.969   1.803 -0.5336 -1.5102 -1.2635
 2859SOL     OW20035   1.008   2.733  13.818  0.2875 -0.2538  0.3315
 2859SOL    HW120036   0.982   2.807  13.762  2.0906  0.4378  0.4008
 2859SOL    HW220037   1.019   2.671  13.746 -0.4334 -0.9844  0.8582
 2860SOL     OW20038   2.939   2.630  17.555  0.3144 -0.3551 -0.1232
 2860SOL    HW120039   2.961   2.705  17.500  0.2748  2.0964  3.2555
 2860SOL    HW220040   2.847   2.643  17.532  0.3414  1.1431  0.6391
 2861SOL     OW20041   4.130   3.186   5.230 -0.1644  0.0433 -0.0206
 2861SOL    HW120042   4.046   3.189   5.185  0.6091 -0.5054 -1.5012
 2861SOL    HW220043   4.126   3.271   5.273  1.8631  1.3569 -2.4043
 2862SOL     OW20044   0.080   1.614   4.872 -0.5478 -0.2465  0.2368
 2862SOL    HW120045   0.136   1.599   4.948 -0.1180  2.3753  0.4392
 2862SOL    HW220046   0.149   1.611   4.806  1.0969 -1.1281  1.9985
 2863SOL     OW20047   3.204   0.183   8.932  0.2565  0.5565 -0.2835
 2863SOL    HW120048   3.195   0.214   9.022 -1.1205 -1.8634  0.4209
 2863SOL    HW220049   3.268   0.242   8.894  0.0270  0.6693 -0.4924
 2864SOL     OW20050   3.809   2.314   0.550  0.0200 -0.1800 -0.3950
 2864SOL    HW120051   3.741   2.263   0.505  2.4759 -3.1784 -0.7291
 2864SOL    HW220052   3.828   2.386   0.490 -0.9283  0.8028  0.4660
 2865SOL     OW20053   0.276   0.383  16.273  0.1513  0.3001 -0.1838
 2865SOL    HW120054   0.359   0.409  16.314  0.1916 -0.1109 -0.0079
 2865SOL    HW220055   0.308   0.344  16.192  0.1231  2.6816 -1.3543
 2866SOL     OW20056   4.553   3.401   6.960  0.4303  0.9932 -0.1561
 2866SOL    HW120057   4.525   3.319   6.920 -0.1481  1.4834 -0.7592
 2866SOL    HW220058   4.629   3.366   7.006  0.0097  2.8749  1.9784
 2867SOL     OW20059   1.165   4.439   2.130  0.1276 -0.5601 -0.4597
 2867SOL    HW120060   1.194   4.350   2.150 -0.0847 -0.2361  1.3357
 2867SOL    HW220061   1.103   4.418   2.061 -0.8562 -2.1103  0.8911
 2868SOL     OW20062   0.943   0.047   4.337  0.1362 -0.1391 -0.5640
 2868SOL    HW120063   1.027   0.062   4.382 -0.1294 -0.2963 -0.0121
 2868SOL    HW220064   0.972   0.046   4.246  2.6741  0.6092  0.2098
 2869SOL     OW20065   3.450   3.738   9.812  0.1982 -0.1140  0.0149
 2869SOL    HW120066   3.500   3.770   9.737  2.5869 -3.6064  0.1079
 2869SOL    HW220067   3.507   3.667   9.844 -0.1917 -0.1576  0.6180
 2870SOL     OW20068   3.716   1.351   8.587 -0.1397  0.5230  0.2137
 2870SOL    HW120069   3.674   1.385   8.666  0.4666 -1.6822  1.4634
 2870SOL    HW220070   3.798   1.402   8.585  0.6729 -0.8244 -0.5175
 2871SOL     OW20071   0.309   4.438   6.796 -0.0187  0.2391  0.6699
 2871SOL    HW120072   0.250   4.429   6.871  0.7780  1.1312  1.3948
 2871SOL    HW220073   0.307   4.533   6.794  1.0420  0.2654  0.7559
 2872SOL     OW20074   1.244   0.332   5.860 -0.1497 -0.0729 -0.7935
 2872SOL    HW120075   1.220   0.281   5.782 -2.5163  0.9445 -0.7360
 2872SOL    HW220076   1.161   0.336   5.908  0.9327 -2.4113  1.2802
 2873SOL     OW20077   3.681   2.493  12.019 -0.3442  0.4765  0.0225
 2873SOL    HW120078   3.655   2.463  12.107 -0.5567  2.7741  0.7257
 2873SOL    HW220079   3.764   2.445  12.008 -1.1506 -1.4449  2.2253
 2874SOL     OW20080   2.411   3.194  12.876  0.3893  0.1471  0.4606
 2874SOL    HW120081   2.411   3.253  12.951 -0.0734  1.1199 -0.3084
 2874SOL    HW220082   2.377   3.245  12.802  0.3770  0.9644  1.0295
 2875SOL     OW20083   0.259   0.843  16.367 -0.4459 -0.2882  0.5449
 2875SOL    HW120084   0.200   0.903  16.413  2.0788  1.8253  1.0323
 2875SOL    HW220085   0.202   0.781  16.321 -0.6773  2.1396 -2.4615
 2876SOL     OW20086   2.971   3.436   5.810 -0.3589  0.5380 -0.0162
 2876SOL    HW120087   2.930   3.476   5.887  1.1546 -2.4038  2.2954
 2876SOL    HW220088   3.060   3.472   5.815 -0.6550  1.4408 -1.1311
 2877SOL     OW20089   3.817   4.601   5.083 -0.1374  0.0076 -0.3610
 2877SOL    HW120090   3.735   4.625   5.125  0.6178 -1.1359  1.7916
 2877SOL    HW220091   3.789   4.530   5.024  1.9061 -1.4485  0.4038
 2878SOL     OW20092   2.245   3.726  14.735 -0.4452 -0.3881  0.3288
 2878SOL    HW120093   2.170   3.755  14.684  0.2551 -0.1306 -0.5650
 2878SOL    HW220094   2.232   3.632  14.723  0.9243 -0.5132 -0.1698
 2879SOL     OW20095   4.412   3.468  10.264 -0.4369  0.6668  0.1054
 2879SOL    HW120096   4.401   3.439  10.355  0.7411  1.9085  0.6536
 2879SOL    HW220097   4.502   3.498  10.276 -0.3074  1.1965 -2.2824
 2880SOL     OW20098   3.955   1.218  13.696  0.2493  0.8052  0.0527
 2880SOL    HW120099   4.004   1.154  13.748  2.3130  2.0019 -0.3994
 2880SOL    HW220100   3.911   1.170  13.626 -0.8846 -0.8969  1.9439
 2881SOL     OW20101   1.860   4.120   8.632 -0.3428 -0.4540  0.1114
 2881SOL    HW120102   1.816   4.095   8.713 -3.3245 -0.7298 -1.6146
 2881SOL    HW220103   1.896   4.207   8.648  0.2373 -0.7348  0.3203
 2882SOL     OW20104   1.415   1.679   5.054  0.0225  0.2957 -0.1931
 2882SOL    HW120105   1.458   1.595   5.068  2.2688  1.5163  0.1464
 2882SOL    HW220106   1.364   1.670   4.974  0.9780 -1.2072 -0.6290
 2883SOL     OW20107   0.220   3.633   8.363  0.2372  0.4964  0.1660
 2883SOL    HW120108   0.232   3.572   8.291  1.5886 -1.0970  1.7197
 2883SOL    HW220109   0.195   3.715   8.320  1.3662 -0.0110 -1.4478
 2884SOL     OW20110   0.364   0.261   6.336  0.1721 -0.3761  0.0812
 2884SOL    HW120111   0.354   0.246   6.242 -0.0269  2.3980 -0.3534
 2884SOL    HW220112   0.433   0.327   6.335  1.7432 -2.0215  0.5990
 2885SOL     OW20113   4.317   4.008   4.738  0.2656 -0.0982  0.4070
 2885SOL    HW120114   4.283   3.926   4.774  1.7102 -1.5112 -1.4370
 2885SOL    HW220115   4.391   4.025   4.796  0.0612  2.3084 -0.0543
 2886SOL     OW20116   1.231   3.863   4.048  0.1571 -0.2630  0.5385
 2886SOL    HW120117   1.160   3.801   4.034 -1.9104  2.2859 -0.2079
 2886SOL    HW220118   1.193   3.950   4.060  1.6046  0.5047 -0.4104
 2887SOL     OW20119   1.867   4.298   9.751 -0.3498  1.0661 -0.5275
 2887SOL    HW120120   1.861   4.305   9.846  1.2559 -1.6401 -0.2268
 2887SOL    HW220121   1.934   4.231   9.739  0.6971  1.6597  1.9023
 2888SOL     OW20122   1.412   3.639  16.661 -0.2028 -0.6655 -0.3486
 2888SOL    HW120123   1.390   3.732  16.667  0.1616 -0.5489 -0.8067
 2888SOL    HW220124   1.338   3.609  16.607  0.1089 -0.2675 -0.9943
 2889SOL     OW20125   0.377   4.038   0.235 -0.0087 -0.4659  0.3852
 2889SOL    HW120126   0.447   4.091   0.198 -1.3376  0.9814 -0.0748
 2889SOL    HW220127   0.301   4.086   0.202 -0.1865 -0.4057  0.8806
 2890SOL     OW20128   1.165   0.552   3.987  0.5212 -0.0322  0.1871
 2890SOL    HW120129   1.235   0.586   4.042  0.1528  1.6079 -0.3443
 2890SOL    HW220130   1.191   0.460   3.980 -2.6541 -0.8436 -1.2092
 2891SOL     OW20131   4.068   4.122   1.954  0.3847 -0.1385  0.1248
 2891SOL    HW120132   4.056   4.149   2.045 -3.8977 -0.1661 -0.3901
 2891SOL    HW220133   4.138   4.058   1.953 -0.0355 -0.6273  2.0733
 2892SOL     OW20134   2.850   1.049   3.771  0.3327 -0.1964  0.6814
 2892SOL    HW120135   2.937   1.035   3.808  1.4410  0.5429 -1.6140
 2892SOL    HW220136   2.833   0.964   3.732 -0.0887  0.1804  0.0417
 2893SOL     OW20137   4.199   3.438   3.394  0.1119 -0.2547 -0.4025
 2893SOL    HW120138   4.183   3.520   3.347  2.4689  1.0510  1.0338
 2893SOL    HW220139   4.147   3.379   3.340  0.1774 -0.1814 -0.5451
 2894SOL     OW20140   1.384   4.022  14.942  0.0573  0.1254  0.4944
 2894SOL    HW120141   1.339   3.942  14.972 -0.3433  1.1509  2.6595
 2894SOL    HW220142   1.309   4.079  14.929 -0.6199 -0.6997  0.7466
 2895SOL     OW20143   1.128   3.129  14.726  0.0226  0.3360  0.0424
 2895SOL    HW120144   1.133   3.131  14.822  2.3082  0.7261 -0.0773
 2895SOL    HW220145   1.152   3.038  14.712  2.1531  1.0548 -0.8659
 2896SOL     OW20146   1.817   3.361   3.483  0.6677 -0.6086  0.5628
 2896SOL    HW120147   1.766   3.441   3.493 -2.6055 -2.3933 -1.4210
 2896SOL    HW220148   1.801   3.342   3.390  0.0964 -0.0871  0.5571
 2897SOL     OW20149   0.522   4.026   7.436  0.2119  0.1080 -0.4609
 2897SOL    HW120150   0.606   4.032   7.482 -0.3504  2.0871  0.2885
 2897SOL    HW220151   0.553   4.038   7.346 -1.3372 -2.1142 -1.2956
 2898SOL     OW20152   0.110   3.298   1.497  0.0823  0.1725 -0.1216
 2898SOL    HW120153   0.108   3.213   1.453  3.1002  0.0091  0.0122
 2898SOL    HW220154   0.041   3.340   1.446 -0.3309 -0.7536 -0.3340
 2899SOL     OW20155   0.878   4.406   4.687  0.0571  0.4138  0.6876
 2899SOL    HW120156   0.972   4.412   4.700  0.3176  1.6183 -1.7040
 2899SOL    HW220157   0.862   4.316   4.715 -2.6929  0.8205  0.4352
 2900SOL     OW20158   0.919   2.933  15.027  0.0451  0.3225  0.5955
 2900SOL    HW120159   0.848   2.903  14.969  0.1844 -0.6705  0.9371
 2900SOL    HW220160   0.932   2.859  15.086  0.3743 -0.2544 -0.2030
 2901SOL     OW20161   0.441   0.887   7.731  0.1640  1.1210  0.1424
 2901SOL    HW120162   0.371   0.951   7.723 -0.6570  0.3203  0.9717
 2901SOL    HW220163   0.485   0.897   7.646 -0.6643  2.1843 -0.1647
 2902SOL     OW20164   4.056   2.716   1.302  0.1671  0.7998  0.7116
 2902SOL    HW120165   3.970   2.679   1.320  0.5084  0.6352  2.0629
 2902SOL    HW220166   4.053   2.727   1.207 -2.5912  0.3332  0.7382
 2903SOL     OW20167   2.726   0.958   4.834  0.2074 -0.1241 -0.2751
 2903SOL    HW120168   2.723   0.870   4.797 -0.7081 -0.6985  1.1525
 2903SOL    HW220169   2.768   1.010   4.766 -0.3416  0.8996  0.1764
 2904SOL     OW20170   2.593   0.046   4.883  0.1121 -0.6013  0.8444
 2904SOL    HW120171   2.605   0.089   4.968  0.5464 -0.5963  0.7831
 2904SOL    HW220172   2.503   0.075   4.869  0.1049  0.2833  2.6493
 2905SOL     OW20173   2.888   2.088  12.879  0.4254  0.4725 -0.2228
 2905SOL    HW120174   2.923   2.168  12.841  2.3006 -0.3011 -0.0927
 2905SOL    HW220175   2.900   2.105  12.972 -0.0264 -1.7509  0.2397
 2906SOL     OW20176   3.909   3.860  17.679 -0.0686  0.6358  0.1535
 2906SOL    HW120177   3.918   3.910   0.067  0.9843  0.2403  0.2727
 2906SOL    HW220178   3.827   3.819   0.013  0.2072  1.8050  2.7753
 2907SOL     OW20179   2.666   3.001   4.260  0.0486 -0.4318  0.2063
 2907SOL    HW120180   2.611   3.017   4.184  1.6431 -0.5806 -0.9682
 2907SOL    HW220181   2.640   3.062   4.329 -0.4918 -2.4645  1.8274
 2908SOL     OW20182   4.021   1.309  12.540  0.3395  0.3733  0.2924
 2908SOL    HW120183   3.937   1.330  12.581 -0.1601 -0.4286 -0.3211
 2908SOL    HW220184   4.078   1.289  12.614  0.8275 -1.2176 -0.5016
 2909SOL     OW20185   1.004   0.315   7.452  0.4453  0.1335 -0.3322
 2909SOL    HW120186   1.023   0.388   7.393  0.1441  0.8784  0.4768
 2909SOL    HW220187   1.013   0.360   7.536  1.3299 -3.4781  1.5028
 2910SOL     OW20188   3.316   2.606  12.748  0.0896 -0.0235 -0.3285
 2910SOL    HW120189   3.392   2.595  12.805  1.6761  0.7886 -2.2716
 2910SOL    HW220190   3.249   2.629  12.813 -0.5357  1.7986 -1.6095
 2911SOL     OW20191   2.095   2.315   3.700  0.5414 -0.3103  0.2311
 2911SOL    HW120192   2.047   2.395   3.678 -0.4663 -0.1095  3.1709
 2911SOL    HW220193   2.184   2.346   3.680 -0.4515  2.3628  0.0065
 2912SOL     OW20194   1.058   2.426   6.771 -0.2135 -0.8334  0.4789
 2912SOL    HW120195   0.974   2.436   6.728 -0.3696 -1.9628  0.5239
 2912SOL    HW220196   1.077   2.333   6.761  0.9414 -0.4975 -0.4968
 2913SOL     OW20197   4.605   2.538  17.692  0.1277  0.2166 -0.1160
 2913SOL    HW120198   4.680   2.511  17.639  1.0483 -0.3998  1.5235
 2913SOL    HW220199   4.652   2.569   0.076 -0.5386 -0.2716  0.4867
 2914SOL     OW20200   2.847   3.440   7.246  0.1944  0.1978 -0.2294
 2914SOL    HW120201   2.855   3.361   7.193  0.7662 -0.5881  1.0257
 2914SOL    HW220202   2.910   3.502   7.210  0.0244  0.8626  0.6227
 2915SOL     OW20203   3.732   2.644   3.829  0.1292 -0.7095  0.2952
 2915SOL    HW120204   3.787   2.719   3.807  1.9740 -2.4481 -0.9527
 2915SOL    HW220205   3.689   2.635   3.745 -0.2573 -1.1397  0.5430
 2916SOL     OW20206   3.660   2.479   3.250  0.2766  0.2404 -0.0993
 2916SOL    HW120207   3.658   2.535   3.173 -0.2737  0.7066  0.2523
 2916SOL    HW220208   3.730   2.514   3.306 -1.1888  0.3397  1.6833
 2917SOL     OW20209   2.336   3.610  10.746 -0.6359  0.2378  0.1855
 2917SOL    HW120210   2.269   3.679  10.739 -0.0095  0.9615  1.3219
 2917SOL    HW220211   2.412   3.655  10.710 -2.4048  1.6407 -1.7702
 2918SOL     OW20212   0.526   3.964   3.306  0.1684 -0.2672  0.3491
 2918SOL    HW120213   0.596   3.999   3.360 -0.4245  0.4453  0.6670
 2918SOL    HW220214   0.495   4.040   3.256  4.0691 -0.2251 -1.9450
 2919SOL     OW20215   3.250   4.337   1.486 -0.1976 -0.1010  0.2876
 2919SOL    HW120216   3.247   4.415   1.542 -1.1047 -0.6544  1.0194
 2919SOL    HW220217   3.159   4.323   1.463 -0.3311  1.7010 -0.2659
 2920SOL     OW20218   3.819   2.451   9.209  0.4354  0.4202  0.0941
 2920SOL    HW120219   3.762   2.514   9.165 -0.7415 -0.9002 -0.2811
 2920SOL    HW220220   3.755   2.434   9.279  0.6329 -1.8340 -0.2794
 2921SOL     OW20221   4.012   3.364  14.218  0.5867  0.4127  0.1089
 2921SOL    HW120222   4.083   3.395  14.274  1.2802 -3.0392  1.1491
 2921SOL    HW220223   4.031   3.271  14.229 -0.1827  0.1674 -0.6372
 2922SOL     OW20224   2.665   0.045   9.903  0.0348  0.2738 -0.3437
 2922SOL    HW120225   2.570   0.036   9.894 -0.2800  0.6406  2.4818
 2922SOL    HW220226   2.683   4.695   9.963  1.4408  1.5634  0.8017
 2923SOL     OW20227   2.296   2.477  13.436 -0.3444  0.1069  0.1313
 2923SOL    HW120228   2.227   2.540  13.413 -0.5586 -0.6137 -1.1889
 2923SOL    HW220229   2.377   2.518  13.404 -1.0388 -0.2767 -2.1388
 2924SOL     OW20230   3.423   0.885  16.447 -0.4579  0.1556 -0.1752
 2924SOL    HW120231   3.422   0.803  16.496 -0.2752  1.3818  1.8580
 2924SOL    HW220232   3.335   0.880  16.410 -1.1276 -2.1594  1.7999
 2925SOL     OW20233   3.885   4.393   8.810  0.6093  0.1138  0.2336
 2925SOL    HW120234   3.811   4.395   8.871  1.7834 -1.0180  1.6769
 2925SOL    HW220235   3.830   4.399   8.732  0.3374 -4.6453  0.0831
 2926SOL     OW20236   0.614   3.573   6.663 -0.0079  0.1693 -0.4488
 2926SOL    HW120237   0.584   3.578   6.572  3.4105 -0.0835 -1.5932
 2926SOL    HW220238   0.591   3.487   6.697  2.5433  0.9476  3.1731
 2927SOL     OW20239   4.603   0.273   0.941  0.0067 -0.4734 -0.4455
 2927SOL    HW120240   4.608   0.304   1.031 -1.0347 -1.0571 -0.1859
 2927SOL    HW220241   4.523   0.221   0.934 -1.2938  1.6691 -1.8119
 2928SOL     OW20242   2.006   1.198   8.774  0.9798 -0.4517  0.0763
 2928SOL    HW120243   1.949   1.274   8.764 -1.3699 -2.3348 -0.7630
 2928SOL    HW220244   1.944   1.130   8.801  1.4946 -1.0972 -0.3863
 2929SOL     OW20245   2.861   2.931   6.150  0.1341  0.0117  0.1149
 2929SOL    HW120246   2.800   2.909   6.080 -0.5551  1.8053  0.1476
 2929SOL    HW220247   2.928   2.863   6.152 -0.8219 -1.0322 -3.2925
 2930SOL     OW20248   0.236   1.000  14.623  0.2274  0.1259  0.1465
 2930SOL    HW120249   0.197   1.004  14.536  0.8507  0.4780 -0.1104
 2930SOL    HW220250   0.239   1.093  14.647 -0.3740  0.1105  0.2788
 2931SOL     OW20251   2.445   4.097   5.087 -0.0352 -0.1371  0.5482
 2931SOL    HW120252   2.478   4.187   5.080  0.7607 -0.7033 -2.9029
 2931SOL    HW220253   2.418   4.100   5.179 -0.9990 -2.6250  0.3577
 2932SOL     OW20254   1.062   4.507  10.760  0.4531 -0.0906 -0.1583
 2932SOL    HW120255   0.973   4.474  10.764  0.4896  0.0670  1.9635
 2932SOL    HW220256   1.042   4.601  10.761 -0.0073 -0.1942  0.1500
 2933SOL     OW20257   3.052   2.315  12.828 -0.4146  0.2539  0.3236
 2933SOL    HW120258   3.027   2.383  12.765 -1.2038  2.2731  2.8055
 2933SOL    HW220259   3.039   2.360  12.912 -0.3890 -3.2084  2.1548
 2934SOL     OW20260   2.882   0.307  14.052  0.3027  0.0930  0.2044
 2934SOL    HW120261   2.941   0.324  14.125 -0.8497 -1.0824  1.3930
 2934SOL    HW220262   2.897   0.395  14.017  1.1814 -0.3557 -0.5738
 2935SOL     OW20263   3.540   1.613   2.491  0.1108  0.1837  0.1101
 2935SOL    HW120264   3.621   1.587   2.447 -0.2025 -0.6820  0.0447
 2935SOL    HW220265   3.571   1.620   2.581  0.2554 -2.2422  0.2380
 2936SOL     OW20266   2.073   2.717   2.901 -0.0095  0.2457  0.0417
 2936SOL    HW120267   2.047   2.731   2.992  1.3238  0.0210  0.4428
 2936SOL    HW220268   2.002   2.776   2.874 -0.6316 -0.4013  0.2507
 2937SOL     OW20269   3.695   0.253   6.324  0.1645  0.2591  0.2946
 2937SOL    HW120270   3.639   0.274   6.398 -1.0950 -1.3279 -0.1983
 2937SOL    HW220271   3.655   0.317   6.265  0.3605  1.0568  1.0276
 2938SOL     OW20272   4.557   2.493   1.871  0.2189  0.1851 -0.4243
 2938SOL    HW120273   4.543   2.510   1.778 -1.7566  1.9858  0.1995
 2938SOL    HW220274   4.639   2.444   1.866 -0.8682 -1.4013 -2.5678
 2939SOL     OW20275   1.757   2.271   7.890 -0.4775  0.0004 -0.4764
 2939SOL    HW120276   1.683   2.259   7.949 -0.1111  0.5762  0.0963
 2939SOL    HW220277   1.714   2.289   7.807 -0.8887 -1.3563 -0.5571
 2940SOL     OW20278   0.555   3.082  15.067 -0.0637 -0.3146 -0.1246
 2940SOL    HW120279   0.474   3.037  15.089  0.4445  0.2531  2.9012
 2940SOL    HW220280   0.574   3.128  15.149  0.6754  0.0194 -0.4786
 2941SOL     OW20281   4.059   1.013   6.919  0.1428 -0.0723 -0.3493
 2941SOL    HW120282   4.108   0.989   6.998  0.0295 -2.3066 -0.9580
 2941SOL    HW220283   4.010   0.936   6.891 -0.5448  0.2458 -0.0069
 2942SOL     OW20284   0.051   2.047   6.547 -0.4722  0.4122  0.3951
 2942SOL    HW120285   4.680   2.042   6.529 -0.5421 -1.9116  1.3720
 2942SOL    HW220286   0.065   1.972   6.605  1.1220 -1.8029 -2.8570
 2943SOL     OW20287   0.029   2.996   0.221  0.3217 -0.4052 -0.0813
 2943SOL    HW120288   0.079   3.002   0.303  0.7794  2.3583 -0.5826
 2943SOL    HW220289   0.068   3.064   0.167 -0.8366 -1.7675 -2.6498
 2944SOL     OW20290   4.476   3.005  17.672 -0.0192 -0.0378 -1.2145
 2944SOL    HW120291   4.441   2.924  17.636  1.4164 -0.5553 -1.4112
 2944SOL    HW220292   4.390   3.046  17.686  0.6839  0.9114  0.3353
 2945SOL     OW20293   0.129   3.946   7.404  0.5553  0.1012  0.1319
 2945SOL    HW120294   0.124   3.978   7.314 -0.7687 -0.5499 -0.0378
 2945SOL    HW220295   0.191   4.004   7.448  3.0490 -2.8153  0.4742
 2946SOL     OW20296   2.639   1.325   7.051 -0.9270 -0.2721  0.0183
 2946SOL    HW120297   2.683   1.395   7.098 -2.5940  0.0100  1.1546
 2946SOL    HW220298   2.625   1.273   7.129  2.7537 -2.1670 -0.5811
 2947SOL     OW20299   1.993   0.614  14.687  0.2242 -0.2081  0.3643
 2947SOL    HW120300   2.050   0.592  14.613  0.9631  0.4067  0.7546
 2947SOL    HW220301   2.008   0.548  14.754 -0.1957  1.3391  1.9690
 2948SOL     OW20302   2.834   3.764   3.044 -0.1172 -0.7218 -0.0798
 2948SOL    HW120303   2.880   3.842   3.077 -0.2380 -1.3454  1.5865
 2948SOL    HW220304   2.880   3.692   3.088  0.5118 -0.0080  0.4419
 2949SOL     OW20305   3.825   0.959   3.119 -0.5740 -0.0998 -0.6325
 2949SOL    HW120306   3.779   1.030   3.075  1.8047  2.5059  1.0466
 2949SOL    HW220307   3.911   1.001   3.120 -1.1942  1.1644 -0.5604
 2950SOL     OW20308   0.356   3.151   3.033 -0.3668  0.0741 -0.0131
 2950SOL    HW120309   0.361   3.243   3.059  0.7022  0.2434 -0.8588
 2950SOL    HW220310   0.293   3.159   2.961 -2.0038 -1.8309  1.2021
 2951SOL     OW20311   4.490   1.065  17.672 -0.6085 -0.5425  0.1794
 2951SOL    HW120312   4.525   1.030   0.061  0.7584  0.2945 -0.0422
 2951SOL    HW220313   4.400   1.033  17.672 -0.9436  0.4265 -1.2079
 2952SOL     OW20314   2.368   3.459   3.864 -0.3218 -0.3888 -0.2519
 2952SOL    HW120315   2.460   3.477   3.846 -0.4731 -1.4040 -2.1361
 2952SOL    HW220316   2.335   3.419   3.783 -1.2846 -0.6201  0.2531
 2953SOL     OW20317   1.462   0.465   7.692 -0.8962  0.0744 -0.1037
 2953SOL    HW120318   1.550   0.499   7.706 -1.2266  0.7751  0.2775
 2953SOL    HW220319   1.416   0.530   7.745 -1.8446 -0.8763  0.2490
 2954SOL     OW20320   0.817   2.442   6.648  1.2039 -0.1735  0.4929
 2954SOL    HW120321   0.749   2.446   6.715  0.2079  2.5614 -0.6890
 2954SOL    HW220322   0.760   2.431   6.572  1.2290 -3.8748  1.0138
 2955SOL     OW20323   2.291   1.618   1.272 -0.0215 -0.2112 -0.0441
 2955SOL    HW120324   2.314   1.711   1.279 -1.2734 -0.0121  1.4112
 2955SOL    HW220325   2.338   1.588   1.349  2.0674 -0.5103 -1.4393
 2956SOL     OW20326   1.368   2.857   3.442  0.0511  0.6928  0.1190
 2956SOL    HW120327   1.387   2.775   3.487 -1.4694  0.7274  0.8143
 2956SOL    HW220328   1.360   2.831   3.350 -1.0526  3.1256 -0.4743
 2957SOL     OW20329   2.249   3.015   6.601 -0.0697 -1.2321 -0.4496
 2957SOL    HW120330   2.310   2.962   6.651  0.2245 -0.2969  0.1913
 2957SOL    HW220331   2.305   3.091   6.585 -0.4025 -0.4413  2.0737
 2958SOL     OW20332   0.745   1.805   5.780  0.4620  0.4898  0.0078
 2958SOL    HW120333   0.781   1.845   5.859  0.5675 -1.0709  0.7418
 2958SOL    HW220334   0.741   1.876   5.715  2.8642  1.1591  0.6087
 2959SOL     OW20335   3.323   2.778   1.190 -0.6336  0.6391 -0.4613
 2959SOL    HW120336   3.316   2.735   1.104  2.9360 -2.1061  0.6113
 2959SOL    HW220337   3.243   2.831   1.183 -0.6791  0.6481  0.1746
 2960SOL     OW20338   2.305   2.084  13.527 -0.6204 -0.0323 -0.4896
 2960SOL    HW120339   2.359   2.144  13.476  0.5198 -1.0962 -0.5249
 2960SOL    HW220340   2.243   2.059  13.459 -1.1330 -1.2440  0.4161
 2961SOL     OW20341   0.192   2.366   0.675  0.2191  0.3598 -0.4078
 2961SOL    HW120342   0.173   2.287   0.726 -1.1735 -0.3691 -2.0684
 2961SOL    HW220343   0.234   2.426   0.737  2.3201 -2.6720  1.1475
 2962SOL     OW20344   0.131   0.106   7.448  0.7165 -0.4097 -0.6433
 2962SOL    HW120345   0.053   0.133   7.399 -0.4907  0.0079  1.5043
 2962SOL    HW220346   0.201   0.139   7.392  1.2807  1.3983  1.1210
 2963SOL     OW20347   4.599   4.536  14.370  0.4791 -0.4397  0.1096
 2963SOL    HW120348   4.519   4.560  14.417 -1.5776 -4.3611 -1.3000
 2963SOL    HW220349   4.600   4.609  14.309 -2.2757 -1.7522 -1.5126
 2964SOL     OW20350   0.076   1.085   4.640 -0.1951  0.0548 -0.2207
 2964SOL    HW120351   4.705   1.078   4.624  0.2639  0.9082 -3.2948
 2964SOL    HW220352   0.107   1.018   4.579  2.9376  1.5071 -0.2451
 2965SOL     OW20353   2.751   2.394   7.731  0.0018 -0.6297 -0.4204
 2965SOL    HW120354   2.750   2.299   7.743  0.5864 -0.4524  0.9489
 2965SOL    HW220355   2.702   2.406   7.650  1.1212 -0.0516 -1.0197
 2966SOL     OW20356   0.316   3.812  13.411 -0.0714  0.2212  0.7202
 2966SOL    HW120357   0.262   3.850  13.480 -1.5586 -0.2981 -0.1508
 2966SOL    HW220358   0.345   3.728  13.447 -0.0173 -0.2088 -0.2948
 2967SOL     OW20359   2.214   2.352   6.884 -0.0622  0.2770  0.5041
 2967SOL    HW120360   2.182   2.433   6.923 -1.9842 -0.9961  1.5207
 2967SOL    HW220361   2.139   2.307   6.846  1.4436 -2.4886  0.8224
 2968SOL     OW20362   3.630   0.768  11.159 -0.2067  0.1730  0.1876
 2968SOL    HW120363   3.701   0.713  11.193 -0.7949 -0.3358  0.5964
 2968SOL    HW220364   3.596   0.708  11.092  0.9942  0.2784 -0.5148
 2969SOL     OW20365   4.460   2.468   3.079  0.1860  0.2914  0.1991
 2969SOL    HW120366   4.439   2.557   3.108 -0.2001 -0.6705  2.8834
 2969SOL    HW220367   4.479   2.479   2.986 -3.0249 -2.1027 -0.7677
 2970SOL     OW20368   4.342   3.617   6.209  0.2252  0.0057 -0.5522
 2970SOL    HW120369   4.391   3.694   6.180 -0.6211  1.0546  0.7977
 2970SOL    HW220370   4.361   3.631   6.302 -0.0966  0.2965 -0.5291
 2971SOL     OW20371   2.044   4.474   5.352  0.3107  0.6619 -0.0640
 2971SOL    HW120372   1.950   4.455   5.361  0.6538 -2.2400 -2.5474
 2971SOL    HW220373   2.090   4.417   5.413 -0.6539 -0.0138  0.0277
 2972SOL     OW20374   4.117   2.227   6.424  0.3843 -0.2336  0.4220
 2972SOL    HW120375   4.071   2.277   6.491  0.6007  1.3975 -0.6386
 2972SOL    HW220376   4.202   2.271   6.421  0.2675  0.1306  2.3665
 2973SOL     OW20377   3.649   4.316   2.581 -0.1797  0.1801 -0.4133
 2973SOL    HW120378   3.578   4.365   2.540 -2.1080 -1.9453  0.3648
 2973SOL    HW220379   3.691   4.391   2.623 -1.7807  1.7417 -1.6132
 2974SOL     OW20380   1.659   2.910  16.202 -0.0887 -0.3810 -0.0288
 2974SOL    HW120381   1.585   2.876  16.253  1.7401 -1.1449  2.1317
 2974SOL    HW220382   1.733   2.860  16.237 -0.7515 -1.2763  0.0832
 2975SOL     OW20383   4.337   1.866   5.347  0.0949 -0.5107 -0.4411
 2975SOL    HW120384   4.424   1.894   5.320  0.1290 -0.7346 -0.5696
 2975SOL    HW220385   4.332   1.770   5.346  1.6937 -0.6182  0.8787
 2976SOL     OW20386   2.163   3.978   4.369 -0.7408 -0.3355  0.3233
 2976SOL    HW120387   2.227   4.045   4.346 -1.7254  1.0945  1.7381
 2976SOL    HW220388   2.148   3.942   4.281  1.6103 -2.3718  0.7531
 2977SOL     OW20389   1.059   2.842   2.111 -0.1572 -0.0868  0.8092
 2977SOL    HW120390   1.144   2.819   2.073 -1.9251 -1.1165 -2.5608
 2977SOL    HW220391   1.006   2.789   2.052  0.4634  1.2250 -0.9453
 2978SOL     OW20392   1.183   2.030  11.458  0.3460  0.0163  0.4287
 2978SOL    HW120393   1.109   2.021  11.518  0.5016 -2.0401  0.3077
 2978SOL    HW220394   1.257   2.001  11.511  3.3549  1.2756 -3.0570
 2979SOL     OW20395   3.558   0.936   4.976 -0.1861  0.5199  0.1279
 2979SOL    HW120396   3.482   0.878   4.968  0.5820 -0.4804  0.1671
 2979SOL    HW220397   3.537   1.004   4.911  1.3151 -1.3384 -2.3242
 2980SOL     OW20398   0.914   4.478  14.653  0.0970  0.1512  0.0033
 2980SOL    HW120399   0.994   4.522  14.627 -0.3024  1.7434  1.4844
 2980SOL    HW220400   0.852   4.551  14.653 -0.1486 -0.0573  2.7594
 2981SOL     OW20401   0.259   1.482  12.748 -0.0564 -0.0785  0.2354
 2981SOL    HW120402   0.315   1.461  12.674  2.6113  0.9627  1.9565
 2981SOL    HW220403   0.224   1.568  12.721  0.9863  0.1686 -0.3139
 2982SOL     OW20404   2.546   0.186   2.874  0.1180  0.1523 -0.1209
 2982SOL    HW120405   2.515   0.227   2.794 -2.1714 -0.3995  0.4916
 2982SOL    HW220406   2.493   0.221   2.946  0.1724  4.4703 -2.1888
 2983SOL     OW20407   0.869   0.171   7.215 -0.4078  0.0004  0.6782
 2983SOL    HW120408   0.904   0.159   7.127  0.9360  0.6240  1.1309
 2983SOL    HW220409   0.930   0.117   7.266  1.0410 -1.2368 -2.3627
 2984SOL     OW20410   0.165   1.898   2.915 -0.3245  0.3851  0.0223
 2984SOL    HW120411   0.157   1.942   2.830 -1.9332 -1.3924 -0.7420
 2984SOL    HW220412   0.210   1.820   2.884 -1.9720 -0.5019 -0.1688
 2985SOL     OW20413   0.696   1.695   8.518 -0.1532 -0.0339 -0.0011
 2985SOL    HW120414   0.680   1.786   8.493  0.0585  0.2264  0.8346
 2985SOL    HW220415   0.612   1.657   8.492  0.7082 -1.3824 -0.8018
 2986SOL     OW20416   4.329   3.634   5.529 -0.4250 -0.1457  0.6526
 2986SOL    HW120417   4.275   3.650   5.607 -0.4488 -0.1910  0.6458
 2986SOL    HW220418   4.341   3.725   5.503  0.3303 -0.1096  1.1266
 2987SOL     OW20419   2.413   1.684  11.575 -0.4235  0.0614 -0.0501
 2987SOL    HW120420   2.448   1.601  11.607  0.1710  0.4121  0.2162
 2987SOL    HW220421   2.358   1.662  11.500 -1.4654  0.8022  0.5040
 2988SOL     OW20422   2.581   3.929   4.883  0.4049  0.5978  0.1885
 2988SOL    HW120423   2.512   3.868   4.909  1.4737 -0.6777  0.0273
 2988SOL    HW220424   2.542   4.016   4.882 -0.1084  0.3847  1.8450
 2989SOL     OW20425   1.229   2.555   6.913  0.1043  0.1136  0.0385
 2989SOL    HW120426   1.173   2.506   6.853  0.2635 -0.9069  0.7366
 2989SOL    HW220427   1.207   2.517   6.998  0.7721  1.4069  0.7896
 2990SOL     OW20428   3.147   3.473   0.837  0.4655  1.1429  0.1151
 2990SOL    HW120429   3.102   3.528   0.900  0.6265 -1.6049  2.6445
 2990SOL    HW220430   3.136   3.526   0.758 -1.1362  1.4776  0.5612
 2991SOL     OW20431   1.308   0.803   8.218 -0.2587  0.2025  0.0339
 2991SOL    HW120432   1.360   0.878   8.247  1.8943 -0.5456 -1.9256
 2991SOL    HW220433   1.228   0.854   8.202 -0.5567 -1.2780 -3.1515
 2992SOL     OW20434   1.430   4.083   6.379 -0.3689  0.3741  0.1938
 2992SOL    HW120435   1.366   4.018   6.349  0.4032 -0.4101  0.2218
 2992SOL    HW220436   1.489   4.031   6.434 -0.0473  1.4151  0.8214
 2993SOL     OW20437   1.765   3.474  14.211  0.6045  0.2588 -0.2158
 2993SOL    HW120438   1.788   3.382  14.223  0.5540  0.2399 -0.2634
 2993SOL    HW220439   1.719   3.474  14.127 -1.5421  2.1921  0.9588
 2994SOL     OW20440   0.025   3.702  14.683 -0.4239  0.1715  0.4565
 2994SOL    HW120441   0.104   3.706  14.629  1.1669  0.0867  2.7778
 2994SOL    HW220442   0.072   3.703  14.767  1.6117  1.1489 -0.6927
 2995SOL     OW20443   2.670   0.432   2.681 -0.0157 -0.0005  0.5348
 2995SOL    HW120444   2.585   0.418   2.721 -0.5811 -2.0134 -1.3830
 2995SOL    HW220445   2.701   0.343   2.669  2.4557  1.0839 -1.2775
 2996SOL     OW20446   2.045   1.862   8.077  0.3506  0.0126 -0.1426
 2996SOL    HW120447   2.140   1.849   8.075  0.1968 -1.5196  2.3481
 2996SOL    HW220448   2.028   1.917   8.001  0.9446  2.5988  1.5748
 2997SOL     OW20449   1.016   4.183  14.624 -0.4211  0.3256 -0.0586
 2997SOL    HW120450   1.034   4.277  14.618 -0.1858  0.2376 -0.6541
 2997SOL    HW220451   0.925   4.186  14.595 -0.0115  1.6917 -1.1733
 2998SOL     OW20452   0.985   2.156   8.264 -0.2538  0.1601 -0.3170
 2998SOL    HW120453   1.077   2.177   8.280  0.3087 -2.0739 -0.6194
 2998SOL    HW220454   0.949   2.235   8.305 -0.0883 -0.0752  0.2828
 2999SOL     OW20455   1.528   4.129   1.270 -0.5052  0.3426 -0.3605
 2999SOL    HW120456   1.466   4.134   1.198 -0.3219 -0.3000 -0.5570
 2999SOL    HW220457   1.487   4.091   1.348  0.5151 -1.3599 -0.6544
 3000SOL     OW20458   4.569   3.606   0.231  0.4533 -0.2128  0.5028
 3000SOL    HW120459   4.602   3.691   0.201 -0.0895 -0.2341 -0.1551
 3000SOL    HW220460   4.577   3.611   0.327  2.9671  1.3146  0.1973
 3001SOL     OW20461   2.762   2.145  14.435  0.1376 -0.1277  0.2952
 3001SOL    HW120462   2.746   2.159  14.528 -3.2908 -0.3355 -0.2712
 3001SOL    HW220463   2.848   2.185  14.420 -1.3756  2.4061 -1.5379
 3002SOL     OW20464   2.789   1.930   5.210  0.0844  0.7893 -0.3825
 3002SOL    HW120465   2.792   1.882   5.127  1.0393  0.8297 -0.3764
 3002SOL    HW220466   2.825   2.016   5.190  0.7463  0.6178  0.0358
 3003SOL     OW20467   1.648   0.417   2.320 -0.2275 -0.1409 -0.4304
 3003SOL    HW120468   1.638   0.492   2.262 -0.7892  0.4923  0.4804
 3003SOL    HW220469   1.713   0.451   2.381 -1.5825 -1.8558  1.9702
 3004SOL     OW20470   4.624   1.848   8.410  0.3277  0.1594  0.0483
 3004SOL    HW120471   4.603   1.882   8.497  1.1027 -2.7218  1.3844
 3004SOL    HW220472   4.592   1.920   8.356 -0.5560  0.8373  1.4819
 3005SOL     OW20473   0.991   0.415   3.216  0.1924  0.0670 -0.6100
 3005SOL    HW120474   0.947   0.473   3.154  1.5041  0.7721 -0.8799
 3005SOL    HW220475   0.913   0.373   3.251 -1.7113  0.6240 -4.2368
 3006SOL     OW20476   1.012   0.047  10.770  0.3062  0.2518  0.3693
 3006SOL    HW120477   0.992   0.120  10.712  0.8903  1.0023  1.1113
 3006SOL    HW220478   0.995   0.086  10.855 -0.0017  1.3830 -0.2210
 3007SOL     OW20479   4.467   0.093   4.174 -0.3816 -0.0676  0.1381
 3007SOL    HW120480   4.459   4.722   4.195  0.2153 -0.0085  0.6060
 3007SOL    HW220481   4.387   0.123   4.218 -0.0017  1.5677 -0.2952
 3008SOL     OW20482   1.099   0.826  13.135 -0.2178 -0.4096  0.3842
 3008SOL    HW120483   1.149   0.888  13.081 -0.9714  0.3298  0.5305
 3008SOL    HW220484   1.159   0.751  13.134  0.7005  0.3568 -1.8568
 3009SOL     OW20485   2.364   3.281  10.672 -0.8058 -0.3773  0.6680
 3009SOL    HW120486   2.304   3.327  10.612 -0.0674  0.0253  0.2388
 3009SOL    HW220487   2.407   3.226  10.607 -0.7316 -0.8170  1.0905
 3010SOL     OW20488   0.445   2.356   4.189  0.6084 -0.0909  0.1912
 3010SOL    HW120489   0.472   2.406   4.266  1.0374  1.9529 -1.3050
 3010SOL    HW220490   0.364   2.401   4.168  1.6796  1.0710 -1.4366
 3011SOL     OW20491   0.527   4.696   6.058 -0.4325  1.1452 -0.2080
 3011SOL    HW120492   0.619   4.712   6.079 -0.4655  0.4105  0.5106
 3011SOL    HW220493   0.526   4.606   6.026  1.4215  0.4360  1.7602
 3012SOL     OW20494   1.524   3.564   5.364  0.2887  0.5897  0.0952
 3012SOL    HW120495   1.577   3.523   5.296 -0.4179  0.1445 -0.1943
 3012SOL    HW220496   1.474   3.491   5.402  2.4653 -1.4695 -1.0023
 3013SOL     OW20497   1.199   3.901  14.617  0.4833 -0.2734 -0.2941
 3013SOL    HW120498   1.114   3.935  14.589  0.9740  0.5443 -0.7909
 3013SOL    HW220499   1.254   3.976  14.595 -0.0578  0.7346  1.7337
 3014SOL     OW20500   1.534   1.548   8.567  0.5802  0.0686  0.2093
 3014SOL    HW120501   1.572   1.497   8.639 -2.9734  0.0226  2.0690
 3014SOL    HW220502   1.609   1.590   8.527 -0.7268  2.5870  0.4028
 3015SOL     OW20503   0.447   1.162   8.659  0.2885  0.5092  0.1997
 3015SOL    HW120504   0.440   1.103   8.734 -2.6045  0.2191 -0.2973
 3015SOL    HW220505   0.368   1.216   8.654  0.6303  0.8110 -1.8667
 3016SOL     OW20506   3.470   2.014  10.992 -0.7255 -0.0438 -0.0297
 3016SOL    HW120507   3.453   2.014  10.898 -0.3963 -0.4302 -0.0896
 3016SOL    HW220508   3.519   1.933  11.003 -1.2715 -0.8543 -3.5226
 3017SOL     OW20509   2.371   3.343   2.998  0.2305  0.1726 -0.4483
 3017SOL    HW120510   2.466   3.340   2.986  0.2389  1.0712 -0.6299
 3017SOL    HW220511   2.352   3.308   2.911 -1.9343  2.5744 -0.9644
 3018SOL     OW20512   1.391   0.881  10.658  0.7570 -0.5455  0.4477
 3018SOL    HW120513   1.449   0.957  10.657 -1.2342  0.9550 -0.1464
 3018SOL    HW220514   1.305   0.917  10.681 -0.2167 -2.7571  0.3237
 3019SOL     OW20515   4.693   2.056   8.965  0.2102 -0.0447  0.2602
 3019SOL    HW120516   4.633   1.992   8.926  1.0670  0.9401 -2.7153
 3019SOL    HW220517   4.634   2.100   9.026  0.8044  1.3633 -0.1761
 3020SOL     OW20518   2.331   1.178   7.602 -0.0554  0.0210 -0.4133
 3020SOL    HW120519   2.256   1.187   7.543  0.0484  2.3432 -0.2115
 3020SOL    HW220520   2.370   1.265   7.592 -0.4172  0.3051  0.7108
 3021SOL     OW20521   0.270   0.002  13.513 -0.1147 -0.2648 -0.1332
 3021SOL    HW120522   0.208   4.721  13.587  0.0444  2.1903  0.1097
 3021SOL    HW220523   0.340   0.055  13.552 -1.4252 -2.4689  5.2893
 3022SOL     OW20524   1.509   3.099  11.942 -0.2752 -0.5640  0.0107
 3022SOL    HW120525   1.441   3.164  11.926 -0.5594 -0.2895  2.4003
 3022SOL    HW220526   1.533   3.125  12.031  2.2145  1.0796 -1.1250
 3023SOL     OW20527   4.300   1.604   5.315 -0.0801  0.4305  0.1919
 3023SOL    HW120528   4.381   1.584   5.269  0.1791  0.3008  0.7038
 3023SOL    HW220529   4.280   1.522   5.360 -1.4252 -0.4720 -2.0851
 3024SOL     OW20530   4.217   0.186   0.459  0.1729  0.3610  0.0574
 3024SOL    HW120531   4.180   0.236   0.386 -0.7450  1.9550  1.6053
 3024SOL    HW220532   4.247   0.254   0.520  0.6348  0.0702  0.1485
 3025SOL     OW20533   2.785   2.943   3.713 -0.3635 -0.7573  0.1863
 3025SOL    HW120534   2.752   2.857   3.739  2.7733 -2.0918 -0.2042
 3025SOL    HW220535   2.878   2.923   3.698 -0.8617 -2.6102 -0.5031
 3026SOL     OW20536   2.042   0.754   9.272 -0.4789 -0.2190 -0.4732
 3026SOL    HW120537   2.055   0.725   9.363 -2.3155  3.0031  0.8143
 3026SOL    HW220538   2.113   0.816   9.261 -2.3823  1.6011 -2.3869
 3027SOL     OW20539   0.297   0.239   0.653  0.2544 -0.0268  0.3564
 3027SOL    HW120540   0.258   0.228   0.566 -0.4363 -1.2655  0.8168
 3027SOL    HW220541   0.359   0.310   0.640 -1.1468  1.0263 -0.6141
 3028SOL     OW20542   0.016   2.901   4.515  0.2399 -0.1544  0.0998
 3028SOL    HW120543   4.669   2.925   4.575 -0.2979 -3.3438  0.7417
 3028SOL    HW220544   4.704   2.815   4.492  1.0129 -0.3316 -0.4111
 3029SOL     OW20545   4.523   3.958  16.862 -0.2407  0.2944  0.5007
 3029SOL    HW120546   4.612   3.923  16.870 -0.3359 -0.1754 -0.4160
 3029SOL    HW220547   4.490   3.906  16.789  0.1153  2.1132 -0.9723
 3030SOL     OW20548   2.188   3.520   4.063 -0.1535 -0.3829  0.0088
 3030SOL    HW120549   2.239   3.519   3.982 -1.2993 -1.5518 -0.7000
 3030SOL    HW220550   2.133   3.594   4.038 -0.3734  0.1092  1.9282
 3031SOL     OW20551   1.477   3.737   3.731  0.3631  0.5362 -0.5161
 3031SOL    HW120552   1.423   3.665   3.762 -0.4045  1.3136 -0.0420
 3031SOL    HW220553   1.441   3.753   3.644  1.0830  3.3231 -0.2973
 3032SOL     OW20554   1.622   2.567  13.834  0.0536  0.0302  0.2418
 3032SOL    HW120555   1.679   2.551  13.759 -2.6412  1.1201 -2.0455
 3032SOL    HW220556   1.645   2.657  13.856  0.2236  0.4650 -1.6641
 3033SOL     OW20557   3.608   3.086  13.289  0.1368 -0.3073  0.1097
 3033SOL    HW120558   3.613   3.064  13.196  0.4172  1.0979 -0.2138
 3033SOL    HW220559   3.615   3.182  13.286  1.3601 -0.3581  1.6476
 3034SOL     OW20560   1.930   0.569   3.017 -0.1986 -0.4390 -0.6190
 3034SOL    HW120561   1.881   0.646   3.045 -0.4965 -0.9107  0.1372
 3034SOL    HW220562   1.862   0.507   2.990  0.3463 -0.5617 -1.7145
 3035SOL     OW20563   0.532   4.207   2.690  0.1653 -0.1096  0.0433
 3035SOL    HW120564   0.614   4.186   2.646  0.4095  1.8833 -0.4295
 3035SOL    HW220565   0.469   4.159   2.635 -2.0309  2.4470  0.3414
 3036SOL     OW20566   2.169   1.968  10.988  0.9127 -0.2270 -0.2448
 3036SOL    HW120567   2.121   1.886  10.996  0.8239 -0.1714 -0.2158
 3036SOL    HW220568   2.131   2.012  10.911  0.0368 -1.2259 -0.3726
 3037SOL     OW20569   0.758   0.331   7.615 -0.4066  0.2298  0.1637
 3037SOL    HW120570   0.721   0.249   7.647  0.4012 -0.1153  0.2139
 3037SOL    HW220571   0.837   0.339   7.667 -0.1059 -2.1189  0.0666
 3038SOL     OW20572   0.997   3.497   1.789 -0.3508  0.1983  0.6282
 3038SOL    HW120573   0.965   3.500   1.699 -1.3939 -1.2907  0.9508
 3038SOL    HW220574   1.088   3.470   1.774 -1.1996 -2.4195  0.1424
 3039SOL     OW20575   0.844   2.548   5.272 -0.1523 -0.0608 -0.2588
 3039SOL    HW120576   0.811   2.604   5.342 -2.0623  1.7825 -2.6079
 3039SOL    HW220577   0.852   2.468   5.323  3.0241  0.4220  0.0007
 3040SOL     OW20578   0.559   0.478   5.125 -0.0897 -0.5373 -0.5264
 3040SOL    HW120579   0.581   0.526   5.046 -0.7487  2.1956  0.9562
 3040SOL    HW220580   0.626   0.516   5.182 -2.1095  3.4879 -0.8070
 3041SOL     OW20581   1.178   2.485  13.176 -0.0054  0.6358  0.5947
 3041SOL    HW120582   1.102   2.541  13.159 -0.5511 -0.3636 -0.2368
 3041SOL    HW220583   1.184   2.500  13.270  1.5732  0.3808  0.5259
 3042SOL     OW20584   4.096   3.537   7.441 -0.3743  0.1035  0.4069
 3042SOL    HW120585   4.006   3.549   7.472  0.4433 -2.1973  3.6748
 3042SOL    HW220586   4.145   3.530   7.523 -0.5644  0.1684  0.5254
 3043SOL     OW20587   3.598   3.399   8.016  0.5261 -0.4660  1.1265
 3043SOL    HW120588   3.670   3.350   8.054  0.8511 -0.3551  0.6497
 3043SOL    HW220589   3.593   3.470   8.080 -0.9453  1.5082 -1.1692
 3044SOL     OW20590   3.795   1.636   7.661  0.2197 -0.0744 -1.1563
 3044SOL    HW120591   3.760   1.557   7.700 -1.1883  0.5804 -1.0855
 3044SOL    HW220592   3.803   1.693   7.738  0.1843 -1.8317  0.1227
 3045SOL     OW20593   4.415   3.170  13.876  0.2822  0.3951  0.0358
 3045SOL    HW120594   4.390   3.178  13.968  0.4082  1.3226 -0.0058
 3045SOL    HW220595   4.399   3.076  13.873  0.5139  0.4153 -1.8278
 3046SOL     OW20596   3.416   4.349   5.449 -0.3467 -0.0796 -0.0589
 3046SOL    HW120597   3.320   4.357   5.452 -0.4699 -1.3723 -0.4908
 3046SOL    HW220598   3.426   4.289   5.523  0.5588 -0.9648 -0.8939
 3047SOL     OW20599   1.039   4.679   4.918  0.3268 -0.0630 -0.0588
 3047SOL    HW120600   1.086   4.720   4.990 -1.2612  0.9318  0.4042
 3047SOL    HW220601   1.035   4.588   4.948  1.6105 -1.1419 -3.0873
 3048SOL     OW20602   2.933   4.136   2.576 -0.1828 -0.4120  0.5105
 3048SOL    HW120603   3.021   4.153   2.543 -0.8600  0.6528 -0.7757
 3048SOL    HW220604   2.953   4.164   2.665  2.2517 -0.1904 -0.0942
 3049SOL     OW20605   3.878   3.712   8.640  0.4915  0.2876 -0.1792
 3049SOL    HW120606   3.864   3.754   8.725 -0.9325 -0.6127  0.0272
 3049SOL    HW220607   3.918   3.785   8.591 -0.6337  1.2281  0.3008
 3050SOL     OW20608   3.063   1.574   3.473 -0.9328  0.4241 -0.6399
 3050SOL    HW120609   3.113   1.647   3.509 -1.0599 -1.0197  2.4414
 3050SOL    HW220610   3.114   1.509   3.521  2.5540  2.9449 -0.9234
 3051SOL     OW20611   0.074   4.113   4.188  1.4138  0.2138 -0.0129
 3051SOL    HW120612   0.016   4.160   4.128  1.0020 -1.9152 -1.2918
 3051SOL    HW220613   0.010   4.108   4.259 -0.5486 -0.5634 -1.8140
 3052SOL     OW20614   3.560   3.970   9.982 -0.7132  0.1995  0.2076
 3052SOL    HW120615   3.557   3.878   9.956 -1.1577  0.3035 -0.0989
 3052SOL    HW220616   3.515   4.011   9.908  0.2665  3.7646  1.5818
 3053SOL     OW20617   3.261   2.704   3.613 -0.2808  0.3943 -0.4055
 3053SOL    HW120618   3.296   2.643   3.679  0.3941 -0.0387 -1.1665
 3053SOL    HW220619   3.263   2.643   3.539 -2.5556 -1.3644  1.0069
 3054SOL     OW20620   0.710   3.141   5.865  0.7117 -0.4868  0.4419
 3054SOL    HW120621   0.627   3.125   5.820  1.4520 -0.8031 -0.7988
 3054SOL    HW220622   0.711   3.075   5.935 -1.6408 -1.1169 -0.1156
 3055SOL     OW20623   0.400   0.695   4.189  0.1466  0.1114  0.3394
 3055SOL    HW120624   0.419   0.651   4.272 -0.1590  0.6588  0.7050
 3055SOL    HW220625   0.472   0.660   4.137  0.4773  0.2753  0.6831
 3056SOL     OW20626   3.439   3.320  11.123  0.3111 -0.4424  0.0959
 3056SOL    HW120627   3.390   3.356  11.197 -1.0741 -0.5811 -0.7681
 3056SOL    HW220628   3.386   3.352  11.050  4.0225 -1.2733 -2.9435
 3057SOL     OW20629   2.121   4.304   5.555 -0.0369  0.5589 -0.0537
 3057SOL    HW120630   2.104   4.220   5.597  0.3604  0.8475  0.6842
 3057SOL    HW220631   2.212   4.320   5.581  0.2054  0.5401 -0.8765
 3058SOL     OW20632   2.803   0.321   5.759  0.2126 -0.0228  0.4347
 3058SOL    HW120633   2.869   0.387   5.778 -1.9682  2.5566 -0.9366
 3058SOL    HW220634   2.745   0.328   5.835  0.6846  1.3445  0.6555
 3059SOL     OW20635   0.813   2.531   3.084 -0.3111  0.6691 -0.2184
 3059SOL    HW120636   0.849   2.549   3.170 -3.4480  1.1763  0.9868
 3059SOL    HW220637   0.740   2.469   3.087  1.7750 -1.7617 -0.4317
 3060SOL     OW20638   0.912   2.949  13.664  0.2001 -0.5760  0.1541
 3060SOL    HW120639   0.854   2.983  13.596  1.2036 -0.6860 -0.7463
 3060SOL    HW220640   0.987   2.960  13.607  0.3083 -0.3418  0.3392
 3061SOL     OW20641   4.171   2.513   4.569  0.3379 -0.2018  0.4568
 3061SOL    HW120642   4.147   2.566   4.646  0.3402 -0.2323  0.4785
 3061SOL    HW220643   4.179   2.588   4.510 -1.2971  1.1239  1.9198
 3062SOL     OW20644   4.503   2.729  10.346  0.3768  0.0824  0.2416
 3062SOL    HW120645   4.574   2.792  10.358 -0.2837  0.7054  0.9085
 3062SOL    HW220646   4.468   2.703  10.431 -1.6531 -1.9582 -1.2138
 3063SOL     OW20647   3.328   3.497   9.242 -0.0726  0.3920 -0.0604
 3063SOL    HW120648   3.251   3.445   9.265  1.0729 -0.9877  0.5862
 3063SOL    HW220649   3.373   3.426   9.196  2.5472  1.7438  0.4712
 3064SOL     OW20650   1.448   2.832  15.214  0.4936  0.2466 -0.0143
 3064SOL    HW120651   1.354   2.816  15.207  0.4616  0.1717  0.5523
 3064SOL    HW220652   1.486   2.786  15.289  0.2596 -3.0024 -1.8928
 3065SOL     OW20653   3.947   2.287   8.499  0.1156 -0.1583  0.0274
 3065SOL    HW120654   3.945   2.194   8.521  1.1131 -0.0655  0.5329
 3065SOL    HW220655   3.966   2.275   8.406  0.2247 -0.1661  0.0510
 3066SOL     OW20656   1.374   1.568   0.926 -0.3779  0.0927 -0.1983
 3066SOL    HW120657   1.465   1.541   0.912 -1.3318 -2.7714 -0.8653
 3066SOL    HW220658   1.386   1.632   0.997  0.5289 -0.4714  0.1559
 3067SOL     OW20659   4.709   2.304   0.899  0.5545  0.0736  0.3725
 3067SOL    HW120660   4.683   2.319   0.990  0.1054 -2.5380  0.6943
 3067SOL    HW220661   0.067   2.256   0.917  0.9379  1.6344  2.9065
 3068SOL     OW20662   1.757   4.116   8.364  0.1611  0.0784 -0.2193
 3068SOL    HW120663   1.775   4.129   8.457  0.4675 -1.0337 -0.1159
 3068SOL    HW220664   1.842   4.101   8.321  0.3928 -4.4268  1.7895
 3069SOL     OW20665   2.211   1.470   3.455 -0.0264 -0.3496  0.0615
 3069SOL    HW120666   2.134   1.425   3.419  0.1577 -0.6158  0.0004
 3069SOL    HW220667   2.275   1.452   3.386  1.1030 -1.0064  1.2783
 3070SOL     OW20668   4.572   0.736   3.367 -0.1792  0.1218  0.2600
 3070SOL    HW120669   4.552   0.659   3.314 -1.2066  2.6251 -3.0141
 3070SOL    HW220670   4.596   0.685   3.444  0.2199 -1.3122 -0.8048
 3071SOL     OW20671   3.616   4.069   5.718 -0.2972 -0.1389  0.3458
 3071SOL    HW120672   3.640   3.979   5.738  2.0411  0.7635  1.6699
 3071SOL    HW220673   3.691   4.120   5.748 -0.4417  1.4558 -1.9780
 3072SOL     OW20674   0.487   1.687   8.926 -0.3624  0.0403  0.5892
 3072SOL    HW120675   0.498   1.641   9.009 -0.4355  1.4735  1.3744
 3072SOL    HW220676   0.534   1.624   8.871 -0.0490 -1.0855  2.1642
 3073SOL     OW20677   3.407   3.462  10.699  0.1773 -0.8282  0.3475
 3073SOL    HW120678   3.349   3.424  10.766 -2.1451 -0.1811 -1.3059
 3073SOL    HW220679   3.471   3.496  10.762  0.0372 -0.3263  0.2177
 3074SOL     OW20680   2.591   3.767   0.205  0.0466 -0.1307  0.1913
 3074SOL    HW120681   2.535   3.718   0.144 -0.9837  2.5311 -0.9739
 3074SOL    HW220682   2.527   3.826   0.243  0.9709 -0.5306  2.3883
 3075SOL     OW20683   2.162   4.334   2.372  0.0966 -0.2966  0.2763
 3075SOL    HW120684   2.257   4.341   2.376  0.2280 -1.5036 -0.6460
 3075SOL    HW220685   2.134   4.352   2.461 -0.2575  1.2585 -0.1530
 3076SOL     OW20686   0.460   2.563   6.201 -0.2055 -0.0063  0.0875
 3076SOL    HW120687   0.425   2.530   6.283 -1.6289  2.4801  0.4606
 3076SOL    HW220688   0.391   2.529   6.144  0.1263 -0.2935 -0.1426
 3077SOL     OW20689   2.662   3.715   2.398 -0.0952  0.1316 -0.6967
 3077SOL    HW120690   2.719   3.643   2.371 -0.0282  0.4552 -1.4288
 3077SOL    HW220691   2.722   3.753   2.462 -0.1428 -3.1025  1.2341
 3078SOL     OW20692   4.061   0.227   9.586 -0.0909  0.0303  0.3042
 3078SOL    HW120693   3.983   0.205   9.636 -0.0373 -1.2037 -0.1717
 3078SOL    HW220694   4.024   0.249   9.501 -0.0290  2.1915  0.8217
 3079SOL     OW20695   3.123   3.094   8.774 -0.0999 -0.2186  0.2787
 3079SOL    HW120696   3.136   3.001   8.790 -1.1336 -0.1898  1.2752
 3079SOL    HW220697   3.184   3.102   8.701  1.9961  2.9385  2.3807
 3080SOL     OW20698   3.265   2.926  10.248  0.3294 -0.4297  0.3200
 3080SOL    HW120699   3.243   2.990  10.181 -1.2508  0.1306  1.3675
 3080SOL    HW220700   3.228   2.841  10.222  0.7654 -0.1553 -1.1744
 3081SOL     OW20701   3.440   2.644  12.160 -0.0384 -0.2249  0.0834
 3081SOL    HW120702   3.494   2.661  12.237 -1.7369 -0.4114  1.2944
 3081SOL    HW220703   3.353   2.635  12.198 -1.5855  3.6306 -2.5473
 3082SOL     OW20704   0.707   1.243   1.736 -0.3891  0.0475  0.1372
 3082SOL    HW120705   0.663   1.260   1.653  0.8216  1.3557 -0.2299
 3082SOL    HW220706   0.785   1.196   1.707 -0.8556 -0.2284 -0.6594
 3083SOL     OW20707   2.198   2.308   5.849  0.2406  0.2477  0.1026
 3083SOL    HW120708   2.185   2.393   5.807  1.5760  0.1853 -0.4387
 3083SOL    HW220709   2.171   2.250   5.777 -0.6653  0.5312  0.2114
 3084SOL     OW20710   1.387   0.507   2.512 -0.3220  0.1137  0.2283
 3084SOL    HW120711   1.390   0.598   2.483 -0.6087 -0.0060 -0.1725
 3084SOL    HW220712   1.481   0.489   2.515 -0.5044 -1.3373 -1.8852
 3085SOL     OW20713   2.267   4.557  16.022  0.1397 -0.1600  0.1864
 3085SOL    HW120714   2.340   4.499  16.000  0.3878  1.0069 -2.1006
 3085SOL    HW220715   2.320   4.619  16.072 -1.6222  0.4425  1.3079
 3086SOL     OW20716   0.192   1.028   3.208 -0.0540 -0.1148  0.0965
 3086SOL    HW120717   0.241   1.015   3.289  2.0557  3.9410 -0.5143
 3086SOL    HW220718   0.137   0.951   3.222  0.7407 -0.7160 -0.0910
 3087SOL     OW20719   3.567   0.546  14.447 -0.0465  0.2794 -0.2513
 3087SOL    HW120720   3.554   0.499  14.529 -1.2004  2.4646  0.8037
 3087SOL    HW220721   3.478   0.581  14.445 -0.2983 -0.4364 -1.7832
 3088SOL     OW20722   1.725   2.898   3.204  0.0844  0.0509 -0.2117
 3088SOL    HW120723   1.819   2.884   3.214 -0.0962 -1.3502 -0.4612
 3088SOL    HW220724   1.732   2.957   3.130 -0.9997  0.0032 -0.3496
 3089SOL     OW20725   0.889   0.076   9.434 -0.1130 -0.0174 -0.0553
 3089SOL    HW120726   0.972   0.032   9.413 -0.0524 -0.1159  0.3836
 3089SOL    HW220727   0.849   0.086   9.348  2.5645 -0.9439 -1.3982
 3090SOL     OW20728   2.488   0.043   4.520  0.5469  0.1627 -0.7088
 3090SOL    HW120729   2.556   4.705   4.547  0.7976  0.3905 -0.8283
 3090SOL    HW220730   2.500   0.057   4.426 -0.0495 -0.8868 -0.9356
 3091SOL     OW20731   1.018   0.970   4.018  0.0348  0.4418 -0.5642
 3091SOL    HW120732   1.110   0.970   3.994 -0.5899  3.3965 -2.9122
 3091SOL    HW220733   1.011   0.893   4.075  1.5665 -0.2625 -1.3341
 3092SOL     OW20734   1.514   2.150   4.629  0.2274 -0.0465 -0.0509
 3092SOL    HW120735   1.493   2.061   4.657 -0.5026 -0.3238 -1.5173
 3092SOL    HW220736   1.516   2.188   4.717  1.5230 -0.4646  0.1043
 3093SOL     OW20737   0.270   1.906  12.058  0.5002 -0.7820 -0.1019
 3093SOL    HW120738   0.218   1.981  12.029  1.9012  0.6844  1.2044
 3093SOL    HW220739   0.232   1.880  12.142 -2.2820 -0.9955 -1.4549
 3094SOL     OW20740   0.200   0.672  13.428 -0.3248  0.3641 -0.1312
 3094SOL    HW120741   0.275   0.629  13.469  0.9118  1.0829 -1.6326
 3094SOL    HW220742   0.190   0.754  13.477 -0.7357  0.2048  0.0464
 3095SOL     OW20743   1.871   0.082  13.008  0.1294  0.6960 -0.0536
 3095SOL    HW120744   1.928   0.138  12.954  1.5462 -0.0113  0.7089
 3095SOL    HW220745   1.852   0.137  13.084 -1.3231 -1.2432  0.9712
 3096SOL     OW20746   2.460   4.019   6.811 -0.0607  0.2313  0.5349
 3096SOL    HW120747   2.526   3.953   6.835  0.1254  0.9644  2.0238
 3096SOL    HW220748   2.493   4.058   6.731  1.2732 -0.7821  0.5865
 3097SOL     OW20749   1.885   4.388  13.297  0.2640 -0.5606  0.0907
 3097SOL    HW120750   1.902   4.482  13.302 -0.9488 -0.2334 -1.8652
 3097SOL    HW220751   1.886   4.362  13.389  0.1199  0.4528  0.3738
 3098SOL     OW20752   4.453   3.167  13.554  0.2337  0.1059  0.0802
 3098SOL    HW120753   4.404   3.182  13.635 -0.9958 -3.0628 -0.0436
 3098SOL    HW220754   4.517   3.237  13.554  1.5555 -1.1224 -2.1246
 3099SOL     OW20755   3.911   3.360   8.365 -0.2030  0.2558  0.0724
 3099SOL    HW120756   3.902   3.431   8.429  0.8550  0.2168  0.2692
 3099SOL    HW220757   3.978   3.414   8.322 -0.3584  2.1201  2.1446
 3100SOL     OW20758   3.951   1.233   3.234 -0.0497 -0.3066 -0.3432
 3100SOL    HW120759   4.024   1.191   3.189 -0.0595  1.5195 -2.0426
 3100SOL    HW220760   3.933   1.168   3.302 -0.6729  0.4340  0.2085
 3101SOL     OW20761   2.027   3.498  13.312 -0.6683 -0.4227  0.2799
 3101SOL    HW120762   1.960   3.481  13.246 -1.4170 -0.3368  1.0082
 3101SOL    HW220763   2.094   3.444  13.269  1.2589  2.6523 -0.5765
 3102SOL     OW20764   2.269   1.404  13.266  0.2875  0.0953 -0.1962
 3102SOL    HW120765   2.209   1.347  13.217 -1.4510  1.4377  0.3493
 3102SOL    HW220766   2.274   1.361  13.351  2.7548 -1.6765 -1.2609
 3103SOL     OW20767   4.306   1.708   9.068  0.4728 -0.8403  0.6067
 3103SOL    HW120768   4.372   1.686   9.002 -0.6617 -0.0675 -0.7967
 3103SOL    HW220769   4.230   1.665   9.030 -0.7622  2.5917 -0.8195
 3104SOL     OW20770   1.122   2.500   2.485  0.1754 -0.0506  0.2905
 3104SOL    HW120771   1.205   2.454   2.493 -0.5531 -1.1956  1.5159
 3104SOL    HW220772   1.158   2.578   2.444  0.7992 -0.0353  0.8698
 3105SOL     OW20773   4.679   2.060   6.880  0.3451  0.1361  0.6198
 3105SOL    HW120774   4.721   2.039   6.963 -0.6018  0.3398  1.1489
 3105SOL    HW220775   4.604   2.000   6.872  0.3408  0.1761  0.3500
 3106SOL     OW20776   2.536   0.315   8.021  0.2242 -0.0381  0.1377
 3106SOL    HW120777   2.453   0.310   8.069 -0.9840 -2.7832 -2.2126
 3106SOL    HW220778   2.522   0.386   7.959  0.5091 -0.6510 -0.6247
 3107SOL     OW20779   1.668   1.451   0.550  0.6872 -0.4163  0.4081
 3107SOL    HW120780   1.749   1.500   0.564  0.8060  0.5583 -3.8020
 3107SOL    HW220781   1.698   1.361   0.538  1.4342  0.0910 -1.4463
 3108SOL     OW20782   1.053   3.969   0.622  0.0087  0.1408 -0.6212
 3108SOL    HW120783   0.980   4.026   0.647 -1.0669 -0.5408 -2.2486
 3108SOL    HW220784   1.003   3.919   0.558  1.1237 -2.3657  0.4820
 3109SOL     OW20785   4.716   3.036   9.509 -0.1975  0.2187  0.1065
 3109SOL    HW120786   0.015   3.128   9.525  0.2969 -0.2409  2.0928
 3109SOL    HW220787   4.680   3.044   9.420 -0.0939 -0.9175 -0.0283
 3110SOL     OW20788   1.730   3.756   3.132 -0.5608  0.4630 -0.5333
 3110SOL    HW120789   1.744   3.689   3.065 -1.6069  0.2906 -0.5755
 3110SOL    HW220790   1.803   3.815   3.113  0.4551 -0.7200 -0.3275
 3111SOL     OW20791   3.449   1.852   4.106  0.0727  0.0764 -0.1458
 3111SOL    HW120792   3.370   1.904   4.123 -1.3848 -1.5354 -1.9125
 3111SOL    HW220793   3.422   1.761   4.121  0.9226 -0.2457 -0.5684
 3112SOL     OW20794   3.359   4.192   3.776 -0.1931  0.0863  0.9039
 3112SOL    HW120795   3.343   4.283   3.801  2.0602  0.7889 -0.1619
 3112SOL    HW220796   3.454   4.196   3.765 -0.3920  0.3311 -0.7952
 3113SOL     OW20797   3.298   4.491  17.118 -0.2153 -0.5359 -0.7768
 3113SOL    HW120798   3.282   4.560  17.053 -0.0634  0.9077  0.7201
 3113SOL    HW220799   3.386   4.461  17.092 -0.1698 -1.6021  0.6354
 3114SOL     OW20800   4.705   0.638   8.295 -0.5344  0.2320  0.0200
 3114SOL    HW120801   0.070   0.605   8.275 -0.9352 -0.6746 -0.2632
 3114SOL    HW220802   4.666   0.561   8.335  0.4116 -0.3688 -0.2184
 3115SOL     OW20803   3.361   4.120   2.324  0.0931  0.5355  0.4417
 3115SOL    HW120804   3.351   4.025   2.337 -1.4742  0.5320 -0.8390
 3115SOL    HW220805   3.285   4.154   2.371 -0.0834  0.9076 -0.1121
 3116SOL     OW20806   1.227   2.843   0.133  0.3001  0.2767  0.0826
 3116SOL    HW120807   1.227   2.752   0.103 -0.4075  0.6526 -1.0394
 3116SOL    HW220808   1.310   2.852   0.179  0.1050  0.6301  0.3662
 3117SOL     OW20809   3.817   1.459  13.640  0.2220 -0.2071  0.1862
 3117SOL    HW120810   3.805   1.465  13.545  1.1799  1.2054  0.1540
 3117SOL    HW220811   3.871   1.380  13.644 -0.9109 -0.7555  4.2542
 3118SOL     OW20812   0.619   3.837   2.303 -0.6105  0.5883  0.2486
 3118SOL    HW120813   0.656   3.765   2.353 -0.7641  0.6798  0.4956
 3118SOL    HW220814   0.648   3.819   2.213 -0.7132 -1.5860  0.6698
 3119SOL     OW20815   0.260   2.835   4.247 -0.3963 -0.7590 -0.3273
 3119SOL    HW120816   0.290   2.881   4.168  0.4416 -1.0713 -0.1944
 3119SOL    HW220817   0.168   2.860   4.245 -0.1056  0.2990 -0.4280
 3120SOL     OW20818   0.244   4.078   6.090 -0.0703 -1.1787 -0.1521
 3120SOL    HW120819   0.251   4.173   6.101 -1.5727 -1.0964  0.1379
 3120SOL    HW220820   0.334   4.047   6.091 -0.3257 -1.9462 -0.9626
 3121SOL     OW20821   3.088   4.214  12.893  0.0512 -0.0497  0.2709
 3121SOL    HW120822   3.021   4.188  12.830 -0.3722 -0.2410  0.8040
 3121SOL    HW220823   3.159   4.151  12.883  0.0602  0.3259 -2.1534
 3122SOL     OW20824   4.135   2.407   6.927  0.5907  0.1747 -0.1260
 3122SOL    HW120825   4.183   2.435   7.004 -1.0691  0.3235  0.8519
 3122SOL    HW220826   4.048   2.389   6.963 -0.5472  0.4529 -2.6800
 3123SOL     OW20827   2.664   0.935   0.396 -0.3690  0.3092  0.2040
 3123SOL    HW120828   2.568   0.937   0.400 -0.2720 -1.3355  2.9673
 3123SOL    HW220829   2.691   0.865   0.455 -1.6498  0.1156  0.5487
 3124SOL     OW20830   3.213   3.863  13.667 -0.0415  0.6631 -0.0883
 3124SOL    HW120831   3.241   3.858  13.759  0.9561  0.3551 -0.4008
 3124SOL    HW220832   3.247   3.780  13.634 -3.5793 -0.5915 -0.4836
 3125SOL     OW20833   1.231   3.966   3.084 -0.0515  0.3758 -0.2161
 3125SOL    HW120834   1.326   3.963   3.083 -0.0489  0.6564 -0.8766
 3125SOL    HW220835   1.216   3.947   2.991 -0.2548  1.2033 -0.3598
 3126SOL     OW20836   1.380   3.817   5.861  0.5106  0.1948 -0.0301
 3126SOL    HW120837   1.472   3.799   5.879  0.4976 -1.7501 -1.8913
 3126SOL    HW220838   1.333   3.733   5.854  1.7223 -0.5742  1.0842
 3127SOL     OW20839   2.749   4.691   8.440 -0.0274 -0.2078 -0.5231
 3127SOL    HW120840   2.835   0.009   8.428  0.0316 -0.7888 -2.0738
 3127SOL    HW220841   2.769   4.604   8.407 -0.4868 -0.9793  1.2018
 3128SOL     OW20842   0.284   2.475  15.728  0.1728 -0.2707  0.2719
 3128SOL    HW120843   0.365   2.494  15.681 -0.4526  0.0845 -0.6593
 3128SOL    HW220844   0.262   2.390  15.693  0.5936 -0.4543  0.4482
 3129SOL     OW20845   3.481   0.936   3.365  0.4325  0.1957 -0.1605
 3129SOL    HW120846   3.538   0.917   3.439 -1.6486  1.3682  1.7532
 3129SOL    HW220847   3.395   0.937   3.406  1.4022 -3.9181  1.9503
 3130SOL     OW20848   1.254   0.226  16.351 -0.1625  0.3077  0.4074
 3130SOL    HW120849   1.252   0.136  16.382  0.2562  0.7000  1.5610
 3130SOL    HW220850   1.200   0.216  16.272 -1.6519 -0.7529  1.5760
 3131SOL     OW20851   4.379   4.509   8.297  0.9262  0.2516 -0.3893
 3131SOL    HW120852   4.318   4.466   8.238  0.4247  1.3285 -0.6561
 3131SOL    HW220853   4.332   4.515   8.380  0.2943 -0.5542 -0.6866
 3132SOL     OW20854   3.714   3.886   2.826 -0.2003 -0.5257 -0.6406
 3132SOL    HW120855   3.664   3.808   2.851  1.3388 -1.0193  0.9128
 3132SOL    HW220856   3.725   3.878   2.732 -0.0133  1.7769 -0.8087
 3133SOL     OW20857   4.589   0.106  17.388 -0.0198 -0.2493  0.1258
 3133SOL    HW120858   4.516   0.137  17.443  0.0825  0.0107  0.1142
 3133SOL    HW220859   4.560   0.016  17.378  0.9838 -0.3672 -1.7799
 3134SOL     OW20860   2.091   3.302  15.889 -0.3129 -0.2934  0.0538
 3134SOL    HW120861   2.150   3.374  15.915  1.3698 -1.9218  0.7135
 3134SOL    HW220862   2.111   3.296  15.795  1.1565 -3.1537  0.5487
 3135SOL     OW20863   3.693   1.632   3.980 -0.5530  0.3032  0.0458
 3135SOL    HW120864   3.762   1.695   4.004 -0.6543  1.0099 -1.5395
 3135SOL    HW220865   3.709   1.618   3.887 -0.5427 -0.5046  0.1725
 3136SOL     OW20866   2.162   4.357   9.005 -0.1820 -0.5976  0.8005
 3136SOL    HW120867   2.226   4.348   9.076 -0.2407 -1.1690  0.7861
 3136SOL    HW220868   2.131   4.267   8.996 -2.0863  0.0681  0.7797
 3137SOL     OW20869   3.118   3.811   9.224  0.1169  0.1974 -0.0577
 3137SOL    HW120870   3.061   3.856   9.287  0.2563  0.1233  0.1201
 3137SOL    HW220871   3.199   3.801   9.274 -0.4597 -2.9169  0.2725
 3138SOL     OW20872   2.929   3.656   5.145  0.2414  0.4662 -1.1486
 3138SOL    HW120873   2.834   3.671   5.144  0.6594  2.9662 -2.0144
 3138SOL    HW220874   2.939   3.642   5.239  1.3630  1.0910 -1.1837
 3139SOL     OW20875   4.304   0.258   4.967 -0.1781 -0.2129  0.3927
 3139SOL    HW120876   4.360   0.221   4.899 -0.1732  2.0043 -0.8067
 3139SOL    HW220877   4.316   0.352   4.953 -0.7622 -0.4911 -1.9929
 3140SOL     OW20878   1.913   2.465   8.273  0.0721  0.0437  0.0649
 3140SOL    HW120879   1.961   2.532   8.321 -0.0057 -0.7613  1.2531
 3140SOL    HW220880   1.962   2.385   8.294 -0.0086 -0.0313 -0.0276
 3141SOL     OW20881   2.463   0.630   7.477 -0.6554 -0.2161 -0.0147
 3141SOL    HW120882   2.392   0.664   7.424 -1.3845  2.2232  2.5407
 3141SOL    HW220883   2.458   0.686   7.555  0.7280 -2.0641  1.4056
 3142SOL     OW20884   0.064   3.538   4.294 -0.2001 -0.2836 -0.0928
 3142SOL    HW120885   0.119   3.560   4.369  0.4044 -0.0321 -0.6126
 3142SOL    HW220886   0.043   3.445   4.308 -1.0602 -0.2030 -0.8356
 3143SOL     OW20887   2.748   3.445   2.484 -0.3067  0.6635 -0.2786
 3143SOL    HW120888   2.805   3.493   2.424  2.7642 -0.8597  1.4650
 3143SOL    HW220889   2.801   3.366   2.488  0.1872  1.0344  0.3815
 3144SOL     OW20890   4.303   3.423   3.088 -0.1865  0.8517  0.1139
 3144SOL    HW120891   4.300   3.512   3.123  2.3584  0.8050  0.4688
 3144SOL    HW220892   4.396   3.406   3.073 -0.3049  0.4237 -0.1515
 3145SOL     OW20893   0.108   3.219  14.982 -0.1418  0.0661  0.1975
 3145SOL    HW120894   0.030   3.228  14.927  1.0417  1.4137 -1.2586
 3145SOL    HW220895   0.168   3.278  14.937 -1.4444  1.3362  0.1452
 3146SOL     OW20896   0.594   2.954  16.067 -0.3952 -0.4297  0.3191
 3146SOL    HW120897   0.574   2.986  16.154 -1.8370  0.9622 -0.5197
 3146SOL    HW220898   0.542   3.021  16.021  0.1370 -0.7938 -0.8257
 3147SOL     OW20899   3.434   0.434  17.504  0.5221  0.5945  0.1319
 3147SOL    HW120900   3.466   0.523  17.518 -0.4207  1.1568 -1.2615
 3147SOL    HW220901   3.340   0.441  17.519  0.7353 -0.3084  1.8777
 3148SOL     OW20902   0.164   3.506  11.977 -0.6456 -0.5646 -0.0565
 3148SOL    HW120903   0.179   3.505  12.072  0.5057 -0.6749 -0.2414
 3148SOL    HW220904   0.209   3.426  11.950 -0.4766 -0.6947  0.6201
 3149SOL     OW20905   4.650   0.937   2.760 -0.4356 -0.1153  0.2470
 3149SOL    HW120906   4.561   0.973   2.765 -1.0866 -1.5679 -0.9922
 3149SOL    HW220907   4.645   0.879   2.684 -1.6321  1.2823 -0.7339
 3150SOL     OW20908   4.432   1.617   8.400  0.1469 -0.1014 -0.1520
 3150SOL    HW120909   4.501   1.684   8.395  1.2880 -1.1823  1.4336
 3150SOL    HW220910   4.407   1.616   8.492  1.4630  1.6578  0.2350
 3151SOL     OW20911   0.696   2.949   6.090  0.6406 -0.0497  0.3436
 3151SOL    HW120912   0.645   2.946   6.171  0.3782  1.3135  0.2388
 3151SOL    HW220913   0.772   2.894   6.109 -0.0755 -1.5411 -1.1613
 3152SOL     OW20914   2.281   2.830   5.778  0.4269  0.0817  0.4657
 3152SOL    HW120915   2.367   2.844   5.737  0.4706 -0.2388  0.4439
 3152SOL    HW220916   2.266   2.922   5.800  0.2093 -0.2072  1.4814
 3153SOL     OW20917   0.749   1.923   9.149  0.5909  0.4877 -0.1137
 3153SOL    HW120918   0.656   1.902   9.158  0.7176  0.2624  0.6272
 3153SOL    HW220919   0.760   1.929   9.054  0.4117 -0.9285 -0.2186
 3154SOL     OW20920   1.803   2.696   5.312 -0.0652 -0.0246  0.6298
 3154SOL    HW120921   1.786   2.763   5.246  0.5979 -0.4809 -0.0044
 3154SOL    HW220922   1.716   2.662   5.332 -1.2609  2.7211  0.0619
 3155SOL     OW20923   3.991   4.608   8.485  0.2088 -0.3494 -0.1628
 3155SOL    HW120924   3.919   4.623   8.423 -1.6134 -0.6877  1.8688
 3155SOL    HW220925   3.960   4.525   8.521  0.4239 -0.3198  0.0885
 3156SOL     OW20926   2.045   0.201   3.673 -0.0196 -0.1664 -0.0196
 3156SOL    HW120927   2.069   0.259   3.601 -1.4080 -0.2486 -0.5426
 3156SOL    HW220928   2.131   0.179   3.711  1.2026  3.3010 -0.8256
 3157SOL     OW20929   4.267   2.361  14.640 -0.1207 -0.0507  0.4173
 3157SOL    HW120930   4.290   2.270  14.659  0.9790 -0.2247 -1.6863
 3157SOL    HW220931   4.231   2.395  14.722  0.7874 -0.6477  1.0592
 3158SOL     OW20932   0.492   4.603   7.487  0.6503  0.5108 -0.3265
 3158SOL    HW120933   0.494   4.509   7.504 -1.8243  0.6774  0.8615
 3158SOL    HW220934   0.581   4.627   7.460  1.1259  0.2137  0.9736
 3159SOL     OW20935   0.021   3.938  14.945  0.6435  0.6398  0.0065
 3159SOL    HW120936   4.663   3.921  14.993  0.3484  2.0054  0.0002
 3159SOL    HW220937   0.005   4.031  14.927  1.1745  0.7259 -0.0409
 3160SOL     OW20938   0.641   0.692  10.632 -0.5694 -0.5071  0.8585
 3160SOL    HW120939   0.683   0.752  10.694 -0.6325  0.9203 -0.4773
 3160SOL    HW220940   0.580   0.650  10.693  1.1792 -0.9951  2.2741
 3161SOL     OW20941   0.148   1.060   1.827  0.3651  0.5053 -0.6937
 3161SOL    HW120942   0.188   1.097   1.749  2.0438 -0.7757 -0.4669
 3161SOL    HW220943   0.077   1.004   1.796 -0.5905  3.1210 -3.1550
 3162SOL     OW20944   2.734   3.519   5.641 -0.0543 -0.1874  0.7262
 3162SOL    HW120945   2.779   3.440   5.671 -1.7991 -1.3824  0.1734
 3162SOL    HW220946   2.801   3.587   5.636 -2.6617  2.1836 -2.1501
 3163SOL     OW20947   0.741   1.181   4.233  0.1248  0.2319  0.5811
 3163SOL    HW120948   0.769   1.223   4.314 -2.1342  2.0446  0.4407
 3163SOL    HW220949   0.754   1.091   4.263 -1.8507  0.7302  2.9555
 3164SOL     OW20950   4.670   0.674   3.634  0.3728  0.2650 -0.4256
 3164SOL    HW120951   0.029   0.673   3.684 -0.5961 -1.0555  1.1580
 3164SOL    HW220952   4.618   0.605   3.677 -0.9095  2.1471  1.0801
 3165SOL     OW20953   0.042   2.547   7.579  0.9997 -0.7174  0.1642
 3165SOL    HW120954   0.054   2.637   7.609 -0.7799 -0.8004  1.1144
 3165SOL    HW220955   0.058   2.499   7.660  1.1754 -0.2737  0.3882
 3166SOL     OW20956   4.309   1.863   2.518  0.3916  0.8204  0.0699
 3166SOL    HW120957   4.251   1.821   2.456  1.2317  2.6077 -1.9181
 3166SOL    HW220958   4.253   1.873   2.595  1.1594 -0.9084  0.8754
 3167SOL     OW20959   1.847   0.601   9.202  0.0241  0.0383  0.1382
 3167SOL    HW120960   1.873   0.608   9.110 -0.9151 -1.0538 -0.2106
 3167SOL    HW220961   1.907   0.661   9.245 -1.9768  0.4374  2.3650
 3168SOL     OW20962   0.584   3.674   4.634 -0.7857 -0.1834 -0.7938
 3168SOL    HW120963   0.639   3.624   4.574  1.5392  0.2736  0.9543
 3168SOL    HW220964   0.649   3.709   4.695  0.6735 -1.1092 -1.8100
 3169SOL     OW20965   3.948   1.824   8.768 -0.5169 -0.2293  0.7967
 3169SOL    HW120966   3.921   1.849   8.856 -2.3374  0.1247  0.1305
 3169SOL    HW220967   4.035   1.786   8.784  0.3208  0.9944 -0.8156
 3170SOL     OW20968   3.760   2.780   0.405  0.3802  0.7142  0.5361
 3170SOL    HW120969   3.679   2.732   0.389  0.7551  0.1441  0.3164
 3170SOL    HW220970   3.737   2.814   0.491  0.5435 -0.2684  0.9675
 3171SOL     OW20971   2.797   2.015   5.744 -0.1671 -0.4434 -0.1249
 3171SOL    HW120972   2.712   2.030   5.785 -0.3383  0.4783 -0.8100
 3171SOL    HW220973   2.774   1.932   5.703  0.3056 -0.1756 -0.9352
 3172SOL     OW20974   2.094   3.790   5.937  0.1504  0.1135 -0.5414
 3172SOL    HW120975   2.024   3.838   5.981  0.1252 -1.6379  1.3111
 3172SOL    HW220976   2.127   3.737   6.010  0.8216  1.7557  0.3290
 3173SOL     OW20977   3.745   4.706   6.191  0.6902 -0.0395  0.3521
 3173SOL    HW120978   3.800   4.719   6.114  0.7691  1.1255  0.5977
 3173SOL    HW220979   3.734   0.075   6.216 -2.9316 -0.9098  1.9023
 3174SOL     OW20980   2.309   3.890  10.969 -0.2731  0.3156 -0.3800
 3174SOL    HW120981   2.319   3.810  11.020 -2.4495  0.5148  0.3965
 3174SOL    HW220982   2.359   3.953  11.020 -0.0368 -0.8341  0.8203
 3175SOL     OW20983   2.768   0.105  12.086  0.3102 -0.2156  0.4217
 3175SOL    HW120984   2.805   0.054  12.158 -1.9666 -3.3850 -0.6275
 3175SOL    HW220985   2.790   0.048  12.012 -1.4812  0.7333 -0.8583
 3176SOL     OW20986   3.911   2.365   1.009 -0.2979 -0.4796 -0.2986
 3176SOL    HW120987   3.869   2.444   0.974 -0.3505  0.7908  2.5864
 3176SOL    HW220988   3.861   2.341   1.087  0.3443 -0.8541  0.0010
 3177SOL     OW20989   1.513   1.854   1.998  0.4192  0.1134 -0.2983
 3177SOL    HW120990   1.533   1.930   1.943  2.1328 -1.0575 -1.2795
 3177SOL    HW220991   1.422   1.880   2.009 -0.0583 -1.6514 -0.1074
 3178SOL     OW20992   1.257   3.707   9.319 -0.9436 -0.0529 -0.3680
 3178SOL    HW120993   1.342   3.676   9.350 -1.6596 -1.8160 -0.1672
 3178SOL    HW220994   1.284   3.786   9.274 -0.7709  0.5807  0.8606
 3179SOL     OW20995   3.737   2.502  13.549 -0.1236 -0.0869  0.2340
 3179SOL    HW120996   3.831   2.518  13.555  0.3509 -2.4678 -0.7191
 3179SOL    HW220997   3.742   2.409  13.529  1.5402 -0.0645  0.5167
 3180SOL     OW20998   3.575   3.561  10.896 -0.7197 -0.5135  0.2820
 3180SOL    HW120999   3.597   3.654  10.904 -0.6049 -0.6686  1.9254
 3180SOL    HW221000   3.632   3.521  10.962  1.9940  1.9660 -0.5628
 3181SOL     OW21001   1.839   2.696  10.296 -0.0381 -0.3345 -0.5581
 3181SOL    HW121002   1.903   2.629  10.275 -0.1951 -0.9003  0.7537
 3181SOL    HW221003   1.872   2.769  10.244  2.2562 -1.1319 -0.2004
 3182SOL     OW21004   3.352   2.973   4.442 -0.0551  0.0560  1.0697
 3182SOL    HW121005   3.320   2.899   4.390  2.9669  0.1079 -0.9227
 3182SOL    HW221006   3.423   2.933   4.491  1.7960 -0.2933 -1.8642
 3183SOL     OW21007   2.152   1.602   2.972  0.1533 -0.0905  0.1384
 3183SOL    HW121008   2.214   1.590   3.044 -0.8292  2.0060  1.3070
 3183SOL    HW221009   2.108   1.518   2.984  1.1502 -0.3148  2.1875
 3184SOL     OW21010   3.298   0.148   8.172  0.0086  0.7980  0.0661
 3184SOL    HW121011   3.387   0.176   8.149  0.9855 -0.7581  2.0040
 3184SOL    HW221012   3.267   0.220   8.227 -0.7554  0.8345 -0.4087
 3185SOL     OW21013   3.261   0.747   2.103 -0.0657  0.4755  0.1510
 3185SOL    HW121014   3.292   0.837   2.108  3.0634 -0.6149  0.2871
 3185SOL    HW221015   3.282   0.732   2.011 -1.3483  0.2900 -0.1183
 3186SOL     OW21016   3.283   0.877  10.750 -0.1270 -0.1651  0.0288
 3186SOL    HW121017   3.272   0.928  10.670  1.1229  0.8609  0.5156
 3186SOL    HW221018   3.195   0.867  10.787 -0.3093 -1.7364 -0.8098
 3187SOL     OW21019   0.278   1.430  10.728  0.1274  0.1278  0.2775
 3187SOL    HW121020   0.283   1.349  10.779 -1.5942  0.5572  1.1421
 3187SOL    HW221021   0.201   1.413  10.673  1.6561 -1.6688 -1.3317
 3188SOL     OW21022   4.246   4.465   5.004 -0.7674  0.4264 -0.3707
 3188SOL    HW121023   4.318   4.403   5.004 -0.8586  0.3547 -3.2346
 3188SOL    HW221024   4.172   4.405   5.014  0.8836 -1.4268  0.6812
 3189SOL     OW21025   2.199   3.397   7.450 -0.1829  0.4064  0.2009
 3189SOL    HW121026   2.227   3.424   7.363 -1.5654  2.2276  0.3186
 3189SOL    HW221027   2.166   3.309   7.434  1.9750 -0.0289 -1.9269
 3190SOL     OW21028   2.213   0.975   0.937  0.6393  0.4712  0.1025
 3190SOL    HW121029   2.129   1.020   0.947  1.2955  1.8995 -0.7764
 3190SOL    HW221030   2.255   1.037   0.878  1.1832  0.3063  0.3111
 3191SOL     OW21031   2.350   1.742   4.980  0.5916 -0.2584 -0.2492
 3191SOL    HW121032   2.305   1.664   4.948 -1.2747  0.5794  0.3393
 3191SOL    HW221033   2.401   1.760   4.902 -1.4799 -2.9968 -2.2567
 3192SOL     OW21034   4.616   4.548   5.184  0.2700 -0.8655 -0.0134
 3192SOL    HW121035   4.565   4.471   5.160 -0.4322  0.1623 -1.8148
 3192SOL    HW221036   4.681   4.556   5.114 -0.4046  2.5073 -0.2549
 3193SOL     OW21037   0.921   2.395   8.368  0.0873  0.0962  0.2508
 3193SOL    HW121038   0.981   2.445   8.424  0.8749 -0.4554 -0.0981
 3193SOL    HW221039   0.831   2.424   8.382  0.1812  0.8339 -0.6479
 3194SOL     OW21040   1.757   3.017   2.967 -0.8296 -0.2655  1.0223
 3194SOL    HW121041   1.701   3.056   2.900 -0.2842 -0.2003  0.6022
 3194SOL    HW221042   1.803   2.965   2.901  0.1674 -0.5528  1.9286
 3195SOL     OW21043   1.493   3.836   8.412 -0.2727 -0.1714  0.2194
 3195SOL    HW121044   1.454   3.805   8.330  1.5924 -2.2301  0.1222
 3195SOL    HW221045   1.496   3.748   8.447  0.5968  0.2800  1.2751
 3196SOL     OW21046   3.215   2.898  15.997  0.2982 -0.3804  0.2634
 3196SOL    HW121047   3.291   2.866  15.948 -0.8765 -2.8191  0.0425
 3196SOL    HW221048   3.140   2.871  15.945  0.0769 -0.1140  0.4444
 3197SOL     OW21049   0.135   2.011   7.121  0.0562 -0.1562 -0.1736
 3197SOL    HW121050   0.065   1.981   7.179 -0.7955  1.0598 -0.5872
 3197SOL    HW221051   0.193   2.046   7.189 -0.0431 -1.0379  0.3570
 3198SOL     OW21052   2.100   0.567   8.598 -0.2072  0.6574  0.4534
 3198SOL    HW121053   2.054   0.649   8.583 -2.0831  0.0274  2.7584
 3198SOL    HW221054   2.066   0.549   8.686 -0.0665 -2.2213 -0.0717
 3199SOL     OW21055   2.309   1.024  10.213  0.2276  0.1006 -0.4008
 3199SOL    HW121056   2.341   0.940  10.180 -2.6072 -0.4585 -1.7600
 3199SOL    HW221057   2.270   1.015  10.300  3.6525 -0.9839  1.0410
 3200SOL     OW21058   3.897   0.169   2.637  0.8275  0.1016 -0.1137
 3200SOL    HW121059   3.875   0.240   2.577 -0.1892  0.4072  0.6143
 3200SOL    HW221060   3.988   0.149   2.615  0.3237 -0.6346 -1.5870
 3201SOL     OW21061   4.079   4.494   4.775 -0.0081 -0.0918 -0.2749
 3201SOL    HW121062   4.061   4.401   4.787 -1.3287  0.3116  0.8453
 3201SOL    HW221063   4.142   4.510   4.845 -0.3222  1.4016 -0.3256
 3202SOL     OW21064   0.866   3.419   3.965 -0.4747  0.2970 -0.2228
 3202SOL    HW121065   0.773   3.432   3.985 -0.4879  0.0944 -0.1424
 3202SOL    HW221066   0.866   3.428   3.870 -1.2801 -0.3007 -0.2839
 3203SOL     OW21067   3.020   3.593   3.723 -0.3542  0.6088 -0.0061
 3203SOL    HW121068   2.949   3.543   3.764 -0.8860  0.8898 -0.5945
 3203SOL    HW221069   3.090   3.533   3.750 -2.3229 -1.3352  0.8160
 3204SOL     OW21070   3.046   2.487   5.202  0.0481  0.0284 -0.0073
 3204SOL    HW121071   2.951   2.478   5.206 -0.0731  0.9446 -0.9583
 3204SOL    HW221072   3.055   2.574   5.242  1.8377 -0.8196  1.4438
 3205SOL     OW21073   0.505   0.570  12.542  0.1550  0.0092  0.6618
 3205SOL    HW121074   0.446   0.558  12.617 -2.2102 -0.7063 -1.3156
 3205SOL    HW221075   0.452   0.632  12.493 -0.3091 -0.3760  0.6784
 3206SOL     OW21076   1.528   2.953   7.664  0.0725  0.6133  0.2963
 3206SOL    HW121077   1.462   2.945   7.733 -0.6205  0.3440 -0.3950
 3206SOL    HW221078   1.592   3.012   7.704  1.5399 -0.1494 -0.9471
 3207SOL     OW21079   0.825   3.735  12.422 -0.0587 -0.5343  0.0201
 3207SOL    HW121080   0.790   3.646  12.427  2.3534 -1.6835 -3.2033
 3207SOL    HW221081   0.748   3.789  12.434  1.2284  0.3433  4.0872
 3208SOL     OW21082   3.526   0.355  14.643 -0.1140 -0.5257  0.3627
 3208SOL    HW121083   3.608   0.325  14.603  0.4147  1.3290  0.0382
 3208SOL    HW221084   3.544   0.301  14.719 -0.7669 -2.4155 -0.8191
 3209SOL     OW21085   3.563   1.521   0.288  0.5659 -0.0948 -0.1365
 3209SOL    HW121086   3.551   1.543   0.380  0.9810  2.4056 -0.6733
 3209SOL    HW221087   3.559   1.426   0.276 -0.3039 -0.2282  1.2357
 3210SOL     OW21088   0.602   1.362   5.376  0.0790  0.1268  0.5345
 3210SOL    HW121089   0.661   1.300   5.420  2.2609  0.8522 -1.3621
 3210SOL    HW221090   0.614   1.440   5.430  4.1061  0.4467 -0.8401
 3211SOL     OW21091   3.298   2.717  15.743  0.3127  0.0684  0.5757
 3211SOL    HW121092   3.289   2.737  15.650  2.9795 -2.7752 -0.2877
 3211SOL    HW221093   3.384   2.677  15.739  0.2539  0.0383 -0.3754
 3212SOL     OW21094   3.736   2.598   4.316 -0.0211 -0.4002  0.0762
 3212SOL    HW121095   3.683   2.599   4.236  0.5574  0.4793 -0.2930
 3212SOL    HW221096   3.799   2.669   4.308 -1.7840  1.2699  1.1598
 3213SOL     OW21097   2.982   2.167  16.732  0.6601 -0.2503 -0.2380
 3213SOL    HW121098   2.891   2.185  16.710  0.5371 -2.8253 -1.8590
 3213SOL    HW221099   3.002   2.110  16.658  0.3127 -1.9583  0.9860
 3214SOL     OW21100   0.120   1.979   6.299  0.5925  0.8120 -0.4488
 3214SOL    HW121101   0.084   2.012   6.381  0.7921 -2.5840  0.9770
 3214SOL    HW221102   0.053   1.919   6.266 -0.8893  0.4616  3.2882
 3215SOL     OW21103   2.875   3.084  11.908  0.6503  0.3136  0.5521
 3215SOL    HW121104   2.935   3.010  11.903 -1.1385 -1.0905  0.0634
 3215SOL    HW221105   2.874   3.106  11.815 -0.4384  2.1189  0.9907
 3216SOL     OW21106   0.556   2.112   8.906  0.1034  0.2408 -0.2202
 3216SOL    HW121107   0.527   2.064   8.983 -0.4978 -1.2377 -1.3757
 3216SOL    HW221108   0.636   2.071   8.874 -1.0420 -0.0142 -2.7168
 3217SOL     OW21109   3.745   2.119  15.077 -0.1902  0.0168  0.1473
 3217SOL    HW121110   3.672   2.171  15.111 -0.3786 -0.7725  0.9433
 3217SOL    HW221111   3.698   2.077  15.004  2.4038 -1.8119 -0.4802
 3218SOL     OW21112   3.839   1.404  13.072 -0.9724 -0.1200  0.6039
 3218SOL    HW121113   3.838   1.401  13.168  1.1678  1.1833  0.6793
 3218SOL    HW221114   3.756   1.362  13.051 -0.8993  0.2199 -0.3804
 3219SOL     OW21115   2.747   0.989  13.632 -0.4623 -0.1061 -0.4795
 3219SOL    HW121116   2.652   1.001  13.638 -0.6146 -1.5613 -0.0714
 3219SOL    HW221117   2.750   0.997  13.536  1.6653  0.6236 -0.3370
 3220SOL     OW21118   0.380   0.213  17.545 -1.0094  0.0877  0.3965
 3220SOL    HW121119   0.363   0.160  17.467  1.6637 -1.4631  0.8574
 3220SOL    HW221120   0.395   0.301  17.511 -0.2550 -0.1509  0.1127
 3221SOL     OW21121   2.699   2.132   6.706 -0.2300  0.0924 -0.1486
 3221SOL    HW121122   2.792   2.134   6.730 -0.3662  0.2455  0.3572
 3221SOL    HW221123   2.664   2.104   6.790 -2.2289  2.4481 -0.2017
 3222SOL     OW21124   1.530   3.608   7.442  0.0185 -0.1014  0.5147
 3222SOL    HW121125   1.437   3.592   7.461 -0.0144 -0.1208  0.3360
 3222SOL    HW221126   1.540   3.702   7.457 -0.7533  0.3021 -1.4886
 3223SOL     OW21127   1.710   2.009   9.888 -0.0991  0.4418 -0.2470
 3223SOL    HW121128   1.662   2.043   9.963 -1.9276 -0.4382 -1.0189
 3223SOL    HW221129   1.651   2.025   9.815 -0.3792 -1.8055 -0.5238
 3224SOL     OW21130   0.511   0.832   5.142  0.7784  0.0616  0.2822
 3224SOL    HW121131   0.439   0.789   5.189  1.1553  0.2277  1.0197
 3224SOL    HW221132   0.580   0.768   5.121  2.9151  2.8605 -1.1360
 3225SOL     OW21133   4.585   0.181  11.032  0.1161  0.2668 -0.0813
 3225SOL    HW121134   4.493   0.158  11.046  0.4087 -0.9133 -0.0780
 3225SOL    HW221135   4.635   0.099  11.038  2.6595  1.7649 -0.8563
 3226SOL     OW21136   1.794   3.890   3.449  0.1185  0.8302 -0.1230
 3226SOL    HW121137   1.728   3.912   3.515  0.5766  1.8065  0.0122
 3226SOL    HW221138   1.870   3.887   3.507 -0.6163 -1.2255  0.7401
 3227SOL     OW21139   1.353   4.621   8.081 -0.3492  0.7421 -0.9157
 3227SOL    HW121140   1.383   4.615   7.990 -1.9472  0.5294 -1.4334
 3227SOL    HW221141   1.268   4.582   8.060 -1.5098  1.3577  2.6310
 3228SOL     OW21142   1.971   2.701  13.784 -0.6973 -0.1521  0.0872
 3228SOL    HW121143   1.954   2.621  13.733 -0.7734 -0.0426 -0.0593
 3228SOL    HW221144   2.055   2.726  13.746 -1.7396  0.6520 -1.6872
 3229SOL     OW21145   2.470   4.653   2.600 -0.2546 -0.0872  0.1005
 3229SOL    HW121146   2.391   4.707   2.600 -0.7860 -0.8592  0.3378
 3229SOL    HW221147   2.447   4.597   2.674  0.2060 -0.3029  0.0797
 3230SOL     OW21148   2.080   4.508   0.950  0.1592  0.2502 -0.8347
 3230SOL    HW121149   2.122   4.505   1.036  3.1345  2.9180 -2.2121
 3230SOL    HW221150   2.145   4.447   0.915  0.0758  0.7915 -1.9250
 3231SOL     OW21151   0.395   3.763   0.502  0.2402 -0.0244 -0.0831
 3231SOL    HW121152   0.363   3.689   0.553 -0.9097  0.4374 -0.1416
 3231SOL    HW221153   0.315   3.786   0.457  0.9878  2.2387 -0.2437
 3232SOL     OW21154   3.128   3.395   8.602  0.1945  0.1656 -0.2766
 3232SOL    HW121155   3.100   3.424   8.689 -2.3268 -0.8970 -0.7246
 3232SOL    HW221156   3.202   3.342   8.631  1.0001  0.5820 -1.5470
 3233SOL     OW21157   2.650   3.544  17.237  0.3257  0.3845 -0.5886
 3233SOL    HW121158   2.715   3.587  17.181  0.0872  2.6478  0.8668
 3233SOL    HW221159   2.569   3.571  17.193 -0.8216 -1.6577  0.3080
 3234SOL     OW21160   0.480   1.337   7.005 -0.0938  0.4098 -0.2423
 3234SOL    HW121161   0.505   1.363   7.094  0.4491  0.9593 -0.5570
 3234SOL    HW221162   0.470   1.421   6.961  1.7794 -0.1118 -1.6613
 3235SOL     OW21163   2.571   2.724   9.617  0.7332  0.0537  0.0928
 3235SOL    HW121164   2.629   2.723   9.692 -0.3150 -0.8680  0.8880
 3235SOL    HW221165   2.638   2.745   9.551  0.9683  0.7535  0.5500
 3236SOL     OW21166   1.204   0.239  14.531  0.1178  0.5514  0.1222
 3236SOL    HW121167   1.236   0.324  14.559 -1.4767  1.3049 -0.3592
 3236SOL    HW221168   1.120   0.269  14.496 -2.0722 -2.3477  2.8000
 3237SOL     OW21169   2.349   1.175   5.915 -0.1457  0.1552 -0.0262
 3237SOL    HW121170   2.305   1.102   5.871 -0.2252 -0.6746  1.4303
 3237SOL    HW221171   2.436   1.151   5.884 -1.4186 -3.8924 -0.5692
 3238SOL     OW21172   1.389   0.980   5.376 -0.1014  0.0525  0.3906
 3238SOL    HW121173   1.332   0.920   5.327  1.0648 -1.4103  0.8252
 3238SOL    HW221174   1.326   1.029   5.429  0.6239 -1.2938  2.4708
 3239SOL     OW21175   2.574   0.929   3.517  0.6988  0.1668  0.3186
 3239SOL    HW121176   2.565   0.906   3.425  0.2911 -0.5179  0.5285
 3239SOL    HW221177   2.555   1.022   3.526 -0.4087  0.0616 -1.0550
 3240SOL     OW21178   3.196   3.569   7.141  0.0305 -0.4128  0.0335
 3240SOL    HW121179   3.285   3.600   7.159 -0.8265  1.7614  0.4753
 3240SOL    HW221180   3.156   3.655   7.132 -1.9336 -1.5941 -2.5718
 3241SOL     OW21181   3.146   1.406   3.126 -0.0381  0.5086 -0.1158
 3241SOL    HW121182   3.184   1.378   3.043  0.3455  1.7504 -0.3684
 3241SOL    HW221183   3.198   1.483   3.150  2.8220 -1.2907 -0.6213
 3242SOL     OW21184   4.406   3.266  10.782 -0.1082  0.0066 -0.2670
 3242SOL    HW121185   4.494   3.289  10.812 -0.6444  0.0915  1.2143
 3242SOL    HW221186   4.427   3.188  10.731  0.9724 -0.3013  0.6295
 3243SOL     OW21187   0.424   1.230   5.704  0.0544  0.8141  0.2740
 3243SOL    HW121188   0.344   1.275   5.730 -0.1424  0.3342  0.4938
 3243SOL    HW221189   0.439   1.251   5.612  0.4989  1.3949  0.4738
 3244SOL     OW21190   3.164   0.589   8.978  0.6036  0.7113 -0.3122
 3244SOL    HW121191   3.224   0.651   8.936  1.6595 -1.7912 -2.4467
 3244SOL    HW221192   3.153   0.630   9.064 -1.2987 -0.3859 -0.0152
 3245SOL     OW21193   4.195   1.449   6.628 -0.0805 -0.4771  0.1840
 3245SOL    HW121194   4.272   1.411   6.670 -0.6632  1.3080  2.8912
 3245SOL    HW221195   4.177   1.389   6.556 -1.4084 -1.6809  1.5199
 3246SOL     OW21196   4.200   1.897   9.609 -0.2196  0.0916  0.0278
 3246SOL    HW121197   4.191   1.963   9.540  0.3063 -0.6543 -0.7501
 3246SOL    HW221198   4.194   1.947   9.690 -4.3191  0.2429 -0.3553
 3247SOL     OW21199   1.839   0.411   4.445 -0.2826 -0.7782 -0.1527
 3247SOL    HW121200   1.905   0.480   4.437 -0.0411 -0.9698  0.2176
 3247SOL    HW221201   1.778   0.454   4.504  1.3624  2.4237 -0.8196
 3248SOL     OW21202   1.746   0.281   2.690  0.0870 -0.1157  0.2570
 3248SOL    HW121203   1.802   0.288   2.767 -0.2719 -0.7084  0.5714
 3248SOL    HW221204   1.725   0.373   2.678  0.3082 -0.0866  0.0982
 3249SOL     OW21205   1.605   0.258   1.895 -0.3747  0.3239 -0.2482
 3249SOL    HW121206   1.641   0.178   1.856  0.3567  1.1381 -1.2231
 3249SOL    HW221207   1.557   0.297   1.822  0.3834  1.3347 -0.2044
 3250SOL     OW21208   3.457   3.289   7.362  0.6095  0.7579  0.0702
 3250SOL    HW121209   3.419   3.213   7.407 -0.2149  0.2198 -1.5201
 3250SOL    HW221210   3.390   3.292   7.293 -2.1447  0.8242  2.7789
 3251SOL     OW21211   1.324   3.617   6.548 -0.4741  0.0476  0.1047
 3251SOL    HW121212   1.336   3.537   6.598 -0.9840 -0.9250 -1.3277
 3251SOL    HW221213   1.228   3.621   6.550 -0.5046 -0.9306  0.4199
 3252SOL     OW21214   3.653   2.804   7.459 -0.4702  0.0153  0.3242
 3252SOL    HW121215   3.563   2.826   7.436  0.2758  1.1795 -1.5339
 3252SOL    HW221216   3.642   2.766   7.546 -3.2723  1.2670  0.5134
 3253SOL     OW21217   3.792   2.084   5.979  0.6050  0.0234  0.3728
 3253SOL    HW121218   3.823   2.086   5.889  1.4876  1.4630  0.7189
 3253SOL    HW221219   3.845   2.147   6.027  0.7041  0.1420  0.1055
 3254SOL     OW21220   4.562   1.130   1.713 -0.0378 -0.4352 -0.4389
 3254SOL    HW121221   4.502   1.186   1.664  3.1429  2.8624 -0.5518
 3254SOL    HW221222   4.648   1.157   1.679  0.4220 -1.1593  0.1436
 3255SOL     OW21223   1.345   1.484   5.686  0.2334 -0.3169 -0.2298
 3255SOL    HW121224   1.300   1.547   5.742 -0.9569 -1.1527 -0.2364
 3255SOL    HW221225   1.422   1.536   5.666  0.7942 -0.2097  2.2971
 3256SOL     OW21226   0.410   0.451   7.760 -0.5069 -0.7369  0.1381
 3256SOL    HW121227   0.384   0.409   7.842  1.1616 -0.5150  0.7751
 3256SOL    HW221228   0.497   0.488   7.771 -1.1327  0.0537  2.3243
 3257SOL     OW21229   0.241   1.632   8.066 -0.0821 -0.0358  0.0201
 3257SOL    HW121230   0.276   1.545   8.048 -0.2824  0.2375 -1.7246
 3257SOL    HW221231   0.317   1.686   8.042  1.0477 -0.1112  3.3899
 3258SOL     OW21232   4.110   0.098   8.345  0.3543  0.9917  0.6372
 3258SOL    HW121233   4.051   0.108   8.271 -0.5546  0.5751  1.3028
 3258SOL    HW221234   4.067   0.023   8.386  1.0013 -1.0326 -2.3535
 3259SOL     OW21235   4.154   2.959   3.095 -0.2422 -0.2290  0.6064
 3259SOL    HW121236   4.152   2.884   3.036 -0.9339  0.4803 -0.2825
 3259SOL    HW221237   4.236   3.000   3.069 -0.1280 -0.3101  0.8415
 3260SOL     OW21238   0.955   0.827   5.682 -0.5957 -0.4007  0.8826
 3260SOL    HW121239   1.001   0.743   5.679  1.6203  0.8433  0.6716
 3260SOL    HW221240   0.922   0.840   5.771 -2.0854  0.1441  0.2595
 3261SOL     OW21241   1.654   3.167   0.604  0.3000  0.2621 -0.5937
 3261SOL    HW121242   1.573   3.208   0.573 -0.7446 -1.4632 -0.1243
 3261SOL    HW221243   1.707   3.202   0.531 -1.1856  2.2649 -0.7035
 3262SOL     OW21244   3.400   4.014  14.879 -0.6675 -0.6346 -0.1706
 3262SOL    HW121245   3.474   4.025  14.820 -0.0943  1.0010  0.8626
 3262SOL    HW221246   3.364   4.101  14.861  0.8557 -0.0377 -0.3122
 3263SOL     OW21247   3.094   1.824  13.141 -0.1495  0.3658 -0.1662
 3263SOL    HW121248   3.108   1.894  13.078  0.2944 -0.2183 -0.7222
 3263SOL    HW221249   3.003   1.800  13.123 -0.1888  0.2793  0.1566
 3264SOL     OW21250   3.592   0.827   3.152  0.3216  0.1630  0.3252
 3264SOL    HW121251   3.570   0.865   3.237 -0.6453  3.4834 -1.4045
 3264SOL    HW221252   3.684   0.855   3.153  0.3354  0.0674  2.7948
 3265SOL     OW21253   3.457   1.646   8.352 -0.0012  0.6377 -0.2944
 3265SOL    HW121254   3.404   1.642   8.432 -0.9478 -0.4442 -0.9772
 3265SOL    HW221255   3.466   1.741   8.345 -0.6765  0.9168  2.4291
 3266SOL     OW21256   4.187   3.056   5.490 -0.4210  0.1012  0.2847
 3266SOL    HW121257   4.177   3.083   5.399  1.9225  0.2112  0.0527
 3266SOL    HW221258   4.282   3.071   5.491 -0.2843 -0.8212  1.8213
 3267SOL     OW21259   1.009   3.060  16.199 -0.0003 -0.4509  0.4339
 3267SOL    HW121260   1.053   3.133  16.155  0.5435 -1.6083 -0.9954
 3267SOL    HW221261   1.060   3.055  16.280  3.2555 -0.8094 -1.6034
 3268SOL     OW21262   2.372   0.297  12.336  0.1791 -0.6165  0.3963
 3268SOL    HW121263   2.306   0.341  12.282 -1.3454  1.1520  3.7163
 3268SOL    HW221264   2.379   0.365  12.403  0.2230 -0.6048  0.3800
 3269SOL     OW21265   0.752   1.413   2.636 -0.3577  0.3405 -0.0012
 3269SOL    HW121266   0.786   1.489   2.588 -0.3318  1.4993  1.8683
 3269SOL    HW221267   0.705   1.369   2.565 -1.4583 -2.0443  2.2134
 3270SOL     OW21268   0.722   1.463   6.091 -0.2485  0.1468  0.2194
 3270SOL    HW121269   0.744   1.384   6.042  1.4730  1.2932 -0.8448
 3270SOL    HW221270   0.798   1.518   6.072  0.6907 -1.5400 -0.8732
 3271SOL     OW21271   3.423   2.852  13.224 -0.0940  0.1059  0.3242
 3271SOL    HW121272   3.434   2.860  13.318 -0.3231 -0.5337  0.4069
 3271SOL    HW221273   3.339   2.894  13.209  0.5444  0.8444 -1.2610
 3272SOL     OW21274   0.385   4.293   9.857 -0.2527  0.3709  0.2163
 3272SOL    HW121275   0.344   4.264   9.775  0.1695 -0.9100  0.4645
 3272SOL    HW221276   0.362   4.217   9.910 -0.5402 -0.8741 -1.6669
 3273SOL     OW21277   2.669   2.185  10.848  0.0224  0.1901 -0.2416
 3273SOL    HW121278   2.605   2.179  10.918 -2.0649 -0.3715 -2.2003
 3273SOL    HW221279   2.727   2.114  10.877 -1.4256 -1.8583 -2.4030
 3274SOL     OW21280   1.537   1.814   7.733  0.0573 -0.0771 -0.0532
 3274SOL    HW121281   1.612   1.871   7.752 -1.0179  1.6344 -0.9124
 3274SOL    HW221282   1.476   1.862   7.790 -0.7976 -0.7295 -0.4181
 3275SOL     OW21283   2.926   2.343   5.882 -0.0187 -0.0142  0.3178
 3275SOL    HW121284   2.880   2.261   5.902 -2.8139  1.6656  0.8844
 3275SOL    HW221285   2.977   2.321   5.805  1.5703 -2.0606  1.9477
 3276SOL     OW21286   0.487   3.309   6.730  0.0082 -0.1007  0.2167
 3276SOL    HW121287   0.480   3.287   6.823 -0.0712  0.7133  0.4046
 3276SOL    HW221288   0.397   3.327   6.704  0.3616  1.2754 -0.0546
 3277SOL     OW21289   2.453   0.452   4.596  0.4710 -0.2712  0.0005
 3277SOL    HW121290   2.528   0.508   4.576  2.3469 -2.5543  0.6572
 3277SOL    HW221291   2.437   0.419   4.508 -2.4968 -0.4764  0.6188
 3278SOL     OW21292   3.757   0.688  15.843  0.2202  0.5449  0.3417
 3278SOL    HW121293   3.826   0.728  15.790 -0.7619  2.8046  0.7806
 3278SOL    HW221294   3.689   0.685  15.776  0.1445  0.5223  0.4195
 3279SOL     OW21295   1.083   1.176   2.725  0.2752  0.4713 -0.1876
 3279SOL    HW121296   1.095   1.270   2.709  0.5450  0.4427 -0.1429
 3279SOL    HW221297   1.022   1.166   2.652  1.3983 -1.9908 -0.7689
 3280SOL     OW21298   1.565   2.019   4.170 -0.0887 -0.7073 -0.0951
 3280SOL    HW121299   1.499   2.045   4.105  0.6877  0.9629 -0.2032
 3280SOL    HW221300   1.627   2.089   4.149 -0.9020  0.3913  1.1219
 3281SOL     OW21301   3.175   4.691   3.964  0.0027  0.4863  0.5791
 3281SOL    HW121302   3.232   0.009   3.899  0.2193  0.3811  0.7022
 3281SOL    HW221303   3.091   4.703   3.920 -1.0268 -0.6024  2.2371
 3282SOL     OW21304   1.156   2.547   2.890 -0.6946 -0.1072  0.3637
 3282SOL    HW121305   1.124   2.464   2.925  1.2609 -0.7935  0.5561
 3282SOL    HW221306   1.078   2.600   2.898 -0.3648  0.9664 -3.5145
 3283SOL     OW21307   4.668   0.914   8.152 -0.0849 -0.3125 -0.0714
 3283SOL    HW121308   4.688   0.999   8.112  2.6544 -0.7432  0.3654
 3283SOL    HW221309   4.662   0.857   8.075 -0.5745 -0.5731  0.1610
 3284SOL     OW21310   0.519   3.635   5.356  0.0152 -0.0815 -0.0733
 3284SOL    HW121311   0.567   3.713   5.384  2.9114 -1.3202 -1.6775
 3284SOL    HW221312   0.592   3.575   5.340  0.8446  0.4473  1.7679
 3285SOL     OW21313   1.377   3.639   1.960 -0.5389  0.0093 -0.4713
 3285SOL    HW121314   1.447   3.704   1.964 -2.0123  1.4873  1.8772
 3285SOL    HW221315   1.415   3.561   2.000 -2.4304 -0.5931  0.1321
 3286SOL     OW21316   0.186   4.415   7.986 -0.8557  0.4124  0.3775
 3286SOL    HW121317   0.151   4.487   7.934 -0.9338  1.1631  1.4710
 3286SOL    HW221318   0.247   4.463   8.042 -0.7818  1.1669 -0.3464
 3287SOL     OW21319   3.904   0.069  16.831 -0.0871  0.3088 -0.4745
 3287SOL    HW121320   3.887   4.722  16.767 -0.5839 -0.0527  0.0533
 3287SOL    HW221321   3.962   0.026  16.893 -1.4799 -0.2875  0.4038
 3288SOL     OW21322   2.713   1.211   6.027  0.0073  0.2328  0.1273
 3288SOL    HW121323   2.661   1.163   5.964  1.9801 -0.0687 -1.2481
 3288SOL    HW221324   2.739   1.290   5.980 -0.7033  1.2591  1.4369
 3289SOL     OW21325   4.139   2.412   2.437 -0.0458 -0.3158 -0.0275
 3289SOL    HW121326   4.059   2.444   2.397  0.8809  2.1917  0.1350
 3289SOL    HW221327   4.099   2.340   2.485 -1.8959  0.9441  0.3096
 3290SOL     OW21328   0.139   3.649  17.296 -0.0037  0.2651  0.1635
 3290SOL    HW121329   0.177   3.737  17.287 -1.8027  1.1268  0.8939
 3290SOL    HW221330   0.203   3.610  17.355  0.5593 -1.4460 -1.5861
 3291SOL     OW21331   3.308   1.324   3.367  0.0051  0.5336 -0.1127
 3291SOL    HW121332   3.248   1.313   3.293 -0.7278 -4.9628  1.3298
 3291SOL    HW221333   3.262   1.268   3.430  2.2839  0.7580  1.7221
 3292SOL     OW21334   3.517   2.590   4.812 -0.0453 -0.3710  0.2572
 3292SOL    HW121335   3.466   2.614   4.734 -0.7072 -0.7369  0.5778
 3292SOL    HW221336   3.543   2.503   4.782  4.3835  1.3704 -0.9969
 3293SOL     OW21337   4.324   1.606   2.351 -0.1109  0.2446 -0.5758
 3293SOL    HW121338   4.314   1.520   2.311 -0.8193 -1.4623  3.2612
 3293SOL    HW221339   4.386   1.583   2.420 -1.1412  2.3654  1.0417
 3294SOL     OW21340   4.629   1.426   4.975 -0.0997 -0.4220  0.6232
 3294SOL    HW121341   4.674   1.490   4.920 -1.1788 -2.4108 -2.6024
 3294SOL    HW221342   4.696   1.358   4.977 -0.1948 -0.5556 -0.4665
 3295SOL     OW21343   2.212   2.230   3.104 -0.3747 -0.1123 -0.1658
 3295SOL    HW121344   2.255   2.259   3.184  0.0088 -2.5303  0.5190
 3295SOL    HW221345   2.264   2.153   3.080 -2.3787 -1.6312  0.3509
 3296SOL     OW21346   4.243   2.472   2.709  0.6865  0.4998  0.0879
 3296SOL    HW121347   4.303   2.540   2.679 -1.9765  2.6136 -0.3956
 3296SOL    HW221348   4.197   2.463   2.626  0.3481  2.6075  0.0624
 3297SOL     OW21349   0.510   3.273  11.353  0.2653  0.3380  0.3729
 3297SOL    HW121350   0.580   3.211  11.374  0.4700  0.1883 -0.7236
 3297SOL    HW221351   0.500   3.326  11.432  2.0374 -2.0357  2.1690
 3298SOL     OW21352   0.223   3.123   7.250 -0.2570  0.4363 -0.7207
 3298SOL    HW121353   0.258   3.187   7.312 -1.6299  0.5319 -0.0335
 3298SOL    HW221354   0.286   3.052   7.260 -1.4234 -0.4413  0.4974
 3299SOL     OW21355   3.782   4.705   7.644 -0.0261  0.2493 -0.0318
 3299SOL    HW121356   3.817   4.693   7.733 -1.5802 -0.2491  0.5276
 3299SOL    HW221357   3.701   4.653   7.641  0.6724 -0.9026  1.0308
 3300SOL     OW21358   0.609   1.166  11.470  0.1660  0.2026  1.0025
 3300SOL    HW121359   0.683   1.181  11.411 -1.4210 -0.0570 -1.0562
 3300SOL    HW221360   0.666   1.171  11.547  1.2254  3.2231  0.0491
 3301SOL     OW21361   3.028   0.488   1.956  0.1540  0.6624  0.0021
 3301SOL    HW121362   3.022   0.510   1.863 -0.3291 -1.0145 -0.3633
 3301SOL    HW221363   2.981   0.405   1.968 -2.2088  2.3550  2.2168
 3302SOL     OW21364   3.564   3.100   5.743  0.1838 -0.0843  0.0882
 3302SOL    HW121365   3.615   3.162   5.796 -1.1953 -0.2503  1.6335
 3302SOL    HW221366   3.555   3.152   5.663 -0.2455 -0.5299 -0.1505
 3303SOL     OW21367   2.485   1.854   3.405 -0.6573  0.3779  0.7487
 3303SOL    HW121368   2.455   1.780   3.458  1.8672 -1.7528 -0.8185
 3303SOL    HW221369   2.439   1.843   3.322  2.0146  1.1007 -0.8069
 3304SOL     OW21370   2.871   2.988  14.769 -0.0764 -0.0427 -0.1674
 3304SOL    HW121371   2.945   2.934  14.796  1.1951  1.3575 -0.8690
 3304SOL    HW221372   2.824   2.978  14.851 -0.6001 -2.0949 -0.7061
 3305SOL     OW21373   1.247   2.259   3.585 -0.1833 -0.3063  0.1903
 3305SOL    HW121374   1.186   2.251   3.658 -1.4230  3.7505 -0.3979
 3305SOL    HW221375   1.335   2.246   3.620 -0.4797 -0.2316  0.9599
 3306SOL     OW21376   2.026   1.256   9.139  0.6565 -0.6044 -0.0576
 3306SOL    HW121377   2.009   1.288   9.227 -0.3654 -0.1081 -0.4362
 3306SOL    HW221378   2.081   1.324   9.101  0.0683 -0.0214  0.1408
 3307SOL     OW21379   4.436   3.645   6.944  0.1402 -0.0115 -0.3697
 3307SOL    HW121380   4.476   3.558   6.953  3.7485  1.7028  0.3517
 3307SOL    HW221381   4.386   3.642   7.026 -0.4738 -0.0962 -0.7477
 3308SOL     OW21382   1.734   1.613   7.717 -0.0407  0.2970  0.0426
 3308SOL    HW121383   1.658   1.671   7.724 -1.5266 -1.4813 -1.1068
 3308SOL    HW221384   1.694   1.542   7.666 -1.8060  1.9226 -0.8440
 3309SOL     OW21385   0.461   1.786   1.666  0.3256  0.1477  0.3728
 3309SOL    HW121386   0.450   1.779   1.571  1.7636 -2.1433  0.3790
 3309SOL    HW221387   0.390   1.727   1.690 -0.0621  0.4443 -0.0433
 3310SOL     OW21388   3.129   3.334   6.485  0.4191  0.2814  0.0073
 3310SOL    HW121389   3.184   3.256   6.478  0.2376  0.0597  1.0342
 3310SOL    HW221390   3.093   3.345   6.397 -2.6404  1.1892  1.3834
 3311SOL     OW21391   3.501   4.512   6.835  0.0297 -0.3780  0.2442
 3311SOL    HW121392   3.551   4.581   6.879 -1.5736 -0.2140  1.8120
 3311SOL    HW221393   3.537   4.437   6.883  3.5516  2.0097  1.3271
 3312SOL     OW21394   1.109   2.380   5.690  0.1596  0.3646  0.3920
 3312SOL    HW121395   1.032   2.377   5.747 -1.8934  0.0780 -2.4147
 3312SOL    HW221396   1.088   2.446   5.624 -1.1626 -1.0071 -0.5699
 3313SOL     OW21397   4.676   1.644   0.445 -0.7501  0.4085  0.0965
 3313SOL    HW121398   4.583   1.625   0.458 -0.9060  0.2939 -1.1548
 3313SOL    HW221399   4.715   1.627   0.531  1.6864  2.6280 -0.5740
 3314SOL     OW21400   0.096   3.033   0.803  0.5500  0.3098  0.1363
 3314SOL    HW121401   0.093   2.972   0.876 -1.6619  3.1725  2.4583
 3314SOL    HW221402   0.186   3.062   0.813  1.1454 -1.5140  0.0652
 3315SOL     OW21403   2.791   4.287  14.034 -0.3569  0.1696  0.2615
 3315SOL    HW121404   2.867   4.268  13.980 -1.4802  0.5834 -1.4587
 3315SOL    HW221405   2.810   4.244  14.118 -0.5709 -2.4237 -1.0022
 3316SOL     OW21406   1.022   3.821   2.279 -0.6233 -0.3468  0.0188
 3316SOL    HW121407   0.969   3.742   2.281  1.5838 -1.8277  0.0916
 3316SOL    HW221408   1.062   3.806   2.194  1.0577  1.6545  0.4463
 3317SOL     OW21409   2.326   3.975  11.695  0.6817 -0.2244 -0.5102
 3317SOL    HW121410   2.257   4.041  11.693  1.3810  0.4714 -1.4889
 3317SOL    HW221411   2.374   3.992  11.776  0.2503  2.0743 -0.7481
 3318SOL     OW21412   4.404   3.793  11.707 -0.3574  0.8109 -0.2071
 3318SOL    HW121413   4.325   3.841  11.683 -1.5895 -1.5106 -0.7620
 3318SOL    HW221414   4.436   3.860  11.767  0.2072  0.0989  0.2899
 3319SOL     OW21415   3.836   1.887   3.019  0.5157 -0.8062  0.7891
 3319SOL    HW121416   3.877   1.817   2.968 -1.4491 -1.1255 -0.3342
 3319SOL    HW221417   3.751   1.848   3.039  0.1484 -0.1427  0.5140
 3320SOL     OW21418   1.437   4.660  10.321  0.0501 -0.4975 -0.3922
 3320SOL    HW121419   1.397   4.578  10.292  2.3483 -1.4061 -0.9734
 3320SOL    HW221420   1.501   4.670  10.251 -1.2851  0.8142 -1.4215
 3321SOL     OW21421   1.797   0.542   8.228  0.6741  0.2996  0.1532
 3321SOL    HW121422   1.856   0.495   8.288 -2.2411 -0.4517  2.4324
 3321SOL    HW221423   1.793   0.629   8.267  0.2750  0.3754 -0.0567
 3322SOL     OW21424   2.299   2.386  14.764  0.2379  0.0784 -0.0101
 3322SOL    HW121425   2.325   2.416  14.852 -0.5540  2.3549 -0.5380
 3322SOL    HW221426   2.375   2.419  14.715 -0.2595 -1.0350 -1.4929
 3323SOL     OW21427   4.430   3.081   3.030 -0.6049 -0.5720 -0.9437
 3323SOL    HW121428   4.445   3.165   2.988  2.0215 -0.8005 -0.4490
 3323SOL    HW221429   4.503   3.036   2.988  0.1654 -0.9288  0.8199
 3324SOL     OW21430   3.014   1.252   7.127  0.3180  0.0638  0.0936
 3324SOL    HW121431   2.933   1.253   7.179  0.4536  0.5686  0.2940
 3324SOL    HW221432   2.998   1.313   7.055 -0.3819 -0.0804  0.1295
 3325SOL     OW21433   4.116   2.176   7.599 -0.7318 -0.2191 -0.8923
 3325SOL    HW121434   4.135   2.193   7.506  0.2591  1.4404 -0.3990
 3325SOL    HW221435   4.074   2.256   7.629 -0.5300  0.0012 -1.1922
 3326SOL     OW21436   0.859   3.355  16.341  0.1644 -0.5377 -0.3862
 3326SOL    HW121437   0.775   3.393  16.312 -1.2046 -2.1205  1.4884
 3326SOL    HW221438   0.888   3.312  16.261  1.1504  2.4772 -1.6353
 3327SOL     OW21439   3.279   2.380   6.791  0.0843 -0.0894  0.4391
 3327SOL    HW121440   3.207   2.426   6.747  0.6574 -1.3131 -1.7877
 3327SOL    HW221441   3.346   2.447   6.778 -1.3534  1.5469  1.4266
 3328SOL     OW21442   0.093   0.301  17.336 -0.7779  0.2583  0.0191
 3328SOL    HW121443   0.006   0.266  17.357 -0.2485 -0.5571  0.8408
 3328SOL    HW221444   0.075   0.395  17.324  1.2021  0.4883 -1.1076
 3329SOL     OW21445   0.967   3.277  10.836  0.3125 -0.1711  0.5570
 3329SOL    HW121446   1.033   3.345  10.820  0.3216 -0.9191 -2.6551
 3329SOL    HW221447   1.013   3.196  10.815 -1.6069 -1.8165  2.6251
 3330SOL     OW21448   2.006   1.959  17.338 -0.1938  0.0571  0.2311
 3330SOL    HW121449   2.000   2.054  17.332  1.0772  0.0316 -1.2592
 3330SOL    HW221450   2.019   1.935  17.247  0.2422  0.2024  0.2535
 3331SOL     OW21451   4.472   4.599   0.248  0.0196  0.2450  0.2760
 3331SOL    HW121452   4.398   4.629   0.302 -1.3197 -1.6119 -0.5088
 3331SOL    HW221453   4.540   4.652   0.288 -0.4494  0.0913  1.2782
 3332SOL     OW21454   4.032   0.667   6.475  0.6374  0.2437 -0.6615
 3332SOL    HW121455   4.034   0.574   6.501 -0.4347 -0.4050 -2.8814
 3332SOL    HW221456   4.092   0.658   6.401  1.8666 -1.2172  0.5046
 3333SOL     OW21457   0.467   0.519  12.826 -0.2771 -0.6406 -0.0475
 3333SOL    HW121458   0.551   0.565  12.814 -1.0715  0.1758 -2.5072
 3333SOL    HW221459   0.427   0.560  12.903  1.6777  1.5407 -0.1913
 3334SOL     OW21460   2.737   4.338   2.536  0.6160  0.1917  0.1676
 3334SOL    HW121461   2.806   4.272   2.539  0.6765  0.2425 -0.1302
 3334SOL    HW221462   2.669   4.313   2.473 -0.0326  2.1814  0.0763
 3335SOL     OW21463   3.260   3.977   2.899  0.3748 -0.1540  0.4121
 3335SOL    HW121464   3.169   3.981   2.930  1.1872  1.2409  2.6127
 3335SOL    HW221465   3.264   3.887   2.867  1.0472 -0.3756  1.1209
 3336SOL     OW21466   1.089   3.192   6.125  0.5841 -0.4063 -0.4049
 3336SOL    HW121467   1.064   3.100   6.118 -0.4643 -0.1597  0.0588
 3336SOL    HW221468   1.118   3.212   6.036 -1.3638 -2.5036 -1.5042
 3337SOL     OW21469   3.876   3.466   3.859 -0.5209  0.3358 -0.0829
 3337SOL    HW121470   3.913   3.531   3.800  0.5299  1.3348  1.6734
 3337SOL    HW221471   3.785   3.491   3.879  0.0286  1.0836  1.5282
 3338SOL     OW21472   1.957   4.454   1.458 -0.0062 -0.1572 -0.3563
 3338SOL    HW121473   1.864   4.465   1.438  0.0761  0.4946 -0.3612
 3338SOL    HW221474   1.986   4.390   1.392  0.2528  0.9656 -1.3299
 3339SOL     OW21475   3.269   3.199   5.864 -0.5573 -0.4475 -0.1065
 3339SOL    HW121476   3.254   3.126   5.804 -1.7027 -0.2468 -0.0780
 3339SOL    HW221477   3.181   3.212   5.900 -0.9698 -1.2758 -0.8220
 3340SOL     OW21478   2.650   0.732  10.571  0.5893  0.2811  0.4871
 3340SOL    HW121479   2.673   0.767  10.485  0.2389  2.4382  1.2847
 3340SOL    HW221480   2.576   0.675  10.549 -0.0586  0.8826  1.1329
 3341SOL     OW21481   2.995   1.120   7.696  0.4592 -0.0736 -0.1742
 3341SOL    HW121482   3.084   1.137   7.665  0.7229 -2.2804 -0.5671
 3341SOL    HW221483   2.994   1.136   7.791 -0.0248 -0.1091 -0.1724
 3342SOL     OW21484   3.960   0.207   7.241  0.4333 -0.3642 -0.1234
 3342SOL    HW121485   3.932   0.156   7.317 -1.3676  1.0114  0.1500
 3342SOL    HW221486   4.012   0.139   7.197  2.3319  0.0975  1.4251
 3343SOL     OW21487   2.774   2.622   5.358  0.8567 -0.3748 -0.0871
 3343SOL    HW121488   2.792   2.571   5.280 -0.4481  1.5835 -1.6892
 3343SOL    HW221489   2.687   2.654   5.333 -0.0085  0.3673  3.7383
 3344SOL     OW21490   2.277   1.973   5.694  0.8043 -0.1387 -0.0914
 3344SOL    HW121491   2.226   2.047   5.660  0.5004 -0.5852 -0.6096
 3344SOL    HW221492   2.270   1.924   5.612  0.8651  0.6551 -0.5705
 3345SOL     OW21493   2.840   2.797   4.795 -0.1043  0.5323 -0.6103
 3345SOL    HW121494   2.791   2.715   4.787  0.3181  0.3819 -1.7347
 3345SOL    HW221495   2.909   2.795   4.729 -0.4281 -0.5618 -0.9066
 3346SOL     OW21496   1.912   1.874   6.500  0.3850  0.2554  0.2752
 3346SOL    HW121497   1.853   1.918   6.439  0.9514 -2.2933 -2.1267
 3346SOL    HW221498   1.852   1.851   6.571 -0.3572  2.5885  0.3958
 3347SOL     OW21499   0.731   1.783   6.212 -0.5091  0.2636 -0.5865
 3347SOL    HW121500   0.647   1.738   6.226  0.8304 -1.9766  0.2247
 3347SOL    HW221501   0.768   1.785   6.300 -0.1785  1.6800 -0.7564
 3348SOL     OW21502   1.712   3.458  10.416 -0.0078 -0.0395  0.7044
 3348SOL    HW121503   1.735   3.416  10.499 -0.5680  0.4103  1.0865
 3348SOL    HW221504   1.800   3.490  10.397  0.4044 -2.1863 -1.0830
 3349SOL     OW21505   0.953   1.806  13.452 -0.2686  0.3301  0.2315
 3349SOL    HW121506   1.008   1.846  13.520  0.7717 -0.4420 -0.1499
 3349SOL    HW221507   0.903   1.878  13.415 -1.7022  0.4996  2.4576
 3350SOL     OW21508   2.122   2.629  17.398 -0.2853 -0.0092 -0.1668
 3350SOL    HW121509   2.083   2.716  17.400  0.4855  0.3319 -0.2905
 3350SOL    HW221510   2.112   2.607  17.491  2.0866  1.3470  0.4118
 3351SOL     OW21511   0.764   2.295   1.962 -0.7193 -0.5009 -0.1134
 3351SOL    HW121512   0.699   2.281   2.031  0.5985  0.5256  1.3508
 3351SOL    HW221513   0.723   2.257   1.885 -0.9407 -0.5544  0.0313
 3352SOL     OW21514   1.480   1.148   2.401  0.3383  0.1178  0.5970
 3352SOL    HW121515   1.553   1.093   2.430 -0.0753 -1.5116 -1.4244
 3352SOL    HW221516   1.440   1.176   2.483  0.0042 -1.5033  0.9862
 3353SOL     OW21517   1.341   3.811   7.091  0.2470 -0.4289 -0.1018
 3353SOL    HW121518   1.263   3.846   7.047 -1.9399 -1.6546  2.7469
 3353SOL    HW221519   1.291   3.759   7.154 -0.3633 -1.2393 -1.2542
 3354SOL     OW21520   2.732   0.412   7.084 -0.2558  0.3816 -0.2696
 3354SOL    HW121521   2.822   0.433   7.057 -0.2561 -0.4926 -0.9488
 3354SOL    HW221522   2.723   0.317   7.079  1.0531  0.3500 -2.1434
 3355SOL     OW21523   4.456   0.224   7.872  0.3651 -0.0426 -0.1029
 3355SOL    HW121524   4.385   0.241   7.810  0.0193  1.3405  0.6655
 3355SOL    HW221525   4.449   0.301   7.930  0.2400  1.6104 -2.3069
 3356SOL     OW21526   2.897   3.076  10.427 -0.2408  0.1488 -0.1069
 3356SOL    HW121527   2.986   3.051  10.451 -0.0478  1.8758  0.9842
 3356SOL    HW221528   2.866   2.991  10.395 -3.2987  1.0363  0.5034
 3357SOL     OW21529   3.873   3.395   7.642 -0.0102 -0.2295 -0.2299
 3357SOL    HW121530   3.852   3.368   7.552 -2.7435 -1.3425  0.7493
 3357SOL    HW221531   3.816   3.338   7.693  1.9827 -0.1757  2.0156
 3358SOL     OW21532   1.270   1.651  10.330  0.2307 -0.8157  0.0693
 3358SOL    HW121533   1.208   1.586  10.360 -1.4427 -0.2174 -2.0960
 3358SOL    HW221534   1.349   1.613  10.370  1.9898  2.9025  0.1602
 3359SOL     OW21535   2.572   4.639   3.679  0.1132  0.4370  0.4390
 3359SOL    HW121536   2.584   4.588   3.599  0.6308  1.4368 -0.1205
 3359SOL    HW221537   2.561   4.567   3.740  0.2068  1.3120  1.4857
 3360SOL     OW21538   3.015   3.956  12.728  0.3086  0.2132 -0.2285
 3360SOL    HW121539   3.007   3.882  12.667  0.0528 -1.0139  1.2726
 3360SOL    HW221540   2.962   4.021  12.683  1.3995  0.7249 -0.7872
 3361SOL     OW21541   2.747   2.831   3.109 -0.0644  0.3045  0.0726
 3361SOL    HW121542   2.686   2.783   3.165 -1.0289  1.0746 -0.3113
 3361SOL    HW221543   2.831   2.789   3.129  0.9344  1.5805 -1.4197
 3362SOL     OW21544   0.087   3.206  14.037 -0.3649  0.2431  0.2209
 3362SOL    HW121545   0.053   3.144  13.973 -2.7001  0.3116  1.3716
 3362SOL    HW221546   0.139   3.153  14.096 -1.7499  0.5846  1.7516
 3363SOL     OW21547   1.476   1.079   5.794  0.1906  0.2684 -0.1240
 3363SOL    HW121548   1.549   1.041   5.842 -0.0706 -0.4141 -0.2621
 3363SOL    HW221549   1.424   1.011   5.750 -0.0997  0.7607 -0.5526
 3364SOL     OW21550   0.744   3.409   9.594  0.4466 -0.3662  0.0939
 3364SOL    HW121551   0.691   3.395   9.515  0.7324  0.1137 -0.1795
 3364SOL    HW221552   0.791   3.327   9.609 -0.0600 -0.0158  3.5232
 3365SOL     OW21553   4.570   3.311  17.481 -0.7772  0.6528 -0.4077
 3365SOL    HW121554   4.595   3.252  17.410  3.0762  2.3348 -0.3922
 3365SOL    HW221555   4.474   3.302  17.480 -0.8699  1.3945  0.8322
 3366SOL     OW21556   1.779   1.443   3.426 -0.3971 -0.4955  0.1340
 3366SOL    HW121557   1.794   1.499   3.350 -1.9733 -0.1692  0.0648
 3366SOL    HW221558   1.690   1.413   3.410 -0.3511 -0.5164 -0.0818
 3367SOL     OW21559   4.627   1.852   5.495 -0.1760  0.1262 -0.1054
 3367SOL    HW121560   4.712   1.865   5.539 -0.6256 -0.0796  0.8331
 3367SOL    HW221561   4.611   1.758   5.494  1.5807 -0.1942  0.6431
 3368SOL     OW21562   0.045   4.592   4.196 -0.3185  0.7468  0.0456
 3368SOL    HW121563   0.103   4.520   4.219 -0.6675  0.0367 -1.2828
 3368SOL    HW221564   0.010   4.609   4.283  2.1136  0.9899  0.9632
 3369SOL     OW21565   3.715   0.613  11.595 -0.1007  0.0188 -0.2026
 3369SOL    HW121566   3.745   0.522  11.602  0.1907  0.0289 -1.2688
 3369SOL    HW221567   3.633   0.616  11.645  0.3008 -0.4929  0.4816
 3370SOL     OW21568   0.703   2.857   4.695 -0.5994  0.3329  0.3797
 3370SOL    HW121569   0.621   2.809   4.686  1.4052 -3.3194  1.3748
 3370SOL    HW221570   0.681   2.949   4.679  0.1813  0.7737  1.8748
 3371SOL     OW21571   2.742   4.396   0.782 -0.1324  0.2796  0.5896
 3371SOL    HW121572   2.725   4.378   0.690 -0.3310  0.5350  0.5775
 3371SOL    HW221573   2.768   4.488   0.777 -0.4785  0.3172 -0.5648
 3372SOL     OW21574   2.668   4.185  13.789  0.6116 -0.0066 -0.2712
 3372SOL    HW121575   2.725   4.220  13.720 -1.6237  0.2070 -2.0062
 3372SOL    HW221576   2.695   4.247  13.857  0.8127  0.2478 -0.5836
 3373SOL     OW21577   4.535   3.065   3.817  0.6893  0.2741 -0.1970
 3373SOL    HW121578   4.467   3.062   3.750 -0.7997 -0.0852  1.3492
 3373SOL    HW221579   4.499   3.005   3.882 -1.1773 -1.8350 -3.1866
 3374SOL     OW21580   1.853   0.298   5.652 -0.5238 -0.0086 -0.1546
 3374SOL    HW121581   1.850   0.237   5.578  1.7472 -0.0227 -0.2251
 3374SOL    HW221582   1.931   0.269   5.698 -1.4651 -0.0493  1.4224
 3375SOL     OW21583   1.601   3.652  12.191 -1.1535 -0.3370  0.1005
 3375SOL    HW121584   1.663   3.669  12.262  0.3804  0.6673 -1.4655
 3375SOL    HW221585   1.534   3.604  12.239 -0.6737  0.0829  1.1803
 3376SOL     OW21586   3.566   1.858   3.539 -0.0388  0.1498 -0.1001
 3376SOL    HW121587   3.516   1.835   3.617  1.3210  0.3715  0.8257
 3376SOL    HW221588   3.630   1.788   3.524  1.9961  1.8827  0.6341
 3377SOL     OW21589   0.765   4.334  14.867 -0.5027  0.6583 -1.0277
 3377SOL    HW121590   0.670   4.330  14.876 -0.6031  0.4996 -2.0719
 3377SOL    HW221591   0.763   4.377  14.781 -1.5532  3.4477  0.4171
 3378SOL     OW21592   4.039   2.280   4.614 -0.2711 -0.1560 -0.0439
 3378SOL    HW121593   4.092   2.349   4.575  1.9670  0.4041  3.9652
 3378SOL    HW221594   3.977   2.268   4.542  1.0929 -2.6181 -0.8049
 3379SOL     OW21595   2.261   2.517   8.323  0.0883 -0.2206 -0.2356
 3379SOL    HW121596   2.278   2.448   8.387 -1.3253 -0.2927  0.0575
 3379SOL    HW221597   2.196   2.567   8.372  2.0898  1.4695  0.6638
 3380SOL     OW21598   1.507   3.260   5.200 -0.8692 -0.1032  0.0316
 3380SOL    HW121599   1.572   3.323   5.230 -2.2634  1.1879  0.3629
 3380SOL    HW221600   1.538   3.275   5.111 -1.4165 -0.4944 -0.2221
 3381SOL     OW21601   0.791   3.952  10.503  0.2812 -0.3289 -0.7888
 3381SOL    HW121602   0.817   3.958  10.411  1.0581 -1.3182 -0.6322
 3381SOL    HW221603   0.719   4.011  10.523  1.2109  0.3995  0.3758
 3382SOL     OW21604   0.327   3.648   6.333 -0.1587 -0.1692  0.2192
 3382SOL    HW121605   0.276   3.721   6.367  1.2332  0.7763  0.2482
 3382SOL    HW221606   0.269   3.574   6.355 -0.8441  0.3752  0.2432
 3383SOL     OW21607   1.023   0.238   7.955  0.2610  0.2191 -0.1396
 3383SOL    HW121608   1.081   0.170   7.919  0.4598  0.3357 -0.0407
 3383SOL    HW221609   0.937   0.196   7.957  0.8489 -1.0800 -1.7528
 3384SOL     OW21610   3.912   2.871   3.817  0.0976  0.9017  0.3645
 3384SOL    HW121611   4.006   2.854   3.815  0.2386  1.5448  1.3388
 3384SOL    HW221612   3.917   2.923   3.897  0.6106 -0.9946  1.5711
 3385SOL     OW21613   1.407   4.278   2.411 -0.2663  0.1912  0.4237
 3385SOL    HW121614   1.312   4.277   2.417 -0.3696  0.2419 -1.1091
 3385SOL    HW221615   1.407   4.223   2.333  1.8196  1.1551 -0.2541
 3386SOL     OW21616   0.672   0.600  13.025 -0.2188 -0.1354  0.5232
 3386SOL    HW121617   0.724   0.670  13.064  1.9892 -2.2548  1.3557
 3386SOL    HW221618   0.640   0.560  13.105  0.2082  0.6144  1.0771
 3387SOL     OW21619   1.539   1.663   5.684 -0.0945  0.4455  0.4698
 3387SOL    HW121620   1.543   1.749   5.726 -0.0863  0.4637  0.4319
 3387SOL    HW221621   1.631   1.641   5.699  0.0953  0.1323 -1.0763
 3388SOL     OW21622   1.392   1.558   0.541  0.1344  0.0746 -0.3131
 3388SOL    HW121623   1.487   1.551   0.558 -0.5370 -1.2883  2.9675
 3388SOL    HW221624   1.393   1.573   0.447  1.1266 -0.6834 -0.4294
 3389SOL     OW21625   2.311   3.359   9.805  0.0298  0.0531 -0.1022
 3389SOL    HW121626   2.323   3.266   9.784  1.4249  0.0053  0.8949
 3389SOL    HW221627   2.363   3.370   9.884  0.0401  0.2952 -0.1424
 3390SOL     OW21628   2.288   4.662  14.320 -0.3520  0.3701 -0.1368
 3390SOL    HW121629   2.264   4.569  14.326 -1.2936  0.4158 -3.5255
 3390SOL    HW221630   2.280   4.681  14.227 -0.9019  1.6271  0.1604
 3391SOL     OW21631   3.874   4.508   7.352 -0.0578  0.0038  0.2995
 3391SOL    HW121632   3.950   4.492   7.407 -0.6796  0.2512  1.2260
 3391SOL    HW221633   3.850   4.592   7.392 -1.5041 -0.4816  0.4324
 3392SOL     OW21634   3.865   4.299  14.958  0.3203 -0.2753 -0.5355
 3392SOL    HW121635   3.951   4.291  15.000 -0.1984  0.7420  0.7171
 3392SOL    HW221636   3.809   4.337  15.025  1.2726  0.8332 -0.3682
 3393SOL     OW21637   0.939   2.714  17.508  0.6061 -0.1541  0.1344
 3393SOL    HW121638   0.996   2.775  17.556 -0.4593 -0.6559  2.0222
 3393SOL    HW221639   0.849   2.732  17.534  1.2448  0.8899  1.5765
 3394SOL     OW21640   0.153   0.082  11.794  0.1863  0.4464 -0.2432
 3394SOL    HW121641   0.158   0.015  11.862 -0.0195 -1.5883 -2.2616
 3394SOL    HW221642   0.062   0.108  11.808  1.1124  2.3294  2.3588
 3395SOL     OW21643   2.557   0.803   5.870  0.3671  0.2727 -0.2282
 3395SOL    HW121644   2.555   0.744   5.795  1.8593  1.3216 -1.0677
 3395SOL    HW221645   2.497   0.763   5.934  0.2474  0.1506 -0.4145
 3396SOL     OW21646   4.142   2.961  13.886 -0.4942 -0.4909  0.4504
 3396SOL    HW121647   4.140   2.953  13.981  2.0091  1.3020  0.6614
 3396SOL    HW221648   4.125   3.054  13.869  0.1661 -0.5557 -0.5356
 3397SOL     OW21649   4.629   4.328   5.524  0.4528 -0.7107 -0.2829
 3397SOL    HW121650   4.596   4.407   5.483  2.0569 -0.3369 -0.8359
 3397SOL    HW221651   4.545   4.311   5.568  0.5326 -0.4558 -0.0328
 3398SOL     OW21652   2.440   1.489   3.982  0.1457  0.0844  0.2267
 3398SOL    HW121653   2.359   1.464   3.937  0.0950  1.1325 -0.2655
 3398SOL    HW221654   2.490   1.524   3.908  0.2040 -0.8742 -0.1855
 3399SOL     OW21655   4.311   4.340   5.823 -0.2709 -0.9251  0.9843
 3399SOL    HW121656   4.338   4.313   5.735 -0.4527 -0.5745  0.8159
 3399SOL    HW221657   4.255   4.416   5.802  0.9053 -0.0835  0.9075
 3400SOL     OW21658   0.907   0.222  15.149  0.6489  0.1406 -0.0884
 3400SOL    HW121659   0.852   0.301  15.147  1.0636  0.3133 -3.9566
 3400SOL    HW221660   0.846   0.151  15.133  0.0574  0.6080  0.0861
 3401SOL     OW21661   2.441   4.488   9.669 -0.0506 -0.1155  0.7569
 3401SOL    HW121662   2.449   4.551   9.741  1.1264 -2.5802  2.8141
 3401SOL    HW221663   2.522   4.438   9.670 -0.1244 -0.2449 -2.8209
 3402SOL     OW21664   3.722   1.437   7.039  0.8258  0.2120  1.2290
 3402SOL    HW121665   3.655   1.369   7.050 -0.7545  1.6142  0.2160
 3402SOL    HW221666   3.796   1.379   7.017  0.7401  1.6018 -2.7458
 3403SOL     OW21667   3.184   0.267   4.115 -0.1941  0.2567 -0.1405
 3403SOL    HW121668   3.131   0.280   4.194 -1.1115  0.9006 -0.8559
 3403SOL    HW221669   3.262   0.318   4.135  0.9592 -1.2934 -0.6653
 3404SOL     OW21670   4.235   2.537   3.292 -0.0150 -0.3718 -0.2382
 3404SOL    HW121671   4.260   2.470   3.356 -3.4885 -1.1180  0.3746
 3404SOL    HW221672   4.317   2.584   3.275 -0.0368 -0.0596  0.4883
 3405SOL     OW21673   2.900   0.563   3.726 -0.4395 -0.1604  0.0166
 3405SOL    HW121674   2.844   0.593   3.798 -0.1731 -1.2010  0.6524
 3405SOL    HW221675   2.983   0.551   3.773 -0.4894  1.8500  0.6399
 3406SOL     OW21676   2.958   0.524   6.421  0.2675 -0.3622  0.3281
 3406SOL    HW121677   2.971   0.433   6.451 -2.5609  0.2015  3.3496
 3406SOL    HW221678   3.001   0.563   6.497  0.9245 -2.0394  0.8302
 3407SOL     OW21679   4.132   0.213   6.495  0.3718  0.4553 -0.3217
 3407SOL    HW121680   4.174   0.197   6.579  0.7984  0.5977 -0.5075
 3407SOL    HW221681   4.202   0.208   6.430  0.6710 -1.0043  0.1305
 3408SOL     OW21682   1.765   4.205   6.472 -0.2269 -0.1625 -0.2489
 3408SOL    HW121683   1.759   4.233   6.564  1.2157  2.0435 -0.8256
 3408SOL    HW221684   1.736   4.114   6.474  1.0227 -0.6079 -2.4685
 3409SOL     OW21685   1.800   1.696   8.714 -0.1679 -0.2932  0.7750
 3409SOL    HW121686   1.893   1.718   8.717 -0.1651 -0.2910  0.6675
 3409SOL    HW221687   1.787   1.654   8.629 -0.6356  0.1835  0.6099
 3410SOL     OW21688   3.914   0.659   4.360 -0.2355 -0.2256  0.6995
 3410SOL    HW121689   3.986   0.722   4.355 -0.9393  0.5090 -0.1857
 3410SOL    HW221690   3.851   0.706   4.306  0.2718  0.3049  0.5680
 3411SOL     OW21691   3.172   1.069   3.228 -0.0424 -0.0093  0.4773
 3411SOL    HW121692   3.174   1.094   3.135 -1.2962  2.1040  1.0204
 3411SOL    HW221693   3.237   0.999   3.221 -1.2730 -1.0025 -1.1674
 3412SOL     OW21694   2.316   4.260  10.971 -0.1581 -0.0330  0.8923
 3412SOL    HW121695   2.343   4.346  11.002 -0.3681  0.5255 -0.4752
 3412SOL    HW221696   2.289   4.214  11.050  1.0330 -0.8057  0.8418
 3413SOL     OW21697   0.906   0.572   3.899  0.2903 -0.0368 -0.3520
 3413SOL    HW121698   0.977   0.559   3.961 -1.1616 -0.7962  1.1609
 3413SOL    HW221699   0.940   0.645   3.848  2.2377 -0.1159  0.8425
 3414SOL     OW21700   1.688   3.658   7.165 -0.3525  0.0413  0.6080
 3414SOL    HW121701   1.658   3.620   7.248  2.3637 -0.7636  1.2001
 3414SOL    HW221702   1.766   3.707   7.190 -0.0013  0.3380 -1.1073
 3415SOL     OW21703   3.344   1.529   5.372 -0.4115  0.1226 -0.1047
 3415SOL    HW121704   3.386   1.614   5.361 -1.2069  0.3970 -1.0261
 3415SOL    HW221705   3.397   1.504   5.447 -0.2767 -0.4817 -0.4034
 3416SOL     OW21706   0.981   4.507  11.790  0.0104 -0.3171  0.4183
 3416SOL    HW121707   1.044   4.537  11.724 -0.2289 -0.4718  0.1183
 3416SOL    HW221708   1.023   4.428  11.824  1.8872  0.0347 -1.0508
 3417SOL     OW21709   1.626   0.110   5.952 -0.0507  0.1685 -0.2558
 3417SOL    HW121710   1.623   0.196   5.909  0.0897 -0.7124 -2.0140
 3417SOL    HW221711   1.674   0.138   6.030  1.9626  0.6122 -1.6581
 3418SOL     OW21712   1.745   1.241   5.098 -0.1025 -0.3241  0.0769
 3418SOL    HW121713   1.809   1.262   5.030 -0.0405 -1.8696 -0.3356
 3418SOL    HW221714   1.813   1.216   5.160  1.7687  0.2448 -1.7119
 3419SOL     OW21715   2.816   1.024   4.259  0.0817 -0.3719  0.2660
 3419SOL    HW121716   2.839   1.062   4.174  1.1049 -3.1566 -0.6904
 3419SOL    HW221717   2.731   0.986   4.235  0.4128 -0.3476 -0.9463
 3420SOL     OW21718   3.666   2.933   3.699 -0.4931  0.5285  0.0779
 3420SOL    HW121719   3.737   2.925   3.762 -0.9569  1.2923  0.6925
 3420SOL    HW221720   3.714   2.940   3.616  0.6175 -1.7780  0.5258
 3421SOL     OW21721   0.944   1.861   6.579 -0.4673  0.5420 -0.1187
 3421SOL    HW121722   0.855   1.841   6.551  0.1723 -2.4323 -0.0833
 3421SOL    HW221723   0.933   1.952   6.608  0.3143  0.9108 -0.9698
 3422SOL     OW21724   2.937   4.511  13.721 -0.3010  0.3850  0.2246
 3422SOL    HW121725   2.874   4.559  13.773 -0.1374  1.6947 -0.7846
 3422SOL    HW221726   2.872   4.469  13.665  0.4031  0.1336 -0.4133
 3423SOL     OW21727   4.297   0.772  14.070 -0.7351 -0.5559 -0.1467
 3423SOL    HW121728   4.320   0.843  14.011 -1.2825 -0.3626 -0.1270
 3423SOL    HW221729   4.203   0.788  14.079  0.0724  1.8276  3.6781
 3424SOL     OW21730   4.650   2.766   3.371  0.8302  0.0306  0.1213
 3424SOL    HW121731   0.005   2.715   3.349 -0.1114 -1.1991 -0.3341
 3424SOL    HW221732   4.677   2.856   3.355  1.0085 -0.1276 -0.4514
 3425SOL     OW21733   3.035   0.617   8.370 -0.0096  0.2775 -0.7141
 3425SOL    HW121734   3.041   0.655   8.457  0.0800 -0.0037 -0.6000
 3425SOL    HW221735   2.942   0.601   8.352 -0.5194  3.1067 -0.5284
 3426SOL     OW21736   2.802   2.335   3.840  0.1556  0.3118  0.4155
 3426SOL    HW121737   2.731   2.280   3.806 -0.6415  0.7902  1.3048
 3426SOL    HW221738   2.875   2.327   3.779  0.5998  0.9030  0.8762
 3427SOL     OW21739   4.494   0.262   2.825 -0.5404  0.0975  0.0659
 3427SOL    HW121740   4.412   0.224   2.856  0.0348 -0.5273  0.8153
 3427SOL    HW221741   4.464   0.316   2.752  0.9981  0.1640 -0.5338
 3428SOL     OW21742   0.089   3.764  12.176  0.4480 -0.4611  0.0837
 3428SOL    HW121743   0.098   3.854  12.208 -3.2467 -0.7784  1.9209
 3428SOL    HW221744   0.033   3.780  12.100 -1.3547  0.9462  1.7322
 3429SOL     OW21745   3.352   0.799  11.012 -0.0647 -0.0538 -0.2644
 3429SOL    HW121746   3.302   0.776  10.934 -1.1314 -2.1222  1.0098
 3429SOL    HW221747   3.412   0.725  11.016  0.1751  0.0485 -1.9341
 3430SOL     OW21748   0.722   2.365   3.330  0.2898  0.2089 -0.1023
 3430SOL    HW121749   0.735   2.278   3.368  0.9325  1.6858  3.0560
 3430SOL    HW221750   0.748   2.420   3.404 -0.2349 -2.3308  1.9795
 3431SOL     OW21751   3.435   0.072   9.108 -0.4285  0.1405  0.1218
 3431SOL    HW121752   3.497   0.145   9.109 -0.8011  0.4594 -0.3221
 3431SOL    HW221753   3.368   0.096   9.044  0.5246 -0.0345 -0.9436
 3432SOL     OW21754   2.251   1.427   5.866 -0.0511  0.2011  0.0698
 3432SOL    HW121755   2.321   1.375   5.906 -0.5524 -0.5308 -0.0060
 3432SOL    HW221756   2.257   1.509   5.915  0.0973 -1.7638  3.3654
 3433SOL     OW21757   4.644   2.871   6.193  0.3458  0.3593 -0.4594
 3433SOL    HW121758   0.008   2.850   6.226 -0.7054 -2.0763  0.7717
 3433SOL    HW221759   4.619   2.797   6.137 -0.0134 -0.2505  0.5035
 3434SOL     OW21760   1.218   1.021  13.006  0.0221 -0.0652  0.1150
 3434SOL    HW121761   1.293   1.073  12.978 -0.9796  0.9317 -0.6901
 3434SOL    HW221762   1.144   1.080  13.014  0.4261  0.2279  1.7633
 3435SOL     OW21763   3.438   4.378   8.014  0.1095  0.2275 -0.2204
 3435SOL    HW121764   3.398   4.366   7.928 -2.4637 -0.6390  1.0874
 3435SOL    HW221765   3.358   4.398   8.064  0.8290  0.1749  0.9362
 3436SOL     OW21766   3.225   2.102   6.614  0.1167 -0.2091  0.2005
 3436SOL    HW121767   3.172   2.023   6.598 -2.3030  1.6726 -1.1070
 3436SOL    HW221768   3.228   2.138   6.525 -2.4548  0.1792  0.2675
 3437SOL     OW21769   1.574   0.238  13.202 -0.5330 -0.1380  0.4967
 3437SOL    HW121770   1.521   0.273  13.131 -1.4461  2.3689  2.4210
 3437SOL    HW221771   1.655   0.281  13.175 -1.5088  1.1193 -0.4424
 3438SOL     OW21772   2.827   2.144  16.427 -0.3222 -0.0894  0.2157
 3438SOL    HW121773   2.813   2.155  16.333 -0.4839  0.0004  0.2509
 3438SOL    HW221774   2.779   2.063  16.444  0.0910 -0.5315 -0.7662
 3439SOL     OW21775   3.153   1.371   2.438 -0.3885 -0.4116  0.1806
 3439SOL    HW121776   3.173   1.437   2.371  0.3919  1.0534  1.8516
 3439SOL    HW221777   3.195   1.395   2.521 -2.7859  0.2090  1.2177
 3440SOL     OW21778   4.549   4.107   6.254 -0.1768 -0.4322  0.2059
 3440SOL    HW121779   4.462   4.146   6.244 -0.7654 -2.0256 -1.0347
 3440SOL    HW221780   4.598   4.184   6.283 -0.0755 -0.8366  1.1082
 3441SOL     OW21781   0.365   1.867  14.870 -0.4508  0.1832  0.0701
 3441SOL    HW121782   0.390   1.919  14.794  2.3011  1.8633  2.1210
 3441SOL    HW221783   0.289   1.820  14.836 -1.4652  0.3602  2.0684
 3442SOL     OW21784   1.927   2.954   8.381  0.2539  0.3195  0.6955
 3442SOL    HW121785   1.917   3.031   8.437  0.3805  1.5637 -0.9676
 3442SOL    HW221786   1.909   2.993   8.295 -1.7701 -1.4300  0.3316
 3443SOL     OW21787   3.257   0.834   9.680  0.1419 -0.3004  0.0713
 3443SOL    HW121788   3.165   0.806   9.678 -0.1508  0.6557  0.1486
 3443SOL    HW221789   3.242   0.929   9.675 -0.4416 -0.4297 -0.7646
 3444SOL     OW21790   4.390   1.140   8.505 -0.1851 -0.4853 -0.2632
 3444SOL    HW121791   4.404   1.175   8.418  1.2967 -0.6629 -0.0880
 3444SOL    HW221792   4.346   1.210   8.554  0.1666 -0.4255 -0.0325
 3445SOL     OW21793   4.532   1.237   3.620  0.4752  0.7567  0.0017
 3445SOL    HW121794   4.520   1.157   3.672  1.7251 -0.1568 -1.0858
 3445SOL    HW221795   4.580   1.210   3.541 -1.2660 -0.2897 -0.7119
 3446SOL     OW21796   1.648   4.095   5.965  0.1835 -0.2512 -0.0936
 3446SOL    HW121797   1.635   4.036   6.040  1.7503 -0.4651  0.0109
 3446SOL    HW221798   1.739   4.122   5.979  0.0222  0.9415 -1.3437
 3447SOL     OW21799   1.040   2.863  10.068 -0.3174 -0.5047 -0.2745
 3447SOL    HW121800   1.109   2.894  10.010  0.2069  0.6726  0.9566
 3447SOL    HW221801   1.065   2.771  10.079 -0.1351 -0.8798 -3.8658
 3448SOL     OW21802   0.316   3.972   4.815  0.0649  0.2402  0.3818
 3448SOL    HW121803   0.351   4.037   4.876 -0.4352  1.2363 -0.3967
 3448SOL    HW221804   0.262   4.030   4.762 -1.0236 -0.0403  1.1825
 3449SOL     OW21805   1.586   0.994   2.607 -0.0954 -0.6541 -0.0934
 3449SOL    HW121806   1.516   1.015   2.669 -0.2419 -0.3949 -0.3505
 3449SOL    HW221807   1.654   1.053   2.641 -0.4039 -1.2035  1.4936
 3450SOL     OW21808   1.532   4.376  10.360 -0.4000  0.0220  0.2000
 3450SOL    HW121809   1.441   4.362  10.334 -0.2247 -1.1780  0.2319
 3450SOL    HW221810   1.548   4.282  10.366  1.1106  0.1832 -1.4336
 3451SOL     OW21811   3.844   2.494   8.308 -0.2610 -0.0038 -0.0425
 3451SOL    HW121812   3.771   2.481   8.369  0.3984  0.0720  0.7761
 3451SOL    HW221813   3.904   2.425   8.336  0.2189  0.5430  0.2741
 3452SOL     OW21814   0.321   1.258   1.346 -0.3576  0.2483 -0.0266
 3452SOL    HW121815   0.247   1.294   1.397  0.2020  0.1486  0.8592
 3452SOL    HW221816   0.338   1.172   1.384 -0.7670  0.9699  1.7960
 3453SOL     OW21817   2.680   3.206   7.689 -0.4636  0.0152  0.5342
 3453SOL    HW121818   2.603   3.215   7.745 -2.2154  0.1125 -1.8970
 3453SOL    HW221819   2.752   3.232   7.746  1.5164 -2.1357 -1.0132
 3454SOL     OW21820   1.235   1.134   5.053  0.3225  0.3341  0.1916
 3454SOL    HW121821   1.326   1.116   5.079  0.6433 -0.9388 -1.8553
 3454SOL    HW221822   1.222   1.058   4.996 -3.0596  0.7796  0.4108
 3455SOL     OW21823   2.871   3.275   0.354 -0.2487 -0.3044  0.3410
 3455SOL    HW121824   2.813   3.213   0.308  1.6287 -1.8529  0.0602
 3455SOL    HW221825   2.812   3.309   0.422  1.0315  0.3596  1.1050
 3456SOL     OW21826   1.340   1.614   7.032 -0.1317 -0.0379 -0.3276
 3456SOL    HW121827   1.392   1.561   7.092 -0.9013 -0.4443 -0.0167
 3456SOL    HW221828   1.358   1.698   7.073  1.3086 -0.5949  0.1741
 3457SOL     OW21829   2.360   4.077  10.574  0.2832  0.3239 -0.1613
 3457SOL    HW121830   2.438   4.022  10.573 -0.1288 -0.2689  1.7411
 3457SOL    HW221831   2.355   4.107  10.483  0.4157 -1.3273 -0.7125
 3458SOL     OW21832   0.532   4.514   2.926  0.0854  0.0389 -0.3771
 3458SOL    HW121833   0.553   4.446   2.990  0.9762  0.0597 -0.6424
 3458SOL    HW221834   0.448   4.486   2.891  0.2901 -1.5105  0.3901
 3459SOL     OW21835   0.646   1.230  14.621  0.4232 -0.2122  0.0224
 3459SOL    HW121836   0.629   1.141  14.590  1.0668 -0.0544 -0.7834
 3459SOL    HW221837   0.735   1.221  14.655  0.0746  0.6496  1.1839
 3460SOL     OW21838   0.752   4.595  13.591  0.2158 -0.2451  0.0630
 3460SOL    HW121839   0.721   4.540  13.518  1.2088  1.0475 -1.3433
 3460SOL    HW221840   0.842   4.563  13.591  0.8636  1.6745  2.8874
 3461SOL     OW21841   1.994   4.102   8.991 -0.5024  0.2374  0.5297
 3461SOL    HW121842   1.919   4.059   8.951 -1.7508  2.7805  0.1566
 3461SOL    HW221843   2.048   4.030   9.026  0.4102  0.9564  0.5914
 3462SOL     OW21844   1.787   1.295   4.606  0.1916 -0.5610 -0.1569
 3462SOL    HW121845   1.741   1.223   4.650  0.3484 -0.0609  0.8161
 3462SOL    HW221846   1.876   1.270   4.627  0.0703 -0.1333  0.8354
 3463SOL     OW21847   0.699   0.819  14.746  0.3043  0.2772 -0.4055
 3463SOL    HW121848   0.670   0.857  14.664 -2.0855 -1.2187 -0.2720
 3463SOL    HW221849   0.791   0.845  14.750 -0.0410  1.1775  1.9083
 3464SOL     OW21850   0.845   2.601  11.271  0.5793 -0.1870 -0.1079
 3464SOL    HW121851   0.856   2.535  11.339 -2.3441 -1.7676 -1.1617
 3464SOL    HW221852   0.752   2.616  11.285  0.7117 -1.2353  1.7953
 3465SOL     OW21853   1.885   0.092   2.498 -0.4394 -0.0676 -0.2324
 3465SOL    HW121854   1.957   0.111   2.438  0.4150 -1.5603  0.3223
 3465SOL    HW221855   1.859   0.176   2.536 -1.2224 -0.0719 -0.7748
 3466SOL     OW21856   4.043   0.251   5.472 -0.5175  0.4274 -0.3528
 3466SOL    HW121857   3.989   0.192   5.420  0.7633 -1.5322  0.5529
 3466SOL    HW221858   4.132   0.216   5.471 -0.2979  0.9691 -0.0238
 3467SOL     OW21859   4.679   1.731  12.494  0.0061  0.7880  0.2307
 3467SOL    HW121860   4.629   1.810  12.514  0.7216  1.7082 -1.7019
 3467SOL    HW221861   4.631   1.693  12.420  0.5333 -0.1934  0.3864
 3468SOL     OW21862   3.712   1.688   7.372  0.0488  0.1932  0.4499
 3468SOL    HW121863   3.775   1.628   7.331  0.1311  1.2009 -0.9026
 3468SOL    HW221864   3.733   1.689   7.465 -0.9906  1.2202  0.6654
 3469SOL     OW21865   0.085   0.401   3.921 -0.1730 -0.1845  0.1002
 3469SOL    HW121866   0.161   0.391   3.978  1.9631 -0.9060 -2.8165
 3469SOL    HW221867   0.084   0.311   3.888 -0.8130 -0.0037 -0.3807
 3470SOL     OW21868   1.024   2.785  15.525  0.4360 -0.2595 -0.1980
 3470SOL    HW121869   0.995   2.844  15.594 -3.5078 -2.8628  0.3985
 3470SOL    HW221870   1.085   2.838  15.474  1.3502 -0.8600  0.2596
 3471SOL     OW21871   4.339   0.365  16.807 -0.2220 -0.0699 -0.1157
 3471SOL    HW121872   4.264   0.370  16.867 -0.3311  0.3408 -0.2807
 3471SOL    HW221873   4.361   0.458  16.805  1.6407 -0.6188 -4.1505
 3472SOL     OW21874   2.341   2.368   6.302 -0.5529 -0.2401  0.1305
 3472SOL    HW121875   2.393   2.446   6.281  0.1494 -0.7546 -0.0264
 3472SOL    HW221876   2.252   2.399   6.287 -0.0085  0.6047 -1.3246
 3473SOL     OW21877   0.864   1.526  17.029 -0.4596 -0.1291 -0.5768
 3473SOL    HW121878   0.948   1.480  17.032  0.8049  2.2268 -0.0851
 3473SOL    HW221879   0.890   1.609  17.069  0.8395 -0.4778 -0.6944
 3474SOL     OW21880   2.849   1.478   2.442  0.1875 -0.1032 -0.1862
 3474SOL    HW121881   2.795   1.401   2.423  0.4373 -0.0778 -1.0253
 3474SOL    HW221882   2.830   1.531   2.364  1.1306  2.6141  1.4381
 3475SOL     OW21883   4.471   3.073   0.704 -0.4905 -0.2476  0.3742
 3475SOL    HW121884   4.460   3.104   0.614  1.0768  3.0803  1.3151
 3475SOL    HW221885   4.528   2.998   0.687 -1.6000 -0.9303 -0.3913
 3476SOL     OW21886   3.316   0.146   6.393 -0.2196  0.4888  0.0478
 3476SOL    HW121887   3.351   0.069   6.348 -0.5661 -0.0416  0.6837
 3476SOL    HW221888   3.394   0.199   6.411 -1.0496  2.7717 -3.0504
 3477SOL     OW21889   2.535   4.390   6.515  0.1919 -0.0610 -0.2858
 3477SOL    HW121890   2.564   4.352   6.432  0.8932  1.4421 -0.7277
 3477SOL    HW221891   2.496   4.476   6.500  1.8683  0.6495 -0.5623
 3478SOL     OW21892   1.064   4.387   5.745  0.0604 -0.2721  0.3112
 3478SOL    HW121893   1.059   4.302   5.789  1.4745  1.1982  3.3651
 3478SOL    HW221894   1.043   4.460   5.805 -2.5995 -0.4766 -0.3428
 3479SOL     OW21895   1.448   3.358   8.564  0.2250 -0.0712  0.4420
 3479SOL    HW121896   1.432   3.264   8.555  1.4989 -0.5607  3.3098
 3479SOL    HW221897   1.449   3.358   8.659 -1.4920  0.0778  0.4481
 3480SOL     OW21898   3.580   2.057   4.621 -0.2571 -0.3153  0.1830
 3480SOL    HW121899   3.543   1.973   4.593 -0.4094 -0.1706 -0.0544
 3480SOL    HW221900   3.650   2.061   4.556  1.5616 -2.1542  2.0140
 3481SOL     OW21901   0.000   3.736  11.638 -0.0279 -0.5797 -0.1629
 3481SOL    HW121902   0.010   3.805  11.703 -0.4387  0.3985 -1.1307
 3481SOL    HW221903   4.693   3.660  11.686 -1.3112  0.1147  0.1289
 3482SOL     OW21904   3.863   1.211   7.323 -0.7579 -0.1177 -0.4558
 3482SOL    HW121905   3.938   1.220   7.381 -1.9867  4.0784  0.4977
 3482SOL    HW221906   3.812   1.291   7.332  1.7520  1.6012 -1.4842
 3483SOL     OW21907   4.667   3.140  17.225  0.6695  0.2837  0.2013
 3483SOL    HW121908   4.593   3.132  17.165  0.5358  1.7715  0.1719
 3483SOL    HW221909   0.007   3.150  17.153 -0.6047  0.0061 -0.9464
 3484SOL     OW21910   2.947   3.961   9.422 -0.2296 -0.1301 -0.0984
 3484SOL    HW121911   2.920   4.049   9.394 -0.6260 -0.7534 -1.6258
 3484SOL    HW221912   3.014   3.977   9.488 -0.6249  1.7697 -0.1283
 3485SOL     OW21913   0.692   1.048   3.049  0.4752  0.6701 -0.1862
 3485SOL    HW121914   0.676   0.957   3.077 -0.6786  1.4242  1.5741
 3485SOL    HW221915   0.788   1.052   3.051  0.6105 -1.8970 -0.6436
 3486SOL     OW21916   2.357   0.082  12.509  0.1000  0.4998 -0.0316
 3486SOL    HW121917   2.379   0.162  12.461 -0.9290  0.0050 -1.3345
 3486SOL    HW221918   2.272   0.107  12.544 -0.2084 -1.1460  0.3863
 3487SOL     OW21919   1.503   1.062   5.090  0.6739 -0.5865 -0.0959
 3487SOL    HW121920   1.502   1.058   5.186 -1.7121  1.6103 -0.0216
 3487SOL    HW221921   1.588   1.105   5.087  1.4143 -1.9462  1.1048
 3488SOL     OW21922   1.992   4.476   1.832  0.6286 -0.4823 -0.3881
 3488SOL    HW121923   1.995   4.386   1.865  2.9698  0.1210  0.9917
 3488SOL    HW221924   1.972   4.529   1.908 -1.4990 -0.3344 -1.0380
 3489SOL     OW21925   0.794   3.147   5.483  0.8152  0.2252  0.1563
 3489SOL    HW121926   0.859   3.083   5.509  0.9683 -0.0141 -0.7979
 3489SOL    HW221927   0.850   3.222   5.464 -0.9657  2.0974  2.2512
 3490SOL     OW21928   4.101   1.058  13.061  0.2223 -0.9155  0.1008
 3490SOL    HW121929   4.076   1.073  13.152  2.2238  0.0168  0.5150
 3490SOL    HW221930   4.194   1.084  13.060 -0.9496  3.2587 -0.3488
 3491SOL     OW21931   1.552   3.895   1.131  0.0936 -0.0527  0.0953
 3491SOL    HW121932   1.599   3.937   1.058 -1.0097 -1.5770 -1.5031
 3491SOL    HW221933   1.575   3.965   1.192  0.6115  0.7130 -0.9558
 3492SOL     OW21934   3.801   2.670   3.395 -0.3020 -0.4787 -0.2969
 3492SOL    HW121935   3.861   2.651   3.323  0.9802 -1.0436  0.9105
 3492SOL    HW221936   3.825   2.762   3.405  0.8004 -1.1582  3.3183
 3493SOL     OW21937   3.223   1.340  12.426  0.6277 -0.3912  0.0216
 3493SOL    HW121938   3.277   1.287  12.483 -0.6806  1.0398  2.6030
 3493SOL    HW221939   3.133   1.315  12.447  0.0856  3.1929  2.0282
 3494SOL     OW21940   2.811   2.471  10.466 -0.2954 -0.1849 -0.2856
 3494SOL    HW121941   2.894   2.517  10.476  0.0531 -0.9264  0.2565
 3494SOL    HW221942   2.770   2.523  10.397  1.3523  1.9999  0.4142
 3495SOL     OW21943   4.153   2.861   7.675 -0.0197  0.5903  0.0328
 3495SOL    HW121944   4.077   2.845   7.731  0.6076 -2.0722  0.1290
 3495SOL    HW221945   4.207   2.785   7.699 -1.8641 -1.0790 -1.0929
 3496SOL     OW21946   1.684   1.994   5.345 -0.3189 -0.2698 -0.2956
 3496SOL    HW121947   1.648   1.937   5.277 -1.6420  0.2476 -0.0349
 3496SOL    HW221948   1.612   2.021   5.402  0.3319  0.2381  0.2867
 3497SOL     OW21949   2.718   3.848   9.950 -0.5003 -0.3337  0.7381
 3497SOL    HW121950   2.787   3.792   9.914 -1.3163 -1.4356  0.8827
 3497SOL    HW221951   2.718   3.818  10.041 -1.5080  0.1142  0.8863
 3498SOL     OW21952   3.188   1.779   2.478 -0.2307 -0.6016  0.2738
 3498SOL    HW121953   3.148   1.825   2.404  0.7294 -0.0177  0.1201
 3498SOL    HW221954   3.203   1.693   2.439 -0.5591 -0.2148 -0.7219
 3499SOL     OW21955   3.752   1.490   4.294  0.5800  0.0637 -0.0807
 3499SOL    HW121956   3.827   1.549   4.292 -0.0770  0.9296  0.8390
 3499SOL    HW221957   3.688   1.538   4.241 -0.6705 -1.1648  0.3190
 3500SOL     OW21958   4.096   0.478  13.830 -0.3490 -0.2228  0.4385
 3500SOL    HW121959   4.169   0.500  13.889  1.3889  1.5485 -2.3771
 3500SOL    HW221960   4.041   0.421  13.884 -0.6293 -2.2792 -2.0483
 3501SOL     OW21961   2.804   3.420   8.277 -0.9351  0.0053  0.3998
 3501SOL    HW121962   2.897   3.427   8.297 -0.4325 -3.3118 -0.7871
 3501SOL    HW221963   2.772   3.378   8.356  0.2702 -0.8949  0.3928
 3502SOL     OW21964   3.181   0.387  17.690 -0.5536  0.5977  0.0497
 3502SOL    HW121965   3.236   0.326   0.047  1.7746  3.3296  0.7969
 3502SOL    HW221966   3.093   0.360   0.024 -0.1263 -2.9236 -2.0135
 3503SOL     OW21967   4.678   1.858  14.968 -0.1727 -0.2877  0.4203
 3503SOL    HW121968   4.585   1.880  14.967 -0.0193  0.4206  1.3108
 3503SOL    HW221969   4.705   1.913  15.042 -2.0632  1.1874 -0.0067
 3504SOL     OW21970   0.135   2.147  17.219  0.1302 -0.4322  0.1950
 3504SOL    HW121971   0.069   2.080  17.234 -0.5064 -0.4863 -2.8992
 3504SOL    HW221972   0.097   2.211  17.160 -0.2474 -0.6666  0.1886
 3505SOL     OW21973   2.733   2.824   3.986 -0.0568 -0.1572 -0.4714
 3505SOL    HW121974   2.639   2.826   4.003  0.1938 -0.3453  0.8632
 3505SOL    HW221975   2.758   2.738   4.018  1.3584  1.0763  1.7041
 3506SOL     OW21976   0.662   3.037  13.950  0.0989  0.3180 -0.4625
 3506SOL    HW121977   0.619   3.056  13.866 -0.2148 -0.0510 -0.3846
 3506SOL    HW221978   0.608   3.089  14.010  1.0911  1.3505 -0.4523
 3507SOL     OW21979   4.629   2.083   2.152 -0.1895  0.2069  0.6656
 3507SOL    HW121980   4.606   1.999   2.193  0.9011  0.2225  1.3121
 3507SOL    HW221981   4.583   2.063   2.071  0.3576  0.6487  0.2474
 3508SOL     OW21982   2.916   4.622   2.387  0.0226 -0.6145  0.1830
 3508SOL    HW121983   2.887   4.620   2.479 -2.2657 -0.0747 -0.5264
 3508SOL    HW221984   2.975   4.547   2.386 -1.2387 -1.6178  1.1025
 3509SOL     OW21985   1.339   0.262   0.277  0.5975  0.2050  0.3341
 3509SOL    HW121986   1.426   0.237   0.246  0.7848 -1.5357  2.2415
 3509SOL    HW221987   1.363   0.304   0.360  0.6358  3.2738 -1.2158
 3510SOL     OW21988   2.428   3.088   5.013 -0.7454 -0.2011 -0.2352
 3510SOL    HW121989   2.406   3.181   5.016  0.1094  0.0444 -1.3841
 3510SOL    HW221990   2.459   3.074   4.923 -0.6996  2.6560 -0.6640
 3511SOL     OW21991   0.393   1.613   9.176  0.6878  0.1443 -0.5640
 3511SOL    HW121992   0.305   1.630   9.142  0.1498  0.4909  0.9815
 3511SOL    HW221993   0.385   1.654   9.262 -1.3777  3.2198 -2.2201
 3512SOL     OW21994   2.452   3.404   8.504 -0.7188 -0.4633  0.7404
 3512SOL    HW121995   2.393   3.344   8.550 -0.2270  0.2378  2.2675
 3512SOL    HW221996   2.466   3.472   8.569 -0.4989  1.7921 -1.6834
 3513SOL     OW21997   1.919   0.946   6.372  0.4197 -0.0872 -0.0252
 3513SOL    HW121998   1.986   1.013   6.359  0.4300 -0.2570 -0.9034
 3513SOL    HW221999   1.908   0.906   6.285  0.3725 -1.4262  0.5984
 3514SOL     OW22000   3.992   1.502   7.579 -0.3730  0.5599 -0.1573
 3514SOL    HW122001   3.916   1.553   7.607  0.0800  1.7711 -1.1352
 3514SOL    HW222002   4.037   1.556   7.514 -2.7119  2.5443 -0.1347
 3515SOL     OW22003   4.134   1.845   6.391 -0.1887 -0.0755 -0.4406
 3515SOL    HW122004   4.042   1.821   6.378 -0.4559  1.1710 -0.8560
 3515SOL    HW222005   4.178   1.767   6.357 -2.2392 -0.6339 -1.7827
 3516SOL     OW22006   4.631   4.552   6.497 -0.0616 -0.2006  0.2683
 3516SOL    HW122007   4.622   4.645   6.515  2.0027 -0.1079  0.7168
 3516SOL    HW222008   4.723   4.541   6.521  0.4710  0.9869 -1.2406
 3517SOL     OW22009   1.184   2.969  15.002 -0.3230  0.5489 -0.2331
 3517SOL    HW122010   1.195   2.920  15.084  1.0941  1.9772  0.4151
 3517SOL    HW222011   1.088   2.972  15.003 -0.2637  2.2554  0.0003
 3518SOL     OW22012   0.314   2.149  11.384  0.4405 -0.2479 -0.1448
 3518SOL    HW122013   0.282   2.062  11.409  1.1263 -0.2282  0.8176
 3518SOL    HW222014   0.293   2.195  11.465 -1.7542 -0.5742 -0.5314
 3519SOL     OW22015   0.004   2.479  17.372 -0.3103 -0.3418 -0.2032
 3519SOL    HW122016   4.693   2.568  17.375 -2.4618 -1.1463 -0.9635
 3519SOL    HW222017   4.660   2.426  17.414 -0.3107 -0.1380  0.0567
 3520SOL     OW22018   3.459   4.146  11.438 -0.1962  0.0536  0.3371
 3520SOL    HW122019   3.374   4.107  11.457  0.2701 -0.1479  2.0288
 3520SOL    HW222020   3.442   4.223  11.492 -4.7482 -0.6540 -0.1053
 3521SOL     OW22021   2.091   0.037   6.460 -0.1681  0.3877 -0.1090
 3521SOL    HW122022   2.108   4.678   6.415 -1.9494 -0.0653  0.0542
 3521SOL    HW222023   1.995   0.046   6.459 -0.2109 -0.5663 -2.5590
 3522SOL     OW22024   2.011   3.815   0.402 -0.8913  0.3332  0.5572
 3522SOL    HW122025   2.008   3.901   0.361  0.0949 -0.6508 -1.5658
 3522SOL    HW222026   2.092   3.827   0.452 -1.3712 -0.1914  1.4545
 3523SOL     OW22027   1.561   1.105   3.729 -0.2841 -0.6245 -0.3759
 3523SOL    HW122028   1.472   1.135   3.711 -0.9215 -1.1626  1.8472
 3523SOL    HW222029   1.586   1.088   3.639 -0.2594 -1.8887 -0.1346
 3524SOL     OW22030   0.355   0.331   5.564  0.3389  0.0625 -0.0716
 3524SOL    HW122031   0.324   0.348   5.475 -2.3372 -0.7192  0.6882
 3524SOL    HW222032   0.276   0.288   5.597  0.8735 -0.7629  0.1406
 3525SOL     OW22033   0.619   2.193   8.537 -0.2003 -0.1802  0.3985
 3525SOL    HW122034   0.622   2.278   8.493  0.1950 -0.5530 -0.2968
 3525SOL    HW222035   0.532   2.160   8.517  0.6674 -1.6326 -0.9807
 3526SOL     OW22036   4.592   4.265   4.602 -0.3419  0.0890 -0.4761
 3526SOL    HW122037   4.497   4.272   4.615 -0.3153 -0.7682  0.1608
 3526SOL    HW222038   4.618   4.357   4.607  0.8541 -0.3655  1.7419
 3527SOL     OW22039   2.611   1.252  17.598  0.2503  0.1194  0.4139
 3527SOL    HW122040   2.651   1.288  17.677  1.0078  1.5719 -0.6328
 3527SOL    HW222041   2.633   1.316  17.531 -0.4935  0.0676  0.1232
 3528SOL     OW22042   4.308   4.578   7.468  0.0232 -0.3473 -0.0689
 3528SOL    HW122043   4.386   4.630   7.447 -0.6981 -0.1623 -2.2133
 3528SOL    HW222044   4.266   4.629   7.538  0.4440 -1.0054  0.6670
 3529SOL     OW22045   3.889   2.041   5.714 -0.0443  0.0175  0.0823
 3529SOL    HW122046   3.835   1.975   5.672 -2.0050  1.3721  0.4469
 3529SOL    HW222047   3.959   2.056   5.650 -1.2416  0.7740 -1.0636
 3530SOL     OW22048   0.241   2.295  10.736 -0.3467  0.3980 -0.3612
 3530SOL    HW122049   0.235   2.209  10.693 -0.8286  0.5969 -0.6939
 3530SOL    HW222050   0.167   2.288  10.797 -0.7066  0.2333 -0.8142
 3531SOL     OW22051   0.147   4.370   3.957 -0.2924 -0.2239  0.3262
 3531SOL    HW122052   0.101   4.286   3.958 -0.9279  0.1091 -1.3598
 3531SOL    HW222053   0.167   4.385   4.049  1.7726  1.5459 -0.4157
 3532SOL     OW22054   3.076   2.897  14.348  0.1449  0.0037 -0.3188
 3532SOL    HW122055   3.004   2.960  14.358 -0.4295 -0.3680 -2.1762
 3532SOL    HW222056   3.051   2.844  14.423  0.1134  1.0816  0.4418
 3533SOL     OW22057   1.376   2.117   5.230  0.2484 -0.3596 -0.0022
 3533SOL    HW122058   1.324   2.147   5.156  0.4745  0.2535  0.0918
 3533SOL    HW222059   1.352   2.024   5.228 -1.1242  0.0030 -0.3759
 3534SOL     OW22060   3.527   3.606   1.521  0.2162 -0.1459 -1.0705
 3534SOL    HW122061   3.476   3.526   1.533  1.2355 -0.6928 -0.3635
 3534SOL    HW222062   3.467   3.645   1.458 -0.4088  1.8447  0.7247
 3535SOL     OW22063   3.516   0.333   1.046  0.2472  0.1122 -0.2900
 3535SOL    HW122064   3.511   0.243   1.016 -1.3375  0.1472 -0.1496
 3535SOL    HW222065   3.556   0.334   1.133 -1.2941 -0.7294  0.4250
 3536SOL     OW22066   1.526   3.868   4.190 -0.3829  0.5109 -0.5003
 3536SOL    HW122067   1.453   3.880   4.129 -0.5182 -3.5025 -1.1473
 3536SOL    HW222068   1.593   3.919   4.145  0.5855 -0.2081  0.1525
 3537SOL     OW22069   0.355   2.914   5.310 -0.0737 -0.3052 -0.0157
 3537SOL    HW122070   0.398   2.981   5.256  1.9949 -1.5402  0.0792
 3537SOL    HW222071   0.285   2.892   5.249 -1.3956 -1.9051  2.0642
 3538SOL     OW22072   4.458   3.769  16.684 -0.2622 -0.3473  0.0446
 3538SOL    HW122073   4.528   3.740  16.626  1.8211  0.5744  2.1373
 3538SOL    HW222074   4.395   3.696  16.685  0.1473 -0.6594  1.6741
 3539SOL     OW22075   1.151   1.436   0.465 -0.1374  0.1084 -0.4050
 3539SOL    HW122076   1.223   1.460   0.524 -0.9864  1.3277  0.1412
 3539SOL    HW222077   1.079   1.440   0.528 -1.2812  0.9520 -1.7925
 3540SOL     OW22078   4.668   4.113   7.690 -0.0560 -0.1238  0.0758
 3540SOL    HW122079   4.602   4.163   7.738 -2.0521  0.4445 -3.2389
 3540SOL    HW222080   0.020   4.097   7.747  0.6465 -2.6880 -1.5702
 3541SOL     OW22081   2.049   4.591  12.256  0.5083  0.1993 -0.3973
 3541SOL    HW122082   2.045   4.614  12.349  3.2282  2.0955 -0.7197
 3541SOL    HW222083   2.125   4.639  12.221 -0.7811  1.3422 -1.6201
 3542SOL     OW22084   4.008   1.690   0.537  0.8637 -0.3384  0.3288
 3542SOL    HW122085   4.022   1.749   0.463  1.6559 -1.7553 -0.6521
 3542SOL    HW222086   3.957   1.744   0.597  4.1814 -0.1236  2.9200
 3543SOL     OW22087   3.324   3.016   0.422  0.1238 -0.4472 -0.6221
 3543SOL    HW122088   3.287   2.974   0.500  1.9479 -2.2173 -0.6995
 3543SOL    HW222089   3.416   2.991   0.435  0.1571  0.0146  0.0093
 3544SOL     OW22090   0.138   4.592   1.433  0.4501 -0.6256  0.0355
 3544SOL    HW122091   0.145   4.639   1.350  0.4481  0.7409  0.8201
 3544SOL    HW222092   0.068   4.532   1.407  0.9559 -1.0049 -0.4467
 3545SOL     OW22093   3.559   3.704   6.689  0.4876 -0.4120  0.3750
 3545SOL    HW122094   3.542   3.735   6.778 -3.4335 -2.5144  0.3485
 3545SOL    HW222095   3.514   3.769   6.634  0.5881 -1.9645 -1.5149
 3546SOL     OW22096   2.983   0.688  11.964  0.3982 -0.6506  0.3440
 3546SOL    HW122097   3.016   0.670  11.875 -1.8693 -0.0510 -0.6309
 3546SOL    HW222098   3.062   0.662  12.011 -1.0751 -1.2067  2.4727
 3547SOL     OW22099   2.170   3.875  16.926  0.0924 -0.0876 -0.0300
 3547SOL    HW122100   2.255   3.858  16.968 -0.1813 -0.8552  0.2084
 3547SOL    HW222101   2.127   3.792  16.945 -0.4378  0.5443  1.5413
 3548SOL     OW22102   0.886   3.808   7.214  0.0959  0.3574  0.1479
 3548SOL    HW122103   0.853   3.898   7.216 -3.1290 -0.8028 -2.0713
 3548SOL    HW222104   0.837   3.774   7.140  1.8763  2.4367 -1.9958
 3549SOL     OW22105   3.999   2.232   2.621  0.5502 -0.3268  0.4530
 3549SOL    HW122106   3.941   2.279   2.680 -1.1224 -0.2507 -1.2418
 3549SOL    HW222107   3.940   2.219   2.547  1.1809  0.1255 -0.1299
 3550SOL     OW22108   1.489   1.377   1.785 -0.0391 -0.0434 -0.2183
 3550SOL    HW122109   1.568   1.363   1.733  0.6660  0.7947  0.6319
 3550SOL    HW222110   1.489   1.300   1.842 -1.8319 -0.7851 -1.2042
 3551SOL     OW22111   3.821   4.601  10.627 -0.2179 -0.4052 -0.2683
 3551SOL    HW122112   3.882   4.663  10.667  0.9152 -2.8766  1.8082
 3551SOL    HW222113   3.862   4.582  10.543 -0.6078  1.0953 -0.8063
 3552SOL     OW22114   3.103   4.193  13.536  0.3535 -0.6031  0.0517
 3552SOL    HW122115   3.155   4.252  13.482  2.1900  0.3118  2.8161
 3552SOL    HW222116   3.015   4.230  13.528  0.3538  0.0862  3.2313
 3553SOL     OW22117   3.854   4.005  14.840  0.8506 -0.2754  0.2438
 3553SOL    HW122118   3.858   4.079  14.900 -0.8678 -0.2487  0.3386
 3553SOL    HW222119   3.946   4.000  14.816  0.6190  1.1122 -0.8967
 3554SOL     OW22120   0.034   0.864  14.791  0.3074 -0.2270 -0.4072
 3554SOL    HW122121   0.096   0.912  14.736  0.0020  1.0480  0.3479
 3554SOL    HW222122   0.093   0.796  14.825  0.4463  0.1549  0.1146
 3555SOL     OW22123   0.003   4.606   0.539 -0.3918 -0.0177  0.2320
 3555SOL    HW122124   4.638   4.567   0.536 -0.8983  1.1523  0.1444
 3555SOL    HW222125   4.696   4.689   0.503 -1.8607 -0.2844  0.8482
 3556SOL     OW22126   0.820   3.952   3.028  0.5119 -0.4728  0.2466
 3556SOL    HW122127   0.813   3.871   2.978 -0.1401  0.3138 -0.9462
 3556SOL    HW222128   0.748   4.006   2.995  1.4796  0.8891  0.3373
 3557SOL     OW22129   3.668   1.480  14.703 -0.0550  0.2512 -0.0215
 3557SOL    HW122130   3.576   1.485  14.677 -0.5134 -2.7261  1.0868
 3557SOL    HW222131   3.673   1.391  14.736  0.6006  0.8087  1.3814
 3558SOL     OW22132   4.138   3.197   0.398 -0.0708  0.5525  0.7065
 3558SOL    HW122133   4.189   3.270   0.432  1.1814 -0.3169  0.6722
 3558SOL    HW222134   4.081   3.242   0.336 -1.6484 -2.4799 -0.0876
 3559SOL     OW22135   0.142   4.107  10.264 -0.3728  0.0359 -0.6179
 3559SOL    HW122136   0.062   4.055  10.259 -2.2211  2.8136  0.1780
 3559SOL    HW222137   0.193   4.044  10.316  0.1170 -0.4507 -1.6743
 3560SOL     OW22138   0.502   2.469   4.418 -0.2783 -0.5884  0.2583
 3560SOL    HW122139   0.432   2.463   4.483 -0.2325 -0.2549  0.3399
 3560SOL    HW222140   0.580   2.485   4.471  1.3055 -1.3767 -1.8213
 3561SOL     OW22141   3.438   3.315   3.242 -0.4030  0.3033 -0.3258
 3561SOL    HW122142   3.354   3.355   3.263 -0.1783  0.0884  0.9608
 3561SOL    HW222143   3.442   3.253   3.315 -0.2356  0.9017  0.1719
 3562SOL     OW22144   3.656   4.454   2.960  0.0919  0.8404  0.0430
 3562SOL    HW122145   3.571   4.450   2.916 -0.0425 -0.3865  0.4180
 3562SOL    HW222146   3.704   4.512   2.901 -0.4934  0.9910 -0.2822
 3563SOL     OW22147   0.165   3.065  12.596 -0.2695  0.1067 -0.1060
 3563SOL    HW122148   0.090   3.096  12.545 -1.5243 -1.0059  1.0579
 3563SOL    HW222149   0.120   3.012  12.663 -1.1891  1.3764  0.2983
 3564SOL     OW22150   2.409   4.610   6.423  0.0159  0.0008 -0.6200
 3564SOL    HW122151   2.321   4.617   6.387 -0.8067  0.0215  1.3856
 3564SOL    HW222152   2.460   4.627   6.344  2.6450  1.6203  1.4302
 3565SOL     OW22153   0.939   2.798   7.985  0.2183  0.3538  0.0544
 3565SOL    HW122154   0.968   2.746   7.910  1.1556  1.0452 -0.0532
 3565SOL    HW222155   0.990   2.879   7.987  0.1776  0.3533  1.3658
 3566SOL     OW22156   0.031   3.059   2.452  0.0660  0.2138 -0.1510
 3566SOL    HW122157   4.674   3.087   2.498  1.0734  3.7606 -0.5495
 3566SOL    HW222158   0.003   3.100   2.370 -0.1745 -0.3235 -0.3362
 3567SOL     OW22159   4.034   2.333   5.791  0.0166 -0.2628  0.7427
 3567SOL    HW122160   4.088   2.412   5.783  1.4142 -1.5415 -2.4033
 3567SOL    HW222161   3.961   2.376   5.835 -0.7958  0.3753 -1.2403
 3568SOL     OW22162   4.638   2.449  11.177  0.0947  0.2673 -0.4472
 3568SOL    HW122163   4.700   2.511  11.216  0.4001 -0.4714  0.2625
 3568SOL    HW222164   4.557   2.493  11.202 -0.3933 -0.3934 -0.8720
 3569SOL     OW22165   0.913   0.241   6.129  0.4903  0.3765  0.3683
 3569SOL    HW122166   0.993   0.292   6.136 -0.8271  2.6575 -1.5501
 3569SOL    HW222167   0.865   0.261   6.209  0.1214  1.5150 -0.1383
 3570SOL     OW22168   0.748   2.212   4.109 -0.0277 -0.1233 -0.2360
 3570SOL    HW122169   0.802   2.175   4.039  2.4600  1.3296  0.8945
 3570SOL    HW222170   0.690   2.265   4.054 -0.0061 -0.5866 -0.7003
 3571SOL     OW22171   3.920   4.456   4.296 -0.7330  0.5582  0.1345
 3571SOL    HW122172   3.876   4.506   4.365 -2.1741  0.9101 -1.0476
 3571SOL    HW222173   4.000   4.508   4.290  0.3635 -1.6545 -3.9114
 3572SOL     OW22174   2.552   0.372  11.662 -0.7224 -0.0898  0.1537
 3572SOL    HW122175   2.573   0.324  11.581  2.5149  1.4425  0.0871
 3572SOL    HW222176   2.562   0.462  11.631  0.5202 -0.6472 -1.1153
 3573SOL     OW22177   4.663   4.129   3.687 -0.3679  0.6603 -0.1623
 3573SOL    HW122178   4.623   4.172   3.612  0.3620  0.9073 -0.4095
 3573SOL    HW222179   0.031   4.121   3.657 -0.0442 -0.4794  1.1023
 3574SOL     OW22180   4.719   0.849   1.692 -0.6618  0.1663  0.6008
 3574SOL    HW122181   4.703   0.854   1.597  0.0032  1.8037  0.5595
 3574SOL    HW222182   4.626   0.840   1.708 -0.9725 -0.7761 -1.7963
 3575SOL     OW22183   3.039   1.824   6.482 -0.3100 -0.1320  0.6950
 3575SOL    HW122184   3.022   1.874   6.403 -1.9680 -1.0713  0.4464
 3575SOL    HW222185   3.001   1.875   6.553 -2.3174 -0.6246 -0.0323
 3576SOL     OW22186   3.043   2.179   7.587  0.2012  0.2552  0.0214
 3576SOL    HW122187   3.014   2.241   7.653 -0.2540  0.5190 -0.4260
 3576SOL    HW222188   3.049   2.102   7.644 -1.0943 -0.8243 -1.2628
 3577SOL     OW22189   4.077   4.659  17.019  0.4362 -0.1177 -0.4477
 3577SOL    HW122190   4.050   4.568  17.005 -1.4388  0.1027  1.5803
 3577SOL    HW222191   4.155   4.645  17.072 -0.0936  1.1717  0.6761
 3578SOL     OW22192   3.627   0.240   5.123  0.1630 -0.1646  0.4337
 3578SOL    HW122193   3.711   0.273   5.090 -0.6466  0.6868 -0.7734
 3578SOL    HW222194   3.591   0.320   5.162 -0.9211 -0.0218 -0.8516
 3579SOL     OW22195   4.694   1.847   3.107 -0.2182 -0.1407  0.4252
 3579SOL    HW122196   0.048   1.856   3.050  1.6148 -0.5114  2.8349
 3579SOL    HW222197   4.665   1.938   3.114  0.5446  0.1475 -0.2021
 3580SOL     OW22198   0.923   1.638   2.908  0.3397  0.1500  0.1949
 3580SOL    HW122199   0.957   1.636   2.997 -1.8041  0.7245  1.0252
 3580SOL    HW222200   0.892   1.729   2.911 -0.1791 -0.0576  1.2210
 3581SOL     OW22201   2.594   4.117   2.813 -0.0270  0.4549 -0.3917
 3581SOL    HW122202   2.528   4.053   2.838  1.7938 -1.1162  0.3539
 3581SOL    HW222203   2.547   4.150   2.736 -3.2153 -0.7821  1.0620
 3582SOL     OW22204   1.888   3.795  15.139 -0.1545 -0.3751 -0.1420
 3582SOL    HW122205   1.848   3.709  15.149  0.9356 -0.9573 -0.7814
 3582SOL    HW222206   1.864   3.834  15.223 -0.7702  0.0943 -0.5415
 3583SOL     OW22207   3.887   2.047   8.610 -0.6686 -0.9756  0.2055
 3583SOL    HW122208   3.902   1.977   8.673 -0.6658 -1.2543 -0.1065
 3583SOL    HW222209   3.824   2.008   8.550  1.3705 -2.2408 -1.1187
 3584SOL     OW22210   2.477   2.779  17.637  0.5492  0.1684 -0.0755
 3584SOL    HW122211   2.541   2.814   0.007  1.5502 -0.4562 -0.7363
 3584SOL    HW222212   2.442   2.863  17.607 -0.8374 -0.0727  0.8916
 3585SOL     OW22213   2.420   0.295   2.669  0.2950  0.1008  0.0458
 3585SOL    HW122214   2.360   0.222   2.653 -1.2227  0.9363  2.0144
 3585SOL    HW222215   2.420   0.332   2.581  0.9512  1.7773  0.7616
 3586SOL     OW22216   2.096   4.149   3.165 -0.0960 -0.3109 -0.8256
 3586SOL    HW122217   2.190   4.168   3.167 -0.7110  2.6774  1.8358
 3586SOL    HW222218   2.099   4.121   3.257 -3.7879  0.1046 -0.5792
 3587SOL     OW22219   3.612   0.598   6.640 -0.1475  0.5698  0.3739
 3587SOL    HW122220   3.664   0.644   6.706  0.3074  2.7509 -1.5001
 3587SOL    HW222221   3.576   0.524   6.688  1.7551  0.7650  2.0641
 3588SOL     OW22222   1.144   2.984   8.396  0.3168 -0.1886 -0.1725
 3588SOL    HW122223   1.176   3.074   8.396 -0.6077  0.1468  1.2278
 3588SOL    HW222224   1.201   2.933   8.454  1.5513  0.8292 -0.4922
 3589SOL     OW22225   2.418   4.149   4.222  0.8519 -0.3169  0.1403
 3589SOL    HW122226   2.443   4.178   4.310  0.5728 -0.8102  0.3823
 3589SOL    HW222227   2.427   4.235   4.180 -0.0241  0.1529  0.8806
 3590SOL     OW22228   4.436   0.374   4.045 -0.1383  0.7175 -0.1151
 3590SOL    HW122229   4.478   0.428   4.111  0.9785  0.4410 -0.6114
 3590SOL    HW222230   4.438   0.293   4.096 -0.7893  1.4403  1.0574
 3591SOL     OW22231   4.433   1.708  17.122 -0.4860  0.1181 -0.1951
 3591SOL    HW122232   4.453   1.673  17.209 -0.0781  0.7090 -0.0476
 3591SOL    HW222233   4.479   1.648  17.064  0.1747  0.3771  0.0609
 3592SOL     OW22234   0.160   0.013   8.893 -0.2360  0.1440 -0.1970
 3592SOL    HW122235   0.160   0.085   8.955  2.1592 -1.6483  1.8945
 3592SOL    HW222236   0.244   4.693   8.911 -1.4484 -0.4823  4.0069
 3593SOL     OW22237   2.690   3.279   4.093  0.0676 -0.0127  0.2008
 3593SOL    HW122238   2.636   3.356   4.114  2.1978  1.5830 -0.1372
 3593SOL    HW222239   2.622   3.212   4.105  0.1759 -0.2330 -0.4017
 3594SOL     OW22240   3.008   3.268   7.426 -0.2320 -0.1352 -0.6282
 3594SOL    HW122241   2.932   3.212   7.412 -0.6350  0.4391 -0.6985
 3594SOL    HW222242   2.995   3.350   7.379  2.8344  0.4184 -0.5634
 3595SOL     OW22243   4.516   2.980   4.704 -0.6342 -0.5033 -0.5695
 3595SOL    HW122244   4.451   2.913   4.725 -0.8336 -0.2778 -0.4689
 3595SOL    HW222245   4.465   3.060   4.698  1.1382  0.8232  1.9160
 3596SOL     OW22246   3.600   4.440  16.877 -0.1254  0.8580 -0.3616
 3596SOL    HW122247   3.544   4.432  16.800  1.1002 -1.0640 -1.0432
 3596SOL    HW222248   3.606   4.535  16.893  1.5372  0.8462 -0.9067
 3597SOL     OW22249   0.878   3.725   7.788  0.1517  0.0468 -0.1805
 3597SOL    HW122250   0.866   3.702   7.696 -2.0225 -0.2679  0.1918
 3597SOL    HW222251   0.819   3.800   7.797 -0.9074 -0.9689  1.4309
 3598SOL     OW22252   3.473   2.602   6.130 -0.7515  0.5014 -0.1211
 3598SOL    HW122253   3.400   2.541   6.140 -0.1720 -0.4503 -1.5786
 3598SOL    HW222254   3.459   2.650   6.048 -2.1768 -1.1195 -0.8144
 3599SOL     OW22255   1.911   2.377   7.265 -0.4364 -0.2348 -0.5124
 3599SOL    HW122256   1.887   2.465   7.293  0.4169  0.3298 -1.5278
 3599SOL    HW222257   1.995   2.368   7.310 -0.4346 -0.3994 -0.5487
 3600SOL     OW22258   1.123   0.383   2.252 -0.0356 -0.3221  0.7068
 3600SOL    HW122259   1.081   0.444   2.312 -3.0817 -1.7195 -0.0342
 3600SOL    HW222260   1.195   0.435   2.216 -1.2594 -0.3738 -1.7897
 3601SOL     OW22261   4.518   4.706   2.772 -0.1288 -0.4538 -0.0840
 3601SOL    HW122262   4.450   0.015   2.832 -0.2576  0.5394 -0.7463
 3601SOL    HW222263   4.563   0.067   2.763  0.8298 -0.7578  2.0511
 3602SOL     OW22264   3.889   0.843   2.220  0.1438 -0.2394  0.1312
 3602SOL    HW122265   3.804   0.866   2.257 -1.0276 -0.6811 -2.2935
 3602SOL    HW222266   3.931   0.928   2.236  0.3567 -0.2154 -0.5324
 3603SOL     OW22267   3.457   0.511   3.821 -0.8486  0.2490  0.1043
 3603SOL    HW122268   3.545   0.491   3.789 -0.1589 -1.1596  2.8259
 3603SOL    HW222269   3.401   0.435   3.804 -2.0279  1.2090 -0.3043
 3604SOL     OW22270   1.218   0.582  13.106  0.6000  0.3275  0.2235
 3604SOL    HW122271   1.258   0.502  13.141 -3.5001 -0.6670  2.7046
 3604SOL    HW222272   1.170   0.547  13.030  0.2999  1.9842 -0.3415
 3605SOL     OW22273   1.831   2.165   7.113 -0.1573 -0.3808 -0.1721
 3605SOL    HW122274   1.832   2.113   7.193  2.3073 -1.1632 -0.6873
 3605SOL    HW222275   1.865   2.249   7.144 -0.1149 -0.7242  0.7109
 3606SOL     OW22276   4.698   1.914   3.951 -0.0660 -0.6737 -0.3070
 3606SOL    HW122277   4.645   1.940   3.876  0.3069  1.8035  0.2970
 3606SOL    HW222278   0.065   1.928   3.921  0.0566 -2.2631 -0.7294
 3607SOL     OW22279   2.400   1.036   9.177 -0.0689 -0.1924  0.1694
 3607SOL    HW122280   2.305   1.023   9.175 -0.1190  0.0942  1.2165
 3607SOL    HW222281   2.406   1.108   9.239 -0.9772  0.7242 -0.7987
 3608SOL     OW22282   0.298   4.445  14.287 -0.1015  0.2431 -0.3564
 3608SOL    HW122283   0.207   4.421  14.270  0.2302  0.3477 -2.3498
 3608SOL    HW222284   0.285   4.539  14.278  1.4501  0.4813 -0.2037
 3609SOL     OW22285   4.383   3.031  10.630  0.4321  0.0360  0.0737
 3609SOL    HW122286   4.326   2.968  10.674  0.7775 -1.9065 -2.2628
 3609SOL    HW222287   4.335   3.030  10.547 -1.2929  0.1195  1.0561
 3610SOL     OW22288   2.934   4.068   9.894  0.3457 -0.4880  0.1645
 3610SOL    HW122289   2.993   4.022   9.954 -0.6556 -3.0536 -0.8347
 3610SOL    HW222290   2.862   4.005   9.897 -1.6821  1.6822 -2.2686
 3611SOL     OW22291   3.864   3.324   8.089 -0.3554  0.1600 -0.4598
 3611SOL    HW122292   3.911   3.397   8.049 -1.3961  1.3131  0.4043
 3611SOL    HW222293   3.871   3.332   8.184  0.6420  2.0491 -0.6900
 3612SOL     OW22294   2.050   2.327  17.003  0.0352 -0.3015  1.0603
 3612SOL    HW122295   2.104   2.389  17.052  0.5798  0.0279  0.0473
 3612SOL    HW222296   1.966   2.365  17.030 -1.2425 -2.1540 -0.2910
 3613SOL     OW22297   2.996   1.742   3.800 -0.1371  0.7992 -0.4654
 3613SOL    HW122298   2.922   1.799   3.779 -0.0354  1.5953  1.3873
 3613SOL    HW222299   2.971   1.712   3.887  2.2318 -1.8087 -0.7009
 3614SOL     OW22300   0.755   0.213   4.185  0.5277  0.0082 -0.1437
 3614SOL    HW122301   0.804   0.175   4.258  0.0861 -2.0537 -0.9135
 3614SOL    HW222302   0.828   0.224   4.124  2.1144 -2.5234  1.2822
 3615SOL     OW22303   2.060   1.746   9.822 -0.0227  0.1625  0.0758
 3615SOL    HW122304   2.127   1.703   9.875  0.7878  0.4062 -0.7509
 3615SOL    HW222305   1.992   1.751   9.888  0.6859  1.2662  0.7232
 3616SOL     OW22306   2.320   2.568   0.892 -0.4116  0.1477  0.0009
 3616SOL    HW122307   2.240   2.526   0.922  0.5218 -1.3690  0.3555
 3616SOL    HW222308   2.310   2.651   0.939  0.5291  0.6098 -0.5969
 3617SOL     OW22309   2.175   0.582  10.350 -0.1473 -0.6261 -0.2745
 3617SOL    HW122310   2.230   0.601  10.425  0.2832 -2.2900 -0.1849
 3617SOL    HW222311   2.102   0.544  10.398 -0.3591  1.0213  0.7087
 3618SOL     OW22312   2.728   3.357   8.524  0.2585 -0.3299 -0.4430
 3618SOL    HW122313   2.772   3.284   8.567  0.4814  0.1116  0.0781
 3618SOL    HW222314   2.636   3.331   8.524 -0.3014  1.6031 -0.0897
 3619SOL     OW22315   1.449   2.074   9.389  0.0694  0.2443  0.0346
 3619SOL    HW122316   1.404   1.990   9.382  1.8033 -0.7799  1.5431
 3619SOL    HW222317   1.386   2.120   9.444 -0.5209  0.1455 -0.5442
 3620SOL     OW22318   1.233   2.877   4.744  0.6229 -0.5724  0.2420
 3620SOL    HW122319   1.216   2.831   4.662  2.4080  0.9290 -0.9768
 3620SOL    HW222320   1.149   2.865   4.788  1.3236 -0.8018  1.5260
 3621SOL     OW22321   3.190   0.310  10.110  0.1353  0.0928 -0.2366
 3621SOL    HW122322   3.164   0.229  10.155  1.1351  0.0661  0.2843
 3621SOL    HW222323   3.239   0.284  10.032 -0.7367  1.3251 -1.2093
 3622SOL     OW22324   0.517   1.436   1.585  0.7209 -0.1343 -0.8792
 3622SOL    HW122325   0.539   1.503   1.520 -2.7175 -0.3821 -2.3505
 3622SOL    HW222326   0.454   1.387   1.531 -1.1789  1.5815 -0.2240
 3623SOL     OW22327   0.702   3.262   0.789 -0.4082 -0.2025 -0.4991
 3623SOL    HW122328   0.667   3.295   0.872 -1.7903 -1.1881 -0.6890
 3623SOL    HW222329   0.797   3.265   0.805 -0.6747  0.8259  0.9430
 3624SOL     OW22330   1.018   4.140   4.359  0.4539  0.4961 -0.1552
 3624SOL    HW122331   0.946   4.193   4.327  1.5433  2.1141  0.0286
 3624SOL    HW222332   0.989   4.118   4.448 -0.4277  2.8535  0.1471
 3625SOL     OW22333   2.908   1.001   3.391  0.0088 -0.1893 -0.2646
 3625SOL    HW122334   3.001   1.022   3.384 -0.5470  1.8675 -1.3183
 3625SOL    HW222335   2.907   0.917   3.437  0.2877 -0.8937 -1.5354
 3626SOL     OW22336   2.019   2.176   8.316  0.5883  0.2673  0.1469
 3626SOL    HW122337   1.969   2.096   8.302 -1.6538  1.7306 -0.1768
 3626SOL    HW222338   2.100   2.133   8.345  1.0446  1.1183  0.1552
 3627SOL     OW22339   3.102   3.218  11.706  0.4006 -0.2076 -0.6674
 3627SOL    HW122340   3.142   3.150  11.651 -0.7746 -0.6553 -0.9590
 3627SOL    HW222341   3.048   3.261  11.640  0.7383  0.3836 -0.5594
 3628SOL     OW22342   3.337   4.437  13.700 -0.1998 -0.3574 -0.2510
 3628SOL    HW122343   3.332   4.485  13.782  0.1752 -2.7113  1.1507
 3628SOL    HW222344   3.279   4.484  13.640  1.1437  1.7436  0.1168
 3629SOL     OW22345   2.718   0.532   0.047 -0.3475 -0.0718  0.1026
 3629SOL    HW122346   2.677   0.556   0.130  0.3188  2.5915 -0.3624
 3629SOL    HW222347   2.660   0.576  17.678 -0.3870 -1.3276 -0.7608
 3630SOL     OW22348   1.270   2.964   1.158  0.6467  0.0507  0.0023
 3630SOL    HW122349   1.337   3.000   1.100  0.7584  0.0136  0.1070
 3630SOL    HW222350   1.317   2.895   1.207  1.6545  1.2003  0.6698
 3631SOL     OW22351   2.351   0.251   6.118 -0.7265 -0.0314 -0.1287
 3631SOL    HW122352   2.323   0.159   6.126 -1.9260  0.3187 -0.3500
 3631SOL    HW222353   2.270   0.300   6.104 -0.6495  0.2156  0.3155
 3632SOL     OW22354   1.528   0.298  12.934  0.1335 -0.0192 -0.3838
 3632SOL    HW122355   1.554   0.322  12.844 -1.5729 -1.0128 -1.1373
 3632SOL    HW222356   1.438   0.331  12.937  0.4191  0.5531  1.8316
 3633SOL     OW22357   1.930   2.401   2.337 -0.2149 -0.2430 -0.3758
 3633SOL    HW122358   1.894   2.480   2.297 -3.3164 -1.1727  0.5430
 3633SOL    HW222359   1.853   2.382   2.390 -0.9541  1.4963 -0.8406
 3634SOL     OW22360   3.109   3.367   6.950  0.6837  0.0025 -0.0412
 3634SOL    HW122361   3.165   3.400   6.879  1.3964 -1.0018  0.0353
 3634SOL    HW222362   3.118   3.439   7.012 -3.3649  1.0599 -0.7457
 3635SOL     OW22363   4.428   2.886   3.988 -0.2504  0.0071 -0.7727
 3635SOL    HW122364   4.347   2.936   4.002 -0.1612 -0.2916  0.8602
 3635SOL    HW222365   4.419   2.836   4.069 -0.3691  2.7601  0.9244
 3636SOL     OW22366   3.819   4.026   2.206 -0.4417 -0.4561 -0.1075
 3636SOL    HW122367   3.895   4.083   2.191 -0.0215 -0.7706  0.7741
 3636SOL    HW222368   3.764   4.074   2.268 -0.0051 -0.5292  0.3424
 3637SOL     OW22369   2.260   1.282  15.311 -0.0968 -0.4275  0.2527
 3637SOL    HW122370   2.196   1.309  15.376 -0.0292  2.2551 -0.8063
 3637SOL    HW222371   2.214   1.301  15.229  1.6460 -0.3835 -0.7232
 3638SOL     OW22372   2.892   1.211   1.824  0.8268  0.2873 -0.3466
 3638SOL    HW122373   2.812   1.163   1.847  0.5643 -0.0215 -1.9510
 3638SOL    HW222374   2.869   1.286   1.879  1.0371  1.4239 -1.8100
 3639SOL     OW22375   0.311   2.259   8.254  0.3143  0.0765 -0.2178
 3639SOL    HW122376   0.335   2.187   8.313 -0.8789  0.2723  0.4975
 3639SOL    HW222377   0.215   2.256   8.256  0.3549 -1.9793 -0.4821
 3640SOL     OW22378   3.143   2.063   4.704 -0.1937 -0.5394  0.0170
 3640SOL    HW122379   3.160   1.977   4.744  2.4801 -0.2851 -0.5477
 3640SOL    HW222380   3.182   2.057   4.617  2.0979  0.5544  0.9593
 3641SOL     OW22381   0.279   0.474  15.653  0.3723 -0.7076  0.0291
 3641SOL    HW122382   0.295   0.476  15.559 -3.1685  2.0665 -0.5045
 3641SOL    HW222383   0.203   0.531  15.661  1.3029  0.6608 -0.8189
 3642SOL     OW22384   3.903   1.720   4.262  0.2217  0.9908  0.3053
 3642SOL    HW122385   3.914   1.765   4.346  3.9434  2.2514 -0.8113
 3642SOL    HW222386   3.991   1.731   4.224  0.2514  1.0698  0.3975
 3643SOL     OW22387   2.198   0.955   5.507  0.0567 -0.4174  0.1896
 3643SOL    HW122388   2.278   1.007   5.508 -0.7836  0.8668 -1.5639
 3643SOL    HW222389   2.217   0.885   5.444  0.7011  2.0185 -2.3116
 3644SOL     OW22390   0.803   0.343  13.755 -0.1099  0.1639 -0.7000
 3644SOL    HW122391   0.871   0.410  13.760 -0.8332  0.8064  0.8334
 3644SOL    HW222392   0.850   0.278  13.704 -1.2260 -2.6768  1.8765
 3645SOL     OW22393   1.924   0.685  12.616  0.0078 -0.3190  0.0435
 3645SOL    HW122394   1.983   0.738  12.562 -0.5688  0.1314 -0.1374
 3645SOL    HW222395   1.985   0.615  12.642  0.1028 -0.3979 -0.3980
 3646SOL     OW22396   1.047   1.206   7.386  0.4649  0.0950  0.0149
 3646SOL    HW122397   0.996   1.273   7.431 -1.4633 -0.7763 -0.8761
 3646SOL    HW222398   1.132   1.233   7.421  0.1629 -0.6947  1.3539
 3647SOL     OW22399   1.517   3.354  11.124 -0.0715  0.5848  0.0102
 3647SOL    HW122400   1.431   3.320  11.100  0.0285 -1.1243  2.0231
 3647SOL    HW222401   1.561   3.269  11.134  0.0173  0.4754 -1.3475
 3648SOL     OW22402   0.753   4.718  12.548  0.6003 -0.2298  0.1569
 3648SOL    HW122403   0.756   0.006  12.643 -0.1108  1.7237 -0.0484
 3648SOL    HW222404   0.808   4.640  12.541 -1.4599 -1.6936  0.3414
 3649SOL     OW22405   2.605   3.934   5.967 -0.4137 -0.4026  0.4974
 3649SOL    HW122406   2.518   3.971   5.982  0.4233  2.3863 -1.4240
 3649SOL    HW222407   2.660   3.985   6.027 -0.3949  1.7612 -1.3495
 3650SOL     OW22408   1.316   0.648   3.072  0.7284 -0.1308  0.1663
 3650SOL    HW122409   1.246   0.649   3.006  2.2779 -0.0321 -1.4810
 3650SOL    HW222410   1.315   0.555   3.095 -2.8783  0.4266  2.3120
 3651SOL     OW22411   0.409   1.372  17.226 -0.6987  0.3287  0.7182
 3651SOL    HW122412   0.499   1.397  17.205  0.1030 -2.5636  0.6868
 3651SOL    HW222413   0.363   1.452  17.201 -0.6445  0.4912  1.1329
 3652SOL     OW22414   2.789   4.512   6.360 -0.2833  0.6060  0.2551
 3652SOL    HW122415   2.737   4.440   6.324  0.5259 -0.9813  2.2628
 3652SOL    HW222416   2.791   4.499   6.455 -0.0619 -1.1456  0.0142
 3653SOL     OW22417   4.447   1.629   1.747  0.2491 -0.3699 -0.0750
 3653SOL    HW122418   4.543   1.632   1.746  0.2345  0.0465 -0.6285
 3653SOL    HW222419   4.431   1.676   1.664  1.0010 -1.2707 -0.7333
 3654SOL     OW22420   2.196   2.737   3.817  0.1416 -0.0625 -0.0351
 3654SOL    HW122421   2.184   2.822   3.861  1.5380  0.1935 -0.1512
 3654SOL    HW222422   2.123   2.733   3.755  1.4922 -0.0275 -1.6250
 3655SOL     OW22423   3.048   0.928  11.682 -0.0739 -0.0128  0.5976
 3655SOL    HW122424   3.134   0.923  11.723 -0.1561 -2.2037  0.4784
 3655SOL    HW222425   2.988   0.952  11.753 -0.4258  0.8424  0.0272
 3656SOL     OW22426   2.204   0.413  10.128 -0.3183 -0.6463 -0.5447
 3656SOL    HW122427   2.201   0.460  10.211  0.5900 -2.3840  0.4834
 3656SOL    HW222428   2.133   0.453  10.080  1.0648 -0.9289 -2.8179
 3657SOL     OW22429   2.983   4.255   5.158 -0.4267 -0.5108  0.0211
 3657SOL    HW122430   2.937   4.285   5.236  0.1778 -0.1708  0.2427
 3657SOL    HW222431   2.986   4.162   5.180  0.8640 -0.3789  0.4012
 3658SOL     OW22432   4.172   0.893   3.309 -0.7019 -0.5699  0.4885
 3658SOL    HW122433   4.249   0.905   3.364  0.1144  2.1413 -1.2623
 3658SOL    HW222434   4.188   0.805   3.275 -0.4211  0.2102 -1.4311
 3659SOL     OW22435   4.445   2.368  15.030 -0.2085 -0.2493  0.3567
 3659SOL    HW122436   4.401   2.408  15.105  0.1778  1.4212 -0.3239
 3659SOL    HW222437   4.425   2.426  14.957  1.0436  1.7545  1.6110
 3660SOL     OW22438   3.129   1.417   7.858  0.9600  0.0677 -0.3077
 3660SOL    HW122439   3.146   1.460   7.942  0.1563 -0.8569  0.3217
 3660SOL    HW222440   3.069   1.350   7.890  2.5733 -1.7507 -1.1320
 3661SOL     OW22441   0.367   2.107   1.995  0.4214  0.3084  0.3028
 3661SOL    HW122442   0.375   2.142   1.906  0.9221  1.7722  0.9351
 3661SOL    HW222443   0.280   2.069   1.979  1.6293 -1.8293 -1.0744
 3662SOL     OW22444   3.989   0.739  13.506 -0.8990  0.1644  0.3930
 3662SOL    HW122445   3.971   0.645  13.497 -1.4062  0.2558  0.4630
 3662SOL    HW222446   3.939   0.772  13.431 -3.3547 -0.8489  1.5969
 3663SOL     OW22447   3.068   2.713   7.055 -0.2060 -0.1611  0.1753
 3663SOL    HW122448   2.977   2.703   7.083 -0.0221 -1.1155  0.4281
 3663SOL    HW222449   3.103   2.641   7.107 -1.1332 -0.4102  0.4510
 3664SOL     OW22450   4.300   3.613   8.161 -0.0464  0.2839  0.2555
 3664SOL    HW122451   4.286   3.675   8.089 -0.4343 -0.7590 -0.5685
 3664SOL    HW222452   4.390   3.582   8.151  0.3680  1.0744  1.4949
 3665SOL     OW22453   2.630   4.299   6.275 -0.0590  0.0989  0.3945
 3665SOL    HW122454   2.596   4.283   6.186  0.8771 -1.2241  0.2579
 3665SOL    HW222455   2.673   4.213   6.280 -2.2253 -0.8789  2.2880
 3666SOL     OW22456   2.387   2.310   3.896 -0.1016 -0.3107  0.2417
 3666SOL    HW122457   2.311   2.255   3.874  0.2485 -0.9083  0.5336
 3666SOL    HW222458   2.347   2.375   3.953  0.7216  0.0562  0.3975
 3667SOL     OW22459   4.128   0.763   3.598 -0.7312  0.0363  0.4847
 3667SOL    HW122460   4.220   0.765   3.625 -0.6988  0.0937  0.3705
 3667SOL    HW222461   4.126   0.689   3.538 -1.1001 -0.0685  0.6284
 3668SOL     OW22462   4.141   3.496   7.728 -0.0589  0.1378 -0.2854
 3668SOL    HW122463   4.076   3.425   7.724 -0.1292  0.0932  1.5259
 3668SOL    HW222464   4.110   3.536   7.809 -0.0507 -0.2972 -0.0679
 3669SOL     OW22465   4.169   4.378   3.213 -0.1079  0.1736  0.4456
 3669SOL    HW122466   4.143   4.453   3.267  0.1783 -0.9520  2.1367
 3669SOL    HW222467   4.260   4.370   3.240 -0.1136  1.5812  0.9024
 3670SOL     OW22468   3.446   0.801  15.803  0.5145 -0.0309 -0.2994
 3670SOL    HW122469   3.372   0.748  15.832 -1.4102  2.6614 -0.2764
 3670SOL    HW222470   3.493   0.733  15.754  1.2965  0.0138  0.4045
 3671SOL     OW22471   3.512   2.702   0.431  0.0026 -0.3679  0.1367
 3671SOL    HW122472   3.472   2.615   0.438  0.2622 -0.4402  0.6850
 3671SOL    HW222473   3.460   2.734   0.357 -0.5702 -0.4225  0.5191
 3672SOL     OW22474   4.348   4.559  11.347 -0.5501 -0.5627 -0.0251
 3672SOL    HW122475   4.395   4.484  11.311  0.8538 -0.0881  0.8328
 3672SOL    HW222476   4.343   4.536  11.439 -1.2376  1.0528  0.3416
 3673SOL     OW22477   4.120   2.097  13.476  0.1135  0.0571  0.5246
 3673SOL    HW122478   4.171   2.088  13.556 -1.3620  0.0284  1.4648
 3673SOL    HW222479   4.094   2.188  13.489  1.0806  0.6116 -1.3963
 3674SOL     OW22480   1.951   4.635  13.346  0.5843  0.2415 -0.3228
 3674SOL    HW122481   2.037   4.674  13.359  0.7683 -0.0790 -0.5636
 3674SOL    HW222482   1.897   4.714  13.354 -1.2855 -0.9319 -1.2645
 3675SOL     OW22483   1.391   1.102   6.062 -1.1982 -0.1832 -0.4606
 3675SOL    HW122484   1.408   1.073   5.972 -0.2535 -2.4014  0.4420
 3675SOL    HW222485   1.415   1.194   6.066 -0.5291 -0.2230 -3.1814
 3676SOL     OW22486   3.219   4.438   8.881  0.2060  0.2675 -0.1066
 3676SOL    HW122487   3.263   4.387   8.948  1.1001  1.1381 -0.0235
 3676SOL    HW222488   3.240   4.524   8.917  2.2757 -0.4675  0.4386
 3677SOL     OW22489   4.352   4.558   4.258  0.3230  0.5853  0.5684
 3677SOL    HW122490   4.261   4.585   4.271  0.0366 -0.3853  0.5601
 3677SOL    HW222491   4.364   4.497   4.185  0.1336  2.1466 -0.7768
 3678SOL     OW22492   2.440   4.460   2.390  0.4709 -0.4136  0.0769
 3678SOL    HW122493   2.447   4.515   2.468 -0.7516 -1.2048  0.7453
 3678SOL    HW222494   2.432   4.535   2.330 -0.8775 -1.9825 -1.7380
 3679SOL     OW22495   3.628   1.791   8.139  1.0103  0.0609 -0.2045
 3679SOL    HW122496   3.678   1.733   8.196 -1.3367 -1.6483  0.1019
 3679SOL    HW222497   3.595   1.864   8.191  1.0322  1.4471 -2.1454
 3680SOL     OW22498   1.455   3.146  12.569  0.1475 -0.0421  0.4818
 3680SOL    HW122499   1.477   3.115  12.656  2.8711 -1.3829 -0.6724
 3680SOL    HW222500   1.370   3.108  12.548  0.4768 -0.2892 -0.3973
 3681SOL     OW22501   1.997   3.672   2.123  0.6113  0.2439 -0.3285
 3681SOL    HW122502   1.957   3.702   2.205  0.8792 -1.1768  0.3086
 3681SOL    HW222503   2.082   3.639   2.152  0.7651  1.0671  0.1948
 3682SOL     OW22504   2.153   3.057   7.189 -0.2546  0.1115  0.0078
 3682SOL    HW122505   2.235   3.093   7.155  1.0790 -1.0117  2.0131
 3682SOL    HW222506   2.159   2.964   7.166 -0.7330  0.2869 -0.8135
 3683SOL     OW22507   1.681   3.881  13.621  0.0976 -0.0575  0.5008
 3683SOL    HW122508   1.709   3.970  13.598  3.1524 -1.2284 -0.2627
 3683SOL    HW222509   1.598   3.896  13.667 -0.6954  0.7135 -1.2041
 3684SOL     OW22510   2.658   1.001  11.001 -0.1962  0.3713  0.9325
 3684SOL    HW122511   2.665   1.096  11.008 -1.3757  0.6370 -1.4415
 3684SOL    HW222512   2.699   0.984  10.916 -0.3634  1.9411  0.5459
 3685SOL     OW22513   3.089   4.660  11.810  0.2910 -0.1408 -0.1617
 3685SOL    HW122514   3.033   0.014  11.807 -1.0567 -1.0064  2.4172
 3685SOL    HW222515   3.128   4.671  11.724  1.7134  0.2966  0.5373
 3686SOL     OW22516   4.526   2.435  10.886  0.3600 -0.9730  0.0576
 3686SOL    HW122517   4.584   2.430  10.810  0.2920  1.6664 -0.1651
 3686SOL    HW222518   4.576   2.383  10.948 -0.3290  0.3275  1.7077
 3687SOL     OW22519   3.988   1.075   2.242  0.1988  0.4967 -0.1712
 3687SOL    HW122520   4.073   1.050   2.276 -1.1150 -3.9232 -0.2022
 3687SOL    HW222521   3.990   1.164   2.207  2.6926  0.8219  0.8226
 3688SOL     OW22522   2.525   1.984   2.278  0.0001 -0.0841  0.0590
 3688SOL    HW122523   2.508   1.897   2.240 -2.6237  0.5663 -0.2549
 3688SOL    HW222524   2.466   1.967   2.352 -0.3720 -2.2778 -0.7446
 3689SOL     OW22525   3.059   3.220   4.645  0.2037 -0.1125  0.1897
 3689SOL    HW122526   2.991   3.205   4.711  2.5653  0.4114  2.7434
 3689SOL    HW222527   3.056   3.144   4.588 -1.1404  0.0567  0.0220
 3690SOL     OW22528   1.756   3.996   8.866  0.1489  0.4968 -0.0186
 3690SOL    HW122529   1.768   3.901   8.863  1.1982  0.5033  3.2194
 3690SOL    HW222530   1.663   3.992   8.842  0.7382 -0.5193 -2.0830
 3691SOL     OW22531   2.008   3.481  17.330  0.2828 -0.1018  0.3551
 3691SOL    HW122532   1.950   3.428  17.276 -0.5956  0.6988  0.5091
 3691SOL    HW222533   1.996   3.569  17.296 -1.7013  0.0633  1.4504
 3692SOL     OW22534   0.185   2.101   8.728 -0.1403  0.0804  0.0527
 3692SOL    HW122535   0.149   2.105   8.817  0.2961  0.6169  0.2011
 3692SOL    HW222536   0.248   2.029   8.739 -1.5276 -1.1501  0.0310
 3693SOL     OW22537   0.438   3.985  16.188  0.2048 -0.6087 -0.7658
 3693SOL    HW122538   0.415   4.051  16.253  0.1485 -0.1393 -1.2630
 3693SOL    HW222539   0.534   3.974  16.190  0.2926  0.8937  2.8434
 3694SOL     OW22540   3.934   4.106   5.665  0.3497 -0.1685 -0.0520
 3694SOL    HW122541   4.018   4.132   5.628 -0.3087 -0.3415 -1.6518
 3694SOL    HW222542   3.943   4.145   5.752 -2.3044  0.0861  0.1143
 3695SOL     OW22543   0.397   4.580  17.459 -0.7285 -0.3999 -0.0013
 3695SOL    HW122544   0.337   4.511  17.486 -0.8930 -1.0309 -2.0366
 3695SOL    HW222545   0.346   4.649  17.418 -1.3002 -0.8087  0.0300
 3696SOL     OW22546   2.271   0.877   3.587  0.0550 -0.1894  0.1926
 3696SOL    HW122547   2.227   0.899   3.505  1.1943 -0.4094 -0.4859
 3696SOL    HW222548   2.356   0.921   3.576 -0.4068  0.9489  1.1536
 3697SOL     OW22549   4.480   1.358   7.917 -0.0863  0.1801 -0.7913
 3697SOL    HW122550   4.501   1.290   7.853 -0.1031 -1.6120  1.0945
 3697SOL    HW222551   4.567   1.399   7.924  0.1458 -0.3657 -0.3854
 3698SOL     OW22552   3.876   2.432   2.776  0.2457  0.1989  0.1293
 3698SOL    HW122553   3.829   2.472   2.703 -0.5604 -1.3729 -0.2128
 3698SOL    HW222554   3.888   2.508   2.832 -1.6247  0.2473  0.4427
 3699SOL     OW22555   1.642   2.882   2.595 -0.2587 -0.2030  0.1089
 3699SOL    HW122556   1.684   2.923   2.519  1.8918 -2.3851  0.0896
 3699SOL    HW222557   1.614   2.955   2.649 -0.3174 -0.1116 -0.0468
 3700SOL     OW22558   1.472   1.022   8.332  0.4958 -0.1499 -0.0775
 3700SOL    HW122559   1.491   1.044   8.241  0.3115  1.9551  0.4045
 3700SOL    HW222560   1.427   1.103   8.354  1.5349  0.3813  0.0768
 3701SOL     OW22561   2.547   0.620   7.760 -0.1880  0.0372 -0.7799
 3701SOL    HW122562   2.579   0.598   7.847  0.9331  1.3130 -0.8658
 3701SOL    HW222563   2.622   0.596   7.705 -2.1557  1.5374 -4.1723
 3702SOL     OW22564   1.534   3.312   2.540 -0.7079  0.2679 -0.1887
 3702SOL    HW122565   1.475   3.387   2.543  0.9099  1.6400 -2.7649
 3702SOL    HW222566   1.537   3.292   2.446 -1.8594 -0.8227  0.0083
 3703SOL     OW22567   4.119   4.678   4.271  0.1842  0.3797 -0.1230
 3703SOL    HW122568   4.035   4.712   4.301 -0.4713 -0.0819 -1.4318
 3703SOL    HW222569   4.141   0.026   4.210 -0.2551 -1.1490 -2.0717
 3704SOL     OW22570   0.049   1.229   7.320 -0.0650 -0.6332 -0.6541
 3704SOL    HW122571   0.009   1.187   7.244 -0.3380 -2.2690  0.3756
 3704SOL    HW222572   0.008   1.314   7.331  0.8752 -0.3264  0.5501
 3705SOL     OW22573   1.600   3.675   2.412  0.2499 -0.1002  0.0826
 3705SOL    HW122574   1.538   3.607   2.436 -0.9839  0.6311 -1.0018
 3705SOL    HW222575   1.665   3.618   2.371  0.3683  0.4286 -0.4723
 3706SOL     OW22576   2.545   1.811  11.326 -0.5356 -0.1396 -0.1356
 3706SOL    HW122577   2.468   1.854  11.288  0.5123 -0.3073 -2.4126
 3706SOL    HW222578   2.521   1.749  11.394  3.5634 -1.6569 -0.0941
 3707SOL     OW22579   0.684   1.750  13.531  0.0620 -0.8245 -0.1849
 3707SOL    HW122580   0.775   1.743  13.502  0.9099 -1.5017  2.6408
 3707SOL    HW222581   0.652   1.833  13.497  0.0427 -1.2958 -1.3032
 3708SOL     OW22582   2.480   1.231   3.524  0.0392  0.3409  0.3642
 3708SOL    HW122583   2.575   1.237   3.537  0.0277  2.2350 -0.4574
 3708SOL    HW222584   2.461   1.281   3.445 -0.9325 -2.7591 -1.3567
 3709SOL     OW22585   0.878   1.377   7.552  0.5382 -0.3721  0.2227
 3709SOL    HW122586   0.784   1.370   7.541  0.7414 -1.3709 -0.9465
 3709SOL    HW222587   0.868   1.387   7.647  0.3408 -0.4241  0.2063
 3710SOL     OW22588   2.508   2.174   5.133  0.0807 -0.0792  0.4714
 3710SOL    HW122589   2.434   2.136   5.180 -0.3677 -0.5447 -0.6144
 3710SOL    HW222590   2.569   2.194   5.204 -1.0133  1.4033  0.9791
 3711SOL     OW22591   0.637   2.478   8.422  0.2390 -0.0782 -0.2204
 3711SOL    HW122592   0.668   2.569   8.412  1.5960 -0.5478 -0.3193
 3711SOL    HW222593   0.544   2.488   8.403  0.4513  0.9529 -0.7335
 3712SOL     OW22594   1.425   1.611   0.250 -0.0039 -0.1420 -0.0223
 3712SOL    HW122595   1.520   1.624   0.254 -0.0050 -0.4436  0.9437
 3712SOL    HW222596   1.414   1.595   0.156  2.6535  2.3763 -0.7657
 3713SOL     OW22597   4.479   0.762   9.039  0.2172 -0.3950  0.1261
 3713SOL    HW122598   4.531   0.783   9.116  0.7697 -0.9599 -0.0980
 3713SOL    HW222599   4.453   0.847   9.002  0.0347 -0.2769  0.5271
 3714SOL     OW22600   1.000   3.040   5.792  0.4888 -0.3332 -0.5878
 3714SOL    HW122601   0.984   2.954   5.832 -0.3599 -0.8118 -1.9814
 3714SOL    HW222602   0.928   3.095   5.824  0.7330 -0.1551 -0.3422
 3715SOL     OW22603   0.349   1.772   0.923 -0.6773  0.1288 -0.5354
 3715SOL    HW122604   0.350   1.832   0.848  1.0053 -0.7937 -1.2491
 3715SOL    HW222605   0.263   1.731   0.920 -0.3676 -0.6082  1.0457
 3716SOL     OW22606   4.672   2.503  12.057 -0.2265  0.2548 -0.3089
 3716SOL    HW122607   4.643   2.566  11.991 -3.1668  0.2445  0.9663
 3716SOL    HW222608   4.643   2.548  12.137  2.2499 -0.7168  1.1497
 3717SOL     OW22609   1.340   2.303   2.699 -0.2864  0.3289  0.5877
 3717SOL    HW122610   1.353   2.333   2.609 -1.3149  2.1576  1.0383
 3717SOL    HW222611   1.268   2.359   2.729 -1.7393 -0.2882 -1.7538
 3718SOL     OW22612   0.760   3.538  15.353  0.1416 -0.5995 -0.2552
 3718SOL    HW122613   0.853   3.518  15.363  0.8047  2.2608 -0.7868
 3718SOL    HW222614   0.774   3.594  15.277  0.8670  0.4015  0.6203
 3719SOL     OW22615   2.480   4.675   7.100  0.0477  0.0087 -0.2026
 3719SOL    HW122616   2.507   4.710   7.015 -0.5349 -0.6665 -0.6685
 3719SOL    HW222617   2.526   4.591   7.099 -0.2889 -0.1699 -1.0797
 3720SOL     OW22618   2.212   2.306   5.409 -0.2166  0.0742  0.3309
 3720SOL    HW122619   2.195   2.283   5.318  0.2165  1.7062 -0.1564
 3720SOL    HW222620   2.298   2.347   5.401 -0.1408 -0.2078 -0.2723
 3721SOL     OW22621   0.036   1.125   7.036  0.4116  0.3676 -0.4980
 3721SOL    HW122622   0.095   1.172   6.977  2.5304  0.8375  2.0012
 3721SOL    HW222623   4.692   1.193   7.050 -0.1918 -0.2200 -0.5253
 3722SOL     OW22624   0.894   4.574   8.148 -0.4185  0.4767  0.0750
 3722SOL    HW122625   0.911   4.535   8.234  0.6250 -1.0113 -0.7958
 3722SOL    HW222626   0.969   4.542   8.099 -0.1118  2.9788 -1.0414
 3723SOL     OW22627   3.735   0.229   9.628 -0.6084 -0.0773 -0.6346
 3723SOL    HW122628   3.733   0.322   9.605 -0.3842  0.0178 -0.2724
 3723SOL    HW222629   3.659   0.207   9.574 -2.0833  1.5026  0.8118
 3724SOL     OW22630   2.194   2.621   2.230  0.2588  0.0307  0.2388
 3724SOL    HW122631   2.276   2.619   2.181 -0.6201 -1.6658 -1.1799
 3724SOL    HW222632   2.130   2.637   2.161  0.6639  1.6730  0.2507
 3725SOL     OW22633   0.939   0.157   4.765 -0.5295 -0.0546 -0.3789
 3725SOL    HW122634   0.914   0.102   4.840  0.1958 -0.2352 -0.2755
 3725SOL    HW222635   0.870   0.128   4.705 -0.8949 -0.0428  0.0304
 3726SOL     OW22636   1.548   4.646   2.597  0.0126  0.3762  0.2285
 3726SOL    HW122637   1.574   4.684   2.513  0.9940  1.8095  1.1617
 3726SOL    HW222638   1.588   4.559   2.592 -1.2500 -0.2650  1.4376
 3727SOL     OW22639   3.809   2.768   7.038  0.4278 -0.0386  0.6932
 3727SOL    HW122640   3.898   2.780   7.071  1.1374  0.1000 -1.2562
 3727SOL    HW222641   3.788   2.685   7.082 -0.8584  0.2268  0.5601
 3728SOL     OW22642   1.796   3.470  12.580 -0.0895 -0.4107 -0.3583
 3728SOL    HW122643   1.768   3.538  12.518  2.3971 -0.1311 -1.1423
 3728SOL    HW222644   1.708   3.442  12.606  1.0953 -0.0947  3.8385
 3729SOL     OW22645   0.590   1.966   7.349  0.6048 -0.4475  0.3327
 3729SOL    HW122646   0.642   2.035   7.390  0.6739 -0.6418  0.5729
 3729SOL    HW222647   0.644   1.891   7.375 -1.5108 -1.2058  2.5339
 3730SOL     OW22648   0.610   0.349   5.691  0.0781 -0.0725  0.3301
 3730SOL    HW122649   0.530   0.371   5.644  1.3165 -1.8432 -2.6077
 3730SOL    HW222650   0.577   0.273   5.737  0.1906 -0.7163 -0.6488
 3731SOL     OW22651   2.956   3.172  16.429  0.3518  0.0552  0.0368
 3731SOL    HW122652   2.982   3.209  16.344  2.2149 -0.8952  0.1785
 3731SOL    HW222653   2.904   3.099  16.398 -0.8278  0.3788  1.2810
 3732SOL     OW22654   2.393   2.635   2.011 -0.0539  0.0532  0.2190
 3732SOL    HW122655   2.383   2.550   1.967 -0.2025 -0.4368  1.2011
 3732SOL    HW222656   2.419   2.603   2.097  0.8512 -0.6073 -0.3038
 3733SOL     OW22657   0.148   1.651   5.296  0.0167 -0.1477  0.3356
 3733SOL    HW122658   0.158   1.740   5.329 -0.1811 -1.0248  2.7787
 3733SOL    HW222659   0.095   1.608   5.364 -0.2307 -0.5272 -0.0951
 3734SOL     OW22660   3.033   0.220   7.389  0.0749  0.0461  0.1480
 3734SOL    HW122661   2.940   0.234   7.370 -0.5974 -3.9253  0.4994
 3734SOL    HW222662   3.055   0.132   7.358  1.0934  0.1857  0.4772
 3735SOL     OW22663   4.317   0.034  14.875 -0.0386  0.2969  0.4161
 3735SOL    HW122664   4.405   0.073  14.872  1.2539 -2.5476  0.8916
 3735SOL    HW222665   4.312   4.718  14.962 -1.4603 -1.1693 -0.3376
 3736SOL     OW22666   0.972   0.898   4.749  0.1459 -0.3415  0.3487
 3736SOL    HW122667   0.971   0.811   4.710  2.1177  0.5176 -1.6071
 3736SOL    HW222668   0.988   0.948   4.669  2.3791  0.1220  1.0984
 3737SOL     OW22669   2.318   0.077   5.518  0.4184 -0.0679  0.1462
 3737SOL    HW122670   2.244   0.054   5.574 -0.1602  0.7011 -0.3172
 3737SOL    HW222671   2.273   0.091   5.435 -0.5454  2.4699  1.1244
 3738SOL     OW22672   1.442   2.762   4.365  0.0802  0.0562  0.1780
 3738SOL    HW122673   1.381   2.799   4.302 -1.3846 -0.7408  1.1131
 3738SOL    HW222674   1.378   2.743   4.434  0.4602  1.8842  1.0282
 3739SOL     OW22675   4.336   2.166  11.157  0.7074 -0.5000 -0.0805
 3739SOL    HW122676   4.431   2.165  11.153  0.7579  2.3785  0.4571
 3739SOL    HW222677   4.316   2.120  11.075 -1.7642  0.3749  0.0131
 3740SOL     OW22678   1.205   1.423   3.710  0.3030  0.1171 -0.4013
 3740SOL    HW122679   1.271   1.446   3.775  0.0770  0.4692 -0.2967
 3740SOL    HW222680   1.218   1.328   3.709  0.2487  0.1025  0.5879
 3741SOL     OW22681   1.832   3.456   5.419 -0.2697  0.2176  0.4705
 3741SOL    HW122682   1.787   3.428   5.498 -1.1757 -1.1232 -0.5098
 3741SOL    HW222683   1.881   3.535   5.443 -0.2557  0.3028  0.1621
 3742SOL     OW22684   3.438   2.995   0.877 -0.4615 -0.6705 -0.7039
 3742SOL    HW122685   3.381   3.028   0.946 -1.8131 -3.0064 -0.6795
 3742SOL    HW222686   3.479   3.075   0.846 -0.0708  0.4341  2.7067
 3743SOL     OW22687   2.561   1.335  10.937  0.3827  0.2814  0.1125
 3743SOL    HW122688   2.531   1.270  10.874  1.8339  1.3002 -1.6028
 3743SOL    HW222689   2.493   1.402  10.932  1.5221  1.1871 -2.5447
 3744SOL     OW22690   4.089   0.938   8.639  0.3061 -0.4295 -0.2106
 3744SOL    HW122691   4.066   0.852   8.605 -2.4675  0.7597 -1.3388
 3744SOL    HW222692   4.130   0.970   8.559 -1.7795 -0.5104 -1.3136
 3745SOL     OW22693   4.130   1.623   8.446 -0.1079  0.4528 -0.3764
 3745SOL    HW122694   4.160   1.625   8.355  2.5411 -0.8872  0.4741
 3745SOL    HW222695   4.151   1.534   8.475 -5.0835 -0.2909  0.9424
 3746SOL     OW22696   2.459   0.280   5.379  0.2267 -0.1874  1.0173
 3746SOL    HW122697   2.482   0.223   5.452 -1.8187 -0.1102  1.7095
 3746SOL    HW222698   2.364   0.268   5.375  0.0155  1.3503  1.3266
 3747SOL     OW22699   4.430   1.341   6.709 -0.4340  0.6264  0.2947
 3747SOL    HW122700   4.374   1.264   6.695 -1.1061  1.6171 -2.5771
 3747SOL    HW222701   4.488   1.324   6.634  1.6024  0.3530  1.9483
 3748SOL     OW22702   3.825   0.608  11.271  0.4012  0.6468 -0.3009
 3748SOL    HW122703   3.867   0.648  11.348 -1.5082 -0.0940  1.1117
 3748SOL    HW222704   3.804   0.519  11.297  3.2028 -0.2868 -1.2516
 3749SOL     OW22705   3.203   2.567   4.880 -0.1385 -0.0344 -0.1776
 3749SOL    HW122706   3.248   2.636   4.929  0.2648 -0.8176  0.5461
 3749SOL    HW222707   3.211   2.593   4.788  0.5536  0.4159  0.0147
 3750SOL     OW22708   2.902   4.294   5.903 -0.7548 -0.0323 -0.0403
 3750SOL    HW122709   2.978   4.260   5.856  0.3382  0.7927  1.1265
 3750SOL    HW222710   2.895   4.382   5.866 -0.3634  0.1085  0.2238
 3751SOL     OW22711   2.698   0.918  13.366  0.1382 -0.3084  0.9028
 3751SOL    HW122712   2.644   0.840  13.368 -0.2539 -0.0763 -0.8878
 3751SOL    HW222713   2.773   0.887  13.316 -0.0400 -0.8469  0.9773
 3752SOL     OW22714   3.419   4.004   5.098 -0.6501 -0.3490 -0.9664
 3752SOL    HW122715   3.471   3.949   5.158  1.3086 -1.3031 -3.5388
 3752SOL    HW222716   3.349   4.008   5.163 -0.6854 -0.8342 -0.9702
 3753SOL     OW22717   3.589   3.513   8.246  0.0677 -0.1645  0.2343
 3753SOL    HW122718   3.601   3.608   8.248 -1.2271  0.0365 -1.6445
 3753SOL    HW222719   3.588   3.488   8.339  0.5286 -1.4100 -0.0949
 3754SOL     OW22720   0.831   1.227   6.369  0.5722  0.4073  0.1520
 3754SOL    HW122721   0.759   1.206   6.429 -0.9249  3.0228 -0.7339
 3754SOL    HW222722   0.830   1.321   6.388  0.1937  0.2219  1.0472
 3755SOL     OW22723   2.464   4.462   8.944  0.1233 -0.0502  0.4960
 3755SOL    HW122724   2.479   4.472   9.038  0.2919  0.1328  0.4501
 3755SOL    HW222725   2.537   4.509   8.905 -0.4433 -0.4349 -1.0350
 3756SOL     OW22726   0.547   3.375   7.188  0.1074  0.0163 -0.0096
 3756SOL    HW122727   0.639   3.352   7.171 -0.4705 -1.2939 -1.3622
 3756SOL    HW222728   0.547   3.465   7.156 -0.8331  0.5072  1.3952
 3757SOL     OW22729   2.258   1.897   2.253  0.2676  0.1244  0.2661
 3757SOL    HW122730   2.273   1.989   2.234  1.4143  0.2945  2.0257
 3757SOL    HW222731   2.163   1.889   2.252  0.4089 -1.6020  1.5592
 3758SOL     OW22732   3.903   1.522   7.233 -1.6501  0.4905  0.3937
 3758SOL    HW122733   3.954   1.589   7.188  0.9089 -2.2514 -0.7404
 3758SOL    HW222734   3.840   1.498   7.165 -0.7462  0.0020 -0.2753
 3759SOL     OW22735   3.773   0.818   4.208 -0.9667  0.4658 -0.0593
 3759SOL    HW122736   3.791   0.804   4.115  2.5819 -1.0229  0.8673
 3759SOL    HW222737   3.804   0.906   4.232  0.9551 -0.7095  1.7329
 3760SOL     OW22738   3.024   1.293  17.397  0.0368 -0.2233 -0.1688
 3760SOL    HW122739   3.008   1.276  17.489 -2.5107  1.0629 -0.3803
 3760SOL    HW222740   3.054   1.384  17.390 -0.0175 -0.2724 -1.1062
 3761SOL     OW22741   3.861   0.910  15.487 -0.0653  0.3929 -0.0805
 3761SOL    HW122742   3.870   0.907  15.582  0.2032  3.3945 -0.0005
 3761SOL    HW222743   3.776   0.954  15.483 -1.4607 -2.1609  1.4065
 3762SOL     OW22744   4.624   1.217  11.532  0.0985  0.6752  0.0923
 3762SOL    HW122745   4.714   1.239  11.555  0.4886 -1.3741  0.5335
 3762SOL    HW222746   4.633   1.122  11.528 -0.9514  0.5615  0.5896
 3763SOL     OW22747   4.553   4.030   4.878 -0.1583 -0.2731  0.0781
 3763SOL    HW122748   4.562   4.017   4.972 -0.6656 -0.4662  0.1005
 3763SOL    HW222749   4.644   4.014   4.852  1.0308  2.6626  2.5244
 3764SOL     OW22750   3.755   1.488  10.361  0.5775 -0.2196  0.4037
 3764SOL    HW122751   3.810   1.563  10.338 -1.5786  1.6103  1.1420
 3764SOL    HW222752   3.786   1.412  10.313  1.1596  0.0571  0.3453
 3765SOL     OW22753   4.551   1.439  13.518  0.7631  0.2278  0.0619
 3765SOL    HW122754   4.550   1.516  13.575 -0.4252 -0.4419  0.9532
 3765SOL    HW222755   4.527   1.363  13.571 -0.0708  0.8072  0.5191
 3766SOL     OW22756   1.755   0.182   9.514 -0.0475  0.3372  0.1660
 3766SOL    HW122757   1.753   0.268   9.471  1.2573  0.2152 -0.1400
 3766SOL    HW222758   1.747   0.215   9.603 -1.9172  1.0563 -0.2629
 3767SOL     OW22759   4.127   4.358   9.485  0.3864 -0.2666  0.5308
 3767SOL    HW122760   4.110   4.298   9.412  0.7467 -0.4111  0.5647
 3767SOL    HW222761   4.110   4.298   9.558 -0.9889  1.2378  1.4525
 3768SOL     OW22762   0.989   3.604   7.018  0.3291  0.0635  0.3337
 3768SOL    HW122763   0.922   3.659   6.977  1.1572  2.2279  1.8688
 3768SOL    HW222764   0.991   3.529   6.959  0.5596 -0.2965  0.8014
 3769SOL     OW22765   2.557   3.820  10.828 -0.2059  0.4172 -0.1331
 3769SOL    HW122766   2.470   3.837  10.863 -0.5107 -0.5323 -0.4133
 3769SOL    HW222767   2.612   3.801  10.904  2.3002  1.6702 -1.6261
 3770SOL     OW22768   4.272   3.141  14.147 -0.2078  0.7504  0.0895
 3770SOL    HW122769   4.212   3.142  14.221 -3.6666 -0.3156 -2.6959
 3770SOL    HW222770   4.354   3.129  14.194 -0.7254 -1.3696  0.4327
 3771SOL     OW22771   0.378   1.371   8.039 -0.2557  0.1955  0.1836
 3771SOL    HW122772   0.368   1.329   8.124 -0.3824  1.0653  0.5968
 3771SOL    HW222773   0.322   1.316   7.985 -0.3877 -0.5518  1.0898
 3772SOL     OW22774   2.007   0.782   3.910  0.0134  0.4459 -0.1785
 3772SOL    HW122775   1.924   0.736   3.912 -0.3654  1.2183  1.6904
 3772SOL    HW222776   2.063   0.723   3.961  0.4235  1.9003  1.0554
 3773SOL     OW22777   3.301   1.324   8.349  0.0107  0.2808  0.8217
 3773SOL    HW122778   3.383   1.370   8.369 -0.6700  1.2636  1.3732
 3773SOL    HW222779   3.334   1.269   8.278  0.2702  0.9692  0.3997
 3774SOL     OW22780   0.386   3.943  10.396  0.4162 -0.3964  0.7426
 3774SOL    HW122781   0.335   3.900  10.465 -0.4845 -2.8286 -1.4346
 3774SOL    HW222782   0.451   3.989  10.450 -0.0638 -0.4073  1.3216
 3775SOL     OW22783   2.218   3.972   6.371  0.2622 -0.0485 -0.1834
 3775SOL    HW122784   2.298   3.934   6.407  1.7223 -0.5962 -4.0410
 3775SOL    HW222785   2.176   3.971   6.457 -2.1375  1.4745 -1.3415
 3776SOL     OW22786   2.507   1.145   7.995 -0.7760 -0.3934  0.2140
 3776SOL    HW122787   2.434   1.110   7.943 -1.1725 -1.8054  1.6931
 3776SOL    HW222788   2.457   1.205   8.050  0.2321  0.0442  0.6467
 3777SOL     OW22789   0.497   1.265  15.301 -0.3954 -0.1411  0.0959
 3777SOL    HW122790   0.535   1.310  15.225 -1.9556  0.7194 -0.1730
 3777SOL    HW222791   0.459   1.349  15.324 -2.2548 -1.5165  1.9974
 3778SOL     OW22792   1.408   2.457   4.536 -0.0514 -0.6925 -0.4711
 3778SOL    HW122793   1.389   2.525   4.600  0.2363  0.2919 -1.4247
 3778SOL    HW222794   1.336   2.397   4.555 -2.2983  1.4730 -2.3142
 3779SOL     OW22795   4.244   1.248   8.962  0.1406 -0.0132  0.7620
 3779SOL    HW122796   4.216   1.326   9.010 -0.4280  1.2845 -1.6994
 3779SOL    HW222797   4.187   1.174   8.984 -1.0658  0.1593 -1.7933
 3780SOL     OW22798   4.629   3.695   5.346 -0.5056 -0.4405 -0.1915
 3780SOL    HW122799   4.586   3.644   5.415  0.1938 -0.6306  0.1074
 3780SOL    HW222800   4.716   3.669   5.376 -0.8618 -0.3627  0.9215
 3781SOL     OW22801   0.134   0.260   7.127  0.1747  0.3927 -0.0612
 3781SOL    HW122802   0.207   0.317   7.147  0.8016 -0.7916  1.0079
 3781SOL    HW222803   0.059   0.306   7.165 -0.2643  0.1049 -0.5632
 3782SOL     OW22804   0.735   0.891   5.557  0.0838 -0.2422 -0.4724
 3782SOL    HW122805   0.694   0.924   5.637  0.7691  1.2301 -0.7390
 3782SOL    HW222806   0.825   0.871   5.581  0.0525 -1.5983 -1.4786
 3783SOL     OW22807   1.140   2.333   3.031  0.0858  0.5848 -0.0917
 3783SOL    HW122808   1.113   2.338   3.123 -1.2695  0.3472 -0.4749
 3783SOL    HW222809   1.123   2.239   3.023 -2.3217  1.0724 -0.5246
 3784SOL     OW22810   0.625   3.890   0.504 -0.3836  0.6148 -0.5310
 3784SOL    HW122811   0.541   3.844   0.508  0.0555 -0.2446 -1.1917
 3784SOL    HW222812   0.623   3.909   0.411  1.0397  2.4571 -0.1760
 3785SOL     OW22813   2.916   1.745   1.327  0.2536 -0.0013  0.4009
 3785SOL    HW122814   2.954   1.667   1.288 -0.3512  0.2766 -0.7396
 3785SOL    HW222815   2.827   1.741   1.293  0.2581  0.1539  0.3691
 3786SOL     OW22816   1.877   0.677   7.163 -0.1657 -0.5880 -0.2101
 3786SOL    HW122817   1.958   0.727   7.176 -1.6557  2.0840 -1.1997
 3786SOL    HW222818   1.883   0.654   7.071  0.0623 -0.7676 -0.1495
 3787SOL     OW22819   0.398   2.444   8.078 -0.2588 -0.0280 -0.6541
 3787SOL    HW122820   0.489   2.450   8.109 -0.5606 -0.3659  0.3095
 3787SOL    HW222821   0.359   2.377   8.134  1.6063 -1.9128 -1.5857
 3788SOL     OW22822   0.097   3.682   9.696  0.2430 -0.5616 -0.1697
 3788SOL    HW122823   0.041   3.651   9.625  0.2376  1.5726 -1.0897
 3788SOL    HW222824   0.166   3.725   9.645 -0.2277 -0.1137 -0.4320
 3789SOL     OW22825   3.360   4.083   1.005 -0.6797 -0.3488  0.5040
 3789SOL    HW122826   3.364   4.132   1.088 -0.0686  0.7443 -0.1706
 3789SOL    HW222827   3.317   4.144   0.946 -3.0660 -1.5843  0.9574
 3790SOL     OW22828   3.304   3.978   1.961  0.3933  0.2590 -0.3018
 3790SOL    HW122829   3.380   3.976   2.020 -1.1565  0.0239  1.7004
 3790SOL    HW222830   3.228   3.963   2.018  2.3557 -2.5283  1.5777
 3791SOL     OW22831   1.491   2.171  16.655 -0.4890  0.4490  0.1347
 3791SOL    HW122832   1.511   2.160  16.562 -0.1902  0.1860  0.2302
 3791SOL    HW222833   1.528   2.258  16.670 -1.5201  0.9142 -0.0286
 3792SOL     OW22834   4.430   0.101  16.836 -0.1199 -0.1827  0.2557
 3792SOL    HW122835   4.356   0.078  16.779 -1.4284  1.3258  1.3155
 3792SOL    HW222836   4.418   0.196  16.835 -2.7107 -0.5230 -1.7614
 3793SOL     OW22837   1.896   4.241   3.431  0.3386  0.2535  0.5120
 3793SOL    HW122838   1.934   4.322   3.397  1.9152 -0.0028  1.6374
 3793SOL    HW222839   1.977   4.199   3.462 -1.6596 -2.7799  1.6576
 3794SOL     OW22840   3.338   3.357   8.418  0.5479 -0.1791  0.1111
 3794SOL    HW122841   3.277   3.328   8.485 -1.2035 -0.6431 -1.6696
 3794SOL    HW222842   3.422   3.317   8.442  0.5428  0.4258  1.1219
 3795SOL     OW22843   1.225   2.228   4.121  0.2650 -0.0053  0.3119
 3795SOL    HW122844   1.190   2.141   4.141 -3.2151  0.9026 -1.8099
 3795SOL    HW222845   1.282   2.212   4.047 -0.2975  3.5609 -0.8563
 3796SOL     OW22846   2.974   4.511   6.928  0.5781 -0.0896  0.0915
 3796SOL    HW122847   2.925   4.433   6.902 -0.4919  1.4059 -2.5064
 3796SOL    HW222848   2.962   4.518   7.022 -1.7780 -0.7641 -0.1427
 3797SOL     OW22849   4.349   1.729   7.416  0.2801 -0.0249 -0.4926
 3797SOL    HW122850   4.261   1.750   7.446  1.3887  0.8903  2.0502
 3797SOL    HW222851   4.344   1.638   7.444  0.0119  0.2017  0.1805
 3798SOL     OW22852   3.475   3.766   9.101 -0.9424 -0.5802  0.1157
 3798SOL    HW122853   3.420   3.690   9.119  0.1774 -1.7419 -1.3693
 3798SOL    HW222854   3.560   3.721   9.102  0.6653  2.4283  2.4407
 3799SOL     OW22855   2.097   4.605  17.189  0.1090  0.1274 -0.9257
 3799SOL    HW122856   2.168   4.558  17.234  0.0707  1.0656  0.1058
 3799SOL    HW222857   2.044   4.538  17.146 -1.0113 -0.5767  1.6166
 3800SOL     OW22858   3.640   0.544  16.036  0.2682  0.0627  0.6685
 3800SOL    HW122859   3.709   0.577  15.979 -0.0657  0.5138  0.5185
 3800SOL    HW222860   3.610   0.623  16.081 -1.8233 -1.3736  1.8020
 3801SOL     OW22861   4.421   0.187   5.314  0.1558  0.3171 -0.2768
 3801SOL    HW122862   4.425   0.101   5.272 -2.1085  0.7873 -1.4285
 3801SOL    HW222863   4.382   0.242   5.246 -0.4167 -0.8401 -0.8785
 3802SOL     OW22864   1.706   1.183  16.586  0.2547 -0.0084 -0.0086
 3802SOL    HW122865   1.676   1.092  16.591  1.3823 -0.3919 -0.1679
 3802SOL    HW222866   1.648   1.228  16.646  0.6883 -1.2379  1.3318
 3803SOL     OW22867   4.674   1.759   7.022  0.6297 -0.4514  0.1331
 3803SOL    HW122868   4.648   1.818   7.092 -0.0182  1.1882 -1.4703
 3803SOL    HW222869   4.722   1.684   7.058 -0.0011 -0.8413  0.1577
 3804SOL     OW22870   0.587   0.742   4.733  0.0111 -0.0327 -0.0611
 3804SOL    HW122871   0.541   0.825   4.748 -0.7372 -0.6510  1.1388
 3804SOL    HW222872   0.537   0.684   4.791 -1.9617  1.4722 -0.2536
 3805SOL     OW22873   1.150   3.107  14.408 -0.5623 -0.8935  0.1796
 3805SOL    HW122874   1.093   3.075  14.478 -1.2957  0.9872  0.4455
 3805SOL    HW222875   1.186   3.188  14.445 -3.8313  1.0057 -0.6727
 3806SOL     OW22876   1.207   1.391  14.011  0.2735 -0.0525 -0.0266
 3806SOL    HW122877   1.254   1.353  14.085 -1.6716 -1.1233  0.6525
 3806SOL    HW222878   1.234   1.483  14.020 -0.5144  0.1771 -0.0352
 3807SOL     OW22879   3.465   1.459   8.728 -0.7026  0.2102  0.0654
 3807SOL    HW122880   3.425   1.512   8.659  0.8325  3.1339  1.4048
 3807SOL    HW222881   3.404   1.385   8.722  0.5794 -0.6587 -1.9845
 3808SOL     OW22882   1.150   2.407  11.650  0.5939  0.2427  0.5282
 3808SOL    HW122883   1.092   2.383  11.721  1.2098 -0.2476  0.8700
 3808SOL    HW222884   1.190   2.321  11.632  1.4340  1.5778 -3.9911
 3809SOL     OW22885   2.670   2.209  15.569 -0.0861  0.2607  0.2047
 3809SOL    HW122886   2.576   2.215  15.557 -0.0543 -1.0555 -0.7065
 3809SOL    HW222887   2.669   2.175  15.658 -0.3873  1.6893  0.7461
 3810SOL     OW22888   2.997   2.794  12.808  0.2264  0.0908  0.1113
 3810SOL    HW122889   3.062   2.744  12.857  0.3681  0.0955 -0.0726
 3810SOL    HW222890   2.974   2.714  12.759  0.5270 -0.5153  0.9609
 3811SOL     OW22891   3.941   1.087  11.769  0.1683  0.3097 -0.5294
 3811SOL    HW122892   3.895   1.068  11.851 -0.8701 -0.9478 -1.4049
 3811SOL    HW222893   3.923   1.008  11.718  0.4082  0.6169 -1.0956
 3812SOL     OW22894   3.986   3.344   8.710 -0.0584 -0.5117 -0.5782
 3812SOL    HW122895   4.026   3.304   8.787  1.1881  0.1522 -0.8859
 3812SOL    HW222896   3.938   3.273   8.666 -1.3940  0.8625 -1.3545
 3813SOL     OW22897   2.540   0.228   6.696 -0.0756  0.1574 -0.6302
 3813SOL    HW122898   2.458   0.259   6.736  0.0900  1.2195 -1.1043
 3813SOL    HW222899   2.486   0.200   6.622  2.3648 -1.2129 -1.8670
 3814SOL     OW22900   0.440   3.462  11.569 -0.3471  0.3394  0.1489
 3814SOL    HW122901   0.450   3.552  11.600 -1.4453  0.3611  0.4282
 3814SOL    HW222902   0.347   3.465  11.548  0.4857  0.6994 -3.5679
 3815SOL     OW22903   3.733   3.297   3.570 -0.5380 -0.3642 -0.5647
 3815SOL    HW122904   3.815   3.250   3.586 -0.3656  1.3758  3.5506
 3815SOL    HW222905   3.742   3.323   3.478  1.9551  1.6271  0.2371
 3816SOL     OW22906   3.296   3.896  15.909 -0.4813 -0.6747 -0.1075
 3816SOL    HW122907   3.241   3.825  15.943 -0.2216 -1.4787 -1.3204
 3816SOL    HW222908   3.320   3.935  15.992  2.6757 -0.6364 -1.0303
 3817SOL     OW22909   2.664   1.910   7.898 -0.1332 -0.0474 -0.0711
 3817SOL    HW122910   2.692   1.866   7.978  0.6255  1.7184  0.6315
 3817SOL    HW222911   2.578   1.869   7.891 -1.5981  2.3340  3.5123
 3818SOL     OW22912   2.819   0.694  15.687 -0.1029  0.7393  0.1662
 3818SOL    HW122913   2.777   0.661  15.608 -0.3753  3.0934 -0.6586
 3818SOL    HW222914   2.763   0.659  15.756  1.0579  1.4792  1.4871
 3819SOL     OW22915   3.105   0.065   3.442 -0.4962  0.0025 -0.4437
 3819SOL    HW122916   3.045   0.107   3.503 -2.3926 -0.3966 -2.0066
 3819SOL    HW222917   3.049   0.080   3.366  0.3004  1.8792 -0.6655
 3820SOL     OW22918   2.311   1.829   4.235  0.1494  0.3279 -0.5606
 3820SOL    HW122919   2.261   1.911   4.234 -2.5850 -1.2972  1.7865
 3820SOL    HW222920   2.367   1.825   4.157  0.3216 -1.4886 -0.3386
 3821SOL     OW22921   0.698   0.531   7.910 -0.3318  0.3455  0.1743
 3821SOL    HW122922   0.754   0.538   7.833 -1.1273 -0.6844 -0.4880
 3821SOL    HW222923   0.707   0.621   7.943 -1.2536  0.1757  0.8773
 3822SOL     OW22924   0.259   1.414   7.619  0.5672 -0.2341  0.5316
 3822SOL    HW122925   0.337   1.441   7.666  1.3492  0.7892 -1.3520
 3822SOL    HW222926   0.250   1.502   7.582 -1.4492 -0.9923 -0.8179
 3823SOL     OW22927   4.016   4.555   6.219 -0.0507  0.1964 -0.2291
 3823SOL    HW122928   3.934   4.525   6.257 -0.2393  2.0475  0.7810
 3823SOL    HW222929   4.064   4.575   6.299 -0.0303  1.4471 -0.5571
 3824SOL     OW22930   0.866   1.284  12.289  0.4571  0.1380 -0.3697
 3824SOL    HW122931   0.813   1.229  12.232 -1.5210  2.6468 -0.9490
 3824SOL    HW222932   0.888   1.352  12.226  0.5172  0.8172  0.3855
 3825SOL     OW22933   1.632   1.081   5.386 -0.4382 -0.0239  0.3161
 3825SOL    HW122934   1.703   1.024   5.416 -0.0285  0.0144 -0.5773
 3825SOL    HW222935   1.549   1.033   5.388 -1.6616  2.0777 -0.4142
 3826SOL     OW22936   0.041   2.422   9.037 -0.6614  0.2438  0.1565
 3826SOL    HW122937   0.013   2.397   8.949 -0.5158  1.0416 -0.1137
 3826SOL    HW222938   0.009   2.512   9.032 -2.4466 -0.6177 -3.2355
 3827SOL     OW22939   4.351   2.362   2.051  0.2927  0.1223  0.5330
 3827SOL    HW122940   4.346   2.363   2.146  0.2649 -0.4038  0.5338
 3827SOL    HW222941   4.442   2.371   2.022 -0.3920  3.6138 -0.5539
 3828SOL     OW22942   0.487   3.388   8.165  0.0984  0.4392 -0.3052
 3828SOL    HW122943   0.394   3.405   8.153 -0.1918  0.3696  1.8002
 3828SOL    HW222944   0.488   3.294   8.183 -0.1175  0.3634 -0.6873
 3829SOL     OW22945   2.592   2.307   4.566  0.2218 -0.3074 -0.2054
 3829SOL    HW122946   2.578   2.213   4.556  1.1082 -0.6365  1.4842
 3829SOL    HW222947   2.519   2.345   4.615 -0.3313  0.4996 -1.6410
 3830SOL     OW22948   2.881   2.766  13.639  0.1200 -0.2212 -0.0940
 3830SOL    HW122949   2.898   2.844  13.586 -0.6681 -0.9605 -1.4260
 3830SOL    HW222950   2.887   2.805  13.726  0.2162 -1.0929  0.2882
 3831SOL     OW22951   4.711   0.127   2.644 -0.4163 -0.2386 -0.5753
 3831SOL    HW122952   0.062   0.178   2.611 -0.7848  1.7776  1.6871
 3831SOL    HW222953   4.687   0.059   2.581 -1.6641  0.1659 -0.5405
 3832SOL     OW22954   4.307   4.619  17.202 -0.7481 -0.4101 -0.0488
 3832SOL    HW122955   4.373   4.625  17.271 -1.1328  1.2887  0.1596
 3832SOL    HW222956   4.231   4.608  17.260 -0.0705 -0.9647  0.7399
 3833SOL     OW22957   1.774   0.654   4.022  0.3335  0.3220 -0.2404
 3833SOL    HW122958   1.746   0.577   4.071  1.7182  0.7275  1.1884
 3833SOL    HW222959   1.866   0.648   4.051  0.8464 -1.7515 -2.3444
 3834SOL     OW22960   1.609   3.344   6.832  0.1550  0.7796 -0.2444
 3834SOL    HW122961   1.693   3.355   6.877  0.7011 -1.5018 -0.6701
 3834SOL    HW222962   1.553   3.407   6.877  0.0754  0.8889 -0.4937
 3835SOL     OW22963   1.064   4.036   5.691 -0.2965  0.3260 -0.6630
 3835SOL    HW122964   1.151   4.001   5.669 -0.3221  0.4898 -1.0302
 3835SOL    HW222965   1.012   4.018   5.613 -1.5151 -2.0602  0.7084
 3836SOL     OW22966   2.110   2.896   5.206  0.1370  0.0383 -0.9422
 3836SOL    HW122967   2.125   2.812   5.161  1.9028 -0.7571  1.1715
 3836SOL    HW222968   2.062   2.937   5.134  2.2969  0.6719 -2.0399
 3837SOL     OW22969   1.601   1.669   8.029 -0.6791  0.1311  0.3893
 3837SOL    HW122970   1.580   1.600   8.092  1.0078 -0.8518 -0.0992
 3837SOL    HW222971   1.662   1.616   7.976  0.1822  1.2014  0.3168
 3838SOL     OW22972   1.198   2.746   4.487  0.0458 -0.6210  0.0863
 3838SOL    HW122973   1.136   2.678   4.514 -0.6072 -0.4213 -0.9273
 3838SOL    HW222974   1.156   2.817   4.439  0.7258 -0.7920 -0.7725
 3839SOL     OW22975   3.833   1.985  13.921 -1.2329 -0.3079 -0.1879
 3839SOL    HW122976   3.873   2.058  13.875 -2.0144 -0.1535 -0.6232
 3839SOL    HW222977   3.738   1.997  13.912 -1.2606  0.3328  1.0897
 3840SOL     OW22978   1.255   4.375   5.543  0.2036  0.0952  0.0224
 3840SOL    HW122979   1.230   4.316   5.471  0.4343  2.3693 -1.9418
 3840SOL    HW222980   1.204   4.339   5.615  0.6301 -1.7719 -0.5902
 3841SOL     OW22981   2.219   1.929  15.154 -0.0547  0.0033  0.1322
 3841SOL    HW122982   2.125   1.949  15.148  0.1922  1.0760 -0.0386
 3841SOL    HW222983   2.247   1.894  15.070 -1.8254 -2.5130  0.5702
 3842SOL     OW22984   0.767   0.087   4.556  0.5220  0.0143  0.3795
 3842SOL    HW122985   0.824   0.062   4.484  0.9347 -0.8782  1.0203
 3842SOL    HW222986   0.700   0.019   4.559  2.6805 -2.1499 -0.4640
 3843SOL     OW22987   2.912   4.533   4.265  0.2494  0.5723 -0.1300
 3843SOL    HW122988   3.007   4.529   4.257  0.3997  0.7121  1.7472
 3843SOL    HW222989   2.902   4.611   4.320  0.9005  1.2236 -0.9385
 3844SOL     OW22990   1.750   1.223  14.535  0.3222  0.4379  1.2171
 3844SOL    HW122991   1.747   1.289  14.465 -1.1696 -1.5492 -0.5972
 3844SOL    HW222992   1.840   1.238  14.564  1.1872 -1.5759 -0.4696
 3845SOL     OW22993   4.663   0.149  11.955  0.4945 -0.6863 -0.2153
 3845SOL    HW122994   0.007   0.106  12.009  0.7483  0.6655  0.5510
 3845SOL    HW222995   4.599   0.080  11.943  0.1714 -0.1185 -1.6909
 3846SOL     OW22996   2.359   1.025   2.758 -0.2580  0.2305 -1.1753
 3846SOL    HW122997   2.445   1.033   2.717 -0.2072 -0.5696 -1.2248
 3846SOL    HW222998   2.337   0.932   2.758 -1.0103  0.4391  2.6164
 3847SOL     OW22999   3.095   1.400  15.178 -0.8751  0.2692  0.0485
 3847SOL    HW123000   3.023   1.462  15.193 -2.5165 -1.9720  1.4767
 3847SOL    HW223001   3.043   1.330  15.138  1.2891 -0.5186 -1.3685
 3848SOL     OW23002   2.727   1.428   5.857  0.2440  0.0613 -0.1014
 3848SOL    HW123003   2.717   1.403   5.766 -0.2431  0.1509 -0.0775
 3848SOL    HW223004   2.746   1.520   5.838 -0.1447  0.1941  0.1320
 3849SOL     OW23005   2.036   0.714   7.599  0.7285 -0.2038  0.2501
 3849SOL    HW123006   1.953   0.754   7.623 -0.1999 -0.8747 -1.8943
 3849SOL    HW223007   2.064   0.687   7.687 -0.1920  1.0549  0.9380
 3850SOL     OW23008   3.972   4.115   5.937 -0.2995 -0.0969  0.4980
 3850SOL    HW123009   3.958   4.030   5.978  0.6790 -1.1005 -1.2304
 3850SOL    HW223010   4.064   4.136   5.956 -0.5871  1.9119 -0.3032
 3851SOL     OW23011   3.598   3.152   4.296  0.1412  0.5227 -0.1578
 3851SOL    HW123012   3.511   3.146   4.335 -0.0952  2.7503 -0.3404
 3851SOL    HW223013   3.657   3.153   4.371  2.2222  1.6377 -1.8157
 3852SOL     OW23014   2.032   1.306   0.893  0.1994  0.1184  0.0005
 3852SOL    HW123015   2.045   1.260   0.975 -1.1174  1.3890  0.9203
 3852SOL    HW223016   2.110   1.276   0.847  0.7788  1.2829  0.2378
 3853SOL     OW23017   1.862   2.102   2.452 -0.1832  0.0256 -0.1131
 3853SOL    HW123018   1.786   2.126   2.504 -0.2937 -2.0207  0.6708
 3853SOL    HW223019   1.932   2.126   2.513 -1.6067  1.3483  0.9742
 3854SOL     OW23020   3.835   2.171   7.782  0.0347 -0.2081  0.4984
 3854SOL    HW123021   3.876   2.248   7.741 -0.4296 -0.9059 -1.2572
 3854SOL    HW223022   3.844   2.195   7.875 -1.4222 -0.8934  0.8009
 3855SOL     OW23023   2.541   1.980   5.372 -0.5839  0.7000 -0.1700
 3855SOL    HW123024   2.612   1.944   5.317 -1.4829 -0.0654 -0.8272
 3855SOL    HW223025   2.521   1.897   5.415 -1.1271  2.0824  2.2202
 3856SOL     OW23026   1.412   3.069   2.092 -0.0717 -0.0628  0.2779
 3856SOL    HW123027   1.353   3.130   2.049 -0.6977 -1.1826 -0.4554
 3856SOL    HW223028   1.381   2.983   2.064  0.1103 -0.6524  1.9056
 3857SOL     OW23029   3.628   4.215   3.738 -0.6310  0.3111 -0.4052
 3857SOL    HW123030   3.672   4.183   3.817  0.4593  1.4563 -0.5556
 3857SOL    HW223031   3.677   4.294   3.717  3.1293 -1.6766  0.9509
 3858SOL     OW23032   4.696   2.853  16.396 -0.1986 -0.0931 -0.2830
 3858SOL    HW123033   0.048   2.881  16.344 -0.1929 -0.4415 -0.4600
 3858SOL    HW223034   0.020   2.841  16.478  0.2072 -1.1054 -0.6635
 3859SOL     OW23035   0.261   3.260   3.990 -0.1710  0.3431 -0.3404
 3859SOL    HW123036   0.308   3.320   4.048  0.8961 -0.3912 -0.4589
 3859SOL    HW223037   0.181   3.255   4.043 -0.5848  0.9907 -0.9030
 3860SOL     OW23038   1.537   4.673  17.002  0.0072 -0.1364 -0.5865
 3860SOL    HW123039   1.525   4.656  17.096 -0.0883  2.5408 -0.1044
 3860SOL    HW223040   1.522   0.045  17.002 -2.3056 -0.5026  3.3531
 3861SOL     OW23041   2.580   2.696   6.742  0.0177 -0.1032 -0.7903
 3861SOL    HW123042   2.663   2.651   6.758  0.2949  1.4829  2.1882
 3861SOL    HW223043   2.538   2.618   6.706  0.7714 -0.8467 -0.0565
 3862SOL     OW23044   1.267   0.907   3.690 -0.1740  0.2561 -0.0286
 3862SOL    HW123045   1.258   0.812   3.680 -1.6734  0.2597  1.3570
 3862SOL    HW223046   1.280   0.934   3.599 -0.7545 -1.0643 -0.5081
 3863SOL     OW23047   4.686   3.869   2.502  0.1190  0.6646  0.2650
 3863SOL    HW123048   4.650   3.902   2.420 -1.0545 -0.4771  0.3139
 3863SOL    HW223049   4.652   3.929   2.568 -0.9299  2.2516 -1.7230
 3864SOL     OW23050   1.298   1.744   0.728 -0.3009  0.3630  0.3439
 3864SOL    HW123051   1.346   1.697   0.796  0.9292 -0.7929 -1.3219
 3864SOL    HW223052   1.334   1.687   0.660  1.3589  2.7125 -0.7276
 3865SOL     OW23053   2.668   3.908   3.215 -0.2809 -0.9026  0.3013
 3865SOL    HW123054   2.715   3.864   3.144  1.5196  0.3125  0.7110
 3865SOL    HW223055   2.579   3.886   3.189 -0.9315  0.4437  1.3944
 3866SOL     OW23056   0.216   4.346   4.230 -0.0525 -0.2435 -0.0687
 3866SOL    HW123057   0.197   4.252   4.221 -2.0269  0.1468  0.0171
 3866SOL    HW223058   0.257   4.352   4.316  3.6660 -3.5104 -1.5959
 3867SOL     OW23059   1.470   0.810  15.783  0.1292 -0.1451 -0.3350
 3867SOL    HW123060   1.514   0.879  15.734 -2.2746 -1.7194 -4.6696
 3867SOL    HW223061   1.535   0.792  15.851  0.0869  3.5515  0.6837
 3868SOL     OW23062   0.212   0.316   2.079 -0.0297 -0.3376 -0.6735
 3868SOL    HW123063   0.165   0.245   2.034 -2.2223 -0.4678  1.8748
 3868SOL    HW223064   0.276   0.345   2.014 -0.9111  2.7931 -0.1280
 3869SOL     OW23065   0.945   3.992   5.935 -0.0333  0.1542 -0.3689
 3869SOL    HW123066   0.985   4.038   5.861  1.8398 -0.4957  0.2558
 3869SOL    HW223067   1.019   3.985   5.995  0.5495  1.8712 -0.8693
 3870SOL     OW23068   2.642   0.930   9.228  0.1141  0.3573 -0.1211
 3870SOL    HW123069   2.645   0.847   9.275 -0.1942  0.0761 -0.5966
 3870SOL    HW223070   2.552   0.949   9.202  0.7055  0.4761 -2.0826
 3871SOL     OW23071   3.383   3.618   1.254 -0.6324  0.2099 -0.1488
 3871SOL    HW123072   3.356   3.702   1.217  1.0067  0.5145 -0.6601
 3871SOL    HW223073   3.301   3.568   1.261  0.4804 -1.5682  0.2584
 3872SOL     OW23074   4.644   1.378  17.332  0.0590 -0.3042  0.2012
 3872SOL    HW123075   4.627   1.369  17.426  0.0281 -0.0264  0.2231
 3872SOL    HW223076   4.599   1.462  17.318  1.4018  0.3116 -0.4657
 3873SOL     OW23077   3.191   1.199  14.415 -0.5716  0.3474  0.4956
 3873SOL    HW123078   3.190   1.274  14.356  1.0306 -0.8868 -1.0789
 3873SOL    HW223079   3.162   1.246  14.494 -0.3598  0.1794  0.6754
 3874SOL     OW23080   3.266   1.760   5.937 -0.0879  0.2179  0.1722
 3874SOL    HW123081   3.199   1.804   5.990 -0.7775 -0.2424 -0.3125
 3874SOL    HW223082   3.269   1.806   5.853  1.3509  0.2196  0.2234
 3875SOL     OW23083   1.522   1.411   3.359  0.4663 -0.3373 -0.1174
 3875SOL    HW123084   1.435   1.373   3.361 -0.4621  1.8114  0.3889
 3875SOL    HW223085   1.522   1.465   3.438  0.8611 -1.2594  0.5102
 3876SOL     OW23086   2.302   3.664   0.262  0.1486 -0.2570  0.2245
 3876SOL    HW123087   2.341   3.742   0.301  1.8676 -1.5510  1.1399
 3876SOL    HW223088   2.277   3.627   0.347 -1.2738 -0.2434 -0.1915
 3877SOL     OW23089   3.726   3.370   3.269  0.2000  0.0281 -0.2933
 3877SOL    HW123090   3.691   3.449   3.312 -0.4645 -0.8620  0.8201
 3877SOL    HW223091   3.646   3.333   3.231  0.7701 -0.6476 -0.8172
 3878SOL     OW23092   3.910   1.746   2.677  0.4524  0.2142  0.2166
 3878SOL    HW123093   3.827   1.706   2.651  0.7720 -0.6443  0.5229
 3878SOL    HW223094   3.901   1.841   2.675 -2.6571 -0.0591  1.2970
 3879SOL     OW23095   3.352   2.404   4.049 -0.2902  0.0407 -0.2851
 3879SOL    HW123096   3.289   2.406   4.121 -0.3248 -0.1192 -0.3109
 3879SOL    HW223097   3.430   2.402   4.103  1.1187  3.2239 -2.2439
 3880SOL     OW23098   3.174   1.064   6.148  0.3810  0.1628 -0.1822
 3880SOL    HW123099   3.152   1.149   6.187 -1.2193  0.7907 -2.4312
 3880SOL    HW223100   3.106   1.067   6.081  0.3415  2.0276 -0.0518
 3881SOL     OW23101   2.313   1.655  13.272 -0.2411  0.2242 -0.3688
 3881SOL    HW123102   2.382   1.670  13.337 -0.0474  0.5593 -0.6546
 3881SOL    HW223103   2.291   1.564  13.290 -0.8214  0.4427  0.0516
 3882SOL     OW23104   3.790   1.690   9.119 -0.0855 -0.0310 -0.4531
 3882SOL    HW123105   3.822   1.775   9.088 -0.1926 -0.2938 -1.2867
 3882SOL    HW223106   3.860   1.627   9.105 -0.4737 -0.6764  0.5481
 3883SOL     OW23107   0.429   1.517  16.473 -0.6893  0.4434 -0.1506
 3883SOL    HW123108   0.450   1.609  16.492 -0.1891  0.3907 -0.4387
 3883SOL    HW223109   0.382   1.522  16.390 -0.1293 -0.0310 -0.4965
 3884SOL     OW23110   3.034   1.749  17.146  0.5759 -0.1114 -0.0081
 3884SOL    HW123111   3.029   1.832  17.193 -1.4933 -0.9999  1.3469
 3884SOL    HW223112   3.125   1.752  17.117  1.6741 -0.0062  3.4706
 3885SOL     OW23113   0.091   3.473  13.916  0.4811 -0.1392 -0.6636
 3885SOL    HW123114   0.101   3.391  13.965 -0.2521  0.2797  0.1941
 3885SOL    HW223115   0.003   3.460  13.880  0.9106  0.2563 -1.8652
 3886SOL     OW23116   3.086   3.844   8.156  0.5518 -0.0238  0.0829
 3886SOL    HW123117   3.064   3.936   8.170 -0.8414 -0.0563 -1.8964
 3886SOL    HW223118   3.045   3.809   8.236 -0.4666  0.3277 -0.2859
 3887SOL     OW23119   3.549   3.920  15.723 -0.7862 -0.2841  1.1711
 3887SOL    HW123120   3.454   3.915  15.714 -0.7609  2.7781 -0.6779
 3887SOL    HW223121   3.576   3.878  15.641  0.9966  1.5857  0.8001
 3888SOL     OW23122   1.409   3.115   0.951 -0.0691  0.7024  0.2463
 3888SOL    HW123123   1.330   3.089   0.904 -0.3454  2.9755 -0.5576
 3888SOL    HW223124   1.414   3.205   0.918 -0.9607 -0.4285 -3.0607
 3889SOL     OW23125   0.685   3.460   4.475 -0.1271 -0.2626 -0.1101
 3889SOL    HW123126   0.691   3.516   4.398 -1.9299 -2.1889 -1.6564
 3889SOL    HW223127   0.735   3.383   4.448 -1.9669 -1.5769  0.2180
 3890SOL     OW23128   3.172   4.246   8.602 -0.0279  0.5713  0.0405
 3890SOL    HW123129   3.226   4.264   8.679 -2.4616 -0.2490  1.9540
 3890SOL    HW223130   3.084   4.277   8.624 -0.2779  0.9209 -1.4342
 3891SOL     OW23131   0.891   3.584   4.798 -0.2173 -0.8298  0.3036
 3891SOL    HW123132   0.933   3.571   4.883  1.8987  0.0349 -0.6188
 3891SOL    HW223133   0.840   3.660   4.824  0.3300 -0.1168 -0.7603
 3892SOL     OW23134   3.272   3.869   3.214 -0.1814 -0.2889 -0.5439
 3892SOL    HW123135   3.342   3.853   3.277 -0.7529  0.0448  0.1631
 3892SOL    HW223136   3.274   3.965   3.209  1.0153 -0.2577  0.3006
 3893SOL     OW23137   0.269   1.849   2.273 -0.1068 -0.1482 -0.6285
 3893SOL    HW123138   0.205   1.816   2.337 -0.1845  0.6414 -0.2958
 3893SOL    HW223139   0.343   1.809   2.319  0.6194  0.2335 -1.4822
 3894SOL     OW23140   3.786   3.802  10.388 -0.2604 -0.5131  0.1448
 3894SOL    HW123141   3.799   3.818  10.482  0.5497 -0.8313  0.0838
 3894SOL    HW223142   3.701   3.758  10.387 -0.6026  0.2096 -2.1723
 3895SOL     OW23143   1.675   2.831   7.229  0.1766  0.0887 -0.0079
 3895SOL    HW123144   1.643   2.777   7.157  1.1867  0.3235 -0.6146
 3895SOL    HW223145   1.598   2.834   7.286 -1.0730  2.2802 -1.8539
 3896SOL     OW23146   2.199   1.033   4.826  0.0725  0.0708 -0.3766
 3896SOL    HW123147   2.261   1.099   4.793 -1.0762  2.3054  1.9809
 3896SOL    HW223148   2.254   0.991   4.892 -0.3404  0.0693 -0.0371
 3897SOL     OW23149   2.396   1.850   3.886  0.2569 -0.1105  0.3305
 3897SOL    HW123150   2.337   1.775   3.892  0.3740 -0.3803 -1.8945
 3897SOL    HW223151   2.333   1.919   3.906 -0.6803 -1.2638  1.2988
 3898SOL     OW23152   0.988   4.284  12.215 -0.3466  0.0011  1.1058
 3898SOL    HW123153   1.070   4.234  12.222 -0.2671  0.1082  0.9532
 3898SOL    HW223154   0.985   4.309  12.123 -2.9142 -2.3991  0.5240
 3899SOL     OW23155   0.773   1.906  16.817 -0.2967 -0.1178 -0.4964
 3899SOL    HW123156   0.783   1.889  16.911 -5.4231 -2.2041 -0.3052
 3899SOL    HW223157   0.771   1.815  16.789  2.1289  0.0287 -1.1162
 3900SOL     OW23158   2.846   3.234  12.823  0.0525 -0.1093  0.1228
 3900SOL    HW123159   2.772   3.206  12.769  0.1808  0.3578 -0.2874
 3900SOL    HW223160   2.911   3.248  12.755  0.0165  0.5380  0.2192
 3901SOL     OW23161   2.135   4.047   3.423  0.0506 -0.2911  0.1737
 3901SOL    HW123162   2.095   3.975   3.472  0.4325  0.1282  1.1002
 3901SOL    HW223163   2.225   4.022   3.440  0.0966 -0.1177  0.1810
 3902SOL     OW23164   1.252   3.561   1.728  0.3547  0.6992 -0.3992
 3902SOL    HW123165   1.266   3.565   1.822 -0.5536  2.6010 -0.3317
 3902SOL    HW223166   1.325   3.505   1.703 -0.2925  0.2061 -1.2219
 3903SOL     OW23167   0.091   0.312   3.264  0.1654  0.2605 -0.1624
 3903SOL    HW123168   0.026   0.337   3.331 -1.9572 -2.1066 -1.3328
 3903SOL    HW223169   0.176   0.324   3.305 -0.1625 -0.1631  0.6570
 3904SOL     OW23170   0.879   3.048   9.968  0.0050 -0.0721 -0.0867
 3904SOL    HW123171   0.932   2.983  10.014  0.8382 -0.4472 -1.5529
 3904SOL    HW223172   0.828   2.996   9.905 -0.7606 -1.7005  1.8759
 3905SOL     OW23173   2.913   0.791  11.460  0.2596 -0.7696  0.3636
 3905SOL    HW123174   2.949   0.839  11.535  1.9671 -0.8412 -0.4094
 3905SOL    HW223175   2.985   0.797  11.397  0.3876  0.2330  0.6029
 3906SOL     OW23176   2.113   1.139   2.829 -0.1184 -0.0086  0.3795
 3906SOL    HW123177   2.050   1.070   2.807  1.3446 -1.6318  1.2735
 3906SOL    HW223178   2.200   1.100   2.820 -1.4908 -2.1625 -3.5285
 3907SOL     OW23179   3.709   2.833   6.438 -0.1404  0.2880  0.3443
 3907SOL    HW123180   3.679   2.890   6.509  0.5877  2.1619 -0.8444
 3907SOL    HW223181   3.788   2.796   6.475 -0.2796 -0.5541 -0.1859
 3908SOL     OW23182   2.348   3.975   6.126 -0.0208 -0.5531 -0.1345
 3908SOL    HW123183   2.316   3.887   6.105 -1.8625  0.1278 -0.1712
 3908SOL    HW223184   2.333   3.975   6.220  1.8006  2.1104  0.1608
 3909SOL     OW23185   0.145   0.279   6.489 -0.4487  0.3730  0.0530
 3909SOL    HW123186   0.146   0.184   6.487 -1.0060  0.4102 -1.6640
 3909SOL    HW223187   0.223   0.286   6.433  0.0337 -0.6841  0.5914
 3910SOL     OW23188   0.370   0.581  13.625 -0.7323 -0.4699 -0.1146
 3910SOL    HW123189   0.436   0.642  13.657 -0.8753 -0.3316 -0.0833
 3910SOL    HW223190   0.358   0.520  13.697 -0.3779  1.0644  1.2272
 3911SOL     OW23191   4.050   3.533   5.718 -0.5487 -0.4629 -0.5718
 3911SOL    HW123192   4.101   3.467   5.765  1.1707  1.2156 -0.0608
 3911SOL    HW223193   4.051   3.607   5.779  0.0989 -0.5249 -0.5082
 3912SOL     OW23194   4.203   3.524   1.175 -0.2802  0.5342  0.1694
 3912SOL    HW123195   4.205   3.467   1.252  0.2816 -0.4680 -0.5964
 3912SOL    HW223196   4.113   3.554   1.159 -0.2476  0.2314 -0.5794
 3913SOL     OW23197   0.309   0.322   3.418  0.5142  0.1755  0.2483
 3913SOL    HW123198   0.358   0.403   3.431  0.3487  0.5618 -1.4517
 3913SOL    HW223199   0.378   0.258   3.399 -1.1214 -1.8906  1.2439
 3914SOL     OW23200   4.244   2.745  10.221  0.0871 -0.6370  0.1230
 3914SOL    HW123201   4.280   2.723  10.135  0.6197 -1.4228  0.5432
 3914SOL    HW223202   4.312   2.699  10.270  0.0097  0.0363  0.8541
 3915SOL     OW23203   4.010   4.568   2.651 -0.5861  0.0826 -0.5660
 3915SOL    HW123204   4.106   4.574   2.651 -0.3490 -3.4361  0.1435
 3915SOL    HW223205   3.990   4.479   2.624 -1.5585  0.1283  0.0251
 3916SOL     OW23206   1.689   2.437   4.570  0.9734 -0.3731 -0.0271
 3916SOL    HW123207   1.700   2.498   4.497 -1.1515 -1.4179 -1.2124
 3916SOL    HW223208   1.594   2.427   4.560  0.6287  0.5867  2.1323
 3917SOL     OW23209   1.880   1.466   8.835  0.0776 -0.1927 -0.3352
 3917SOL    HW123210   1.972   1.492   8.840  0.2656 -1.3689  2.6295
 3917SOL    HW223211   1.846   1.552   8.809 -0.7225 -1.2009 -2.6062
 3918SOL     OW23212   4.578   0.169   7.340  0.3697  0.3828  0.4550
 3918SOL    HW123213   4.510   0.198   7.400  1.8280  1.9888  1.3446
 3918SOL    HW223214   4.606   0.254   7.306 -0.8360  0.0944 -1.2732
 3919SOL     OW23215   1.833   1.748   3.005 -0.0590  0.2092 -0.0063
 3919SOL    HW123216   1.839   1.741   3.101 -0.4209 -1.0752 -0.0718
 3919SOL    HW223217   1.925   1.746   2.978  1.2087 -1.0237  4.4012
 3920SOL     OW23218   3.183   3.811   6.976 -0.4649 -0.6448 -0.8003
 3920SOL    HW123219   3.218   3.848   6.895  0.0300 -2.6428 -1.4784
 3920SOL    HW223220   3.210   3.867   7.049  1.7634 -3.0877  0.2220
 3921SOL     OW23221   0.283   3.814  15.298  0.0048 -0.4248 -0.4363
 3921SOL    HW123222   0.300   3.842  15.208 -1.4585  1.4523 -0.1290
 3921SOL    HW223223   0.269   3.891  15.352  1.2052 -1.8254  1.8886
 3922SOL     OW23224   1.369   1.246   6.615 -0.1341 -0.1139  0.1443
 3922SOL    HW123225   1.285   1.256   6.659 -1.3975  0.2649 -2.3537
 3922SOL    HW223226   1.418   1.319   6.653  1.1326  0.4631 -2.5805
 3923SOL     OW23227   3.261   3.961  14.557 -0.3574 -0.0423  0.1807
 3923SOL    HW123228   3.265   4.046  14.599  0.0903  0.2316 -0.4150
 3923SOL    HW223229   3.336   3.973  14.499  0.8294  1.4279  2.0085
 3924SOL     OW23230   1.123   1.384   6.060  0.0967 -0.3830 -0.3292
 3924SOL    HW123231   1.068   1.454   6.025  0.6123 -0.7341 -1.8267
 3924SOL    HW223232   1.061   1.314   6.080  0.2556 -0.0298  1.3780
 3925SOL     OW23233   0.464   1.489  15.431  0.1262  0.0959  0.6074
 3925SOL    HW123234   0.476   1.523  15.519  1.6950 -1.0873  0.8523
 3925SOL    HW223235   0.435   1.565  15.381 -1.6037 -2.0717 -1.6930
 3926SOL     OW23236   3.994   2.566   3.172 -0.2084 -0.1867  0.3633
 3926SOL    HW123237   4.062   2.568   3.239 -1.0822 -0.5885  1.2567
 3926SOL    HW223238   4.044   2.518   3.106 -2.0829 -0.0031 -1.1965
 3927SOL     OW23239   0.176   1.088   2.933  0.2132 -0.4631 -0.0698
 3927SOL    HW123240   0.142   1.011   2.887 -0.6033  0.6539 -1.3402
 3927SOL    HW223241   0.187   1.056   3.023  0.9843  0.8065  0.2956
 3928SOL     OW23242   4.693   3.965  11.458 -0.1340 -0.1930  0.6311
 3928SOL    HW123243   4.665   4.026  11.527 -1.0382 -0.4095  0.4507
 3928SOL    HW223244   4.677   3.879  11.497 -0.2872 -0.1472  0.6683
 3929SOL     OW23245   3.633   3.298   5.939 -0.1266  0.0337 -0.5633
 3929SOL    HW123246   3.675   3.238   6.000  0.5693  1.2719  0.1802
 3929SOL    HW223247   3.554   3.316   5.989  0.2067 -4.2599  1.4468
 3930SOL     OW23248   2.671   0.594   9.358  0.8850 -0.3659  0.0448
 3930SOL    HW123249   2.665   0.600   9.263 -1.5328  1.3247  0.3003
 3930SOL    HW223250   2.698   0.502   9.353  1.8517 -0.2270  2.7600
 3931SOL     OW23251   1.638   0.274   6.874  0.0746 -0.0919 -0.2463
 3931SOL    HW123252   1.702   0.324   6.823 -0.7024  0.3641 -0.7719
 3931SOL    HW223253   1.678   0.273   6.961 -0.7966 -0.2639  0.1484
 3932SOL     OW23254   2.480   1.179   8.521 -0.6691 -0.7135  0.1851
 3932SOL    HW123255   2.467   1.146   8.609 -1.0629 -0.1362  0.3433
 3932SOL    HW223256   2.538   1.254   8.531  0.0501 -1.2095 -0.2799
 3933SOL     OW23257   2.967   4.283   9.462  0.2173  0.4558 -0.1376
 3933SOL    HW123258   2.954   4.336   9.383  0.0609  2.7371  1.4219
 3933SOL    HW223259   3.052   4.316   9.491  0.3303  2.5435 -2.8520
 3934SOL     OW23260   2.687   2.208   6.041  0.4122 -0.3365 -0.4737
 3934SOL    HW123261   2.669   2.125   6.085  2.5915 -1.2034 -1.1879
 3934SOL    HW223262   2.598   2.243   6.035 -0.0437 -1.2846  0.8565
 3935SOL     OW23263   4.702   1.241  15.236 -0.0952  0.1854  0.0008
 3935SOL    HW123264   4.716   1.148  15.256 -0.7372  0.6162  2.4038
 3935SOL    HW223265   4.609   1.238  15.213  0.5341 -0.5605 -2.4667
 3936SOL     OW23266   3.991   2.566   1.817 -0.0683 -0.2035 -0.3433
 3936SOL    HW123267   4.025   2.491   1.767 -1.1190 -0.3970 -0.7685
 3936SOL    HW223268   3.983   2.637   1.753  1.9668  1.6532  1.5079
 3937SOL     OW23269   1.089   4.633   2.310  0.4668 -0.2766 -0.0253
 3937SOL    HW123270   1.143   4.710   2.292 -2.2039  1.4350 -0.6725
 3937SOL    HW223271   1.125   4.571   2.246 -0.2536 -2.1477  1.3784
 3938SOL     OW23272   1.865   0.583   6.150  0.0718  0.1190 -0.0644
 3938SOL    HW123273   1.869   0.600   6.244  0.0319 -0.9022  0.1217
 3938SOL    HW223274   1.863   0.671   6.112 -0.0952  1.0781  2.1923
 3939SOL     OW23275   0.450   3.782   3.534 -0.3854 -0.5876 -0.2328
 3939SOL    HW123276   0.429   3.690   3.520 -1.3373 -0.7512  2.3442
 3939SOL    HW223277   0.457   3.808   3.442 -1.8290  1.6509  0.2768
 3940SOL     OW23278   1.830   3.405   8.734 -0.3142  0.5086 -0.1172
 3940SOL    HW123279   1.862   3.422   8.823 -1.3350 -1.9455  0.7060
 3940SOL    HW223280   1.901   3.348   8.706 -0.8991 -1.0176  1.5009
 3941SOL     OW23281   3.795   2.006   4.018 -0.0465 -0.5327 -0.7202
 3941SOL    HW123282   3.718   2.038   3.971 -0.1030 -0.6909 -0.7370
 3941SOL    HW223283   3.844   2.087   4.029 -0.6624 -0.0455 -1.6127
 3942SOL     OW23284   4.127   2.641   3.943 -0.8142  0.3205  0.5500
 3942SOL    HW123285   4.095   2.600   3.863 -0.7101  1.4507 -0.0756
 3942SOL    HW223286   4.222   2.628   3.933 -0.8750 -0.5434  1.1197
 3943SOL     OW23287   2.278   2.020  13.131 -0.7109 -0.3389 -0.2043
 3943SOL    HW123288   2.284   2.114  13.150 -0.3048 -0.7340  1.6220
 3943SOL    HW223289   2.233   1.979  13.205 -1.2650  0.5054 -0.0707
 3944SOL     OW23290   0.650   0.838   7.937 -0.5676 -0.2712 -0.6687
 3944SOL    HW123291   0.604   0.838   8.021  1.3146 -2.0727  0.3654
 3944SOL    HW223292   0.576   0.854   7.879 -2.4812  0.8086  2.0796
 3945SOL     OW23293   2.788   0.430   0.340 -0.4156 -0.1557  0.2737
 3945SOL    HW123294   2.876   0.457   0.368  0.8266 -1.0282 -2.8668
 3945SOL    HW223295   2.733   0.449   0.416 -0.1982 -1.4470  0.7398
 3946SOL     OW23296   3.365   4.612  10.835  0.5372  0.0207  0.1963
 3946SOL    HW123297   3.454   4.619  10.869  0.7101 -1.5899  0.0625
 3946SOL    HW223298   3.378   4.533  10.782  1.0067 -0.8805  1.6686
 3947SOL     OW23299   0.749   3.034   0.281  0.1621 -0.5475  0.0130
 3947SOL    HW123300   0.696   2.965   0.242 -1.2060  0.2583  0.4396
 3947SOL    HW223301   0.839   3.006   0.271 -0.3179 -1.4197 -1.7611
 3948SOL     OW23302   0.226   4.432  16.706 -0.0617 -0.3813  0.5359
 3948SOL    HW123303   0.171   4.474  16.772  1.9242  0.6922  1.5174
 3948SOL    HW223304   0.239   4.515  16.659 -0.8523  0.5961  2.0531
 3949SOL     OW23305   3.456   2.900  10.426 -0.5714 -0.1661 -0.4694
 3949SOL    HW123306   3.502   2.981  10.450 -1.2921 -0.1454  0.8746
 3949SOL    HW223307   3.409   2.925  10.346 -1.4909 -1.3735 -0.3181
 3950SOL     OW23308   1.020   0.678   4.964 -0.4357  0.3992 -0.4012
 3950SOL    HW123309   0.929   0.708   4.967 -1.3216 -2.2592 -0.3071
 3950SOL    HW223310   1.020   0.590   5.001 -2.4794  0.0609 -1.1912
 3951SOL     OW23311   2.169   2.829   0.040 -0.2958  0.5877  0.3103
 3951SOL    HW123312   2.191   2.850  17.643 -0.8833 -0.2255 -0.0217
 3951SOL    HW223313   2.139   2.741   0.016  1.1012  0.2790 -0.3443
 3952SOL     OW23314   4.362   3.066   1.724  0.2239 -0.0138  0.3685
 3952SOL    HW123315   4.309   3.143   1.701  0.3767  0.3143  1.1227
 3952SOL    HW223316   4.317   3.006   1.665  1.2116 -0.3499 -0.0419
 3953SOL     OW23317   3.557   0.839  16.045 -0.0885  0.3675  0.3138
 3953SOL    HW123318   3.534   0.931  16.058 -1.8031 -0.3455  2.2894
 3953SOL    HW223319   3.503   0.811  15.971 -0.2899  0.0036  0.6053
 3954SOL     OW23320   0.011   2.364  15.199 -0.6284 -0.0848  0.1956
 3954SOL    HW123321   0.092   2.403  15.166 -0.8706  0.4916  0.2811
 3954SOL    HW223322   0.017   2.369  15.295  0.2327  0.5289  0.1016
 3955SOL     OW23323   0.250   3.960   6.842  0.5751  0.1099  0.4909
 3955SOL    HW123324   0.176   3.927   6.791 -0.5401  0.0913  2.1178
 3955SOL    HW223325   0.313   3.993   6.777 -0.2798  1.8499  0.5502
 3956SOL     OW23326   0.543   1.425   7.274 -0.5747 -0.5458 -0.0567
 3956SOL    HW123327   0.569   1.355   7.333 -0.7483  0.8597  1.6782
 3956SOL    HW223328   0.519   1.491   7.339  0.5462 -0.8364  0.6491
 3957SOL     OW23329   0.044   2.180   7.914  0.2446  0.5534 -0.1818
 3957SOL    HW123330   0.035   2.264   7.869 -1.4685 -0.9173 -2.5803
 3957SOL    HW223331   4.674   2.178   7.939  0.4619 -0.0396  0.5765
 3958SOL     OW23332   0.167   2.223  11.167  0.1604  0.0878  0.0198
 3958SOL    HW123333   0.228   2.291  11.139  1.9163 -2.0895 -1.4585
 3958SOL    HW223334   0.210   2.181  11.242  0.7792  1.8269  0.6538
 3959SOL     OW23335   0.583   0.084   2.859 -0.2585  0.2163 -0.0289
 3959SOL    HW123336   0.500   0.089   2.812 -0.6651 -0.9846  0.5753
 3959SOL    HW223337   0.585   4.711   2.866  0.4179  0.1730 -0.7992
 3960SOL     OW23338   0.303   0.402   4.064 -0.4050 -0.2174 -0.2842
 3960SOL    HW123339   0.372   0.442   4.011 -2.1446  0.1593 -2.2623
 3960SOL    HW223340   0.353   0.384   4.143 -0.8945 -0.1257  0.0469
 3961SOL     OW23341   3.015   1.933  10.827  0.2219 -0.0987 -0.3224
 3961SOL    HW123342   2.972   1.895  10.750  1.1011  1.0942 -1.3903
 3961SOL    HW223343   2.939   1.965  10.877  0.7360  0.6725 -0.0362
 3962SOL     OW23344   0.815   0.087   7.987 -0.2536 -0.6900  0.7757
 3962SOL    HW123345   0.861   0.025   8.043  0.4326 -1.1048 -0.2559
 3962SOL    HW223346   0.768   0.034   7.923 -1.3083  0.1227  0.8777
 3963SOL     OW23347   3.702   2.336   7.187 -0.5089  0.0744 -0.1737
 3963SOL    HW123348   3.704   2.430   7.206 -2.1467  0.3901 -1.6239
 3963SOL    HW223349   3.733   2.303   7.272  0.9391  0.8200 -0.4097
 3964SOL     OW23350   1.650   1.384  14.773  0.3315 -0.3723  0.1274
 3964SOL    HW123351   1.696   1.466  14.789  0.4016 -0.6317  1.2428
 3964SOL    HW223352   1.575   1.415  14.723 -1.4779  0.0385  3.1111
 3965SOL     OW23353   1.578   4.340   7.240 -0.4765 -0.3471  0.3838
 3965SOL    HW123354   1.525   4.264   7.264 -0.4503 -0.2693  0.6825
 3965SOL    HW223355   1.660   4.291   7.231 -0.8685 -0.2766 -3.7548
 3966SOL     OW23356   2.348   3.130   6.296 -0.0007 -0.1186  0.1611
 3966SOL    HW123357   2.389   3.128   6.383 -0.0717 -1.5564  0.1730
 3966SOL    HW223358   2.371   3.215   6.259 -1.0621  0.1288  0.0536
 3967SOL     OW23359   1.588   1.255   3.965 -0.4473  0.0646 -0.2178
 3967SOL    HW123360   1.650   1.239   4.036 -1.1245  0.1639  0.3862
 3967SOL    HW223361   1.596   1.173   3.916  2.2737 -0.1383  0.5511
 3968SOL     OW23362   4.503   0.429  12.198  0.3907  0.4876  0.2457
 3968SOL    HW123363   4.502   0.489  12.273  0.3826  1.4623 -0.5311
 3968SOL    HW223364   4.417   0.449  12.160 -0.5799 -0.5863  1.8823
 3969SOL     OW23365   2.190   2.789   7.936 -0.2860 -0.3739  0.8683
 3969SOL    HW123366   2.122   2.757   7.876  0.0875 -0.9780  0.7625
 3969SOL    HW223367   2.215   2.866   7.885  0.6278 -1.1916  0.0871
 3970SOL     OW23368   3.638   1.988   5.403 -0.3079 -0.4455  0.4231
 3970SOL    HW123369   3.613   2.058   5.343  0.3307 -0.5960 -0.0183
 3970SOL    HW223370   3.614   2.038   5.481 -2.0759 -3.4189  1.7699
 3971SOL     OW23371   3.119   2.815   8.860 -0.3749  0.1404 -0.2626
 3971SOL    HW123372   3.135   2.839   8.952 -0.8967  1.2135 -0.4560
 3971SOL    HW223373   3.025   2.802   8.874 -0.0326 -1.9631  0.0347
 3972SOL     OW23374   4.597   1.611   2.071 -0.2671 -0.4641  0.6756
 3972SOL    HW123375   4.507   1.632   2.044 -1.5721 -1.7033  3.9666
 3972SOL    HW223376   4.649   1.690   2.086 -2.6746  1.1808  0.3416
 3973SOL     OW23377   0.400   3.761  16.042 -0.5206  0.1736 -0.3131
 3973SOL    HW123378   0.395   3.838  16.099 -1.0782 -1.4067  1.7700
 3973SOL    HW223379   0.425   3.800  15.958 -0.2201 -0.1614 -0.3808
 3974SOL     OW23380   4.620   0.846   1.430 -0.0285  0.6773 -0.2090
 3974SOL    HW123381   4.689   0.894   1.384  0.6644  0.1176  0.2378
 3974SOL    HW223382   4.541   0.895   1.407  0.2876  2.0283  1.5828
 3975SOL     OW23383   2.349   1.805  12.574 -0.5236 -0.0116 -0.9632
 3975SOL    HW123384   2.439   1.797  12.542 -0.5648 -1.6948 -0.6493
 3975SOL    HW223385   2.330   1.898  12.588 -2.5252 -0.3890 -1.1280
 3976SOL     OW23386   3.187   1.806   4.820 -0.1561  0.5728  0.0077
 3976SOL    HW123387   3.164   1.788   4.911  1.5219 -0.8341  0.1296
 3976SOL    HW223388   3.257   1.743   4.804 -0.0278  0.7589 -0.1680
 3977SOL     OW23389   2.974   4.441   8.554  0.3981 -0.7983 -0.0772
 3977SOL    HW123390   3.064   4.440   8.522  1.1643 -0.3825  2.0822
 3977SOL    HW223391   2.940   4.435   8.465  0.4220  0.1864 -0.1483
 3978SOL     OW23392   1.414   3.042   7.414 -0.3223  0.3867  0.1437
 3978SOL    HW123393   1.441   3.030   7.505 -1.6980 -0.1167  0.4792
 3978SOL    HW223394   1.419   2.948   7.392  1.7386  0.8098 -1.3020
 3979SOL     OW23395   4.000   4.132   0.777  0.2853 -0.6878 -0.0306
 3979SOL    HW123396   3.970   4.079   0.704 -0.5143  0.3054 -0.4320
 3979SOL    HW223397   4.022   4.058   0.833  1.0858  0.7692  1.5989
 3980SOL     OW23398   4.385   1.868  11.774  0.0488  1.0761  0.1897
 3980SOL    HW123399   4.351   1.918  11.700  1.0480 -2.0128 -2.3581
 3980SOL    HW223400   4.400   1.943  11.832  3.3942  2.0754 -1.9890
 3981SOL     OW23401   0.639   3.652   7.982  0.0736  0.3279  0.3361
 3981SOL    HW123402   0.662   3.702   8.060 -1.7800  1.1886  0.3333
 3981SOL    HW223403   0.633   3.725   7.919  0.0636 -1.1920 -1.4255
 3982SOL     OW23404   1.046   0.277   8.244 -0.7898 -0.1050 -0.4637
 3982SOL    HW123405   1.044   0.256   8.151  0.2312  3.8807 -1.3634
 3982SOL    HW223406   1.018   0.368   8.240 -1.0476 -0.1001  1.4748
 3983SOL     OW23407   2.365   2.929   2.369 -0.8808  0.1360  0.0186
 3983SOL    HW123408   2.459   2.938   2.384 -0.8824 -1.4405  0.9370
 3983SOL    HW223409   2.353   2.897   2.280  1.1667  0.9279 -0.5375
 3984SOL     OW23410   2.834   1.727  13.116  0.2477  0.4385  0.4228
 3984SOL    HW123411   2.772   1.798  13.100  0.2840  0.5581  0.8038
 3984SOL    HW223412   2.791   1.670  13.052 -0.7196 -0.2651  1.7064
 3985SOL     OW23413   2.562   3.649   0.529 -0.7157  0.0396 -0.1330
 3985SOL    HW123414   2.635   3.708   0.547  0.0894  0.1191 -3.7563
 3985SOL    HW223415   2.518   3.692   0.456  0.4831  0.3387 -0.6873
 3986SOL     OW23416   0.196   2.730  13.096  0.4528 -0.1168  0.3863
 3986SOL    HW123417   0.139   2.772  13.160  1.9006  2.0326  0.2651
 3986SOL    HW223418   0.280   2.756  13.132  0.4836 -0.7514  0.7782
 3987SOL     OW23419   4.449   0.521   4.559 -0.6762 -0.0852 -0.3000
 3987SOL    HW123420   4.386   0.462   4.516 -0.3364 -1.5535  1.2028
 3987SOL    HW223421   4.427   0.607   4.525  0.3292  0.9568  1.7341
 3988SOL     OW23422   4.592   1.273   4.346 -0.5020 -0.3922 -0.1203
 3988SOL    HW123423   4.524   1.294   4.281  2.5931  1.4663 -2.7553
 3988SOL    HW223424   4.676   1.273   4.300 -0.6732 -1.6939 -0.4332
 3989SOL     OW23425   3.192   1.438   4.784 -0.1987 -0.4452 -0.1882
 3989SOL    HW123426   3.254   1.423   4.856 -0.6486  0.9288  0.4861
 3989SOL    HW223427   3.202   1.358   4.733  0.2844 -0.9443  0.6883
 3990SOL     OW23428   0.947   0.433   5.898  0.4608 -0.1159 -0.4788
 3990SOL    HW123429   0.902   0.486   5.965  2.0038  1.6771 -0.8495
 3990SOL    HW223430   0.933   0.345   5.933  0.3664 -0.5300 -1.5547
 3991SOL     OW23431   3.711   3.627   3.010  0.0007  0.0495 -0.7339
 3991SOL    HW123432   3.798   3.618   2.970 -0.8762 -1.1451 -2.3705
 3991SOL    HW223433   3.698   3.532   3.007 -0.2405  0.0424  0.4905
 3992SOL     OW23434   1.218   3.870   4.591 -0.2136 -0.4285  0.3657
 3992SOL    HW123435   1.251   3.818   4.665  1.3615 -1.8009 -1.2878
 3992SOL    HW223436   1.258   3.955   4.605 -1.6171  0.6364 -2.2033
 3993SOL     OW23437   2.193   2.612   7.557  0.0389  0.0487  0.1079
 3993SOL    HW123438   2.246   2.691   7.547  0.1977 -0.3674 -2.3779
 3993SOL    HW223439   2.128   2.645   7.619  1.8012  1.1545  1.3628
 3994SOL     OW23440   1.202   2.639  14.481 -0.0003 -0.2084 -0.3898
 3994SOL    HW123441   1.218   2.691  14.402  0.2748  1.2704  0.6344
 3994SOL    HW223442   1.219   2.708  14.546 -0.0370  1.0311 -1.6890
 3995SOL     OW23443   1.897   4.132   6.041  0.5961 -0.2508 -0.1521
 3995SOL    HW123444   1.961   4.072   6.079  1.1077  0.2107 -0.2810
 3995SOL    HW223445   1.934   4.150   5.954  2.8044 -0.5611  0.7287
 3996SOL     OW23446   3.730   0.235  15.541 -0.2437 -0.0859 -0.0987
 3996SOL    HW123447   3.675   0.270  15.612  0.2317 -0.7843  0.6137
 3996SOL    HW223448   3.816   0.263  15.573 -0.1999  1.5205 -1.6049
 3997SOL     OW23449   4.686   4.682  12.875  0.3741 -0.4534  0.2799
 3997SOL    HW123450   0.019   4.672  12.953  0.4050 -2.0086  0.0737
 3997SOL    HW223451   4.623   0.013  12.921 -0.1092 -0.9284  0.1700
 3998SOL     OW23452   0.590   0.898   8.840  0.1379  0.1207 -0.2286
 3998SOL    HW123453   0.541   0.906   8.921  1.2870 -1.2478  0.6005
 3998SOL    HW223454   0.676   0.933   8.863  1.4982 -1.5766 -2.6699
 3999SOL     OW23455   0.216   4.025  16.036 -0.2990  0.1490 -0.3513
 3999SOL    HW123456   0.268   4.012  16.115 -2.4388  1.8894  1.3571
 3999SOL    HW223457   0.276   4.080  15.985 -0.5690  1.1574  0.4099
 4000SOL     OW23458   3.519   0.688   0.766 -0.9689  0.4388  0.1420
 4000SOL    HW123459   3.516   0.748   0.692  1.3847  1.2650  0.7261
 4000SOL    HW223460   3.611   0.700   0.789 -0.7830 -0.0418 -0.3374
 4001SOL     OW23461   1.698   3.808  13.368 -0.0390 -0.3825 -0.3376
 4001SOL    HW123462   1.716   3.845  13.454 -0.1684 -2.3337  0.5408
 4001SOL    HW223463   1.764   3.846  13.310  0.3861  0.5314  0.7424
 4002SOL     OW23464   1.005   2.093   7.174  0.8385 -0.6991  0.2893
 4002SOL    HW123465   0.992   2.171   7.120  0.4906 -0.2554  1.0240
 4002SOL    HW223466   1.097   2.081   7.197  1.4705 -0.9840 -2.3157
 4003SOL     OW23467   2.058   0.805   0.455  0.3186 -0.0967 -0.2095
 4003SOL    HW123468   2.095   0.820   0.542 -1.1126  1.5517  0.1022
 4003SOL    HW223469   2.032   0.713   0.458 -0.0151  0.0020 -0.0597
 4004SOL     OW23470   0.053   1.125   1.520  0.5810  0.4629  0.5604
 4004SOL    HW123471   0.133   1.106   1.568  0.6225  1.6093  0.9381
 4004SOL    HW223472   0.073   1.095   1.431  1.0597 -2.3998  1.6283
 4005SOL     OW23473   2.775   4.068  10.859 -0.2604  0.2380  0.6920
 4005SOL    HW123474   2.680   4.067  10.859 -0.2723  0.9188 -0.7712
 4005SOL    HW223475   2.797   4.161  10.848 -0.3040 -0.1007 -2.4069
 4006SOL     OW23476   1.646   0.273   3.744  0.2032  0.8517 -0.4797
 4006SOL    HW123477   1.708   0.202   3.726  1.7179  3.0194 -3.8332
 4006SOL    HW223478   1.688   0.297   3.827 -0.1895  0.8097 -0.2679
 4007SOL     OW23479   0.282   2.338   7.632  0.2079  0.1055 -0.6848
 4007SOL    HW123480   0.237   2.257   7.607 -1.9575  0.7399  1.1943
 4007SOL    HW223481   0.366   2.310   7.595  0.7397 -0.4298  0.9334
 4008SOL     OW23482   3.426   2.590   4.346  0.0120 -0.1700  0.2055
 4008SOL    HW123483   3.365   2.657   4.314 -0.0337  0.1436  0.9532
 4008SOL    HW223484   3.514   2.625   4.329 -1.4471  2.3693 -2.0809
 4009SOL     OW23485   4.630   2.658  15.248 -0.2392 -0.2547 -0.0626
 4009SOL    HW123486   4.659   2.596  15.180 -0.6617  0.5834 -1.0162
 4009SOL    HW223487   4.545   2.616  15.265 -0.6169 -0.8798 -3.4570
 4010SOL     OW23488   0.700   1.471   9.424  0.4553  1.0644 -1.1580
 4010SOL    HW123489   0.787   1.511   9.430 -0.8677  3.7431  0.3257
 4010SOL    HW223490   0.639   1.544   9.433  3.2749  3.1873  0.7663
 4011SOL     OW23491   3.785   1.070   5.562  0.1944 -0.6696  0.5738
 4011SOL    HW123492   3.737   1.124   5.625  2.4359  0.3553  1.3939
 4011SOL    HW223493   3.730   1.077   5.484  1.8221 -1.8689 -0.6887
 4012SOL     OW23494   0.993   3.116   4.498 -0.2095  0.7363  0.1013
 4012SOL    HW123495   1.038   3.170   4.564  0.3072  0.2325  0.1666
 4012SOL    HW223496   0.912   3.167   4.487  1.6754  3.3259 -1.8210
 4013SOL     OW23497   1.495   0.167   6.249  0.2006  0.4710 -1.0949
 4013SOL    HW123498   1.443   0.146   6.172  0.1929 -2.4543 -0.3090
 4013SOL    HW223499   1.501   0.078   6.282  1.0785  0.4462 -1.3222
 4014SOL     OW23500   0.784   1.246  12.968  0.6340  0.3326  0.0097
 4014SOL    HW123501   0.813   1.288  12.887  0.1096  0.4417 -0.1168
 4014SOL    HW223502   0.719   1.307  13.003 -0.9215 -0.8802 -0.7701
 4015SOL     OW23503   0.179   3.340   4.577 -0.0385  0.1480 -0.0674
 4015SOL    HW123504   0.238   3.302   4.513  0.9946 -1.7509  1.9891
 4015SOL    HW223505   0.226   3.414   4.616 -0.3187  0.2813  0.0172
 4016SOL     OW23506   0.483   2.812   0.741 -0.7470 -0.4400 -0.1175
 4016SOL    HW123507   0.541   2.875   0.698  2.2189 -1.9488  1.7106
 4016SOL    HW223508   0.531   2.781   0.818 -0.1202 -2.2942 -1.2696
 4017SOL     OW23509   3.116   4.317   8.235  0.2128  0.3479  0.1127
 4017SOL    HW123510   3.060   4.288   8.162 -0.2000  0.1457  0.5117
 4017SOL    HW223511   3.110   4.240   8.292 -0.8627  0.1221 -0.2996
 4018SOL     OW23512   1.347   1.333  10.229 -0.8387 -0.2318 -0.3751
 4018SOL    HW123513   1.396   1.406  10.190 -0.3727 -1.4491 -2.1129
 4018SOL    HW223514   1.254   1.353  10.223 -0.8435  0.1149  0.9657
 4019SOL     OW23515   1.087   1.410  10.194  0.6980 -0.2972 -0.6922
 4019SOL    HW123516   1.005   1.437  10.153 -0.2762 -1.9296  0.1931
 4019SOL    HW223517   1.070   1.442  10.282  2.6600 -0.0871 -0.3815
 4020SOL     OW23518   2.450   0.755   8.387  0.1004 -0.5558  0.0037
 4020SOL    HW123519   2.440   0.725   8.297 -0.9925  2.1282 -0.7745
 4020SOL    HW223520   2.506   0.833   8.386 -0.1324 -0.3580  1.3622
 4021SOL     OW23521   0.376   2.311  11.893 -0.8991  0.1524  0.2647
 4021SOL    HW123522   0.308   2.315  11.961 -1.3157 -0.2572 -0.1222
 4021SOL    HW223523   0.371   2.400  11.860  0.7382  0.1628  0.0584
 4022SOL     OW23524   3.226   2.586  13.918  0.4191  0.4161 -0.0004
 4022SOL    HW123525   3.302   2.571  13.862 -0.2184 -0.9102 -0.5013
 4022SOL    HW223526   3.173   2.509  13.899  1.3530 -0.1598 -0.2661
 4023SOL     OW23527   3.987   2.467  11.962 -0.3606  0.1537  0.5572
 4023SOL    HW123528   4.079   2.485  11.982  0.1824  0.4707 -2.2139
 4023SOL    HW223529   3.942   2.544  11.998  0.5638  1.9957 -2.2127
 4024SOL     OW23530   3.271   1.602  15.268  0.2637 -0.9108 -0.0085
 4024SOL    HW123531   3.299   1.637  15.184  0.1116  1.0470  0.7533
 4024SOL    HW223532   3.207   1.530  15.260 -0.6080 -0.3327  1.8031
 4025SOL     OW23533   3.206   0.423   8.280 -0.3813 -0.5626  0.1568
 4025SOL    HW123534   3.159   0.401   8.200 -2.0021 -1.8077  1.4666
 4025SOL    HW223535   3.137   0.462   8.334 -0.0636  2.0916 -1.3669
 4026SOL     OW23536   4.616   1.241   6.534  0.1096 -0.0790 -0.2472
 4026SOL    HW123537   4.647   1.171   6.476  0.0737  0.4860 -0.9553
 4026SOL    HW223538   4.676   1.316   6.528 -1.4203  1.1587 -0.0218
 4027SOL     OW23539   3.623   0.608   5.086  0.3359 -0.0618 -0.8530
 4027SOL    HW123540   3.564   0.674   5.123  2.4263  1.3157 -0.0254
 4027SOL    HW223541   3.595   0.538   5.146  3.1798 -0.5392 -0.0968
 4028SOL     OW23542   3.197   4.548   8.367 -0.5761  0.2541 -0.4765
 4028SOL    HW123543   3.238   4.609   8.306 -1.0001 -0.3198 -1.3311
 4028SOL    HW223544   3.185   4.471   8.312  0.1036  0.6255 -1.1416
 4029SOL     OW23545   0.801   4.216   5.436  0.5044 -0.8484  0.2450
 4029SOL    HW123546   0.755   4.165   5.503  0.9699  0.6715  1.7292
 4029SOL    HW223547   0.839   4.135   5.403  0.8598 -0.4980 -0.1955
 4030SOL     OW23548   4.184   2.255  12.674  0.5571  0.1856  0.9118
 4030SOL    HW123549   4.198   2.285  12.584  1.4693 -1.5112  0.4885
 4030SOL    HW223550   4.170   2.337  12.720  0.7570  1.1482 -0.7640
 4031SOL     OW23551   0.780   2.014   6.034 -0.0964  0.6646  0.3081
 4031SOL    HW123552   0.755   1.949   6.101 -0.2002  0.4697  0.0780
 4031SOL    HW223553   0.708   2.076   6.043  1.0165  2.0738 -0.6101
 4032SOL     OW23554   3.257   1.202   7.706 -0.2595 -0.2018 -0.3760
 4032SOL    HW123555   3.292   1.291   7.701  1.5914 -0.8147  1.5576
 4032SOL    HW223556   3.279   1.169   7.793  1.4193 -0.9759 -1.0957
 4033SOL     OW23557   1.249   4.687   4.674  0.0010  0.1374 -0.0713
 4033SOL    HW123558   1.221   4.602   4.708 -0.2000  0.4672  0.5886
 4033SOL    HW223559   1.234   0.025   4.747 -2.7459 -0.2237 -0.3242
 4034SOL     OW23560   0.792   0.957  12.923  0.1015 -0.2168 -0.8684
 4034SOL    HW123561   0.794   1.046  12.957 -0.6423 -0.4359 -0.2520
 4034SOL    HW223562   0.718   0.959  12.862 -0.5984  2.0514  0.0588
 4035SOL     OW23563   1.563   3.310   4.894 -0.2358 -0.6982  0.6335
 4035SOL    HW123564   1.550   3.271   4.807  0.0644 -0.4424  0.4711
 4035SOL    HW223565   1.633   3.374   4.878 -0.2714 -0.3712  1.7697
 4036SOL     OW23566   1.915   2.182  11.085  0.3145 -0.4667  0.1280
 4036SOL    HW123567   1.847   2.154  11.146 -0.6603 -0.7288 -1.0680
 4036SOL    HW223568   1.992   2.160  11.137 -0.8676 -0.3378  1.9519
 4037SOL     OW23569   4.123   4.195   4.765  0.6123 -0.1613  0.1507
 4037SOL    HW123570   4.067   4.205   4.842  0.1437 -0.5015 -0.1394
 4037SOL    HW223571   4.169   4.111   4.772  2.7820  0.9479 -0.8996
 4038SOL     OW23572   0.921   1.000   8.730 -0.1253 -0.0303  0.2187
 4038SOL    HW123573   0.998   1.016   8.676 -0.2647 -1.4706 -0.3916
 4038SOL    HW223574   0.864   0.998   8.653 -0.2104 -0.5211  0.2979
 4039SOL     OW23575   4.424   2.712  12.478 -0.2775 -0.0819  0.2026
 4039SOL    HW123576   4.339   2.718  12.523 -0.3289  1.4841 -0.0911
 4039SOL    HW223577   4.476   2.762  12.541 -0.6766 -0.3712  0.7670
 4040SOL     OW23578   3.592   2.672   5.813 -0.2304  0.0295  0.4828
 4040SOL    HW123579   3.518   2.730   5.831  0.0710 -0.2235  2.5521
 4040SOL    HW223580   3.640   2.729   5.753  1.5656 -1.5763  0.3603
 4041SOL     OW23581   0.342   1.128   5.331 -0.1766 -0.8677 -0.0885
 4041SOL    HW123582   0.432   1.135   5.300  0.3146 -4.7078  0.5729
 4041SOL    HW223583   0.361   1.136   5.424 -0.4472  0.2555 -0.1277
 4042SOL     OW23584   4.430   1.423  12.305 -0.0636  0.3181 -0.1527
 4042SOL    HW123585   4.466   1.339  12.276 -2.8271 -1.0865  0.5051
 4042SOL    HW223586   4.414   1.400  12.396  2.1423  0.9876  0.3904
 4043SOL     OW23587   4.453   3.817   3.296  0.4592  0.3528  0.7565
 4043SOL    HW123588   4.495   3.747   3.247  1.6103  0.9048  0.9520
 4043SOL    HW223589   4.391   3.768   3.349 -0.1546  0.2386 -0.0506
 4044SOL     OW23590   0.243   0.578   8.589 -0.2392  0.2304 -0.4963
 4044SOL    HW123591   0.153   0.547   8.599 -0.0211 -0.2933 -0.1601
 4044SOL    HW223592   0.285   0.495   8.568 -0.3669 -0.3557  1.4733
 4045SOL     OW23593   0.275   0.175   2.311  0.2244 -0.1612  0.2129
 4045SOL    HW123594   0.260   0.222   2.229  1.2430 -0.6924 -0.2773
 4045SOL    HW223595   0.185   0.149   2.331 -0.5311  1.0531 -1.6060
 4046SOL     OW23596   1.448   3.731   3.213 -0.5900 -0.0316 -0.4968
 4046SOL    HW123597   1.470   3.814   3.171  0.7993 -0.9229 -1.5060
 4046SOL    HW223598   1.531   3.684   3.217 -0.7217 -0.2273  0.0813
 4047SOL     OW23599   1.770   4.473   7.833 -0.3794 -0.1709 -1.0631
 4047SOL    HW123600   1.806   4.416   7.900  0.1990  1.3292 -0.0959
 4047SOL    HW223601   1.675   4.460   7.838 -0.0292 -2.6440 -0.6617
 4048SOL     OW23602   0.653   1.900   1.803  0.7994 -0.4606 -0.4044
 4048SOL    HW123603   0.594   1.863   1.738  0.6726 -2.0517  0.6197
 4048SOL    HW223604   0.698   1.821   1.834  1.5799 -0.3819 -1.3100
 4049SOL     OW23605   3.834   4.659   8.274  0.4548 -0.5821 -0.0954
 4049SOL    HW123606   3.754   4.710   8.274  0.6611 -0.2627  0.7313
 4049SOL    HW223607   3.878   4.687   8.193 -1.0244 -0.6596 -0.9129
 4050SOL     OW23608   1.346   3.071  13.972  0.4664  0.0108 -0.0327
 4050SOL    HW123609   1.385   3.135  13.913  0.0799 -0.0597 -0.3654
 4050SOL    HW223610   1.330   3.127  14.048 -0.1671  1.0274 -0.9149
 4051SOL     OW23611   2.151   2.205  11.219  0.8382  0.2565  0.1609
 4051SOL    HW123612   2.142   2.297  11.191 -0.4088 -0.9172 -3.2439
 4051SOL    HW223613   2.107   2.210  11.304  1.3771 -1.4561  0.5339
 4052SOL     OW23614   0.231   0.845  12.949 -0.0995 -0.9098 -0.1126
 4052SOL    HW123615   0.242   0.938  12.933  1.3054 -1.0698 -0.0037
 4052SOL    HW223616   0.271   0.832  13.034  1.0887 -0.8144 -0.6663
 4053SOL     OW23617   1.949   4.310   5.800  0.3013 -0.5295 -0.5161
 4053SOL    HW123618   1.970   4.371   5.728 -0.3366  1.3147  0.8702
 4053SOL    HW223619   2.019   4.339   5.858 -0.7739 -0.4539  0.7340
 4054SOL     OW23620   1.028   2.927   2.905  0.3977  0.2006 -0.2710
 4054SOL    HW123621   1.012   3.018   2.881 -0.7117 -0.3517 -1.6063
 4054SOL    HW223622   1.073   2.930   2.989 -1.2438  0.5743  0.6115
 4055SOL     OW23623   4.495   1.865   2.273  0.0189  0.1483  0.2607
 4055SOL    HW123624   4.423   1.807   2.298 -1.3271  1.3185 -0.9383
 4055SOL    HW223625   4.558   1.831   2.337  0.7676  0.7679 -0.1470
 4056SOL     OW23626   3.790   0.358   1.771 -0.1643 -0.1940  0.1074
 4056SOL    HW123627   3.777   0.263   1.769  1.6666 -0.4099 -2.0524
 4056SOL    HW223628   3.748   0.381   1.854  0.9611  3.1604 -0.2840
 4057SOL     OW23629   1.096   1.061  15.002 -0.0265  0.1304 -0.3088
 4057SOL    HW123630   1.003   1.085  15.009  0.0863  0.9835 -1.6545
 4057SOL    HW223631   1.099   1.064  14.906  0.4364  0.3916 -0.2859
 4058SOL     OW23632   3.944   2.631  11.542  0.2162  0.4822 -0.9539
 4058SOL    HW123633   3.966   2.581  11.464 -3.4194 -2.4846 -0.0844
 4058SOL    HW223634   3.910   2.713  11.506  3.1101  1.7313 -0.8583
 4059SOL     OW23635   3.872   2.871   4.108 -0.1240  0.4346 -0.1697
 4059SOL    HW123636   3.868   2.964   4.084 -2.3510  0.1624 -0.7986
 4059SOL    HW223637   3.794   2.869   4.163  0.2651  0.0205  0.3633
 4060SOL     OW23638   3.063   3.639   0.351 -0.1297 -0.5140 -0.3751
 4060SOL    HW123639   3.067   3.623   0.446 -0.4115  1.9442  0.0468
 4060SOL    HW223640   3.117   3.718   0.351  1.5302 -1.6377  1.0543
 4061SOL     OW23641   0.630   2.887   1.507  0.0981  0.2566 -0.3010
 4061SOL    HW123642   0.660   2.967   1.551 -0.2364 -0.0205  0.4272
 4061SOL    HW223643   0.547   2.865   1.549  1.2162 -2.3014  0.5651
 4062SOL     OW23644   2.292   3.525   6.490 -0.1432  0.1331  0.4788
 4062SOL    HW123645   2.247   3.519   6.406  0.0018  0.4238  0.3819
 4062SOL    HW223646   2.306   3.620   6.489  0.5097  0.0582  2.3408
 4063SOL     OW23647   2.505   2.336   2.802 -0.3534 -0.4700 -1.0009
 4063SOL    HW123648   2.416   2.331   2.836 -0.3992  3.1517 -0.5184
 4063SOL    HW223649   2.553   2.372   2.876 -2.3639  1.3615 -0.5955
 4064SOL     OW23650   0.204   0.891   4.171 -0.2343 -0.8033  0.2982
 4064SOL    HW123651   0.213   0.950   4.246 -1.7104  0.9598 -0.9328
 4064SOL    HW223652   0.274   0.826   4.179 -0.1148 -0.6133  0.7983
 4065SOL     OW23653   3.015   1.196   7.980 -0.4332  0.1640  0.0207
 4065SOL    HW123654   3.002   1.214   8.073  0.5161 -1.5013  0.4627
 4065SOL    HW223655   3.072   1.119   7.977 -2.1073 -1.1031  0.7758
 4066SOL     OW23656   0.656   3.610   0.348 -0.4900 -0.3355  0.0519
 4066SOL    HW123657   0.702   3.692   0.333 -0.1667 -0.5532 -0.1382
 4066SOL    HW223658   0.566   3.635   0.370 -0.4602 -1.3539  1.3546
 4067SOL     OW23659   3.312   3.887  15.100 -0.2830  0.4054 -0.2713
 4067SOL    HW123660   3.289   3.972  15.136  1.2553  0.9618 -0.6136
 4067SOL    HW223661   3.328   3.921  15.012  2.9097  3.8537  1.6424
 4068SOL     OW23662   2.992   1.859   7.970 -0.7447 -0.1478  0.4759
 4068SOL    HW123663   2.913   1.825   8.012  0.2453 -1.4690  1.2938
 4068SOL    HW223664   3.054   1.870   8.042  0.1650 -1.1700 -0.1476
 4069SOL     OW23665   2.593   1.350  15.530  0.4224  0.4514 -0.7582
 4069SOL    HW123666   2.563   1.332  15.441  1.9411  0.4478 -1.2703
 4069SOL    HW223667   2.663   1.285  15.535  0.1078  0.2461  0.9775
 4070SOL     OW23668   1.477   0.688   7.350 -0.1241 -0.3943 -0.2175
 4070SOL    HW123669   1.552   0.635   7.374 -0.9351 -0.7358  1.5591
 4070SOL    HW223670   1.504   0.780   7.355 -3.3425  0.6824 -2.1047
 4071SOL     OW23671   2.253   1.329   3.778  0.1421 -0.3002  0.2319
 4071SOL    HW123672   2.179   1.382   3.748 -0.5607 -1.2136  0.3664
 4071SOL    HW223673   2.216   1.246   3.749 -1.4852 -0.1090  1.7378
 4072SOL     OW23674   2.248   0.283  14.684  0.0417  0.0040 -0.0420
 4072SOL    HW123675   2.238   0.230  14.605 -0.3224  0.3216 -0.2099
 4072SOL    HW223676   2.278   0.363  14.641  1.7482 -1.5325 -1.7003
 4073SOL     OW23677   3.536   2.009   6.575 -0.1369  0.0437 -0.2923
 4073SOL    HW123678   3.447   2.035   6.598 -0.3868 -0.8099 -0.3020
 4073SOL    HW223679   3.565   2.096   6.549 -1.5617  1.0747  1.6097
 4074SOL     OW23680   1.689   0.909   8.459  0.5728 -1.4666  0.0067
 4074SOL    HW123681   1.700   0.934   8.551  0.7341  1.9375 -0.9424
 4074SOL    HW223682   1.619   0.966   8.426  0.1581 -0.1342  3.1742
 4075SOL     OW23683   3.695   2.414   1.196 -0.1316 -0.0750 -0.0524
 4075SOL    HW123684   3.599   2.412   1.195 -0.1552  1.5532 -0.1737
 4075SOL    HW223685   3.708   2.493   1.143  0.6199 -0.0679  0.1436
 4076SOL     OW23686   4.517   1.804   3.344 -0.3360  0.4112 -0.7800
 4076SOL    HW123687   4.454   1.862   3.386  0.1420  0.0663  0.4081
 4076SOL    HW223688   4.525   1.857   3.265 -0.2698  1.3563 -0.1372
 4077SOL     OW23689   3.615   2.716  10.229 -0.0701  0.3033  0.2542
 4077SOL    HW123690   3.535   2.688  10.183  0.2270  2.2156 -1.4184
 4077SOL    HW223691   3.578   2.789  10.278 -0.5512  1.7027 -2.1975
 4078SOL     OW23692   1.499   2.085   8.264 -0.0467  0.7654  0.1248
 4078SOL    HW123693   1.432   2.102   8.331 -1.4836 -0.6133 -0.9659
 4078SOL    HW223694   1.549   2.167   8.271 -1.4343  1.9073 -3.9074
 4079SOL     OW23695   1.527   2.420   8.601  0.3332 -0.0025  0.4911
 4079SOL    HW123696   1.621   2.437   8.597 -0.2325  2.4182 -3.0867
 4079SOL    HW223697   1.531   2.324   8.601 -0.8307 -0.0525  0.0360
 4080SOL     OW23698   2.121   4.153  11.817 -0.3517  0.0362  0.1621
 4080SOL    HW123699   2.108   4.076  11.872 -3.4065  2.2127  2.4701
 4080SOL    HW223700   2.055   4.209  11.857  0.1765  1.8035 -1.4308
 4081SOL     OW23701   0.107   4.484   8.470  0.3997  0.1823  0.4195
 4081SOL    HW123702   0.062   4.409   8.431  0.1233  0.3253  0.4643
 4081SOL    HW223703   0.042   4.511   8.535 -2.2002 -2.7315 -0.9614
 4082SOL     OW23704   2.799   1.101   2.088 -0.1219 -0.0628  0.1537
 4082SOL    HW123705   2.863   1.030   2.086 -0.3504 -0.2617 -0.0557
 4082SOL    HW223706   2.853   1.161   2.140  0.3137  0.3688 -0.8016
 4083SOL     OW23707   0.836   2.773   6.650  0.1301 -0.0255  0.1063
 4083SOL    HW123708   0.866   2.683   6.642 -1.8405 -0.6401 -0.3359
 4083SOL    HW223709   0.903   2.818   6.702  1.4190 -1.2300 -0.5297
 4084SOL     OW23710   3.471   4.544   6.550  0.7310  0.2951  0.1638
 4084SOL    HW123711   3.564   4.554   6.534  0.8486  0.8794  1.2235
 4084SOL    HW223712   3.465   4.553   6.645  1.0554 -1.9102  0.3915
 4085SOL     OW23713   1.887   4.369   8.722 -0.0689  0.3429 -0.9039
 4085SOL    HW123714   1.970   4.394   8.764 -1.2538 -0.4697  1.9241
 4085SOL    HW223715   1.831   4.406   8.790  0.1262  1.4062 -1.3250
 4086SOL     OW23716   4.392   2.869   0.474 -0.2734  0.7045 -1.0254
 4086SOL    HW123717   4.487   2.872   0.490  0.1034 -0.9048 -2.9707
 4086SOL    HW223718   4.370   2.961   0.456  0.2052  1.4033  2.1039
 4087SOL     OW23719   1.648   1.560   0.872  0.7233  0.2877 -0.4612
 4087SOL    HW123720   1.623   1.493   0.809  1.0133 -0.2470 -0.0100
 4087SOL    HW223721   1.735   1.538   0.906  0.4293  0.0828  0.1737
 4088SOL     OW23722   2.325   1.817   0.114  0.1200 -0.4231  0.2911
 4088SOL    HW123723   2.322   1.903   0.073  1.1787 -0.2990  0.4689
 4088SOL    HW223724   2.419   1.801   0.110  0.6669  2.3997  2.0249
 4089SOL     OW23725   0.392   1.964   6.736  0.0519 -1.2542 -0.2197
 4089SOL    HW123726   0.340   1.895   6.777  0.3475 -1.8912 -0.9380
 4089SOL    HW223727   0.361   2.037   6.791  0.8363 -1.4169  0.4479
 4090SOL     OW23728   3.067   0.083   5.984 -0.4871  0.5041  0.3776
 4090SOL    HW123729   3.040   0.166   5.946  0.6742  1.2263  1.1294
 4090SOL    HW223730   3.161   0.102   5.992 -0.5758  1.0704  0.0696
 4091SOL     OW23731   1.826   0.763  15.781 -0.1175  0.4200  0.3757
 4091SOL    HW123732   1.881   0.800  15.712  0.1712 -3.7094 -1.6239
 4091SOL    HW223733   1.743   0.760  15.733  0.0564  1.2977  0.0123
 4092SOL     OW23734   1.800   0.987  16.235  0.2390  0.3403 -0.3486
 4092SOL    HW123735   1.804   0.941  16.319 -0.0008  0.2343 -0.3970
 4092SOL    HW223736   1.888   1.003  16.201  0.0599  0.9150 -0.5442
 4093SOL     OW23737   0.096   1.602  11.532  0.4168 -0.4607 -0.2666
 4093SOL    HW123738   0.037   1.644  11.595  1.6203  0.8728 -0.0278
 4093SOL    HW223739   0.151   1.679  11.526  1.4736 -1.3731 -2.1115
 4094SOL     OW23740   4.474   4.250   7.173 -0.3230  0.0583 -0.1802
 4094SOL    HW123741   4.518   4.231   7.255  2.1696 -0.8337 -1.7349
 4094SOL    HW223742   4.454   4.160   7.147 -3.2278  0.8475 -0.6871
 4095SOL     OW23743   3.915   0.359   6.487  0.1500  0.2213 -0.1201
 4095SOL    HW123744   3.864   0.307   6.425 -0.6928 -0.2962  0.9825
 4095SOL    HW223745   3.994   0.305   6.495 -0.6520 -1.1274 -1.2943
 4096SOL     OW23746   0.418   4.194  14.348 -0.0429 -0.2783 -0.1980
 4096SOL    HW123747   0.444   4.215  14.437  1.1409  1.1401 -0.8784
 4096SOL    HW223748   0.389   4.281  14.322  1.8214  0.0998 -1.0072
 4097SOL     OW23749   4.659   4.616   0.030 -0.2953  0.1513 -0.2437
 4097SOL    HW123750   4.586   4.671   0.058 -0.1878 -1.0401  2.3122
 4097SOL    HW223751   4.721   4.672  17.676  0.6892  1.8256  3.0805
 4098SOL     OW23752   0.797   1.968   8.889 -0.3116  0.3533 -0.4635
 4098SOL    HW123753   0.769   1.972   8.798  0.4665 -1.5429 -0.7898
 4098SOL    HW223754   0.886   1.935   8.873  0.4531  1.0160  2.3535
 4099SOL     OW23755   1.748   2.189   4.054 -0.5469 -0.1452 -0.4206
 4099SOL    HW123756   1.790   2.169   3.970  1.1929  1.1236  0.1541
 4099SOL    HW223757   1.777   2.278   4.072 -2.6732  0.5675 -0.5383
 4100SOL     OW23758   1.614   3.326   1.938 -0.3060  0.5958  0.1917
 4100SOL    HW123759   1.542   3.356   1.994  0.8228  0.7672  1.5556
 4100SOL    HW223760   1.686   3.384   1.962  0.9528 -1.0678  0.3823
 4101SOL     OW23761   0.602   2.811  11.570 -0.2456  0.2675  0.4907
 4101SOL    HW123762   0.681   2.865  11.563  0.2441 -0.6111 -0.8042
 4101SOL    HW223763   0.592   2.784  11.479 -0.3846  2.8297 -0.2572
 4102SOL     OW23764   2.003   2.455   3.969 -0.2420 -0.5059 -0.3093
 4102SOL    HW123765   1.971   2.461   3.879  0.2014  2.9036 -0.2532
 4102SOL    HW223766   1.915   2.449   4.006 -0.0660 -2.2014 -0.2051
 4103SOL     OW23767   1.884   3.506   7.780 -0.3772  1.0967 -0.1775
 4103SOL    HW123768   1.941   3.538   7.710  1.2687  0.3013  0.8276
 4103SOL    HW223769   1.924   3.547   7.856  0.2649  0.3075 -0.0887
 4104SOL     OW23770   0.254   3.332  16.075 -0.1129 -0.5676 -0.0765
 4104SOL    HW123771   0.326   3.321  16.137 -0.0039 -1.4072 -0.3517
 4104SOL    HW223772   0.190   3.387  16.122 -1.3813 -0.0205 -2.4285
 4105SOL     OW23773   0.699   1.870   3.167  0.4245  0.6923  0.1439
 4105SOL    HW123774   0.622   1.889   3.113  1.2963  0.2469 -1.2391
 4105SOL    HW223775   0.764   1.862   3.098 -1.1032 -0.6651 -1.1475
 4106SOL     OW23776   0.744   3.710   5.106 -0.0330 -0.3321  0.3290
 4106SOL    HW123777   0.680   3.644   5.082 -0.0752  0.2581 -1.1741
 4106SOL    HW223778   0.825   3.658   5.099  0.4525  0.1827  2.0672
 4107SOL     OW23779   1.759   1.324   9.436 -0.5380  0.1203 -0.6334
 4107SOL    HW123780   1.715   1.352   9.355  1.2547 -1.4463 -2.1625
 4107SOL    HW223781   1.688   1.283   9.485 -0.0956 -0.2114 -0.2697
 4108SOL     OW23782   0.174   0.284   8.283  0.3134 -0.1689  0.2340
 4108SOL    HW123783   0.182   0.315   8.373 -0.2464 -3.8806  1.5773
 4108SOL    HW223784   0.100   0.222   8.281 -0.3215  0.5927  0.1325
 4109SOL     OW23785   4.258   4.243   2.976  0.2917  0.3268 -0.5380
 4109SOL    HW123786   4.337   4.296   2.971  1.1441 -0.8041  0.7662
 4109SOL    HW223787   4.213   4.287   3.049  0.3851  0.0016 -0.2837
 4110SOL     OW23788   1.162   0.947   0.612  0.1086 -0.1087 -0.0861
 4110SOL    HW123789   1.173   0.981   0.701 -1.1296  0.3701 -0.1309
 4110SOL    HW223790   1.131   1.018   0.556 -3.1366 -0.5975  1.0904
 4111SOL     OW23791   2.962   4.266   4.418  0.0786 -0.1717  0.5615
 4111SOL    HW123792   2.932   4.280   4.508 -1.5918 -2.7882  0.4004
 4111SOL    HW223793   2.926   4.180   4.399 -0.0254  0.1346 -0.6009
 4112SOL     OW23794   4.609   2.233   6.307  0.6265  0.4715 -0.1666
 4112SOL    HW123795   4.584   2.321   6.280  1.8371  0.8209 -0.1610
 4112SOL    HW223796   4.576   2.178   6.236  1.8327  1.6384 -1.6248
 4113SOL     OW23797   0.009   2.419  15.467  0.0691 -0.1247 -0.1987
 4113SOL    HW123798   0.032   2.506  15.500  0.8988 -0.4579  0.1110
 4113SOL    HW223799   0.063   2.364  15.524  1.5777 -0.4027 -1.8859
 4114SOL     OW23800   4.467   3.154   9.792  0.1125 -0.3128 -0.1914
 4114SOL    HW123801   4.558   3.144   9.820  0.0273 -0.7770 -0.0733
 4114SOL    HW223802   4.440   3.219   9.856 -0.6756  1.1209 -1.9739
 4115SOL     OW23803   1.776   4.131   8.082  0.3172  0.1100 -0.1333
 4115SOL    HW123804   1.770   4.110   8.175 -2.2478 -2.2049 -0.8056
 4115SOL    HW223805   1.870   4.145   8.069  0.4180 -1.8761 -1.6567
 4116SOL     OW23806   0.894   2.904  16.698  0.2186  0.2312  0.0584
 4116SOL    HW123807   0.816   2.864  16.734  0.7218 -1.5721 -0.8697
 4116SOL    HW223808   0.903   2.982  16.754 -0.4245 -0.4964  1.1675
 4117SOL     OW23809   3.985   1.635  10.544 -0.3526 -0.5885 -0.2671
 4117SOL    HW123810   3.891   1.620  10.556 -0.5704  0.4944 -0.6172
 4117SOL    HW223811   4.003   1.675  10.630  1.5979 -1.7903 -0.1205
 4118SOL     OW23812   2.351   1.295  10.150  0.2433  0.1489 -0.2185
 4118SOL    HW123813   2.362   1.201  10.165 -0.0768 -0.0063 -0.9524
 4118SOL    HW223814   2.444   1.314  10.150  0.5286 -1.2113 -1.7208
 4119SOL     OW23815   2.808   2.786   6.514 -0.8402 -0.2421  0.1460
 4119SOL    HW123816   2.828   2.766   6.606 -4.0385  0.5165  1.0098
 4119SOL    HW223817   2.778   2.705   6.472 -0.3761 -0.1523 -0.3517
 4120SOL     OW23818   1.589   3.509   4.213  0.3551  0.2094  0.2548
 4120SOL    HW123819   1.540   3.511   4.130 -1.3652  1.2422  1.3031
 4120SOL    HW223820   1.652   3.579   4.197 -1.1498  1.1192 -1.7360
 4121SOL     OW23821   0.363   3.071  15.957 -0.3789  0.1646 -0.0335
 4121SOL    HW123822   0.274   3.080  15.991  0.0013 -0.0120  1.0247
 4121SOL    HW223823   0.351   3.099  15.867 -0.3566  1.5793  0.4019
 4122SOL     OW23824   3.830   3.125   4.030  0.2472  0.1908  0.2867
 4122SOL    HW123825   3.907   3.179   4.009 -0.0439  1.3336  2.0731
 4122SOL    HW223826   3.768   3.195   4.051 -2.1231 -2.2538  1.3627
 4123SOL     OW23827   3.636   4.430   8.339  0.0479 -0.3153 -0.8220
 4123SOL    HW123828   3.623   4.525   8.332  0.2238 -0.2216  0.1468
 4123SOL    HW223829   3.675   4.416   8.253  2.1125  1.4988 -0.2000
 4124SOL     OW23830   4.082   0.506   5.821  0.0478  0.0109 -0.1630
 4124SOL    HW123831   4.105   0.597   5.802  1.3446 -0.2878 -0.0078
 4124SOL    HW223832   4.171   0.474   5.832  0.6721  2.0227  0.6127
 4125SOL     OW23833   0.511   1.710   2.009 -0.0761 -0.2511 -0.3814
 4125SOL    HW123834   0.503   1.740   2.099  1.3588 -1.2694  0.1022
 4125SOL    HW223835   0.599   1.671   2.006 -0.7613 -1.7338 -1.1552
 4126SOL     OW23836   2.376   0.981   4.397 -0.2554 -0.0686  0.1621
 4126SOL    HW123837   2.317   1.054   4.376  0.2171  0.6685  1.4309
 4126SOL    HW223838   2.424   0.980   4.313  0.7745 -3.5048  0.8212
 4127SOL     OW23839   0.784   2.821   5.587 -0.3656  0.4961  0.3720
 4127SOL    HW123840   0.712   2.864   5.633 -1.2109 -2.3524  1.7392
 4127SOL    HW223841   0.734   2.745   5.558 -1.2329  1.7025 -1.2780
 4128SOL     OW23842   3.369   4.008   8.738  0.1463 -0.4692 -0.4916
 4128SOL    HW123843   3.367   4.079   8.802  0.1635 -0.9651  0.0606
 4128SOL    HW223844   3.314   3.943   8.781 -0.7281 -1.2423 -2.8009
 4129SOL     OW23845   2.685   2.162   2.730  0.2866 -0.5643  0.0146
 4129SOL    HW123846   2.705   2.167   2.637  2.6514  0.4056  0.5632
 4129SOL    HW223847   2.617   2.229   2.736  0.5796 -0.1684 -1.2283
 4130SOL     OW23848   2.016   0.261   5.426  0.0306 -0.0755  0.2985
 4130SOL    HW123849   2.081   0.218   5.370  0.9491 -0.2286  1.4734
 4130SOL    HW223850   1.960   0.318   5.373 -1.0327 -2.0771 -0.7154
 4131SOL     OW23851   2.515   4.348  16.210 -0.1209  0.0141 -0.1881
 4131SOL    HW123852   2.493   4.407  16.137  0.1929  1.6658  1.0407
 4131SOL    HW223853   2.598   4.308  16.185  1.0377  1.6463  1.0466
 4132SOL     OW23854   1.684   3.634   4.575 -0.4282  0.2265  0.7829
 4132SOL    HW123855   1.604   3.586   4.554  0.2562  0.0324 -1.3509
 4132SOL    HW223856   1.698   3.677   4.491 -2.0636 -1.3419 -0.2782
 4133SOL     OW23857   0.244   1.858   0.295 -0.2698 -0.2068 -0.1656
 4133SOL    HW123858   0.294   1.794   0.244  0.3663 -1.9929  2.6904
 4133SOL    HW223859   0.157   1.850   0.256 -0.1871 -1.5219 -0.0763
 4134SOL     OW23860   3.229   0.714   8.168 -0.6501 -0.5592 -0.3609
 4134SOL    HW123861   3.151   0.734   8.115 -0.8103 -1.2338 -0.3749
 4134SOL    HW223862   3.188   0.670   8.242 -1.5975  0.7478 -0.0984
 4135SOL     OW23863   2.746   0.676   6.668  0.1006 -0.0420 -0.3190
 4135SOL    HW123864   2.781   0.588   6.679 -3.2257 -1.3766 -0.2619
 4135SOL    HW223865   2.656   0.643   6.675 -0.3062  0.4963 -2.9938
 4136SOL     OW23866   2.434   1.397   2.501 -0.4324 -0.1126 -0.2018
 4136SOL    HW123867   2.339   1.403   2.492 -0.3246  0.1597 -1.2103
 4136SOL    HW223868   2.454   1.479   2.455  1.2918 -0.2062  0.3657
 4137SOL     OW23869   2.664   4.257   1.771  0.0122  0.5336  0.2131
 4137SOL    HW123870   2.648   4.306   1.851 -3.0134  0.5829 -0.4341
 4137SOL    HW223871   2.759   4.243   1.767 -0.0959 -0.3605  0.9745
 4138SOL     OW23872   1.196   3.405   3.006 -0.5749  0.1897 -0.5638
 4138SOL    HW123873   1.181   3.367   3.093  0.2776 -0.9229 -0.8902
 4138SOL    HW223874   1.289   3.383   2.995  0.3030  2.8451  1.6014
 4139SOL     OW23875   4.610   4.551   2.581  0.1345  0.5209  0.3457
 4139SOL    HW123876   4.568   4.468   2.601  0.2071 -0.0537 -1.9089
 4139SOL    HW223877   4.571   4.602   2.652 -1.1067 -1.1363  0.8260
 4140SOL     OW23878   3.282   3.558   7.456  0.1504 -0.3039  0.1073
 4140SOL    HW123879   3.273   3.476   7.408  0.4120 -0.2836  0.0244
 4140SOL    HW223880   3.377   3.562   7.469 -0.1221 -0.6737  2.2307
 4141SOL     OW23881   4.003   2.273   3.822  0.3480 -0.2978  0.3330
 4141SOL    HW123882   4.020   2.197   3.878 -0.8554  0.8653  2.2873
 4141SOL    HW223883   3.978   2.344   3.882  1.0787 -0.3458  0.6968
 4142SOL     OW23884   3.805   2.014  17.245  0.7198 -0.7083 -0.5989
 4142SOL    HW123885   3.769   1.995  17.331 -0.4728  0.6904 -0.7736
 4142SOL    HW223886   3.770   2.102  17.230 -1.1423 -1.7423 -2.3509
 4143SOL     OW23887   0.145   4.655   3.079  0.0759  0.0647  0.2378
 4143SOL    HW123888   0.101   0.014   3.104 -2.9769 -1.4013 -0.3074
 4143SOL    HW223889   0.143   4.665   2.984  1.2091  2.3405  0.4499
 4144SOL     OW23890   1.846   0.569   5.529  0.0887 -0.3372 -0.6360
 4144SOL    HW123891   1.864   0.521   5.449 -0.3031  1.4533 -1.8117
 4144SOL    HW223892   1.867   0.501   5.593 -0.1562 -0.0690 -0.2751
 4145SOL     OW23893   4.708   1.773  11.709 -0.4316 -0.2118  0.2174
 4145SOL    HW123894   4.699   1.773  11.805 -0.2291  1.9081  0.2515
 4145SOL    HW223895   4.667   1.858  11.692 -2.3539 -1.4951 -1.5250
 4146SOL     OW23896   1.969   0.018   4.473  0.2441 -0.0932  0.7492
 4146SOL    HW123897   2.041   4.711   4.528  0.7772  1.3433  0.8228
 4146SOL    HW223898   1.917   4.661   4.466  0.0996  0.0347  0.3453
 4147SOL     OW23899   1.537   2.941  14.145 -0.3725 -0.7845 -0.1022
 4147SOL    HW123900   1.486   2.995  14.084  0.1922  1.1654  1.1411
 4147SOL    HW223901   1.559   2.874  14.081  0.2008 -0.2681 -0.4479
 4148SOL     OW23902   4.595   1.904   8.047  0.3861  0.3537 -0.0277
 4148SOL    HW123903   4.518   1.923   7.994  1.7110  0.8103 -1.8097
 4148SOL    HW223904   4.583   1.971   8.113 -1.4099 -0.8241  0.8362
 4149SOL     OW23905   0.893   2.548   6.277  0.2466  0.2310  0.7409
 4149SOL    HW123906   0.829   2.568   6.345 -0.0634  1.6206  0.0375
 4149SOL    HW223907   0.843   2.526   6.198  1.7122  2.3898 -0.7962
 4150SOL     OW23908   2.567   3.915   4.322  0.6487 -0.0168 -0.0667
 4150SOL    HW123909   2.524   3.976   4.263 -0.8651  1.0183  2.0840
 4150SOL    HW223910   2.622   3.862   4.265  1.5805 -0.0613  0.8678
 4151SOL     OW23911   3.923   2.473   3.989 -0.5272  0.0344 -0.1853
 4151SOL    HW123912   3.852   2.533   3.966 -0.8134  0.0796  0.8036
 4151SOL    HW223913   4.001   2.528   3.998  0.2189 -1.1124  0.3090
 4152SOL     OW23914   2.852   1.322   6.358  0.3085  0.2327  0.3567
 4152SOL    HW123915   2.845   1.339   6.452  0.2569  0.5178  0.3024
 4152SOL    HW223916   2.779   1.262   6.342  1.8261 -1.9679  1.6128
 4153SOL     OW23917   4.517   4.588   4.481 -0.4545  0.2428  0.4150
 4153SOL    HW123918   4.472   4.534   4.417 -3.1677  2.2228  0.6619
 4153SOL    HW223919   4.462   4.666   4.478  0.4776  0.9675  2.0978
 4154SOL     OW23920   2.273   2.279   2.231  0.1534  0.1823  0.2173
 4154SOL    HW123921   2.250   2.361   2.275  0.1148 -0.9562  2.3081
 4154SOL    HW223922   2.195   2.225   2.228 -0.1878  0.7272 -0.5588
 4155SOL     OW23923   3.547   4.331   6.224 -0.2120 -0.0133 -0.3569
 4155SOL    HW123924   3.584   4.385   6.293 -0.6367  1.9830 -1.7147
 4155SOL    HW223925   3.480   4.278   6.268 -0.4226  0.8443  0.3435
 4156SOL     OW23926   0.465   3.499  16.990 -0.5989 -0.1620  0.2548
 4156SOL    HW123927   0.511   3.421  17.021  0.0316 -0.2938 -1.0213
 4156SOL    HW223928   0.476   3.553  17.068 -3.4638 -0.2070  0.7193
 4157SOL     OW23929   0.993   2.982  10.621  0.1132 -0.4153 -0.0053
 4157SOL    HW123930   1.062   3.034  10.661 -0.8938 -0.2308  1.5135
 4157SOL    HW223931   1.013   2.978  10.528 -1.0744  3.2797 -0.4139
 4158SOL     OW23932   2.121   0.443  12.715  0.2359 -0.2329 -0.3278
 4158SOL    HW123933   2.156   0.517  12.765 -2.3869  1.8959 -1.6218
 4158SOL    HW223934   2.183   0.378  12.748 -0.2628  0.0836  1.2302
 4159SOL     OW23935   3.634   0.550   3.217  0.3551 -0.1527 -0.4395
 4159SOL    HW123936   3.540   0.549   3.235  0.4209  0.9135 -0.0274
 4159SOL    HW223937   3.642   0.644   3.200  0.2882  0.0051  0.3941
 4160SOL     OW23938   0.780   3.326   1.817 -0.2094 -0.4427  0.3761
 4160SOL    HW123939   0.758   3.313   1.909 -0.8691  1.6788  0.5104
 4160SOL    HW223940   0.842   3.399   1.818 -1.5376  0.6652  2.0993
 4161SOL     OW23941   4.031   3.668  14.261 -0.5814 -0.1897 -0.4547
 4161SOL    HW123942   4.079   3.751  14.267  3.1411 -2.3740 -0.1566
 4161SOL    HW223943   4.084   3.607  14.314 -0.1778  0.3418 -0.2352
 4162SOL     OW23944   1.062   3.605   4.554  0.2547 -0.2283 -0.2197
 4162SOL    HW123945   1.087   3.697   4.565 -1.1613  0.2131 -0.6270
 4162SOL    HW223946   1.015   3.589   4.636 -0.7331  3.4909 -0.0234
 4163SOL     OW23947   4.664   0.437   7.242 -0.7413  0.5836 -0.1064
 4163SOL    HW123948   4.709   0.521   7.245 -0.6712  0.5917 -1.8067
 4163SOL    HW223949   4.579   0.469   7.272 -0.8002  1.1328 -0.8617
 4164SOL     OW23950   0.521   2.075   6.318  0.5003 -0.2468  0.0357
 4164SOL    HW123951   0.456   2.109   6.380  0.6717 -2.4190  1.3897
 4164SOL    HW223952   0.600   2.121   6.347  2.9646 -2.3559 -3.3491
 4165SOL     OW23953   2.485   2.573   2.239 -0.4441  0.2218  0.5028
 4165SOL    HW123954   2.487   2.566   2.334 -1.1384  1.0230  0.5723
 4165SOL    HW223955   2.567   2.524   2.225 -0.0763  1.1694 -0.6995
 4166SOL     OW23956   0.200   1.576  17.553  0.7976  0.3937  0.0571
 4166SOL    HW123957   0.230   1.485  17.549 -2.6522 -0.7159 -0.5451
 4166SOL    HW223958   0.159   1.567  17.639 -1.8640  1.1394 -1.1410
 4167SOL     OW23959   3.244   2.177   6.011  0.5145  0.6080  0.0809
 4167SOL    HW123960   3.246   2.186   5.915 -3.3150  0.3284  0.0031
 4167SOL    HW223961   3.152   2.174   6.036  0.9293  1.0660  1.6535
 4168SOL     OW23962   0.767   1.827  17.079  0.2137  0.0298  0.0724
 4168SOL    HW123963   0.691   1.773  17.102 -0.0090  0.9007  1.3592
 4168SOL    HW223964   0.773   1.894  17.147  1.5464  0.7251 -0.7219
 4169SOL     OW23965   4.287   2.601   9.144  0.2948  0.2349  0.1263
 4169SOL    HW123966   4.214   2.539   9.148 -0.3458  0.7982 -2.6166
 4169SOL    HW223967   4.231   2.679   9.149 -0.0889  0.1271 -2.6997
 4170SOL     OW23968   3.649   2.373   2.264  0.6293 -0.1416  0.1385
 4170SOL    HW123969   3.632   2.376   2.170 -2.1169 -0.0071  0.6260
 4170SOL    HW223970   3.596   2.297   2.287 -0.0402  0.6758  1.3291
 4171SOL     OW23971   1.398   1.183   3.053 -0.1330  1.1641 -0.3897
 4171SOL    HW123972   1.330   1.204   3.118  0.7521  0.2489  0.8300
 4171SOL    HW223973   1.408   1.092   3.081 -0.1350  1.0410 -0.7960
 4172SOL     OW23974   3.580   3.779   4.971 -0.0275  0.7309  0.1447
 4172SOL    HW123975   3.552   3.696   5.009  1.0718  0.1996 -0.1938
 4172SOL    HW223976   3.674   3.778   4.986 -0.1020 -2.1043  0.4421
 4173SOL     OW23977   3.430   2.081   0.595 -0.4071  0.5902  0.1010
 4173SOL    HW123978   3.376   2.089   0.673  0.3472 -0.1868  0.6978
 4173SOL    HW223979   3.401   1.996   0.561 -3.3922  0.1212  3.8374
 4174SOL     OW23980   1.537   1.962   6.116 -0.4319 -0.0289  0.6245
 4174SOL    HW123981   1.553   1.998   6.029 -2.4901  0.2534  0.3604
 4174SOL    HW223982   1.442   1.958   6.117 -0.5882  3.0887 -0.1105
 4175SOL     OW23983   3.743   2.028  10.006 -0.0412  0.2879  0.1636
 4175SOL    HW123984   3.728   2.103  10.063 -1.5330 -0.6832  1.0544
 4175SOL    HW223985   3.655   2.008   9.975 -0.5638  0.3706  1.6083
 4176SOL     OW23986   0.243   3.581  15.877  0.1464  0.0616  0.7209
 4176SOL    HW123987   0.156   3.601  15.841 -1.0368 -1.7700  2.6362
 4176SOL    HW223988   0.249   3.644  15.949 -1.2464  2.3625 -1.1282
 4177SOL     OW23989   3.183   2.656  12.280  0.2723 -0.1048 -0.7167
 4177SOL    HW123990   3.237   2.697  12.348  0.1856 -0.4543 -0.4400
 4177SOL    HW223991   3.095   2.675  12.312  0.9836  0.1977  1.0861
 4178SOL     OW23992   3.874   1.986   1.901 -0.2426  0.2099 -0.6785
 4178SOL    HW123993   3.797   2.043   1.903 -1.1218 -1.0537  0.5928
 4178SOL    HW223994   3.845   1.927   1.831 -1.0640  2.0149 -1.8741
 4179SOL     OW23995   3.855   0.058   8.914 -0.7472 -0.1907  0.2969
 4179SOL    HW123996   3.914   0.058   8.838 -0.8913 -0.2918  0.1866
 4179SOL    HW223997   3.886   4.703   8.960  0.5355  0.5883  0.7607
 4180SOL     OW23998   0.105   0.668   4.419  0.5114  0.3707  0.3512
 4180SOL    HW123999   0.189   0.631   4.446  1.0619  0.9345 -0.5939
 4180SOL    HW224000   0.092   0.617   4.339  2.5815 -1.4806  1.1907
 4181SOL     OW24001   3.281   0.256   6.132  0.1656 -0.3019 -0.2836
 4181SOL    HW124002   3.275   0.231   6.225 -0.2695 -1.0423 -0.5121
 4181SOL    HW224003   3.200   0.309   6.129 -0.9627 -1.7854  3.6464
 4182SOL     OW24004   0.990   3.377   6.294  0.0223 -0.4029  0.0712
 4182SOL    HW124005   1.014   3.321   6.368  2.1080 -1.0155 -1.0885
 4182SOL    HW224006   0.992   3.318   6.220  1.6480 -0.9202  0.5320
 4183SOL     OW24007   1.196   3.315   3.289  0.1026 -0.2781 -0.1588
 4183SOL    HW124008   1.276   3.280   3.329  1.0303  1.9531 -0.0859
 4183SOL    HW224009   1.197   3.410   3.300  0.9089 -0.5656  2.3537
 4184SOL     OW24010   2.562   1.517   7.320  0.2873  0.4338  0.0371
 4184SOL    HW124011   2.542   1.425   7.337  1.9690  0.3064  1.2610
 4184SOL    HW224012   2.635   1.523   7.259  0.7106 -2.4874  0.2874
 4185SOL     OW24013   2.887   2.199   0.221 -0.2313  0.4279  0.5203
 4185SOL    HW124014   2.828   2.260   0.177  0.1238  0.6262  0.3221
 4185SOL    HW224015   2.972   2.238   0.199 -0.8253  0.5841 -1.4516
 4186SOL     OW24016   3.671   3.335   1.400  0.3206 -0.6382 -0.0980
 4186SOL    HW124017   3.687   3.416   1.447 -1.0977 -0.1916 -0.3841
 4186SOL    HW224018   3.754   3.288   1.408  0.6011 -0.1540 -0.1857
 4187SOL     OW24019   2.827   1.281  10.821 -0.0998  0.4550 -0.4980
 4187SOL    HW124020   2.800   1.237  10.740 -1.0190  0.0563  0.0277
 4187SOL    HW224021   2.750   1.313  10.867 -1.6512 -2.3856 -1.1011
 4188SOL     OW24022   3.359   3.673   5.601  0.4795  0.0118  0.4364
 4188SOL    HW124023   3.282   3.717   5.635 -0.3361 -1.7554  0.8847
 4188SOL    HW224024   3.324   3.671   5.513  2.4768  0.0864 -0.3654
 4189SOL     OW24025   3.127   0.042  10.191  0.8686 -0.0602  0.4193
 4189SOL    HW124026   3.207   4.716  10.213  0.2679 -1.2546 -0.0525
 4189SOL    HW224027   3.084   4.699  10.137 -0.8133  0.8014  0.7128
 4190SOL     OW24028   3.199   1.025   2.217  0.3352  0.0421 -0.0363
 4190SOL    HW124029   3.290   1.021   2.189 -0.1351  1.2986 -1.7876
 4190SOL    HW224030   3.159   1.043   2.132  0.1942 -3.8656 -0.7951
 4191SOL     OW24031   0.152   0.553   3.167 -0.8160  0.4198  0.1824
 4191SOL    HW124032   0.114   0.472   3.201  0.2948 -0.0428  0.3227
 4191SOL    HW224033   0.111   0.570   3.082 -1.5510 -0.2800  0.4012
 4192SOL     OW24034   0.540   2.136   5.235 -0.4756  0.5681 -0.1640
 4192SOL    HW124035   0.585   2.123   5.318  0.5069 -2.5644 -1.1681
 4192SOL    HW224036   0.478   2.199   5.271 -0.8862 -0.0801  0.2613
 4193SOL     OW24037   1.480   2.418   1.761 -0.1390  0.1938  0.2657
 4193SOL    HW124038   1.428   2.488   1.721  1.3448  0.6052 -0.9262
 4193SOL    HW224039   1.485   2.359   1.686 -0.2192  0.6890 -0.1331
 4194SOL     OW24040   1.727   0.118   4.470  0.6574  0.2487 -0.4575
 4194SOL    HW124041   1.734   0.210   4.493  1.8127  0.6095 -2.2109
 4194SOL    HW224042   1.812   0.094   4.507  0.1396 -1.2526 -0.2278
 4195SOL     OW24043   0.191   2.421   8.650 -0.2627 -0.3960  0.4589
 4195SOL    HW124044   0.278   2.414   8.689 -0.3398  0.0337  0.7082
 4195SOL    HW224045   0.145   2.357   8.703  0.0822 -2.2047 -1.4328
 4196SOL     OW24046   3.278   2.625   2.611 -0.0119 -0.1609  0.6116
 4196SOL    HW124047   3.327   2.701   2.641  0.3187 -0.5022  0.9372
 4196SOL    HW224048   3.321   2.562   2.669 -1.0673  0.2093  1.7936
 4197SOL     OW24049   0.445   2.859  14.241 -0.0448  0.0220  0.2568
 4197SOL    HW124050   0.386   2.831  14.311 -0.0168 -1.6948 -0.3984
 4197SOL    HW224051   0.528   2.814  14.255 -0.1633  0.1862  1.4508
 4198SOL     OW24052   2.153   4.227   6.280 -0.1087  0.2196  0.5407
 4198SOL    HW124053   2.166   4.137   6.307 -0.3738 -0.5021 -1.7651
 4198SOL    HW224054   2.060   4.233   6.258  0.2438 -0.9443 -1.1950
 4199SOL     OW24055   0.502   1.670   4.114  0.5306  0.3754 -0.0687
 4199SOL    HW124056   0.536   1.672   4.203  0.6268 -3.6019 -0.0175
 4199SOL    HW224057   0.418   1.709   4.140  1.3022  2.0377 -0.0886
 4200SOL     OW24058   1.956   4.478  16.586  0.0908  0.1870  0.1185
 4200SOL    HW124059   2.006   4.428  16.521  0.2609  0.4070  0.0783
 4200SOL    HW224060   1.991   4.429  16.661  0.2954 -0.1438 -0.1868
 4201SOL     OW24061   3.384   4.616   5.151  0.0068  0.2238  0.0763
 4201SOL    HW124062   3.345   4.534   5.122 -0.4946  0.3833  0.2964
 4201SOL    HW224063   3.312   4.680   5.148  0.7726  1.0431 -0.9280
 4202SOL     OW24064   0.506   2.751   3.578 -0.2891  0.0030  0.0439
 4202SOL    HW124065   0.447   2.821   3.549  0.7137  0.7366 -0.2231
 4202SOL    HW224066   0.465   2.732   3.662 -0.8707 -3.4169 -1.0198
 4203SOL     OW24067   3.906   2.863  13.016  0.1813 -0.2821 -0.2645
 4203SOL    HW124068   3.971   2.835  12.951  0.3992 -2.2348  0.7915
 4203SOL    HW224069   3.882   2.947  12.976 -0.5710  0.3083  1.4192
 4204SOL     OW24070   3.918   3.223  11.330  0.4291  0.0311  0.2470
 4204SOL    HW124071   3.975   3.150  11.308 -0.4620 -0.5719 -0.0393
 4204SOL    HW224072   3.876   3.181  11.405  1.7478  0.3625  1.1687
 4205SOL     OW24073   2.670   2.939  16.108 -0.7090 -0.5567  0.2739
 4205SOL    HW124074   2.593   2.994  16.095  1.6406  2.9218  0.9626
 4205SOL    HW224075   2.669   2.885  16.029 -0.7581  0.3828 -0.3681
 4206SOL     OW24076   1.256   2.684   4.020 -0.0349 -0.0565 -0.8463
 4206SOL    HW124077   1.261   2.758   4.080  0.1776  0.1643 -1.1319
 4206SOL    HW224078   1.248   2.613   4.084  1.0706  1.0295  0.4825
 4207SOL     OW24079   0.529   3.157   0.389 -0.1375  0.0489 -0.3293
 4207SOL    HW124080   0.601   3.111   0.346 -0.9814 -0.2202 -1.4564
 4207SOL    HW224081   0.541   3.241   0.346 -2.2144  0.1000 -0.7909
 4208SOL     OW24082   0.561   3.376   0.258 -0.1109  0.1669  0.3874
 4208SOL    HW124083   0.489   3.418   0.212  2.4644  4.0261 -0.1181
 4208SOL    HW224084   0.614   3.452   0.284  1.3646 -0.7832  0.1823
 4209SOL     OW24085   2.330   0.400  13.890 -0.3675 -0.4077 -0.2145
 4209SOL    HW124086   2.424   0.405  13.870 -0.1752 -2.4406  0.2284
 4209SOL    HW224087   2.321   0.315  13.933 -0.6755  0.1437  0.7982
 4210SOL     OW24088   3.759   2.356   5.071 -0.0779  0.2036  0.2390
 4210SOL    HW124089   3.767   2.381   4.979  0.4694 -0.4700  0.1000
 4210SOL    HW224090   3.842   2.311   5.088  1.3648  2.4500 -0.7702
 4211SOL     OW24091   3.918   3.591  16.759  0.4029  0.1190  0.3806
 4211SOL    HW124092   3.908   3.562  16.668 -1.0485  2.5529 -0.2216
 4211SOL    HW224093   3.824   3.602  16.776 -0.1606 -1.3116 -1.7900
 4212SOL     OW24094   0.908   2.080   4.329 -0.0455  0.0407  0.0727
 4212SOL    HW124095   0.988   2.060   4.281  0.0092 -0.4524  0.3774
 4212SOL    HW224096   0.849   2.113   4.261 -1.7193 -1.5990  0.7318
 4213SOL     OW24097   1.759   0.262   2.104  0.3084 -0.0597  0.3305
 4213SOL    HW124098   1.705   0.287   2.179 -1.2989  2.0243 -1.5104
 4213SOL    HW224099   1.707   0.293   2.030  0.0127 -0.5678  0.3245
 4214SOL     OW24100   1.913   1.005   0.860  0.0010  0.3415 -0.3667
 4214SOL    HW124101   1.908   0.910   0.875  1.0578  0.1875 -0.9200
 4214SOL    HW224102   1.895   1.043   0.945  0.1688 -1.6621  0.5631
 4215SOL     OW24103   0.037   4.226   0.790  0.1544  0.0855  0.0823
 4215SOL    HW124104   0.008   4.151   0.738  0.8568 -1.3589  1.7927
 4215SOL    HW224105   0.093   4.272   0.727 -0.3067  1.2208  0.4903
 4216SOL     OW24106   1.961   1.774  10.087 -0.4073 -0.4555 -0.2560
 4216SOL    HW124107   1.917   1.700  10.129 -0.6048  0.0350  0.4111
 4216SOL    HW224108   1.969   1.844  10.153  1.5347 -1.4092  0.4944
 4217SOL     OW24109   3.688   2.590   7.230 -0.4882 -0.6561  0.8112
 4217SOL    HW124110   3.599   2.587   7.197  0.8954 -1.4599 -2.8074
 4217SOL    HW224111   3.680   2.648   7.306  0.9029 -0.4416  0.7906
 4218SOL     OW24112   3.483   0.466   8.295 -0.1724  0.5434  0.2888
 4218SOL    HW124113   3.505   0.437   8.384 -4.6233 -0.0925  1.1822
 4218SOL    HW224114   3.396   0.428   8.289  0.3825 -0.8844  1.3810
 4219SOL     OW24115   3.448   3.243   5.506 -0.5529 -0.1951  0.4426
 4219SOL    HW124116   3.388   3.280   5.441  2.2992  1.1836 -1.3628
 4219SOL    HW224117   3.526   3.233   5.452 -0.6032 -1.5807  0.6357
 4220SOL     OW24118   1.096   4.646   9.381 -0.2808  0.0066  1.0227
 4220SOL    HW124119   1.093   4.555   9.410 -2.0878  0.6455  2.8783
 4220SOL    HW224120   1.190   4.653   9.364 -0.4173 -1.5608 -0.4101
 4221SOL     OW24121   4.328   4.478   6.886  0.3424  0.8107 -0.1200
 4221SOL    HW124122   4.336   4.445   6.976  1.6052  1.1304 -0.1095
 4221SOL    HW224123   4.396   4.422   6.847 -1.3380 -0.2306 -1.5445
 4222SOL     OW24124   2.912   2.279   0.522  0.0202  0.1530  0.2675
 4222SOL    HW124125   2.840   2.338   0.544 -1.4870 -2.0272  1.2074
 4222SOL    HW224126   2.893   2.252   0.432 -0.0721  1.4223 -0.0887
 4223SOL     OW24127   0.309   2.174  11.650  0.1787  0.1196  0.2485
 4223SOL    HW124128   0.282   2.230  11.723  1.2961 -0.7256  1.2909
 4223SOL    HW224129   0.320   2.090  11.695  0.0915 -0.2723 -0.4606
 4224SOL     OW24130   1.692   1.940  13.498 -0.5554 -0.2122 -0.4970
 4224SOL    HW124131   1.610   1.987  13.484 -0.7301 -0.4746 -0.3513
 4224SOL    HW224132   1.660   1.854  13.524 -1.5727  0.7126  1.3266
 4225SOL     OW24133   1.776   0.177   9.787 -0.2516 -0.3653  0.2978
 4225SOL    HW124134   1.699   0.139   9.828  0.4441 -0.0505  1.9173
 4225SOL    HW224135   1.811   0.232   9.857 -1.5125  1.9639 -0.9027
 4226SOL     OW24136   2.302   2.600   2.782 -0.0984 -0.6029  1.0095
 4226SOL    HW124137   2.266   2.512   2.787  0.5692 -0.8476  1.6323
 4226SOL    HW224138   2.238   2.647   2.835 -1.5652  0.3598 -1.6105
 4227SOL     OW24139   1.651   1.750   3.795  0.2587  0.0687  0.2471
 4227SOL    HW124140   1.675   1.658   3.797 -0.4210 -0.0717  1.7586
 4227SOL    HW224141   1.602   1.756   3.877 -1.4255 -1.4197 -0.6467
 4228SOL     OW24142   0.458   4.472  13.730  0.2885  0.3932 -0.2422
 4228SOL    HW124143   0.503   4.449  13.649 -0.8298 -1.4566 -0.3235
 4228SOL    HW224144   0.522   4.497  13.797  1.2526  1.1640 -1.4474
 4229SOL     OW24145   2.341   2.974   9.506 -0.0014  0.0906 -0.3770
 4229SOL    HW124146   2.310   3.001   9.419  2.1439  2.2284 -0.4770
 4229SOL    HW224147   2.347   2.878   9.500 -0.3218  0.0680 -0.2936
 4230SOL     OW24148   2.348   1.273   3.031  0.0379 -0.3227  0.2639
 4230SOL    HW124149   2.256   1.301   3.022 -0.7794 -3.9137 -2.6652
 4230SOL    HW224150   2.360   1.256   2.938  0.6454  0.0252  0.2826
 4231SOL     OW24151   4.716   3.647   2.628 -0.2186 -0.6624 -0.0467
 4231SOL    HW124152   4.670   3.643   2.711 -0.5782  0.4052 -0.1888
 4231SOL    HW224153   4.697   3.737   2.600 -3.3683 -1.4600 -0.5090
 4232SOL     OW24154   2.604   1.069   5.847 -0.0051  0.4338  0.3367
 4232SOL    HW124155   2.603   1.058   5.752 -1.4698 -0.1176  0.4159
 4232SOL    HW224156   2.585   0.979   5.873 -0.0019  0.4863  0.5220
 4233SOL     OW24157   4.660   4.194   1.075  0.0832  0.4993  0.3590
 4233SOL    HW124158   4.666   4.239   0.991 -1.1155 -0.0588 -0.0279
 4233SOL    HW224159   4.659   4.103   1.048  0.1110  0.2351  1.2392
 4234SOL     OW24160   1.874   0.959   4.508  0.0474  0.3680 -0.2479
 4234SOL    HW124161   1.962   0.920   4.506 -0.3091 -0.5533  2.0291
 4234SOL    HW224162   1.893   1.047   4.473  0.2560  0.4833  0.1569
 4235SOL     OW24163   1.179   1.012   7.831  1.2406 -0.1155 -0.1953
 4235SOL    HW124164   1.090   0.988   7.806  1.4381  0.5284 -1.4774
 4235SOL    HW224165   1.176   1.106   7.815  1.6032 -0.1513 -0.4604
 4236SOL     OW24166   0.636   2.521   1.555  0.2827  0.0802 -0.0703
 4236SOL    HW124167   0.642   2.541   1.461 -2.4500  2.4713  0.2748
 4236SOL    HW224168   0.560   2.568   1.587 -0.7740 -0.1926 -2.1860
 4237SOL     OW24169   0.974   3.533   5.058  0.4035  0.4260 -0.4562
 4237SOL    HW124170   0.948   3.441   5.053  0.9531  0.3185 -1.3266
 4237SOL    HW224171   1.055   3.530   5.107 -0.3419 -1.2049  0.6691
 4238SOL     OW24172   4.071   2.363  16.584  0.8825  0.2539  0.4556
 4238SOL    HW124173   4.034   2.430  16.526 -2.2155 -0.5985  1.4207
 4238SOL    HW224174   4.071   2.406  16.669 -2.5734 -1.6984  1.4699
 4239SOL     OW24175   0.643   2.624  15.411  0.0407  0.1398 -0.6581
 4239SOL    HW124176   0.728   2.616  15.367  0.0675 -0.0344 -0.5757
 4239SOL    HW224177   0.586   2.667  15.347  1.8800  0.0625 -2.3356
 4240SOL     OW24178   1.641   2.759  12.547  0.3976  0.2466 -0.9576
 4240SOL    HW124179   1.565   2.806  12.515 -2.1958 -2.3026  1.4214
 4240SOL    HW224180   1.607   2.725  12.630  0.1758 -0.0782 -1.1814
 4241SOL     OW24181   1.796   0.787   2.603 -0.3874 -0.4308 -0.2564
 4241SOL    HW124182   1.748   0.816   2.525 -0.1046 -0.9289 -0.6089
 4241SOL    HW224183   1.874   0.748   2.564 -0.5703 -1.3849  0.3445
 4242SOL     OW24184   4.461   3.198   9.506 -0.0365 -0.2931  0.0322
 4242SOL    HW124185   4.446   3.159   9.592  2.8425  2.4062  1.7254
 4242SOL    HW224186   4.553   3.212   9.527  0.4076 -0.0826 -2.0933
 4243SOL     OW24187   0.971   2.809   4.809 -0.3434 -0.4864  0.2281
 4243SOL    HW124188   0.932   2.805   4.896 -1.7872  1.5585 -0.3214
 4243SOL    HW224189   0.888   2.818   4.764 -0.6616  1.2828  1.1700
 4244SOL     OW24190   2.883   1.837  16.264  0.0006  0.1072  0.1723
 4244SOL    HW124191   2.812   1.778  16.288 -0.7158 -0.9795 -4.7288
 4244SOL    HW224192   2.885   1.885  16.347  0.9828 -0.7058  0.6132
 4245SOL     OW24193   4.041   4.136   7.816 -0.1398  0.0962  0.5044
 4245SOL    HW124194   4.123   4.122   7.864  1.6848  2.0847 -2.0108
 4245SOL    HW224195   4.052   4.220   7.771  0.4324 -0.9562 -1.3061
 4246SOL     OW24196   3.710   1.835   4.950 -0.0688  0.1852 -0.2328
 4246SOL    HW124197   3.738   1.846   5.041 -1.9951 -0.6242  0.4505
 4246SOL    HW224198   3.624   1.875   4.942 -0.1024  0.4964  1.8709
 4247SOL     OW24199   2.448   0.455   4.276 -0.0954 -0.1702 -0.2034
 4247SOL    HW124200   2.418   0.544   4.297 -0.6065 -0.5348  0.6073
 4247SOL    HW224201   2.371   0.417   4.234 -0.9081  0.4497  0.7371
 4248SOL     OW24202   2.475   4.196   8.713  0.2452 -0.8260 -0.5335
 4248SOL    HW124203   2.565   4.224   8.727 -0.5528  1.6745 -0.4822
 4248SOL    HW224204   2.437   4.262   8.655 -0.1480 -3.2146 -2.9832
 4249SOL     OW24205   0.838   4.117   6.602 -0.6916 -0.1847 -0.2210
 4249SOL    HW124206   0.816   4.210   6.591  0.6200  0.2378  0.6924
 4249SOL    HW224207   0.855   4.083   6.514  0.8480 -1.9132  0.7451
 4250SOL     OW24208   0.360   1.687  15.076 -0.3681 -0.4509 -0.0990
 4250SOL    HW124209   0.412   1.748  15.024  0.8109 -1.4563 -0.1070
 4250SOL    HW224210   0.431   1.628  15.100 -2.4224 -3.4158 -1.3953
 4251SOL     OW24211   4.340   1.346   0.755 -0.0947  0.5790 -0.4831
 4251SOL    HW124212   4.287   1.415   0.716  2.9008  1.6048 -2.7109
 4251SOL    HW224213   4.379   1.393   0.829 -0.0571 -1.4869  0.8086
 4252SOL     OW24214   2.791   0.714   3.914  0.0307  0.3474  0.2417
 4252SOL    HW124215   2.853   0.779   3.946  0.7060  0.5488 -1.5171
 4252SOL    HW224216   2.725   0.725   3.983  0.8122  4.0828  0.3744
 4253SOL     OW24217   1.957   4.114  10.986 -0.4320  0.5576 -0.4982
 4253SOL    HW124218   2.012   4.141  10.913 -1.3634  0.1799 -1.3236
 4253SOL    HW224219   1.955   4.198  11.033  0.2311 -0.3093  1.1058
 4254SOL     OW24220   2.074   0.106  16.994 -0.1465 -0.4559 -0.6686
 4254SOL    HW124221   2.136   0.055  17.045  0.9598  1.5044 -0.0390
 4254SOL    HW224222   2.029   0.036  16.947 -0.6269 -2.1277  2.2537
 4255SOL     OW24223   0.349   1.909   6.174  0.6574  0.3465  0.1953
 4255SOL    HW124224   0.263   1.923   6.215  0.0099 -1.0765 -0.6779
 4255SOL    HW224225   0.405   1.971   6.220 -0.7097  1.6964  0.0618
 4256SOL     OW24226   2.593   4.441  13.690  0.3584 -0.1315  0.2684
 4256SOL    HW124227   2.519   4.501  13.696 -0.5718 -1.1779 -0.9639
 4256SOL    HW224228   2.550   4.363  13.725 -0.2812  0.4109  0.6904
 4257SOL     OW24229   2.163   2.197   2.576 -0.4184  0.5144 -0.0292
 4257SOL    HW124230   2.184   2.283   2.538 -1.7212  1.0949  0.5741
 4257SOL    HW224231   2.069   2.212   2.587 -0.0725  1.0645  2.1978
 4258SOL     OW24232   0.675   4.246   8.200 -0.3222 -0.6686  0.1654
 4258SOL    HW124233   0.666   4.336   8.231 -0.1305 -0.6082  0.0490
 4258SOL    HW224234   0.695   4.192   8.275  0.2337  0.7473  1.0436
 4259SOL     OW24235   0.975   4.502  12.891  0.1642  0.3605  0.3333
 4259SOL    HW124236   1.054   4.549  12.918 -0.7974  1.0892  1.9251
 4259SOL    HW224237   0.919   4.570  12.855  0.1155  0.5456  0.7601
 4260SOL     OW24238   1.834   2.897   3.724 -0.3254  0.2583 -0.8410
 4260SOL    HW124239   1.869   2.885   3.812 -0.9701 -2.1456 -0.9147
 4260SOL    HW224240   1.765   2.961   3.745  1.0648  1.3711  0.3627
 4261SOL     OW24241   1.306   2.942  11.675  0.2470 -0.3013  1.0779
 4261SOL    HW124242   1.287   2.849  11.691 -0.9492 -0.2682 -0.1527
 4261SOL    HW224243   1.395   2.935  11.642 -0.0008 -0.7861  0.5113
 4262SOL     OW24244   0.976   0.820  15.265 -0.5326 -0.8576 -0.0571
 4262SOL    HW124245   0.980   0.890  15.331 -0.8196  0.5570 -1.5459
 4262SOL    HW224246   0.915   0.758  15.306 -3.4440  2.4283  0.6639
 4263SOL     OW24247   0.183   2.256  15.590 -0.5986 -0.1832  0.2608
 4263SOL    HW124248   0.195   2.231  15.499  1.1425 -0.0039  0.4539
 4263SOL    HW224249   0.235   2.184  15.627  2.2671  1.5559 -0.4279
 4264SOL     OW24250   3.919   3.692   1.106  0.4296 -0.0902 -0.1647
 4264SOL    HW124251   3.931   3.603   1.140  1.1268  0.3775  0.8074
 4264SOL    HW224252   3.825   3.686   1.123  1.0812 -2.1934  2.9325
 4265SOL     OW24253   0.793   3.279   2.266  0.4765  0.8003  0.2020
 4265SOL    HW124254   0.840   3.302   2.346  1.2826 -2.7010  0.7691
 4265SOL    HW224255   0.850   3.208   2.235 -0.8172  0.2311 -0.8808
 4266SOL     OW24256   1.962   2.116   4.688  0.4775  0.4461 -0.5670
 4266SOL    HW124257   1.989   2.056   4.618  2.3362  1.8906 -1.0809
 4266SOL    HW224258   1.877   2.078   4.714  1.2903 -0.6209  0.5434
 4267SOL     OW24259   4.521   3.469   2.121 -0.8621 -0.3361  0.2113
 4267SOL    HW124260   4.603   3.447   2.166 -1.3133 -0.9243  0.7394
 4267SOL    HW224261   4.553   3.547   2.076  1.7054 -1.4374  0.0629
 4268SOL     OW24262   4.495   3.839   6.134 -0.2277  1.0456 -0.4023
 4268SOL    HW124263   4.497   3.915   6.192  0.9879  0.9777 -0.3456
 4268SOL    HW224264   4.584   3.803   6.135 -0.8500 -0.5071  0.3254
 4269SOL     OW24265   3.812   1.169   0.025  0.9767  0.0355 -0.2733
 4269SOL    HW124266   3.903   1.155   0.050  0.2984  0.1756  2.2779
 4269SOL    HW224267   3.824   1.227  17.643 -1.5105  0.0234 -0.6981
 4270SOL     OW24268   0.469   2.405   3.214 -0.1512  0.6153  0.4078
 4270SOL    HW124269   0.424   2.322   3.223 -0.5401  0.7642 -0.1683
 4270SOL    HW224270   0.546   2.400   3.271 -1.1912  0.0210  1.7288
 4271SOL     OW24271   2.665   2.753   2.496 -0.2708  0.2651  0.1850
 4271SOL    HW124272   2.685   2.662   2.475 -1.6201  0.1710 -0.6829
 4271SOL    HW224273   2.691   2.750   2.588  2.1442  0.2929 -0.4869
 4272SOL     OW24274   4.337   2.399   6.443  0.2815 -0.5235 -0.2632
 4272SOL    HW124275   4.424   2.378   6.476 -0.4617  0.7008  2.4222
 4272SOL    HW224276   4.310   2.471   6.500 -1.3783 -1.1848 -0.2184
 4273SOL     OW24277   3.668   0.380   0.789 -0.0970  1.1003  0.3897
 4273SOL    HW124278   3.639   0.334   0.867 -2.1730  1.7841  0.0270
 4273SOL    HW224279   3.762   0.387   0.806 -0.3093 -0.7991  2.2663
 4274SOL     OW24280   2.928   3.013   8.378  0.0664  0.7519 -0.1224
 4274SOL    HW124281   2.893   2.924   8.379 -2.3236  1.7230  1.8637
 4274SOL    HW224282   2.866   3.052   8.315 -0.9153 -0.1489  0.2899
 4275SOL     OW24283   0.084   0.418   2.347 -0.1475 -0.2895 -0.4540
 4275SOL    HW124284   0.020   0.483   2.318 -1.0954 -1.0021  0.0492
 4275SOL    HW224285   0.033   0.338   2.339  0.7667 -0.9151  0.0333
 4276SOL     OW24286   2.246   0.068  12.993  0.3109  0.5347  0.3013
 4276SOL    HW124287   2.205   0.011  13.058 -0.3049  1.4889  0.7360
 4276SOL    HW224288   2.316   0.107  13.046 -0.5826  1.8582  0.4883
 4277SOL     OW24289   3.754   1.016  12.021 -0.5306 -0.0158 -0.0593
 4277SOL    HW124290   3.715   0.948  11.966  2.0019 -0.9846 -0.6430
 4277SOL    HW224291   3.676   1.072  12.030  0.0307  0.9297 -1.0509
 4278SOL     OW24292   3.678   0.447   1.987 -0.1514  0.4666 -0.0449
 4278SOL    HW124293   3.626   0.525   2.004  0.7585  0.8224  1.0727
 4278SOL    HW224294   3.715   0.420   2.071  0.0542 -0.2809 -0.3762
 4279SOL     OW24295   0.098   3.739  17.636 -0.0968 -0.1081 -0.6787
 4279SOL    HW124296   0.165   3.672  17.622  1.1408  0.8243  0.7842
 4279SOL    HW224297   0.031   3.692  17.585 -1.4825  1.2601 -0.1093
 4280SOL     OW24298   1.239   2.177   8.367 -0.5060  0.3468  0.6836
 4280SOL    HW124299   1.209   2.210   8.452 -0.0725  0.0243  0.9612
 4280SOL    HW224300   1.295   2.251   8.342  0.4878 -0.2424  1.1732
 4281SOL     OW24301   2.997   3.362  16.895  0.4920  0.0352  0.1106
 4281SOL    HW124302   3.012   3.373  16.989  2.0740  1.8375 -0.3479
 4281SOL    HW224303   2.968   3.271  16.889 -1.6824  0.8085 -0.7853
 4282SOL     OW24304   1.526   2.676  14.644 -0.2596 -0.0944  0.2433
 4282SOL    HW124305   1.494   2.742  14.706 -0.3780 -0.2800  0.3788
 4282SOL    HW224306   1.516   2.595  14.693  0.0502 -0.0483  0.3800
 4283SOL     OW24307   0.533   3.326  11.780 -0.0678 -0.1780  0.3658
 4283SOL    HW124308   0.585   3.266  11.726 -1.3481 -0.1746 -0.8746
 4283SOL    HW224309   0.511   3.378  11.703  1.7652 -0.1869 -0.1622
 4284SOL     OW24310   2.451   1.437  11.720  0.1382  0.2886  0.7896
 4284SOL    HW124311   2.461   1.365  11.657  4.8265  0.6054  1.1197
 4284SOL    HW224312   2.385   1.400  11.779 -0.6960 -2.2116 -1.7100
 4285SOL     OW24313   3.974   4.511   7.962  0.2256 -0.8281 -0.6016
 4285SOL    HW124314   3.951   4.602   7.977 -3.3984 -1.8423  0.1140
 4285SOL    HW224315   3.890   4.472   7.939  0.2489 -1.2649  0.0534
 4286SOL     OW24316   3.467   1.035   7.294 -0.3188 -0.1382  0.3614
 4286SOL    HW124317   3.479   1.101   7.226 -1.5082  0.3423  0.6190
 4286SOL    HW224318   3.476   0.952   7.248  2.9424  1.1078 -1.2774
 4287SOL     OW24319   0.886   1.256  11.543  1.1397  0.0874  0.2900
 4287SOL    HW124320   0.847   1.246  11.630  0.1064  1.6854  0.0157
 4287SOL    HW224321   0.944   1.327  11.568  1.8977 -0.3264 -0.2898
 4288SOL     OW24322   0.821   4.321   5.923  0.5388  0.3017 -0.2523
 4288SOL    HW124323   0.862   4.365   5.848 -0.0700 -0.3343 -0.9510
 4288SOL    HW224324   0.890   4.335   5.988  0.1830  1.8462 -0.2062
 4289SOL     OW24325   3.089   3.324   3.804 -0.0414  0.5436  0.0334
 4289SOL    HW124326   3.158   3.262   3.827 -0.0129  0.3644 -0.5243
 4289SOL    HW224327   3.029   3.316   3.878 -1.5390  2.4643 -0.9864
 4290SOL     OW24328   2.159   3.148   7.628  0.1940 -0.4056 -0.0954
 4290SOL    HW124329   2.193   3.235   7.606 -0.3240 -0.2852 -0.4218
 4290SOL    HW224330   2.095   3.157   7.699  1.1113  0.9663  0.5418
 4291SOL     OW24331   2.484   0.006  11.854 -0.0151 -0.3154 -0.3349
 4291SOL    HW124332   2.555   0.025  11.792 -0.5429  2.9127  0.0386
 4291SOL    HW224333   2.458   4.642  11.822  0.1163 -0.4549 -0.0621
 4292SOL     OW24334   3.625   1.968   8.576  0.5692 -0.5062  0.1083
 4292SOL    HW124335   3.621   1.900   8.643 -0.3442  0.4063  0.9965
 4292SOL    HW224336   3.645   2.043   8.632 -0.0120 -0.3930  0.1680
 4293SOL     OW24337   0.226   3.932   2.399  0.6037  0.3422 -0.4109
 4293SOL    HW124338   0.180   3.944   2.482  0.5795 -0.5611 -0.2951
 4293SOL    HW224339   0.181   3.853   2.369 -1.4687  1.2840  0.2313
 4294SOL     OW24340   2.626   1.486   5.039  0.1165  0.3294 -0.2687
 4294SOL    HW124341   2.607   1.406   5.089 -0.4542  1.5097  1.4108
 4294SOL    HW224342   2.715   1.472   5.007  0.4124  0.0108  0.6942
 4295SOL     OW24343   4.055   2.210   8.263  0.0901 -0.3817 -0.1200
 4295SOL    HW124344   4.051   2.120   8.230  0.7934  0.3873 -2.3212
 4295SOL    HW224345   4.143   2.242   8.242 -0.5524 -0.0536 -2.3297
 4296SOL     OW24346   3.465   1.071  11.846  0.1200  0.4038  0.0562
 4296SOL    HW124347   3.426   1.151  11.812 -0.4837  0.7833  1.6746
 4296SOL    HW224348   3.483   1.089  11.938 -1.4520  0.9648  0.2540
 4297SOL     OW24349   3.173   3.399   2.939 -0.0804 -0.4564  0.1747
 4297SOL    HW124350   3.085   3.429   2.918  0.1652 -0.0756 -0.3408
 4297SOL    HW224351   3.164   3.359   3.025 -1.2813 -0.3861  0.0807
 4298SOL     OW24352   1.359   3.813   7.948 -0.4079 -0.7455 -0.1890
 4298SOL    HW124353   1.400   3.864   7.878  1.6125 -0.1262  1.4639
 4298SOL    HW224354   1.267   3.813   7.920 -1.4306 -2.2459  3.1378
 4299SOL     OW24355   4.125   1.098  15.484 -0.5580 -0.2495  0.2107
 4299SOL    HW124356   4.036   1.063  15.481 -1.3057  1.7101 -0.6635
 4299SOL    HW224357   4.165   1.029  15.537  0.0262 -1.8164 -2.2466
 4300SOL     OW24358   3.605   2.830   3.190  0.3938  0.2324  0.6496
 4300SOL    HW124359   3.597   2.755   3.248  2.0082 -0.4284  0.0270
 4300SOL    HW224360   3.689   2.874   3.207  0.4544  0.5796 -0.5107
 4301SOL     OW24361   3.876   0.499   8.933 -0.2507 -0.3241 -0.5102
 4301SOL    HW124362   3.880   0.420   8.987  0.1081 -0.7534 -1.1755
 4301SOL    HW224363   3.907   0.568   8.993  0.7213 -0.8198 -0.4324
 4302SOL     OW24364   0.282   1.006   3.467 -0.1757  0.4515  0.2168
 4302SOL    HW124365   0.225   0.956   3.526  0.6121  0.1924  0.7641
 4302SOL    HW224366   0.243   1.092   3.485 -0.3536  0.5952 -0.8594
 4303SOL     OW24367   0.161   3.879  13.619 -0.0015  0.4666  0.3644
 4303SOL    HW124368   0.156   3.921  13.705  0.3372 -1.1321  1.1625
 4303SOL    HW224369   0.105   3.803  13.634 -2.0995  1.5455 -2.0082
 4304SOL     OW24370   4.698   0.851  11.991  0.3380 -0.5503 -0.0433
 4304SOL    HW124371   4.704   0.769  11.941 -1.0408  0.2619 -1.5474
 4304SOL    HW224372   4.613   0.832  12.031  0.2641  0.2656  0.1855
 4305SOL     OW24373   2.919   0.428  10.147  0.5888  0.4167 -0.7685
 4305SOL    HW124374   2.867   0.351  10.123  1.8333 -0.0631 -1.9423
 4305SOL    HW224375   2.997   0.393  10.104  1.4679 -0.3336  1.4280
 4306SOL     OW24376   1.655   3.771   5.885  0.0815 -0.0472  0.1175
 4306SOL    HW124377   1.709   3.844   5.915 -0.6194  0.2383  0.7103
 4306SOL    HW224378   1.682   3.697   5.940 -0.8660  0.0954  0.7930
 4307SOL     OW24379   4.040   0.294   0.289 -0.1506  0.6187 -0.6491
 4307SOL    HW124380   3.954   0.253   0.283 -0.8651  2.1834 -0.9882
 4307SOL    HW224381   4.018   0.387   0.288 -3.3425 -0.1094  1.3992
 4308SOL     OW24382   3.615   3.271  13.082  0.0069  0.2162 -0.0609
 4308SOL    HW124383   3.681   3.233  13.025  0.8061  0.0780  0.9630
 4308SOL    HW224384   3.672   3.313  13.146 -1.2124 -1.5437  2.1553
 4309SOL     OW24385   4.357   0.924   8.159 -0.1861 -0.3089 -0.5412
 4309SOL    HW124386   4.446   0.890   8.164 -0.4451 -0.8593  0.4475
 4309SOL    HW224387   4.368   1.017   8.176  1.0244 -0.4065 -0.8511
 4310SOL     OW24388   4.645   2.117   3.127  0.5034 -0.0146  0.8723
 4310SOL    HW124389   4.580   2.172   3.171 -1.3002  1.0357 -3.1616
 4310SOL    HW224390   4.691   2.182   3.073 -0.7830  0.1220 -0.0374
 4311SOL     OW24391   2.571   3.756   5.454  0.1493 -0.1079 -0.1246
 4311SOL    HW124392   2.532   3.670   5.444  0.0509  0.0708 -1.2383
 4311SOL    HW224393   2.559   3.770   5.548 -1.5252  1.7765 -0.6069
 4312SOL     OW24394   3.005   3.854   3.672  0.0943 -0.0283  0.0663
 4312SOL    HW124395   3.092   3.894   3.673 -0.1068  0.3961  1.0003
 4312SOL    HW224396   3.021   3.762   3.693 -0.5355  0.1429  1.3195
 4313SOL     OW24397   0.998   1.622   6.719 -0.0576  0.0904 -0.1529
 4313SOL    HW124398   0.983   1.696   6.660  1.9027  0.2448 -0.4533
 4313SOL    HW224399   1.093   1.617   6.715 -0.0450  0.1813 -0.0028
 4314SOL     OW24400   4.581   3.091   5.148  0.0308  0.4168 -0.2886
 4314SOL    HW124401   4.632   3.078   5.068 -0.3560 -1.4975 -0.2100
 4314SOL    HW224402   4.600   3.184   5.160 -0.7024  0.3754  1.1253
 4315SOL     OW24403   3.979   3.837   5.636  0.5071  0.2030 -0.7225
 4315SOL    HW124404   3.947   3.925   5.653  1.2430  0.0293  1.4963
 4315SOL    HW224405   4.027   3.820   5.717  0.3052 -1.6642 -0.9844
 4316SOL     OW24406   2.105   3.209   6.397 -0.5608 -0.0274 -0.3873
 4316SOL    HW124407   2.160   3.161   6.459  2.9227  0.6213 -2.9918
 4316SOL    HW224408   2.109   3.150   6.322  0.0618 -0.8699  0.3054
 4317SOL     OW24409   2.223   3.473   4.691 -0.1973 -0.3755  0.0041
 4317SOL    HW124410   2.301   3.509   4.733 -1.3890  1.6924  0.4419
 4317SOL    HW224411   2.239   3.380   4.708  0.5185 -0.1113  0.8191
 4318SOL     OW24412   1.628   2.960   4.427 -0.0290 -0.8169  0.0290
 4318SOL    HW124413   1.632   3.045   4.383  0.4823 -1.8446 -1.8868
 4318SOL    HW224414   1.574   2.896   4.381 -0.9713  0.0044 -0.0047
 4319SOL     OW24415   3.684   0.057   2.793  0.4078 -0.8729 -0.3965
 4319SOL    HW124416   3.610   0.057   2.731  0.7063  0.5806 -0.7435
 4319SOL    HW224417   3.752   0.086   2.733 -1.5607  0.9289 -1.7778
 4320SOL     OW24418   2.773   3.423   3.122  0.1817 -0.1945  0.3626
 4320SOL    HW124419   2.697   3.375   3.089 -0.6477  1.1415  0.3315
 4320SOL    HW224420   2.810   3.361   3.185 -1.0390  1.8687  3.0951
 4321SOL     OW24421   0.257   2.309   9.875  0.3914 -0.6827 -0.6412
 4321SOL    HW124422   0.281   2.266   9.957  1.6833 -0.9330 -1.1547
 4321SOL    HW224423   0.211   2.238   9.829 -0.4451  0.4691 -1.5736
 4322SOL     OW24424   1.594   1.337   0.255 -0.7838  0.4127 -0.2085
 4322SOL    HW124425   1.661   1.277   0.287  0.4787  0.7990 -2.1538
 4322SOL    HW224426   1.608   1.400   0.325 -0.6443  1.6138 -1.3292
 4323SOL     OW24427   4.254   2.469   9.889  0.1847 -0.3852  0.0064
 4323SOL    HW124428   4.191   2.407   9.926  2.3555 -2.3534  0.3783
 4323SOL    HW224429   4.332   2.415   9.904  1.0265  0.7898 -0.0785
 4324SOL     OW24430   0.427   2.347   1.269  0.2325  0.0260  0.2096
 4324SOL    HW124431   0.403   2.255   1.260  0.2927  0.1388 -1.0370
 4324SOL    HW224432   0.428   2.368   1.363  0.1963  1.3658 -0.0836
 4325SOL     OW24433   3.699   4.263  17.386  0.3827  0.1567  0.2515
 4325SOL    HW124434   3.676   4.172  17.364 -2.6832  1.1307 -0.6579
 4325SOL    HW224435   3.665   4.264  17.475 -0.6311  2.5962 -0.1715
 4326SOL     OW24436   4.217   2.324   6.072 -0.2774  0.0076 -0.1992
 4326SOL    HW124437   4.176   2.290   5.993  3.7555 -1.5589 -1.6250
 4326SOL    HW224438   4.164   2.403   6.085  1.4873  1.6571 -3.0285
 4327SOL     OW24439   3.851   0.882   6.521 -0.2206 -0.2004  0.0126
 4327SOL    HW124440   3.829   0.915   6.433  2.8933  0.1727 -0.6083
 4327SOL    HW224441   3.902   0.806   6.494  0.1707  0.7348 -1.8985
 4328SOL     OW24442   1.926   3.606   5.818  0.0580  0.4692 -0.2533
 4328SOL    HW124443   2.003   3.650   5.856  0.1164 -1.2502  1.6070
 4328SOL    HW224444   1.946   3.618   5.726 -0.2970  0.8375 -0.2833
 4329SOL     OW24445   3.044   3.037   5.289 -0.7883  0.1831 -0.1497
 4329SOL    HW124446   3.013   3.066   5.374 -0.8483  2.4994 -0.9598
 4329SOL    HW224447   2.963   3.042   5.238 -0.8587 -1.7066 -0.2011
 4330SOL     OW24448   1.822   3.422   9.024 -0.4294 -0.0887  0.0432
 4330SOL    HW124449   1.738   3.398   9.063 -0.4049 -0.9310 -0.4323
 4330SOL    HW224450   1.821   3.513   9.055 -1.2989 -0.2032  0.3426
 4331SOL     OW24451   1.475   2.522   4.846  0.0523 -0.0567  0.4377
 4331SOL    HW124452   1.493   2.487   4.934 -0.2646  0.8884  0.8753
 4331SOL    HW224453   1.549   2.582   4.841  1.6257 -2.0542 -0.0189
 4332SOL     OW24454   3.269   1.250  11.754  0.4166  0.1917  0.2592
 4332SOL    HW124455   3.239   1.327  11.804 -0.5412  1.2590 -1.9665
 4332SOL    HW224456   3.213   1.252  11.677  3.2756  1.1697 -1.7793
 4333SOL     OW24457   4.649   2.286   1.171 -0.0104  0.0966  0.3509
 4333SOL    HW124458   4.723   2.299   1.231  1.2098  0.3546 -1.1964
 4333SOL    HW224459   4.578   2.330   1.218  1.4254 -0.3848  3.0050
 4334SOL     OW24460   4.431   2.428   1.293  0.0086 -0.0192  0.3933
 4334SOL    HW124461   4.379   2.471   1.224 -0.1973 -0.8138  0.0568
 4334SOL    HW224462   4.359   2.432   1.357 -0.3554  1.0061 -0.0730
 4335SOL     OW24463   3.919   0.784  12.586  0.4481  0.0912  0.1624
 4335SOL    HW124464   3.937   0.873  12.619 -0.9794  1.1349 -1.8693
 4335SOL    HW224465   3.907   0.814  12.496 -2.7915  3.3450  1.6645
 4336SOL     OW24466   1.389   2.715   8.071  0.0982 -0.4578  0.1721
 4336SOL    HW124467   1.329   2.667   8.128  0.2091  0.0026  0.6811
 4336SOL    HW224468   1.437   2.762   8.140 -2.2829  0.2286  1.3486
 4337SOL     OW24469   1.933   3.685   3.301  0.0456  0.1026 -0.1773
 4337SOL    HW124470   1.873   3.683   3.226  1.2794 -1.0770 -1.1402
 4337SOL    HW224471   1.884   3.751   3.350  0.0488  0.3792 -0.5451
 4338SOL     OW24472   4.280   0.593  12.903  0.3384 -0.4418 -0.4762
 4338SOL    HW124473   4.233   0.673  12.879 -2.0355 -1.0654  2.1447
 4338SOL    HW224474   4.312   0.619  12.989 -0.0181 -0.6609 -0.2793
 4339SOL     OW24475   2.816   4.204   6.548  0.7542 -0.1993  0.0493
 4339SOL    HW124476   2.849   4.293   6.562 -3.0063  1.3985 -1.2756
 4339SOL    HW224477   2.888   4.156   6.590  2.3171  0.8504 -1.4361
 4340SOL     OW24478   4.637   0.023   5.588  0.3877  0.1269  0.2406
 4340SOL    HW124479   4.643   4.686   5.661  1.5984  2.2177  1.8608
 4340SOL    HW224480   4.616   4.676   5.526  0.1677  0.4233 -0.0176
 4341SOL     OW24481   2.344   3.373  15.775  0.0958  0.0737 -0.1803
 4341SOL    HW124482   2.386   3.382  15.689 -0.2440 -2.6405 -0.6087
 4341SOL    HW224483   2.315   3.282  15.780 -0.3676  0.3517  1.9298
 4342SOL     OW24484   1.206   1.329   7.559 -0.3142  0.2069  0.5707
 4342SOL    HW124485   1.239   1.415   7.530  1.9854 -0.3746  1.5003
 4342SOL    HW224486   1.204   1.327   7.654  1.0098 -0.9025  0.5747
 4343SOL     OW24487   1.152   2.622   8.898 -0.2749 -0.1717  0.3342
 4343SOL    HW124488   1.229   2.589   8.852 -2.3068  0.0626 -3.1765
 4343SOL    HW224489   1.123   2.546   8.949 -2.8042  0.1453 -0.6292
 4344SOL     OW24490   2.831   1.688   4.043  0.2193 -0.3325 -0.1420
 4344SOL    HW124491   2.741   1.681   4.073  1.4201  0.4032  3.6190
 4344SOL    HW224492   2.858   1.752   4.109  1.9191  0.0574 -1.2002
 4345SOL     OW24493   3.868   2.758   8.894  0.2206 -0.1100 -0.5322
 4345SOL    HW124494   3.845   2.830   8.835 -2.5576 -0.9029 -0.4161
 4345SOL    HW224495   3.924   2.814   8.948 -0.0532 -3.1703  2.9534
 4346SOL     OW24496   1.321   4.108   2.658  0.5095 -0.1617  0.1050
 4346SOL    HW124497   1.331   4.070   2.571 -0.4688  3.7597 -1.7267
 4346SOL    HW224498   1.234   4.144   2.640  0.3573 -1.0184 -0.8396
 4347SOL     OW24499   3.302   4.333  13.430  0.2401  0.1327  0.1025
 4347SOL    HW124500   3.273   4.424  13.416  1.3930  0.7190  1.5375
 4347SOL    HW224501   3.389   4.351  13.464  0.1126 -0.2237  0.6225
 4348SOL     OW24502   2.660   1.564   7.970  0.0400 -0.4203  0.4485
 4348SOL    HW124503   2.748   1.567   8.008  1.3780  0.9090 -2.6751
 4348SOL    HW224504   2.612   1.508   8.031 -0.5207  1.3590  1.6179
 4349SOL     OW24505   1.046   0.525   7.303  0.3780 -0.2821 -0.6653
 4349SOL    HW124506   1.125   0.526   7.250  0.1697  1.2953 -0.9622
 4349SOL    HW224507   1.023   0.617   7.321 -0.7368 -0.5450 -0.7146
 4350SOL     OW24508   4.690   0.145   3.101  0.4954  0.4059 -0.3799
 4350SOL    HW124509   4.682   0.223   3.047 -0.2452 -0.5464 -1.6299
 4350SOL    HW224510   0.009   0.194   3.172  0.2539  0.2508 -0.1288
 4351SOL     OW24511   4.449   1.672   8.059  0.1940  0.3115 -0.2249
 4351SOL    HW124512   4.506   1.747   8.074 -1.0614  1.4975 -1.3544
 4351SOL    HW224513   4.502   1.595   8.078  0.8361  1.0761  1.0351
 4352SOL     OW24514   2.285   4.363  14.312 -0.1389  0.2140  0.0901
 4352SOL    HW124515   2.227   4.300  14.354  0.1330  0.6609  1.1634
 4352SOL    HW224516   2.265   4.345  14.221 -1.3559 -1.6146  0.7196
 4353SOL     OW24517   0.295   3.785   0.196 -0.2005 -0.3772  0.3981
 4353SOL    HW124518   0.277   3.798   0.102  2.3689  2.1808  0.2285
 4353SOL    HW224519   0.343   3.866   0.217  0.1236 -0.6213  0.5905
 4354SOL     OW24520   3.998   0.868   4.980  0.0894  0.2197  0.2729
 4354SOL    HW124521   3.925   0.874   4.918  0.6530 -1.5083 -0.5367
 4354SOL    HW224522   3.969   0.783   5.011  0.7155 -0.3958 -0.8404
 4355SOL     OW24523   4.174   2.007   8.489  0.1534 -0.1826  0.1773
 4355SOL    HW124524   4.137   1.955   8.417  1.2181  0.7026 -1.0080
 4355SOL    HW224525   4.206   2.086   8.446 -0.0508  0.0435  0.4417
 4356SOL     OW24526   0.820   3.338   7.139  0.2591  0.3397  0.1355
 4356SOL    HW124527   0.910   3.316   7.114  0.5004 -1.1148  2.2775
 4356SOL    HW224528   0.843   3.393   7.214 -0.8713  1.3092 -0.2195
 4357SOL     OW24529   2.412   3.596   0.734 -0.7693 -0.0625 -0.3682
 4357SOL    HW124530   2.374   3.511   0.712 -2.7109  0.9158 -0.8625
 4357SOL    HW224531   2.467   3.607   0.656  0.4507  3.3485  0.9817
 4358SOL     OW24532   2.289   3.882  12.262  0.3418 -0.1904  0.4566
 4358SOL    HW124533   2.271   3.840  12.346 -1.4385 -0.5620 -0.1091
 4358SOL    HW224534   2.350   3.828  12.212  0.6447  1.5870 -1.1174
 4359SOL     OW24535   1.200   3.848  15.230  0.2263  0.1441 -0.3637
 4359SOL    HW124536   1.112   3.833  15.264 -0.4408  2.3781 -1.1324
 4359SOL    HW224537   1.226   3.927  15.277 -1.2342 -0.3155  1.2249
 4360SOL     OW24538   0.983   1.803   3.964  0.1790  0.6372 -1.1604
 4360SOL    HW124539   0.950   1.737   4.025 -1.0035  1.5060 -0.8625
 4360SOL    HW224540   0.986   1.741   3.891 -1.5179 -2.3088  1.2400
 4361SOL     OW24541   0.833   1.472  12.786  0.3323 -0.8983  0.2330
 4361SOL    HW124542   0.743   1.502  12.802  0.9054  1.1043 -0.2305
 4361SOL    HW224543   0.874   1.530  12.850  1.4928  0.5026 -1.7640
 4362SOL     OW24544   4.075   2.457   9.208 -0.5215  0.1890 -0.5014
 4362SOL    HW124545   3.980   2.460   9.199 -0.3142  0.5684 -2.6399
 4362SOL    HW224546   4.077   2.369   9.245  3.0792  0.5008  0.0745
 4363SOL     OW24547   0.940   0.390   4.410  0.4763 -0.1864 -0.2176
 4363SOL    HW124548   0.852   0.424   4.396  1.3779  3.1771  2.1487
 4363SOL    HW224549   0.950   0.398   4.505  1.1504 -1.3269 -0.1895
 4364SOL     OW24550   0.815   1.759  16.331  0.2792  0.2111 -0.1731
 4364SOL    HW124551   0.890   1.816  16.349 -0.0397  0.6098 -0.0984
 4364SOL    HW224552   0.869   1.688  16.295  0.8451  0.8558 -0.5957
 4365SOL     OW24553   4.042   1.830  13.234 -0.1158  0.0878 -0.1978
 4365SOL    HW124554   4.063   1.827  13.327 -0.3031 -0.2483 -0.1659
 4365SOL    HW224555   4.008   1.744  13.210  0.2935  0.3594 -1.7894
 4366SOL     OW24556   2.300   0.709   4.824  0.0707  0.0811 -0.4571
 4366SOL    HW124557   2.339   0.655   4.893 -0.8185  1.1052  0.8525
 4366SOL    HW224558   2.379   0.757   4.796 -1.0662  1.4424 -1.3295
 4367SOL     OW24559   1.768   4.509   8.940 -0.3646 -0.2071 -0.0386
 4367SOL    HW124560   1.727   4.437   8.988 -1.9697 -0.7372 -2.2281
 4367SOL    HW224561   1.701   4.575   8.927 -1.6430 -1.6190 -0.5219
 4368SOL     OW24562   0.384   3.252   2.489  0.5783 -0.1959 -0.1580
 4368SOL    HW124563   0.409   3.214   2.405  0.1802 -1.6390  0.3573
 4368SOL    HW224564   0.333   3.180   2.529 -3.2140  1.9902 -1.0385
 4369SOL     OW24565   4.383   2.061  16.021  0.2472 -0.4941  0.4876
 4369SOL    HW124566   4.420   2.099  16.100  0.1935  1.6671 -0.5199
 4369SOL    HW224567   4.445   2.088  15.953 -0.2717  2.1363  1.0692
 4370SOL     OW24568   3.965   1.798   3.936 -0.9040 -0.8669 -0.4590
 4370SOL    HW124569   3.895   1.862   3.938  0.7841  0.9805 -0.8430
 4370SOL    HW224570   4.015   1.828   3.860  0.5947 -0.2255  0.7884
 4371SOL     OW24571   3.262   4.668  12.653  0.5831  0.4523  0.4857
 4371SOL    HW124572   3.238   4.580  12.683 -1.8544  0.8765 -0.2247
 4371SOL    HW224573   3.237   4.659  12.561  1.7119 -0.0897  0.2323
 4372SOL     OW24574   4.525   3.186  10.108  0.0843 -0.5110  0.7159
 4372SOL    HW124575   4.575   3.225  10.180 -1.4667  1.5351  0.6707
 4372SOL    HW224576   4.527   3.092  10.129 -1.0514 -0.6113  0.3507
 4373SOL     OW24577   4.146   1.415  16.100 -0.5354 -0.2319  0.7942
 4373SOL    HW124578   4.132   1.508  16.083 -1.2856 -0.4715  0.0937
 4373SOL    HW224579   4.229   1.399  16.056 -1.2916 -0.5758 -0.5002
 4374SOL     OW24580   2.868   4.041   8.542  0.7962  0.1018 -0.3536
 4374SOL    HW124581   2.907   4.003   8.620  0.8305  2.0090  0.5415
 4374SOL    HW224582   2.774   4.028   8.552  0.7290  1.0653  0.2531
 4375SOL     OW24583   1.649   3.287  10.236  0.4760  0.0741 -0.5312
 4375SOL    HW124584   1.691   3.345  10.299 -0.1489  0.4797 -0.4827
 4375SOL    HW224585   1.557   3.314  10.245  0.5074 -0.2992  0.9496
 4376SOL     OW24586   3.998   2.649   1.572 -0.0836 -0.1703  0.4286
 4376SOL    HW124587   3.936   2.709   1.531  0.8995  0.6892  0.2016
 4376SOL    HW224588   3.964   2.572   1.526 -2.9513  0.7688  0.9684
 4377SOL     OW24589   4.185   3.689   0.118 -0.4830  0.2785  0.0077
 4377SOL    HW124590   4.135   3.683   0.037 -0.3509  2.6038 -0.2456
 4377SOL    HW224591   4.271   3.709   0.080  0.3106 -1.1028  1.0585
 4378SOL     OW24592   3.474   2.158   0.155  0.5820 -0.3681 -0.4363
 4378SOL    HW124593   3.503   2.176   0.244 -0.6565 -2.8934  0.4673
 4378SOL    HW224594   3.484   2.239   0.104  0.6286  0.3015  0.6397
 4379SOL     OW24595   0.842   3.162   4.089  0.4278  0.7448  0.1661
 4379SOL    HW124596   0.897   3.087   4.066  0.7254  1.2851 -0.8502
 4379SOL    HW224597   0.819   3.207   4.008  1.5653  0.7320 -0.1570
 4380SOL     OW24598   4.145   1.972   1.776  0.0152 -0.1415  0.2959
 4380SOL    HW124599   4.166   2.065   1.769  1.9684 -0.6293 -0.2052
 4380SOL    HW224600   4.104   1.962   1.862 -0.1284  2.5628  0.5415
 4381SOL     OW24601   4.671   2.790   1.675  0.0222  0.1073 -0.2006
 4381SOL    HW124602   4.598   2.796   1.736  0.0355  0.3646 -0.2102
 4381SOL    HW224603   4.631   2.803   1.589  0.2892 -2.7206 -0.7580
 4382SOL     OW24604   0.188   1.763  14.711 -0.2647  0.2473 -0.2531
 4382SOL    HW124605   0.137   1.841  14.732 -1.0237  0.2236 -2.0621
 4382SOL    HW224606   0.167   1.750  14.619 -0.9153  0.0075 -0.0724
 4383SOL     OW24607   2.742   0.325   9.311 -1.2157  0.0422 -0.2015
 4383SOL    HW124608   2.789   0.349   9.231 -0.1812  0.6795  0.6021
 4383SOL    HW224609   2.717   0.233   9.304 -2.9981  0.4821  0.3958
 4384SOL     OW24610   4.414   0.675   6.976  0.1111 -0.0525  0.0420
 4384SOL    HW124611   4.381   0.729   6.903  1.1314  0.9624  0.3218
 4384SOL    HW224612   4.480   0.623   6.930  2.3890  0.6208  2.5469
 4385SOL     OW24613   0.115   4.036   7.143  0.0379  0.2972 -0.1377
 4385SOL    HW124614   0.067   4.108   7.102  0.6627 -0.9758 -3.0608
 4385SOL    HW224615   0.197   4.048   7.095  1.5349 -2.5612  1.7216
 4386SOL     OW24616   2.138   1.818   7.196  0.2688  0.7062 -0.6647
 4386SOL    HW124617   2.132   1.902   7.150 -1.7523  1.0522  0.2387
 4386SOL    HW224618   2.048   1.811   7.229  0.9715 -1.5235  0.7292
 4387SOL     OW24619   0.020   2.450   8.434 -0.1573  0.4057  0.9404
 4387SOL    HW124620   0.076   2.445   8.511 -0.9123 -0.8721  1.4148
 4387SOL    HW224621   4.685   2.376   8.451  0.9703 -0.3829  1.3596
 4388SOL     OW24622   0.627   2.897  15.775 -0.0181 -0.2352  0.1999
 4388SOL    HW124623   0.719   2.923  15.784  0.4418 -2.0830  0.9181
 4388SOL    HW224624   0.610   2.885  15.868 -1.9092  1.5983  0.0805
 4389SOL     OW24625   1.337   3.347   7.134  0.1599 -0.4435 -0.1217
 4389SOL    HW124626   1.361   3.402   7.059 -0.5382  0.4497  0.3078
 4389SOL    HW224627   1.428   3.331   7.161 -0.6141 -0.8973  2.2172
 4390SOL     OW24628   0.057   2.688   2.979  0.2569 -0.4603  0.6766
 4390SOL    HW124629   0.027   2.642   3.057 -2.4230 -1.5529 -0.9779
 4390SOL    HW224630   0.149   2.702   3.001  0.1198 -0.6746  1.3812
 4391SOL     OW24631   0.488   2.758   1.961 -0.2824 -0.0493  0.1927
 4391SOL    HW124632   0.458   2.705   2.035 -1.5832 -2.1245 -1.8414
 4391SOL    HW224633   0.446   2.843   1.979  0.7662  0.6462 -0.6662
 4392SOL     OW24634   1.699   2.221  12.930  0.0382  0.4387  0.8559
 4392SOL    HW124635   1.622   2.208  12.985  1.0624 -3.9595  1.2945
 4392SOL    HW224636   1.753   2.146  12.955  1.3626  0.9070 -0.6581
 4393SOL     OW24637   2.994   2.661   6.077  0.0012 -0.3763 -0.2520
 4393SOL    HW124638   3.018   2.653   5.985  2.0073  0.2227  0.2103
 4393SOL    HW224639   2.916   2.606   6.078  0.5082 -1.1450 -3.1391
 4394SOL     OW24640   4.692   3.151  14.543 -0.4385  0.2832  0.0015
 4394SOL    HW124641   0.027   3.205  14.490  0.3692 -0.1313  0.4582
 4394SOL    HW224642   4.693   3.069  14.494 -1.0524 -0.5793  1.4254
 4395SOL     OW24643   1.076   0.894   5.154  0.1069  0.0390  0.4068
 4395SOL    HW124644   0.996   0.924   5.111  0.1063  2.6904  2.2802
 4395SOL    HW224645   1.095   0.816   5.101  0.5732  0.1054  0.4724
 4396SOL     OW24646   0.721   4.349   6.512 -0.0623  0.3133 -0.1550
 4396SOL    HW124647   0.712   4.388   6.425 -1.3836 -0.9734 -0.5875
 4396SOL    HW224648   0.632   4.325   6.536 -0.9961  2.7209 -1.1964
 4397SOL     OW24649   4.414   1.803   9.806  0.6945  0.3512 -0.4067
 4397SOL    HW124650   4.411   1.856   9.885  0.8676 -0.2855  0.0353
 4397SOL    HW224651   4.407   1.866   9.735  0.4435  1.6252  0.7642
 4398SOL     OW24652   3.394   3.360   1.508 -0.1577  0.1400  0.1825
 4398SOL    HW124653   3.479   3.333   1.475  0.0070  0.3916  0.4006
 4398SOL    HW224654   3.337   3.287   1.484 -1.2579  0.3479  2.1569
 4399SOL     OW24655   2.614   3.943  10.560  0.0738 -0.0587 -0.0622
 4399SOL    HW124656   2.626   3.935  10.655 -0.9564  0.1075  0.0853
 4399SOL    HW224657   2.585   3.854  10.538  1.2242  0.0767 -2.1143
 4400SOL     OW24658   2.986   4.575  10.070  0.3986  0.4875 -0.5403
 4400SOL    HW124659   2.894   4.570  10.093  1.0142  0.7775  1.9615
 4400SOL    HW224660   2.985   4.502  10.008 -0.0496 -1.1100  1.3375
 4401SOL     OW24661   2.257   1.448   2.194  0.0872  0.1330  0.0368
 4401SOL    HW124662   2.288   1.401   2.116 -1.0234  2.2424 -1.6700
 4401SOL    HW224663   2.300   1.533   2.185 -0.8553  0.5695 -0.3840
 4402SOL     OW24664   3.658   1.996   7.390 -0.0188  0.6973  0.0601
 4402SOL    HW124665   3.591   2.003   7.457 -1.4151 -1.1051 -1.1598
 4402SOL    HW224666   3.683   1.904   7.385  3.0472  1.4560  1.1411
 4403SOL     OW24667   4.014   0.210   3.572 -0.1702  0.4791  0.5063
 4403SOL    HW124668   3.939   0.152   3.563  1.0267 -0.7594 -1.5309
 4403SOL    HW224669   4.084   0.145   3.574 -0.6308 -0.0183  0.4892
 4404SOL     OW24670   2.861   0.076   4.735  0.5108 -0.3016 -0.2769
 4404SOL    HW124671   2.884   0.166   4.759  0.1079  0.1103 -1.4692
 4404SOL    HW224672   2.779   0.064   4.784  0.9287  0.3446  0.5833
 4405SOL     OW24673   0.687   3.509  12.453 -0.1945  0.0703  0.7391
 4405SOL    HW124674   0.600   3.469  12.447 -0.9112  1.6440  0.5373
 4405SOL    HW224675   0.718   3.465  12.532 -1.9030  2.0697  2.5156
 4406SOL     OW24676   0.452   3.589  13.527  0.1674 -0.0132 -0.3384
 4406SOL    HW124677   0.532   3.546  13.498 -1.1140 -2.9379  0.4723
 4406SOL    HW224678   0.424   3.524  13.591  1.2285  0.0079  0.1457
 4407SOL     OW24679   3.297   0.075  15.483 -0.2295  0.3364  0.0635
 4407SOL    HW124680   3.295   0.115  15.570 -0.7201 -1.0548  0.7046
 4407SOL    HW224681   3.389   0.089  15.463 -0.1028 -1.2198 -0.4642
 4408SOL     OW24682   1.704   2.474  13.041  0.1762  0.0487 -0.2385
 4408SOL    HW124683   1.748   2.524  12.972 -0.3613  3.3524  1.8071
 4408SOL    HW224684   1.709   2.382  13.019  0.2869  0.2565 -1.0761
 4409SOL     OW24685   0.429   0.404  16.612 -0.0292  0.0490  0.1479
 4409SOL    HW124686   0.520   0.406  16.642 -0.2785 -0.7974  0.9850
 4409SOL    HW224687   0.394   0.374  16.697 -0.8155 -0.8728 -0.4934
 4410SOL     OW24688   0.276   4.343   9.338 -0.2972 -0.8578 -0.0130
 4410SOL    HW124689   0.306   4.430   9.364  1.7040 -0.7228 -2.6847
 4410SOL    HW224690   0.358   4.315   9.297  0.6325 -0.2537  1.4531
 4411SOL     OW24691   3.059   0.973  10.891 -0.0541 -0.0001  0.4877
 4411SOL    HW124692   2.975   0.956  10.847 -0.5278  0.8786  1.0634
 4411SOL    HW224693   3.107   1.041  10.844 -0.8934  1.8696  2.3335
 4412SOL     OW24694   1.812   3.021   7.374  0.8759 -0.5674 -0.5209
 4412SOL    HW124695   1.781   2.942   7.329 -0.0733 -1.7420  2.1842
 4412SOL    HW224696   1.745   3.084   7.349  1.4120  0.4641  0.5930
 4413SOL     OW24697   2.216   1.868   0.735  0.4076  0.2008 -0.0693
 4413SOL    HW124698   2.191   1.813   0.809  1.6812  1.9485  1.6516
 4413SOL    HW224699   2.158   1.829   0.670  0.1963 -0.6027  0.6051
 4414SOL     OW24700   3.137   3.542   6.181 -0.4659 -0.4250  0.1004
 4414SOL    HW124701   3.173   3.453   6.185  1.9916  0.5438 -0.0342
 4414SOL    HW224702   3.210   3.585   6.136 -0.1144 -0.8018  0.3139
 4415SOL     OW24703   3.975   1.922   3.488 -0.1345 -0.1242 -0.0710
 4415SOL    HW124704   4.031   1.917   3.565  1.7226 -0.4638 -1.4334
 4415SOL    HW224705   3.919   1.994   3.515 -2.4299 -1.6651 -0.7270
 4416SOL     OW24706   2.026   4.560  13.058  0.3405 -0.1502 -0.4134
 4416SOL    HW124707   1.997   4.567  13.149 -2.2615 -1.0334 -1.1953
 4416SOL    HW224708   1.982   4.637  13.022 -0.1768 -0.6051 -0.7447
 4417SOL     OW24709   3.063   4.498  16.094 -0.2746  0.3977 -0.3160
 4417SOL    HW124710   3.041   4.455  16.177  2.0515 -1.0806 -0.4632
 4417SOL    HW224711   3.075   4.591  16.116 -0.2880  0.2937  0.1397
 4418SOL     OW24712   1.396   1.258   5.567 -0.8619  1.0329 -0.2181
 4418SOL    HW124713   1.391   1.180   5.622 -1.3513  0.5715 -0.9221
 4418SOL    HW224714   1.373   1.331   5.625  2.2611  1.6906  0.2387
 4419SOL     OW24715   4.481   4.094   6.812 -0.1620 -0.3803 -0.2106
 4419SOL    HW124716   4.492   4.066   6.721 -1.6981 -2.3032  0.1767
 4419SOL    HW224717   4.394   4.132   6.798 -0.8325 -1.2253  1.7529
 4420SOL     OW24718   0.083   0.686  15.722 -0.1652 -0.1173 -0.2624
 4420SOL    HW124719   0.146   0.665  15.790 -1.4866  0.0581  0.9972
 4420SOL    HW224720   0.021   0.614  15.730 -1.3583  0.8559 -0.7590
 4421SOL     OW24721   1.407   3.698   8.171 -0.0577  0.0793  0.0671
 4421SOL    HW124722   1.409   3.612   8.128 -1.8191 -0.1636  0.4822
 4421SOL    HW224723   1.401   3.749   8.090  1.8451 -0.7672 -0.6200
 4422SOL     OW24724   3.189   1.001   8.475  0.5630  0.4173  1.0645
 4422SOL    HW124725   3.282   1.017   8.464  0.1161  1.3072 -1.4228
 4422SOL    HW224726   3.186   0.970   8.566 -1.8295 -1.6509  0.2823
 4423SOL     OW24727   0.545   3.145  14.428 -0.5037  0.1309 -0.2643
 4423SOL    HW124728   0.461   3.171  14.468  0.5059  0.5901  1.5575
 4423SOL    HW224729   0.560   3.061  14.472  1.9898  2.0285  2.4918
 4424SOL     OW24730   4.222   2.654  12.643 -0.2617 -0.1554  0.1138
 4424SOL    HW124731   4.166   2.718  12.685  0.2560 -1.6873  3.1434
 4424SOL    HW224732   4.221   2.589  12.713  0.5350 -0.1403  0.1395
 4425SOL     OW24733   1.493   1.852   2.562 -0.2071 -0.0176 -0.1982
 4425SOL    HW124734   1.568   1.825   2.510  0.8581  1.5734  0.5224
 4425SOL    HW224735   1.430   1.786   2.532  0.4627 -0.2572 -1.0905
 4426SOL     OW24736   2.801   0.538  11.556 -0.2845  0.0268 -0.2286
 4426SOL    HW124737   2.782   0.543  11.649  1.8510 -0.5260  0.2434
 4426SOL    HW224738   2.850   0.619  11.540  0.7321 -1.0561 -2.5506
 4427SOL     OW24739   2.651   0.953   8.835  0.2073  0.5363 -0.2636
 4427SOL    HW124740   2.559   0.933   8.821  0.6069 -1.9206  0.6375
 4427SOL    HW224741   2.692   0.866   8.831 -0.5100  0.2625 -1.8249
 4428SOL     OW24742   0.016   3.841   8.845 -1.0554  0.6188  0.4676
 4428SOL    HW124743   0.013   3.801   8.758 -0.9330  2.3575 -0.3414
 4428SOL    HW224744   0.110   3.858   8.836 -0.6458 -0.5211  2.7265
 4429SOL     OW24745   4.594   4.688  13.322 -0.2558 -0.2911 -0.1622
 4429SOL    HW124746   4.612   4.635  13.245  0.0163 -0.2099 -0.1534
 4429SOL    HW224747   4.559   4.621  13.382 -0.2766  1.8583  2.2368
 4430SOL     OW24748   4.088   2.542   3.708 -0.2686  0.4550  0.2603
 4430SOL    HW124749   4.009   2.528   3.656  0.1762  0.6236 -0.4678
 4430SOL    HW224750   4.137   2.472   3.665  1.3740  0.0600  2.8339
 4431SOL     OW24751   2.230   3.578   0.495 -0.3156  0.4045  0.1701
 4431SOL    HW124752   2.138   3.560   0.513 -0.3616  1.8160  1.3689
 4431SOL    HW224753   2.232   3.670   0.523 -2.9312  0.0901  1.3711
 4432SOL     OW24754   3.076   4.702   7.684  0.2268 -0.4734 -0.4547
 4432SOL    HW124755   3.152   0.020   7.641 -0.7912 -0.6650 -2.4225
 4432SOL    HW224756   3.040   0.058   7.726 -0.8351 -0.1686 -1.9493
 4433SOL     OW24757   1.280   4.485  14.591 -0.2604  0.9853  0.4856
 4433SOL    HW124758   1.239   4.468  14.506 -1.2383 -0.2797  1.2008
 4433SOL    HW224759   1.224   4.562  14.601 -2.5277 -0.5163 -0.7007
 4434SOL     OW24760   4.543   3.593   3.188 -0.8281  0.0303  0.6872
 4434SOL    HW124761   4.534   3.546   3.271  2.0451  0.8232  1.4185
 4434SOL    HW224762   4.609   3.546   3.138 -1.4436 -0.2237  0.1151
 4435SOL     OW24763   4.320   1.413   5.946  0.3124  0.4001 -0.5450
 4435SOL    HW124764   4.331   1.419   5.851  3.1173 -0.9213 -0.3135
 4435SOL    HW224765   4.226   1.396   5.939 -0.1789  1.8031  2.8171
 4436SOL     OW24766   1.982   0.890   6.857  0.2065  0.1114 -0.6906
 4436SOL    HW124767   2.025   0.810   6.888 -1.8502 -0.6321  0.2536
 4436SOL    HW224768   2.047   0.956   6.881 -0.1125  0.0604  0.3161
 4437SOL     OW24769   3.999   3.348  12.648  0.3279  0.1989  0.0425
 4437SOL    HW124770   4.067   3.397  12.600 -0.3779  0.2811 -0.8802
 4437SOL    HW224771   3.962   3.299  12.574 -0.0537 -0.1168  0.4482
 4438SOL     OW24772   4.248   3.287   4.336 -0.0310  0.3478 -0.0126
 4438SOL    HW124773   4.252   3.368   4.284  1.3791 -0.2806 -0.8757
 4438SOL    HW224774   4.155   3.267   4.344 -0.4354  2.2068 -0.1034
 4439SOL     OW24775   4.069   2.206  16.290 -0.0692 -0.5898 -0.1514
 4439SOL    HW124776   4.067   2.255  16.372  0.8012  0.0458 -0.5091
 4439SOL    HW224777   4.123   2.133  16.321  2.2522  0.9453 -0.5468
 4440SOL     OW24778   2.004   2.753   2.023 -0.2583  0.1924  0.0648
 4440SOL    HW124779   1.919   2.796   2.018  0.3971  1.4306 -0.4692
 4440SOL    HW224780   1.990   2.665   1.987  0.6973 -0.8122  2.1171
 4441SOL     OW24781   3.314   3.254   2.734 -1.0978 -0.1855 -0.5447
 4441SOL    HW124782   3.269   3.297   2.807  0.7291  2.7227 -1.1248
 4441SOL    HW224783   3.252   3.182   2.734 -0.4516 -0.7387  1.4409
 4442SOL     OW24784   0.963   4.610   5.849  0.4716  0.0321  0.4014
 4442SOL    HW124785   0.908   4.638   5.922  0.1708 -1.9220  0.9290
 4442SOL    HW224786   0.904   4.618   5.773 -0.5847 -0.1183  1.1986
 4443SOL     OW24787   2.123   0.391   3.502  0.1452 -0.1865  0.3713
 4443SOL    HW124788   2.093   0.426   3.419 -0.6814  1.9861  1.5933
 4443SOL    HW224789   2.218   0.380   3.490 -0.0614 -0.5159 -0.9877
 4444SOL     OW24790   0.627   2.111   2.444  0.7154 -0.2126  0.2383
 4444SOL    HW124791   0.667   2.166   2.512 -0.5405  2.3832 -1.1410
 4444SOL    HW224792   0.577   2.045   2.493  2.3608 -0.4718  1.5790
 4445SOL     OW24793   1.025   0.043   8.800  0.5384 -0.1530 -0.0383
 4445SOL    HW124794   1.092   0.010   8.740 -1.8291  0.1532 -2.8547
 4445SOL    HW224795   1.066   0.078   8.879 -0.3734  1.4140 -0.2585
 4446SOL     OW24796   0.358   0.713  15.211  0.1216  0.2643  0.5423
 4446SOL    HW124797   0.289   0.715  15.278 -0.9309 -2.4841 -0.4520
 4446SOL    HW224798   0.359   0.803  15.180  1.0461  0.2677  0.5982
 4447SOL     OW24799   0.959   0.108   6.514  0.6966 -0.7195 -0.6770
 4447SOL    HW124800   0.997   0.150   6.438  1.2368 -0.1232 -0.0772
 4447SOL    HW224801   0.872   0.079   6.486  1.6921 -2.9499 -1.4482
 4448SOL     OW24802   1.997   0.311   4.678 -0.7508 -0.0955  0.3167
 4448SOL    HW124803   1.967   0.312   4.587 -0.4347 -2.2873  0.2067
 4448SOL    HW224804   2.083   0.271   4.673 -0.3507  0.8789 -0.7225
 4449SOL     OW24805   3.195   3.338   3.546 -0.3910 -0.1257 -0.3430
 4449SOL    HW124806   3.176   3.329   3.639 -2.3885 -2.1732 -0.9374
 4449SOL    HW224807   3.213   3.251   3.511 -1.0588  0.5572 -2.3869
 4450SOL     OW24808   4.244   0.966   0.049 -0.6453  0.1218 -0.0201
 4450SOL    HW124809   4.186   1.039   0.071 -0.6581  0.6577 -1.8338
 4450SOL    HW224810   4.174   0.903   0.065  0.0029 -0.6887 -0.3747
 4451SOL     OW24811   3.063   0.996  11.161 -0.3649 -0.1259  0.4640
 4451SOL    HW124812   3.077   0.973  11.069  1.2636  2.2163  0.1294
 4451SOL    HW224813   3.019   1.081  11.156 -2.1771 -0.9827  2.2033
 4452SOL     OW24814   0.032   2.704   7.285  0.1849  0.6953 -0.0908
 4452SOL    HW124815   0.063   2.726   7.373 -0.5767 -1.3387  0.6686
 4452SOL    HW224816   0.018   2.610   7.291  0.8244  0.5947 -0.1451
 4453SOL     OW24817   4.528   0.532   4.228 -0.5933  0.2504  0.0565
 4453SOL    HW124818   4.619   0.503   4.230 -0.5901  0.2180 -0.3737
 4453SOL    HW224819   4.525   0.610   4.282  1.7434  0.2184  0.2286
 4454SOL     OW24820   2.672   1.430   4.247  0.3170  0.3698 -0.1085
 4454SOL    HW124821   2.630   1.512   4.220 -1.4794 -0.0349  1.4604
 4454SOL    HW224822   2.655   1.438   4.341  0.5543 -1.2510  0.0770
 4455SOL     OW24823   3.787   0.876  13.661 -0.4343 -0.4424  0.3590
 4455SOL    HW124824   3.829   0.901  13.743 -0.3368  0.2977  0.0802
 4455SOL    HW224825   3.854   0.818  13.624 -1.6816 -0.1195 -2.3931
 4456SOL     OW24826   4.668   4.400   2.185  0.3055  0.3399  0.1091
 4456SOL    HW124827   4.638   4.364   2.102  0.8715  0.3650 -0.1076
 4456SOL    HW224828   4.660   4.324   2.244  2.2362  0.9244  1.1419
 4457SOL     OW24829   3.980   2.069   6.945 -0.7715 -0.5341 -0.4605
 4457SOL    HW124830   3.937   2.018   7.014  0.3847  0.8458  1.2579
 4457SOL    HW224831   3.974   2.160   6.973 -2.6075  0.1159 -2.9746
 4458SOL     OW24832   4.451   3.469   4.279  0.1603  0.0811 -0.1862
 4458SOL    HW124833   4.457   3.388   4.330 -0.3937  0.1736  0.0293
 4458SOL    HW224834   4.544   3.489   4.266 -0.5987  2.3955 -2.0562
 4459SOL     OW24835   0.505   4.012   6.146  0.1887 -0.0900 -0.5646
 4459SOL    HW124836   0.548   3.964   6.216 -0.6675  0.1273  0.1085
 4459SOL    HW224837   0.574   4.077   6.135 -0.1287  0.4807  0.8545
 4460SOL     OW24838   2.060   2.875  16.371  0.0707 -0.3680  0.0187
 4460SOL    HW124839   1.977   2.878  16.418 -0.3664  1.6723 -0.9039
 4460SOL    HW224840   2.091   2.965  16.377  0.7714 -0.5535 -0.7814
 4461SOL     OW24841   4.676   1.513   9.475  0.0093 -0.3299 -0.3840
 4461SOL    HW124842   0.004   1.491   9.553 -1.4576 -0.9989  0.3827
 4461SOL    HW224843   4.593   1.516   9.522 -0.1128  0.4091 -0.6555
 4462SOL     OW24844   1.020   1.256   9.638  0.0997 -0.0383 -0.1136
 4462SOL    HW124845   0.944   1.298   9.679 -0.9111 -1.0868 -0.9073
 4462SOL    HW224846   0.986   1.185   9.584  0.0748 -0.3867  0.3600
 4463SOL     OW24847   2.526   3.179   4.417 -0.1323 -0.3817  0.2298
 4463SOL    HW124848   2.582   3.248   4.452  1.6258 -1.3415 -0.7214
 4463SOL    HW224849   2.452   3.228   4.382  0.1012 -0.7471 -0.7653
 4464SOL     OW24850   2.814   1.358   0.101  0.2512  0.0022 -0.1373
 4464SOL    HW124851   2.821   1.442   0.147  0.2530  0.7315 -1.4517
 4464SOL    HW224852   2.784   1.304   0.174  1.9671 -0.5497  0.1793
 4465SOL     OW24853   4.615   3.644   1.238  0.2568  0.5156  0.1573
 4465SOL    HW124854   4.565   3.576   1.192  3.1863 -0.8417 -0.9882
 4465SOL    HW224855   4.576   3.642   1.325  1.6854  2.1319  0.8213
 4466SOL     OW24856   1.403   1.335  15.064  0.5217 -0.1586 -0.0448
 4466SOL    HW124857   1.467   1.401  15.088 -0.6150  0.4238  1.4120
 4466SOL    HW224858   1.322   1.378  15.093 -0.6030 -2.2078 -0.1259
 4467SOL     OW24859   4.449   3.282   2.848 -0.0169 -0.0757 -0.6710
 4467SOL    HW124860   4.402   3.219   2.792 -0.7749  1.5868 -1.8955
 4467SOL    HW224861   4.419   3.368   2.819  1.9522  0.1745 -1.9192
 4468SOL     OW24862   4.387   1.470  13.314 -0.0919 -0.1905  0.1188
 4468SOL    HW124863   4.450   1.429  13.373 -0.4204 -1.4839 -0.4431
 4468SOL    HW224864   4.323   1.502  13.377  0.0964 -0.4726  0.4562
 4469SOL     OW24865   3.582   1.231  14.858 -0.4740  0.3189 -0.1988
 4469SOL    HW124866   3.494   1.230  14.820 -0.2714 -1.5954 -0.6309
 4469SOL    HW224867   3.571   1.228  14.953 -0.0424  2.0718 -0.0983
 4470SOL     OW24868   0.232   1.273  14.568 -0.1668  0.0403 -0.5174
 4470SOL    HW124869   0.156   1.294  14.512 -0.7220 -0.7893 -0.0629
 4470SOL    HW224870   0.203   1.305  14.653 -0.6985 -5.7866  1.4913
 4471SOL     OW24871   4.484   3.042   5.483  0.5202  0.1270 -0.0058
 4471SOL    HW124872   4.515   3.132   5.475 -0.4441  0.2112 -2.8837
 4471SOL    HW224873   4.504   3.019   5.392 -0.7515 -0.3998 -0.1522
 4472SOL     OW24874   1.957   2.221  17.301  0.5627 -0.1449  0.0264
 4472SOL    HW124875   1.939   2.216  17.207 -0.3015 -2.2637  0.3119
 4472SOL    HW224876   1.912   2.301  17.328  2.0281  0.7583 -0.2086
 4473SOL     OW24877   0.236   1.983   4.775 -0.0862 -0.5221 -0.4360
 4473SOL    HW124878   0.326   1.951   4.762  1.0379  3.1782 -1.8583
 4473SOL    HW224879   0.189   1.946   4.700 -0.1487  0.8855 -1.0759
 4474SOL     OW24880   2.261   2.402  13.707  0.2908  0.1745  0.6292
 4474SOL    HW124881   2.171   2.397  13.674 -0.3099  2.0330  2.0280
 4474SOL    HW224882   2.301   2.418  13.621 -0.6552  0.0014  0.1591
 4475SOL     OW24883   0.280   3.308   7.801  1.3708  0.7077  0.9311
 4475SOL    HW124884   0.352   3.246   7.795 -0.2455 -1.0696 -0.1368
 4475SOL    HW224885   0.235   3.257   7.868 -1.8307 -0.1424 -1.8757
 4476SOL     OW24886   3.334   0.952   7.529  0.8574 -0.0633 -1.2877
 4476SOL    HW124887   3.382   0.987   7.454 -0.3279 -0.4640 -2.2326
 4476SOL    HW224888   3.315   1.032   7.578  3.1038 -0.3214 -0.0113
 4477SOL     OW24889   1.543   4.341   5.660  0.1270 -0.3441 -0.2253
 4477SOL    HW124890   1.542   4.430   5.694  0.9002 -1.3646  2.5351
 4477SOL    HW224891   1.474   4.302   5.715  0.0535 -0.6336 -0.5234
 4478SOL     OW24892   3.589   3.529   9.875  0.1318  0.1150  0.3167
 4478SOL    HW124893   3.650   3.503   9.944  0.3831 -0.0252  0.0432
 4478SOL    HW224894   3.594   3.455   9.815  1.3645  1.3532 -1.0968
 4479SOL     OW24895   2.303   3.037   2.828 -0.2340  0.2494 -0.1588
 4479SOL    HW124896   2.373   3.096   2.801 -0.2867  0.3842  0.0031
 4479SOL    HW224897   2.328   2.963   2.772  2.7218  0.3512  1.0100
 4480SOL     OW24898   2.787   2.545   4.017  0.6903 -0.3028 -0.1620
 4480SOL    HW124899   2.731   2.489   4.071 -0.2881  0.9707  0.1483
 4480SOL    HW224900   2.774   2.502   3.932 -3.2219  0.8381 -0.1633
 4481SOL     OW24901   3.112   3.975   9.643 -0.5397  0.3827 -0.5898
 4481SOL    HW124902   3.095   3.917   9.717  2.8067  0.8596  0.5523
 4481SOL    HW224903   3.065   4.051   9.675  1.7854  1.7573 -0.4739
 4482SOL     OW24904   3.081   0.736   5.207 -0.6818 -0.4880 -0.5934
 4482SOL    HW124905   3.000   0.716   5.254  0.5072  1.0014  2.1133
 4482SOL    HW224906   3.097   0.820   5.251  0.4766 -1.4284  0.7664
 4483SOL     OW24907   1.443   3.528   6.954  0.1624 -0.0319 -0.0091
 4483SOL    HW124908   1.442   3.622   6.941  0.2313 -0.1870 -1.0796
 4483SOL    HW224909   1.390   3.507   6.877 -0.9411 -0.7081  0.9310
 4484SOL     OW24910   4.710   3.552   9.026 -0.4860 -0.0935  0.1716
 4484SOL    HW124911   0.051   3.550   8.955  0.6981 -0.7589  1.2638
 4484SOL    HW224912   4.627   3.545   8.979 -0.5275  1.9397 -0.0430
 4485SOL     OW24913   0.430   2.922   8.031 -0.0423 -0.5021 -0.2931
 4485SOL    HW124914   0.386   2.848   8.074  2.4692 -0.1203  2.9317
 4485SOL    HW224915   0.518   2.892   8.011  0.2841  0.9927 -1.0196
 4486SOL     OW24916   0.405   3.578  15.378 -0.4590 -0.0897 -0.5173
 4486SOL    HW124917   0.364   3.652  15.334 -0.7893  0.9150  1.4735
 4486SOL    HW224918   0.332   3.532  15.421 -0.2588  1.2083  1.2072
 4487SOL     OW24919   3.904   2.307   8.007  0.6671  0.2874  0.1489
 4487SOL    HW124920   3.958   2.279   8.081 -1.2581  0.2517  1.5593
 4487SOL    HW224921   3.936   2.394   7.984  0.1313  0.3979 -0.1876
 4488SOL     OW24922   0.163   1.367   1.666  0.0605  0.0255 -0.1000
 4488SOL    HW124923   0.187   1.276   1.647 -1.0715 -0.0551 -1.1437
 4488SOL    HW224924   0.169   1.382   1.761 -0.2777 -0.5025  0.0090
 4489SOL     OW24925   2.167   4.499   7.808  0.2169 -0.1606 -0.6731
 4489SOL    HW124926   2.133   4.577   7.763 -1.7264 -0.7940 -0.3276
 4489SOL    HW224927   2.239   4.538   7.857 -0.8726  1.2858 -0.2308
 4490SOL     OW24928   4.697   3.127   8.731  0.3269 -0.2875 -0.0560
 4490SOL    HW124929   0.031   3.069   8.681  1.1329  0.6954 -0.2852
 4490SOL    HW224930   4.706   3.198   8.668 -1.4692 -0.1567 -0.1572
 4491SOL     OW24931   1.205   0.552  14.994  0.0799 -0.2911  0.3570
 4491SOL    HW124932   1.207   0.645  15.016  1.9061 -1.0105  3.2542
 4491SOL    HW224933   1.293   0.532  14.962 -0.0447  1.6532 -1.1559
 4492SOL     OW24934   3.451   0.414   4.451 -0.1622 -0.2263  0.2980
 4492SOL    HW124935   3.492   0.500   4.457  1.5372 -1.0090 -0.0856
 4492SOL    HW224936   3.525   0.367   4.413 -0.2911 -1.6799  1.8529
 4493SOL     OW24937   0.721   2.251   4.480 -0.0908  0.0888 -0.2590
 4493SOL    HW124938   0.631   2.281   4.464 -0.0868  1.1460  1.6797
 4493SOL    HW224939   0.762   2.237   4.395 -0.9417 -0.6219 -0.5595
 4494SOL     OW24940   3.413   1.250   9.120 -0.4571  0.2245  0.4428
 4494SOL    HW124941   3.435   1.192   9.048  0.1433  0.1538  0.6803
 4494SOL    HW224942   3.501   1.287   9.133  0.4516 -1.0145 -2.1917
 4495SOL     OW24943   1.114   3.467   4.284  0.7772  0.1069  0.0813
 4495SOL    HW124944   1.141   3.426   4.366 -2.0463  2.2873  2.1165
 4495SOL    HW224945   1.167   3.544   4.303  2.2912 -1.3114  1.5308
 4496SOL     OW24946   1.453   2.419  13.195 -0.8610 -0.0816  0.0762
 4496SOL    HW124947   1.365   2.450  13.174  0.0864  2.5045 -0.0888
 4496SOL    HW224948   1.512   2.471  13.140  0.3298  1.5957  2.9458
 4497SOL     OW24949   3.461   1.579   5.993 -0.5246  0.8291  0.2661
 4497SOL    HW124950   3.433   1.535   5.913 -0.3780  0.5464  0.3676
 4497SOL    HW224951   3.420   1.666   5.992  0.5380  1.3299  0.4286
 4498SOL     OW24952   2.322   0.621   0.419  0.0439 -0.0773 -0.0480
 4498SOL    HW124953   2.325   0.530   0.451  0.9336  0.5194  1.5768
 4498SOL    HW224954   2.227   0.631   0.410  0.1348  0.2704 -0.5879
 4499SOL     OW24955   1.724   2.245   3.545  0.0641 -0.4153 -0.0295
 4499SOL    HW124956   1.719   2.164   3.494 -0.5726 -0.6792  0.4423
 4499SOL    HW224957   1.772   2.209   3.620 -2.0111  0.0469  1.5184
 4500SOL     OW24958   1.032   1.821   4.727 -0.1034 -0.2192 -0.0511
 4500SOL    HW124959   1.035   1.893   4.664  0.5271 -0.2325 -0.0301
 4500SOL    HW224960   0.977   1.861   4.794 -0.3903 -0.4136 -0.1698
 4501SOL     OW24961   2.925   2.762   6.793 -0.0020  0.2264 -0.0315
 4501SOL    HW124962   3.001   2.814   6.819 -0.2052  0.6687 -0.3366
 4501SOL    HW224963   2.885   2.756   6.880 -0.9885 -2.5422 -0.6709
 4502SOL     OW24964   2.501   0.292  11.921  0.1358 -0.3781 -0.3553
 4502SOL    HW124965   2.506   0.317  11.828  2.2038 -0.1855 -0.1872
 4502SOL    HW224966   2.437   0.223  11.906  2.7704 -2.2903 -2.6925
 4503SOL     OW24967   3.922   1.768  11.269 -0.0696 -0.7683 -0.7162
 4503SOL    HW124968   4.014   1.793  11.275 -0.5003  1.0635 -1.4761
 4503SOL    HW224969   3.927   1.705  11.197  0.4001  0.6587 -1.9472
 4504SOL     OW24970   1.856   1.842  10.884 -0.7594 -0.0768  0.2016
 4504SOL    HW124971   1.913   1.898  10.830  1.4689 -0.3891  2.2078
 4504SOL    HW224972   1.924   1.795  10.932 -0.8385 -0.5257 -0.1316
 4505SOL     OW24973   0.118   1.476  15.284  0.7266  0.4556 -0.1309
 4505SOL    HW124974   0.084   1.393  15.251  0.6601  1.1273 -1.7584
 4505SOL    HW224975   0.093   1.527  15.207  0.0471 -0.9690 -0.8593
 4506SOL     OW24976   1.934   0.215  16.658 -0.0030  0.3021  0.3520
 4506SOL    HW124977   1.840   0.226  16.674  0.4897 -0.5138  3.9754
 4506SOL    HW224978   1.926   0.146  16.592 -1.1068 -0.2397  1.0429
 4507SOL     OW24979   4.535   4.332   3.517 -0.6370 -0.6322 -1.0049
 4507SOL    HW124980   4.511   4.346   3.425  1.7391  1.2593 -1.3627
 4507SOL    HW224981   4.458   4.280   3.540 -0.0464 -1.5192 -1.0250
 4508SOL     OW24982   2.221   3.264   9.487  0.3952 -0.1313  0.4625
 4508SOL    HW124983   2.227   3.213   9.568 -2.3742 -2.3617 -0.7551
 4508SOL    HW224984   2.288   3.332   9.494 -1.5457  1.9270 -1.1820
 4509SOL     OW24985   2.206   2.764  13.693 -0.2934  0.1593 -0.7626
 4509SOL    HW124986   2.273   2.741  13.757 -1.7169 -0.1444  0.5962
 4509SOL    HW224987   2.254   2.817  13.629 -0.0595 -0.0736 -0.7780
 4510SOL     OW24988   3.986   3.324   3.266 -0.4035 -0.1815 -0.0499
 4510SOL    HW124989   3.987   3.390   3.197  0.2322 -1.7040 -1.5147
 4510SOL    HW224990   3.893   3.303   3.256 -0.9245  1.5560  1.2402
 4511SOL     OW24991   2.421   0.904   1.893 -0.1345 -0.0078  0.4896
 4511SOL    HW124992   2.331   0.915   1.925 -0.3454  0.6988 -0.3405
 4511SOL    HW224993   2.414   0.812   1.868 -1.2118  0.3614 -0.6069
 4512SOL     OW24994   3.346   4.618   2.741  0.9205 -0.1537  0.4094
 4512SOL    HW124995   3.259   4.615   2.701  0.6917  2.6870  0.6490
 4512SOL    HW224996   3.367   4.710   2.726  0.1565  0.0593  0.6005
 4513SOL     OW24997   2.739   0.827   7.086 -0.2396 -0.2144 -0.3581
 4513SOL    HW124998   2.761   0.881   7.010  0.6213 -1.5083 -1.0296
 4513SOL    HW224999   2.798   0.849   7.158 -1.1309  1.6930 -0.2086
 4514SOL     OW25000   3.478   1.370  10.100 -0.1939 -0.5920 -0.4505
 4514SOL    HW125001   3.383   1.364  10.090 -0.2615 -1.0106  0.3770
 4514SOL    HW225002   3.485   1.457  10.139 -0.2719  0.1024 -1.9981
 4515SOL     OW25003   1.385   2.071   2.420 -0.3026  0.5007  0.8040
 4515SOL    HW125004   1.438   2.002   2.459  0.8556  1.3512  0.7376
 4515SOL    HW225005   1.434   2.084   2.338  0.0433 -2.9284  0.4857
 4516SOL     OW25006   2.691   4.565   4.555  0.1308  0.0554  0.3012
 4516SOL    HW125007   2.760   4.498   4.561  1.1084  0.9367 -0.9880
 4516SOL    HW225008   2.742   4.640   4.525 -0.4001 -0.4470 -1.8418
 4517SOL     OW25009   3.921   3.439  12.891 -0.8537 -0.4817  0.1885
 4517SOL    HW125010   3.923   3.423  12.796  1.7233  1.2900 -0.0535
 4517SOL    HW225011   3.981   3.369  12.916 -0.9111 -0.9576 -0.9965
 4518SOL     OW25012   0.300   2.144   6.930 -0.7029 -0.3089 -0.6255
 4518SOL    HW125013   0.231   2.089   6.968 -1.2598  1.2269  0.5635
 4518SOL    HW225014   0.368   2.129   6.996 -2.1190 -0.9257  0.6900
 4519SOL     OW25015   0.543   1.776  11.270 -0.3492  0.0991  0.2120
 4519SOL    HW125016   0.622   1.723  11.280  0.5399  1.1779 -1.0074
 4519SOL    HW225017   0.497   1.757  11.351  1.2071 -2.5992  0.4426
 4520SOL     OW25018   0.751   3.143  15.634 -0.3212 -0.0491  0.0892
 4520SOL    HW125019   0.709   3.169  15.716  0.0033  2.1193 -0.4317
 4520SOL    HW225020   0.709   3.064  15.602  2.3503 -2.7711  3.2793
 4521SOL     OW25021   2.424   2.677   4.950  0.2971  0.5624  0.3234
 4521SOL    HW125022   2.340   2.713   4.921  0.2024  0.8802  0.9707
 4521SOL    HW225023   2.471   2.741   4.898  2.9276 -2.0254 -0.4491
 4522SOL     OW25024   4.287   0.297   3.833  0.2531  0.1237  0.3247
 4522SOL    HW125025   4.275   0.389   3.808 -3.2119 -0.6904 -0.9776
 4522SOL    HW225026   4.360   0.313   3.893  1.3087 -1.8431 -0.4611
 4523SOL     OW25027   0.820   4.690   6.083  0.3628 -0.1817 -0.4968
 4523SOL    HW125028   0.832   0.062   6.087 -0.6531 -0.1441  2.3763
 4523SOL    HW225029   0.871   4.657   6.157 -1.4282 -3.0507 -0.5058
 4524SOL     OW25030   1.808   3.100   1.924 -0.0810  0.0183  0.5213
 4524SOL    HW125031   1.739   3.165   1.911  2.0547  2.1898 -0.0813
 4524SOL    HW225032   1.881   3.133   1.872 -0.2398 -0.1517  0.1874
 4525SOL     OW25033   1.511   0.920  15.419  0.5742  0.1492 -0.4622
 4525SOL    HW125034   1.442   0.863  15.385  0.2929 -0.5836  1.3119
 4525SOL    HW225035   1.575   0.906  15.350  1.4576  2.7249 -0.1620
 4526SOL     OW25036   1.520   1.255   7.437  0.1465 -0.0918 -0.1531
 4526SOL    HW125037   1.510   1.197   7.361  0.4963 -2.6838  1.7701
 4526SOL    HW225038   1.510   1.185   7.501  0.8817  0.0250  0.0819
 4527SOL     OW25039   2.508   1.124  13.648 -0.1294  0.4723 -0.2627
 4527SOL    HW125040   2.522   1.127  13.743  0.7945 -1.4158 -0.3423
 4527SOL    HW225041   2.563   1.198  13.622  1.5475 -1.0880 -1.0885
 4528SOL     OW25042   3.339   1.211   0.933 -0.1270  0.5245 -0.2896
 4528SOL    HW125043   3.278   1.223   1.005 -0.1230  0.7125 -0.3177
 4528SOL    HW225044   3.309   1.122   0.918 -1.9046  0.5730  3.0736
 4529SOL     OW25045   1.620   1.788   5.179  0.2564  0.2909  0.5410
 4529SOL    HW125046   1.546   1.757   5.127  0.9239  0.4397 -0.4940
 4529SOL    HW225047   1.610   1.725   5.250 -1.3135 -0.3013 -0.2155
 4530SOL     OW25048   3.760   3.503   4.535  0.2362 -0.5479  0.1852
 4530SOL    HW125049   3.753   3.532   4.626 -0.8211 -0.1539 -0.0322
 4530SOL    HW225050   3.681   3.449   4.528 -0.0323 -0.3579  1.8071
 4531SOL     OW25051   0.905   2.156   3.566 -0.8655  0.1732 -0.2108
 4531SOL    HW125052   0.954   2.239   3.567  0.3950 -0.5755  0.2394
 4531SOL    HW225053   0.948   2.087   3.616 -0.4045 -0.6470 -1.7202
 4532SOL     OW25054   4.544   1.159   7.728 -0.1431  0.7650  0.2334
 4532SOL    HW125055   4.608   1.139   7.660 -0.4222 -0.6628  0.3797
 4532SOL    HW225056   4.475   1.097   7.704  1.1071 -1.0416  1.3673
 4533SOL     OW25057   2.841   0.460   6.188 -0.4529  0.5981  0.1782
 4533SOL    HW125058   2.771   0.396   6.204 -1.1241  1.6624  1.4931
 4533SOL    HW225059   2.858   0.490   6.277  0.3661  0.7467 -0.0294
 4534SOL     OW25060   2.748   3.994   5.488  0.0488 -0.0119  0.3229
 4534SOL    HW125061   2.712   4.083   5.486  1.3302  0.5614  2.3656
 4534SOL    HW225062   2.693   3.949   5.425  0.3739 -0.9249  0.6895
 4535SOL     OW25063   3.765   4.317   5.185  0.2759  0.7341  0.1777
 4535SOL    HW125064   3.744   4.395   5.238  0.3739  0.7601  0.1776
 4535SOL    HW225065   3.674   4.303   5.158 -0.5428  1.3687  2.5956
 4536SOL     OW25066   1.870   3.297   4.390  1.1863  0.2252  0.0508
 4536SOL    HW125067   1.776   3.283   4.403  0.9334  0.1048 -1.9523
 4536SOL    HW225068   1.874   3.391   4.374  1.4085  0.0094 -1.1539
 4537SOL     OW25069   2.850   2.488  17.333  0.2397 -0.7311 -0.4930
 4537SOL    HW125070   2.882   2.575  17.312 -2.1153  0.0471 -0.8131
 4537SOL    HW225071   2.831   2.505  17.425  0.0114  0.5475 -0.7837
 4538SOL     OW25072   2.995   1.351  11.041  0.0249 -0.3686 -0.1958
 4538SOL    HW125073   2.949   1.434  11.026 -0.9942 -0.8861  0.0430
 4538SOL    HW225074   2.950   1.296  10.977  1.5315 -0.7139 -0.9707
 4539SOL     OW25075   1.952   4.477  14.336  0.0208  0.1365 -0.1193
 4539SOL    HW125076   1.961   4.382  14.344 -0.6245  0.1149  0.3421
 4539SOL    HW225077   1.893   4.487  14.261 -0.3331  1.1159  0.2851
 4540SOL     OW25078   4.076   1.979   5.519  0.2611  0.0012  0.3062
 4540SOL    HW125079   4.155   2.029   5.541 -1.3512  2.1834  1.1420
 4540SOL    HW225080   4.039   2.019   5.440 -1.6606 -2.4443  0.0012
 4541SOL     OW25081   2.754   3.236   5.781 -0.2536  0.2425  0.6267
 4541SOL    HW125082   2.807   3.304   5.822  2.5540 -0.4383 -1.8830
 4541SOL    HW225083   2.829   3.193   5.741 -0.8637  0.4900 -0.7593
 4542SOL     OW25084   4.375   4.381  16.788 -0.1504  0.3920 -0.0110
 4542SOL    HW125085   4.380   4.456  16.848  0.6821 -1.9711  2.8532
 4542SOL    HW225086   4.462   4.372  16.749 -0.8646  0.6054 -1.6210
 4543SOL     OW25087   3.160   2.743   6.316  0.0317  0.0479  0.2048
 4543SOL    HW125088   3.251   2.770   6.324  0.3045 -0.7839 -0.1135
 4543SOL    HW225089   3.137   2.735   6.223 -0.6788  0.0285  0.3844
 4544SOL     OW25090   1.592   0.012  11.155  0.2665  0.2965 -0.8026
 4544SOL    HW125091   1.564   0.095  11.194 -0.5092 -0.1263 -0.4520
 4544SOL    HW225092   1.509   4.706  11.117  0.0434 -0.9772  0.6409
 4545SOL     OW25093   1.034   1.926   2.766 -0.0914  0.2119 -0.2353
 4545SOL    HW125094   1.113   1.954   2.813  0.0267  0.0048 -0.3118
 4545SOL    HW225095   1.022   2.006   2.715 -0.0690  0.8578  0.7652
 4546SOL     OW25096   1.110   1.161  16.669 -0.0428  0.1947 -0.2180
 4546SOL    HW125097   1.158   1.230  16.715  0.2764 -0.6670  0.7138
 4546SOL    HW225098   1.021   1.191  16.687  0.7260  1.4186  1.5001
 4547SOL     OW25099   3.660   4.360   9.007  0.0683  0.6266 -0.3810
 4547SOL    HW125100   3.639   4.333   9.096 -1.3682  4.2521  0.3519
 4547SOL    HW225101   3.591   4.419   8.976  1.5976  2.8831  0.5211
 4548SOL     OW25102   1.917   0.487  16.849 -0.1994  0.3516 -0.0772
 4548SOL    HW125103   1.986   0.435  16.807 -0.6497 -2.0047  2.1120
 4548SOL    HW225104   1.927   0.450  16.937  0.2037  1.9393  0.5417
 4549SOL     OW25105   3.423   1.862  10.559 -0.1035  0.0096 -0.3307
 4549SOL    HW125106   3.441   1.941  10.610 -0.8093 -0.5405  0.7756
 4549SOL    HW225107   3.496   1.802  10.573 -0.1365 -0.6215 -2.8644
 4550SOL     OW25108   0.249   0.690   2.406  0.4870  0.0327  0.1843
 4550SOL    HW125109   0.201   0.651   2.332  0.6050 -1.8251  1.0889
 4550SOL    HW225110   0.246   0.783   2.382  2.7122  0.4510  1.4777
 4551SOL     OW25111   0.459   0.226   5.112 -0.5411  0.2904 -0.1741
 4551SOL    HW125112   0.489   0.317   5.111  0.4698 -0.0584 -1.1284
 4551SOL    HW225113   0.398   0.222   5.185  0.8567 -0.3610  0.9501
 4552SOL     OW25114   1.988   4.608  10.159 -0.1387  0.0075 -0.3659
 4552SOL    HW125115   1.986   4.699  10.190 -0.6335  0.1003 -0.6760
 4552SOL    HW225116   1.926   4.555  10.208 -0.1654  0.5887  0.2312
 4553SOL     OW25117   2.716   3.711   9.091  0.2813  0.1579  0.3017
 4553SOL    HW125118   2.723   3.624   9.130 -1.3298  0.0076  0.2619
 4553SOL    HW225119   2.636   3.744   9.132 -1.2359 -2.1778 -0.8015
 4554SOL     OW25120   1.019   1.120   5.304  0.2498 -0.8499 -0.5416
 4554SOL    HW125121   1.061   1.188   5.355  0.1578 -0.7053 -0.6579
 4554SOL    HW225122   1.089   1.068   5.265  0.2023 -2.9367  2.2160
 4555SOL     OW25123   1.881   0.444   5.284 -0.7300  0.2979 -0.1263
 4555SOL    HW125124   1.928   0.490   5.215  1.0633  0.7390  1.3874
 4555SOL    HW225125   1.843   0.370   5.236  0.6631 -0.0538 -0.6827
 4556SOL     OW25126   3.220   4.689   5.661  0.5379  0.2333 -0.2521
 4556SOL    HW125127   3.181   4.623   5.719  1.8402  0.4543  0.8625
 4556SOL    HW225128   3.278   0.013   5.720  1.7064 -0.4267 -0.8879
 4557SOL     OW25129   2.101   2.065   9.144  0.0840  0.2461  0.5814
 4557SOL    HW125130   2.117   2.145   9.094  0.4951  0.2728  0.7589
 4557SOL    HW225131   2.050   2.104   9.215 -1.4578 -0.7183  0.0187
 4558SOL     OW25132   0.306   1.174   7.256 -0.2699  0.4859 -0.4322
 4558SOL    HW125133   0.329   1.243   7.194 -1.6178 -0.2321 -1.7307
 4558SOL    HW225134   0.220   1.202   7.288 -0.1241  0.4574 -0.0193
 4559SOL     OW25135   0.008   2.576  14.833  0.5900  0.0801 -0.5960
 4559SOL    HW125136   4.667   2.519  14.792  1.9009 -1.3922 -0.5975
 4559SOL    HW225137   4.673   2.649  14.854 -1.4917 -1.0036 -2.5700
 4560SOL     OW25138   0.166   3.899   5.394  0.1027 -0.0109 -0.3514
 4560SOL    HW125139   0.147   3.808   5.419  0.6587  0.2279  0.9356
 4560SOL    HW225140   0.236   3.923   5.454  0.3743  1.4780 -1.2713
 4561SOL     OW25141   1.562   1.743   9.732 -0.3881 -0.2700  0.4314
 4561SOL    HW125142   1.560   1.729   9.827  2.6959 -0.9623  0.3786
 4561SOL    HW225143   1.563   1.837   9.713 -2.8664  0.1172  2.1755
 4562SOL     OW25144   4.666   3.263  14.785 -0.4263  0.2305 -0.3774
 4562SOL    HW125145   4.573   3.280  14.771 -0.0262  1.4861 -1.5084
 4562SOL    HW225146   4.684   3.238  14.695 -1.5739  1.7184 -1.0154
 4563SOL     OW25147   4.222   2.934   5.745 -0.0028  0.0265 -0.1537
 4563SOL    HW125148   4.318   2.938   5.737  0.1355 -1.8278  0.4747
 4563SOL    HW225149   4.199   2.960   5.656 -2.9751 -1.9352  0.0514
 4564SOL     OW25150   0.865   2.281   1.382  0.0432 -0.3331 -0.0703
 4564SOL    HW125151   0.825   2.203   1.420  0.1288 -0.7596 -0.8502
 4564SOL    HW225152   0.944   2.247   1.340 -0.0073  2.0624 -2.1788
 4565SOL     OW25153   2.390   1.423   7.999  0.9569  0.5436 -0.2197
 4565SOL    HW125154   2.321   1.461   8.054 -0.9252  1.4126 -3.1654
 4565SOL    HW225155   2.454   1.385   8.059 -2.6473 -0.5826  2.9503
 4566SOL     OW25156   1.908   4.350  10.360  0.4055  0.6410  0.1164
 4566SOL    HW125157   1.968   4.383  10.427 -0.7265 -1.7901  2.3344
 4566SOL    HW225158   1.836   4.412  10.363 -1.5633 -1.6393 -0.2386
 4567SOL     OW25159   3.100   0.517  17.469 -0.2748 -0.0584  0.0183
 4567SOL    HW125160   3.013   0.480  17.480 -0.7957  0.9872 -0.5716
 4567SOL    HW225161   3.145   0.487  17.548  1.2790  0.3598 -0.7046
 4568SOL     OW25162   4.205   0.787   2.497  0.1740 -0.3093 -0.0970
 4568SOL    HW125163   4.128   0.824   2.541 -0.1274 -0.9721 -0.0635
 4568SOL    HW225164   4.215   0.852   2.428 -0.4942 -0.9891 -0.8339
 4569SOL     OW25165   2.445   2.418   5.424 -0.4098  0.4423 -0.2433
 4569SOL    HW125166   2.526   2.370   5.411 -1.2953 -0.5271 -2.1721
 4569SOL    HW225167   2.470   2.498   5.470 -1.4549  0.4723  0.2750
 4570SOL     OW25168   3.512   2.788   2.640  0.4818 -0.6249 -0.1948
 4570SOL    HW125169   3.574   2.853   2.674  0.7277 -0.4098 -1.0552
 4570SOL    HW225170   3.570   2.728   2.593  0.1243 -1.9665  1.0942
 4571SOL     OW25171   1.369   1.069   4.183  0.1543 -0.3179 -0.3463
 4571SOL    HW125172   1.362   1.021   4.101 -0.4899 -1.0820  0.1499
 4571SOL    HW225173   1.448   1.021   4.207  0.3582  0.7995  1.1839
 4572SOL     OW25174   1.950   1.790   6.954 -0.9503 -0.0379 -0.2572
 4572SOL    HW125175   2.020   1.841   6.914 -0.2915 -0.0901  0.8275
 4572SOL    HW225176   2.000   1.711   6.972  0.4240  0.5688 -1.4054
 4573SOL     OW25177   2.305   2.671   3.132 -0.5527  0.4599 -0.0771
 4573SOL    HW125178   2.256   2.593   3.107 -0.1117  0.6350 -1.4710
 4573SOL    HW225179   2.228   2.726   3.147 -1.8777 -1.4927  0.2789
 4574SOL     OW25180   1.174   1.017   8.118  0.3436  0.1627 -0.1642
 4574SOL    HW125181   1.211   1.005   8.031  0.7192  2.3822 -0.3084
 4574SOL    HW225182   1.080   0.998   8.106  0.3532 -0.1318  0.2058
 4575SOL     OW25183   2.358   2.880   2.106  0.2116 -0.2110 -0.0780
 4575SOL    HW125184   2.374   2.796   2.065  1.2027 -0.2743  0.4338
 4575SOL    HW225185   2.348   2.940   2.032  0.7631 -0.9896 -0.7875
 4576SOL     OW25186   3.804   3.381   5.466 -0.3784  0.0694 -0.0172
 4576SOL    HW125187   3.766   3.395   5.553 -2.1793  2.7111 -1.2137
 4576SOL    HW225188   3.890   3.419   5.479  0.7317 -2.1965 -0.7228
 4577SOL     OW25189   2.932   4.347   9.916 -0.3199 -0.4333 -0.1387
 4577SOL    HW125190   2.915   4.399   9.837 -0.2299  0.0773  0.1754
 4577SOL    HW225191   2.918   4.257   9.889  0.4189 -1.1190  1.7513
 4578SOL     OW25192   1.226   2.014   1.967  0.4044  0.3704  0.6347
 4578SOL    HW125193   1.190   2.096   2.002  0.7917  0.1458  1.5612
 4578SOL    HW225194   1.145   1.971   1.942  0.8510  1.0267 -1.8847
 4579SOL     OW25195   1.791   0.740  13.396  0.2110  0.2121 -0.2649
 4579SOL    HW125196   1.791   0.646  13.410  1.0231  0.1157 -0.9509
 4579SOL    HW225197   1.739   0.775  13.469 -2.7179 -3.4386 -0.6296
 4580SOL     OW25198   0.899   3.470   1.549 -0.1315 -0.0557 -0.2301
 4580SOL    HW125199   0.867   3.389   1.509 -0.8881 -0.4130  1.0811
 4580SOL    HW225200   0.830   3.529   1.518  0.7033  1.4500  0.8137
 4581SOL     OW25201   1.111   4.480   7.988  0.0175  0.3834  0.7280
 4581SOL    HW125202   1.169   4.404   7.979 -1.2418 -0.2956 -1.4722
 4581SOL    HW225203   1.106   4.501   7.895 -0.1318  0.6623  0.7982
 4582SOL     OW25204   4.014   3.803   8.200  0.3467 -0.0674 -0.2340
 4582SOL    HW125205   4.049   3.891   8.183  0.8855 -0.3038 -0.3776
 4582SOL    HW225206   3.977   3.823   8.286 -1.3696 -1.5431 -0.6315
 4583SOL     OW25207   3.517   2.488  12.955 -0.5663 -0.4494  0.3353
 4583SOL    HW125208   3.603   2.448  12.961 -0.5871 -0.8736 -2.4988
 4583SOL    HW225209   3.469   2.407  12.938 -0.2355 -0.7693  0.9383
 4584SOL     OW25210   4.120   3.732  11.174 -0.2914 -0.2687 -0.2529
 4584SOL    HW125211   4.193   3.743  11.235  0.7667 -0.3610 -1.5153
 4584SOL    HW225212   4.120   3.637  11.170 -1.8458 -0.2403 -1.0915
 4585SOL     OW25213   0.317   1.305   3.977  0.5553  0.0187  0.6278
 4585SOL    HW125214   0.369   1.313   3.896 -1.5603  1.5248 -0.6032
 4585SOL    HW225215   0.340   1.216   4.004 -0.5053 -0.7097 -0.8156
 4586SOL     OW25216   0.801   2.785  17.285 -0.0122  0.5779 -0.1712
 4586SOL    HW125217   0.847   2.736  17.354  0.3971  0.4408 -0.5447
 4586SOL    HW225218   0.780   2.718  17.219  1.1877 -0.9245  0.9792
 4587SOL     OW25219   3.612   0.498   8.820 -0.1189 -0.4242  0.1967
 4587SOL    HW125220   3.693   0.489   8.870 -0.7590  1.3236  1.5565
 4587SOL    HW225221   3.610   0.590   8.792 -1.3991 -0.9649 -1.4798
 4588SOL     OW25222   0.822   0.450   7.088 -0.1248  0.2733  0.1913
 4588SOL    HW125223   0.822   0.382   7.156 -0.2445 -0.5580 -0.6468
 4588SOL    HW225224   0.872   0.519   7.131  2.0473 -0.6943 -0.8340
 4589SOL     OW25225   2.630   2.997   2.375  0.1685  0.0958  0.6737
 4589SOL    HW125226   2.657   2.982   2.466 -0.5168  1.3583  1.0836
 4589SOL    HW225227   2.655   2.918   2.328 -2.3258 -0.8407  0.9371
 4590SOL     OW25228   1.633   1.502  13.528 -0.2591 -0.6885  0.3834
 4590SOL    HW125229   1.689   1.479  13.454  1.9595 -1.0952  2.1550
 4590SOL    HW225230   1.560   1.440  13.526 -0.3623 -0.6422  2.2929
 4591SOL     OW25231   0.650   1.687   4.336  0.3058 -0.4589  0.1522
 4591SOL    HW125232   0.732   1.640   4.321  0.5396  0.3399 -1.0958
 4591SOL    HW225233   0.679   1.755   4.398  1.1766 -0.9859  0.3226
 4592SOL     OW25234   1.351   3.174   6.228 -0.1681  0.0187 -0.1051
 4592SOL    HW125235   1.269   3.156   6.182 -0.0891 -2.4199  0.7375
 4592SOL    HW225236   1.386   3.087   6.246 -0.2112 -0.2262 -1.2285
 4593SOL     OW25237   4.224   4.413   7.203  0.2870 -0.3493  0.4536
 4593SOL    HW125238   4.275   4.333   7.212  1.0151  0.1002  0.3483
 4593SOL    HW225239   4.249   4.464   7.280 -0.5247 -0.1119  0.5622
 4594SOL     OW25240   3.817   1.893  17.485 -0.1146 -0.2863  0.0232
 4594SOL    HW125241   3.775   1.849  17.558 -1.7401 -0.0242 -0.7428
 4594SOL    HW225242   3.912   1.895  17.500 -0.1809 -2.1236  0.6426
 4595SOL     OW25243   4.375   2.592   5.457 -0.4389  0.7276 -0.8235
 4595SOL    HW125244   4.354   2.663   5.396  1.8259  0.9743 -1.3402
 4595SOL    HW225245   4.369   2.517   5.398 -1.2836  1.0179 -1.0993
 4596SOL     OW25246   0.216   3.089  16.528 -0.1306 -0.3558 -0.2562
 4596SOL    HW125247   0.127   3.057  16.542  0.0717 -0.2418  1.3173
 4596SOL    HW225248   0.265   3.007  16.529  1.1982  0.4406  0.0266
 4597SOL     OW25249   3.113   4.381  16.470  0.2741 -0.3898 -0.2733
 4597SOL    HW125250   3.032   4.381  16.418 -0.1805  1.5143  0.4129
 4597SOL    HW225251   3.169   4.350  16.399  1.4282  0.3247  0.3286
 4598SOL     OW25252   0.122   3.140   7.946 -0.6648  0.2388 -0.4076
 4598SOL    HW125253   0.051   3.196   7.976  0.3930  0.0878  2.4023
 4598SOL    HW225254   0.082   3.070   7.896 -2.8789  1.7659 -0.7750
 4599SOL     OW25255   2.560   0.624   6.997 -0.0718  0.0017  0.0007
 4599SOL    HW125256   2.593   0.534   6.996 -2.0390 -0.7098 -0.1907
 4599SOL    HW225257   2.636   0.666   7.037  1.0380 -1.7830 -0.2392
 4600SOL     OW25258   1.060   4.351   6.042 -0.4825 -0.4727  0.0268
 4600SOL    HW125259   1.055   4.322   6.133 -2.1513 -0.6590 -0.1349
 4600SOL    HW225260   1.122   4.424   6.045  0.3887 -1.1021 -2.2868
 4601SOL     OW25261   1.768   0.951   7.217  0.0188  0.0379  0.0396
 4601SOL    HW125262   1.790   0.990   7.132  1.1385 -1.6609 -0.4568
 4601SOL    HW225263   1.785   0.858   7.199 -2.2206 -0.1961 -0.9670
 4602SOL     OW25264   0.342   2.258   3.475 -0.8416 -0.0485 -0.4594
 4602SOL    HW125265   0.359   2.202   3.399 -1.1173  1.7120 -1.8157
 4602SOL    HW225266   0.250   2.265   3.449  0.0015  2.3323 -2.7875
 4603SOL     OW25267   1.782   4.386   3.632  0.1418  0.0849  0.0144
 4603SOL    HW125268   1.806   4.311   3.578  0.3934  1.5716 -1.9447
 4603SOL    HW225269   1.720   4.360   3.701 -1.4253 -1.0240 -1.8120
 4604SOL     OW25270   2.363   0.140   6.517 -0.0849 -0.2476  0.7353
 4604SOL    HW125271   2.389   0.049   6.508  3.5658  1.0032 -1.5204
 4604SOL    HW225272   2.273   0.154   6.489  0.3750  0.7853 -0.2751
 4605SOL     OW25273   2.169   1.111   6.825 -0.5341 -0.2573  0.6597
 4605SOL    HW125274   2.260   1.092   6.848 -0.3295 -1.5578 -1.2625
 4605SOL    HW225275   2.190   1.168   6.752  0.6812 -1.3114  0.1825
 4606SOL     OW25276   1.510   1.232   7.909  0.3771  0.2173 -0.2073
 4606SOL    HW125277   1.575   1.297   7.935 -0.4617  1.2761 -0.7844
 4606SOL    HW225278   1.430   1.273   7.943 -0.1117 -1.8251  1.1261
 4607SOL     OW25279   1.283   4.627   5.706  0.1197  0.2590 -0.3567
 4607SOL    HW125280   1.222   4.565   5.666 -0.9409  0.8959  0.3046
 4607SOL    HW225281   1.225   4.668   5.770  0.9316 -0.4470  0.8340
 4608SOL     OW25282   4.713   0.306   4.795 -0.4592  0.4976 -0.2949
 4608SOL    HW125283   4.715   0.385   4.741  0.3886  1.2895  0.9063
 4608SOL    HW225284   4.625   0.280   4.768 -0.2135 -1.2499  0.5913
 4609SOL     OW25285   4.520   3.780   5.127 -0.3501  0.5597 -0.3417
 4609SOL    HW125286   4.577   3.754   5.199 -0.6344  1.2256  0.1156
 4609SOL    HW225287   4.508   3.874   5.140 -0.4028  0.4903  0.0898
 4610SOL     OW25288   2.215   2.922   4.307 -0.6814  0.0785 -0.3225
 4610SOL    HW125289   2.188   2.849   4.250  0.8078  0.3714 -1.4139
 4610SOL    HW225290   2.134   2.944   4.353 -2.8086 -2.9888 -2.5304
 4611SOL     OW25291   0.079   3.693   5.739 -0.3476  0.0034 -0.0088
 4611SOL    HW125292   0.009   3.665   5.679 -0.6504  2.6403 -0.8731
 4611SOL    HW225293   0.136   3.616   5.748 -0.8647 -0.5653 -1.4303
 4612SOL     OW25294   4.339   2.786   6.212  0.4832 -0.2995 -0.2500
 4612SOL    HW125295   4.342   2.719   6.145 -1.2500  1.8453 -2.4887
 4612SOL    HW225296   4.322   2.862   6.157 -0.5502  0.2599  0.8384
 4613SOL     OW25297   2.138   1.830   5.157 -0.2707 -0.1441 -0.2294
 4613SOL    HW125298   2.056   1.787   5.137 -0.8879 -0.4739  3.0199
 4613SOL    HW225299   2.192   1.818   5.079 -0.0301 -0.1104 -0.0710
 4614SOL     OW25300   4.639   4.072  11.221  0.2444 -0.2967 -0.6296
 4614SOL    HW125301   4.668   4.025  11.298  0.1295 -1.5665 -1.3670
 4614SOL    HW225302   4.545   4.078  11.236  0.6833  1.3535  1.4890
 4615SOL     OW25303   3.759   3.275   9.759 -0.3734 -0.0444 -0.1439
 4615SOL    HW125304   3.835   3.298   9.812 -1.3053  0.9681  0.7689
 4615SOL    HW225305   3.769   3.324   9.678  0.0425 -0.7588 -0.5200
 4616SOL     OW25306   4.642   1.096   5.129  0.3662  0.5131 -0.4027
 4616SOL    HW125307   4.715   1.035   5.137 -2.5899 -3.3628 -3.2021
 4616SOL    HW225308   4.662   1.133   5.043  2.2174  1.2926  0.3545
 4617SOL     OW25309   3.288   4.611  12.384  0.5413 -0.0469 -0.7657
 4617SOL    HW125310   3.383   4.624  12.378  0.6512  0.0549  1.3012
 4617SOL    HW225311   3.279   4.541  12.320  0.2298 -1.6713  1.0732
 4618SOL     OW25312   3.991   1.231   4.705 -0.1121 -0.5228  0.1291
 4618SOL    HW125313   4.086   1.229   4.716 -0.1967  0.2513  0.9863
 4618SOL    HW225314   3.980   1.321   4.674  0.8793 -0.6846 -0.6709
 4619SOL     OW25315   4.069   0.761   0.082 -0.0796  0.0182  0.1422
 4619SOL    HW125316   4.037   0.718   0.003 -0.1694 -1.8088  1.1682
 4619SOL    HW225317   4.054   0.690   0.145  3.0251 -1.4351 -0.7031
 4620SOL     OW25318   1.681   1.699   1.625  0.0063  0.2992 -0.0322
 4620SOL    HW125319   1.673   1.604   1.620  1.9611  0.2037 -1.5376
 4620SOL    HW225320   1.705   1.708   1.717 -0.1593  0.6017 -0.0213
 4621SOL     OW25321   1.059   1.020   8.469 -0.4707 -0.2823  0.0907
 4621SOL    HW125322   1.069   0.956   8.399  0.6232 -1.9078  1.7266
 4621SOL    HW225323   1.134   1.077   8.452 -2.2833  2.1070  0.1227
 4622SOL     OW25324   3.491   4.217   7.418 -0.5776  0.5841 -0.3440
 4622SOL    HW125325   3.509   4.140   7.473 -0.6092  1.1558  0.4667
 4622SOL    HW225326   3.396   4.217   7.420 -0.5328  1.4669  1.2873
 4623SOL     OW25327   2.476   3.499   4.801  0.3580 -0.1672  0.4584
 4623SOL    HW125328   2.464   3.536   4.888 -2.9872 -0.9396  0.3111
 4623SOL    HW225329   2.552   3.551   4.774 -0.1203 -0.8960 -2.2441
 4624SOL     OW25330   0.812   3.303   2.721  0.1326 -0.1723 -0.4049
 4624SOL    HW125331   0.762   3.357   2.782  0.4810  0.1303 -0.3888
 4624SOL    HW225332   0.753   3.231   2.701  1.1405 -0.9584 -0.5366
 4625SOL     OW25333   3.085   1.312   1.372  0.2698 -0.3307 -0.0465
 4625SOL    HW125334   2.990   1.308   1.359  0.0312  0.6621  1.4203
 4625SOL    HW225335   3.102   1.281   1.461 -1.0066 -0.7081  0.0639
 4626SOL     OW25336   1.286   4.691   9.697 -0.1015  0.1448 -0.3694
 4626SOL    HW125337   1.193   4.704   9.681 -0.9654 -3.0912  1.9125
 4626SOL    HW225338   1.299   4.672   9.790 -2.8389 -0.5892 -0.1360
 4627SOL     OW25339   2.677   2.371  12.979  0.3212 -0.4650  0.2247
 4627SOL    HW125340   2.607   2.306  12.969 -2.1992  2.7076 -2.5952
 4627SOL    HW225341   2.678   2.412  12.893  0.8173  0.3962  0.6428
 4628SOL     OW25342   4.636   3.346   7.710  0.1840  0.0261  0.2329
 4628SOL    HW125343   4.585   3.425   7.691 -1.0628 -1.7034 -3.5274
 4628SOL    HW225344   4.609   3.302   7.630  0.2529 -0.1521  0.3065
 4629SOL     OW25345   0.388   3.677   1.326 -0.3709  0.8393 -0.3887
 4629SOL    HW125346   0.420   3.742   1.264  0.1162  0.4787 -0.5159
 4629SOL    HW225347   0.317   3.629   1.282 -0.4677  1.2907 -0.7166
 4630SOL     OW25348   3.369   3.035   7.536  0.3191  0.6530 -0.5066
 4630SOL    HW125349   3.378   3.009   7.628 -0.2081 -0.8001 -0.8641
 4630SOL    HW225350   3.355   2.950   7.495 -0.5534  1.0506 -1.0352
 4631SOL     OW25351   4.686   3.677   2.020 -0.2186 -0.3062  0.4741
 4631SOL    HW125352   4.666   3.769   2.002  1.9959 -0.0214 -0.4932
 4631SOL    HW225353   0.054   3.703   2.033  0.9291 -2.5837 -2.7471
 4632SOL     OW25354   4.188   2.207  15.634  0.0586  0.3475 -0.5256
 4632SOL    HW125355   4.246   2.283  15.639  2.3840 -1.5286  1.2526
 4632SOL    HW225356   4.241   2.129  15.617  0.5249  1.0825 -2.4386
 4633SOL     OW25357   1.891   1.037   5.662  0.2271 -0.2469  0.0482
 4633SOL    HW125358   1.910   0.999   5.577  0.2387 -0.0904 -0.0193
 4633SOL    HW225359   1.961   1.102   5.669  0.1384 -0.1614  0.1525
 4634SOL     OW25360   4.266   4.649   6.111  0.3698 -0.2642  0.3648
 4634SOL    HW125361   4.176   4.660   6.140  0.4548  2.8751 -0.5812
 4634SOL    HW225362   4.309   4.654   6.197 -0.1610 -0.5577  0.6445
 4635SOL     OW25363   0.689   2.799  17.623  0.0922  0.1618 -0.2755
 4635SOL    HW125364   0.643   2.848  17.691 -1.8540 -1.0945 -0.6846
 4635SOL    HW225365   0.624   2.793  17.553  0.4430  1.5269 -0.7242
 4636SOL     OW25366   1.549   3.705   6.415 -0.1775  1.3155  0.5023
 4636SOL    HW125367   1.586   3.629   6.371  0.0163  1.0791  1.0826
 4636SOL    HW225368   1.471   3.674   6.461  0.9465 -1.7156  0.3192
 4637SOL     OW25369   3.463   0.577  12.053 -0.3089  0.2723  0.3910
 4637SOL    HW125370   3.456   0.532  11.969 -0.7489 -1.5162  1.3872
 4637SOL    HW225371   3.506   0.523  12.119 -0.2186 -0.1141  0.0179
 4638SOL     OW25372   4.361   0.549   4.845 -0.5075  0.1329 -0.9116
 4638SOL    HW125373   4.441   0.543   4.793 -0.7792  1.5413 -1.4897
 4638SOL    HW225374   4.299   0.598   4.792 -0.8582  1.3154  0.5841
 4639SOL     OW25375   0.187   2.290   6.353  0.8060  0.1113  0.0967
 4639SOL    HW125376   0.104   2.243   6.339 -0.0509  2.0147 -1.3482
 4639SOL    HW225377   0.227   2.226   6.411 -0.0690 -0.8893 -0.4000
 4640SOL     OW25378   3.139   1.183   1.133 -0.3608  0.1824 -0.8982
 4640SOL    HW125379   3.147   1.232   1.215  1.8308  0.8104 -1.4915
 4640SOL    HW225380   3.044   1.192   1.122 -0.5503  0.3675  0.8714
 4641SOL     OW25381   1.758   1.955   7.811  0.1241  0.2031  0.0491
 4641SOL    HW125382   1.740   1.934   7.903 -0.0530  0.5514  0.0952
 4641SOL    HW225383   1.813   2.031   7.827 -1.5368  1.0038  1.9995
 4642SOL     OW25384   0.747   2.516   4.539  0.2054 -0.0932  0.3319
 4642SOL    HW125385   0.764   2.426   4.510 -0.6722 -0.1563  0.0039
 4642SOL    HW225386   0.769   2.513   4.632  1.0863 -1.9027  0.0660
 4643SOL     OW25387   3.058   4.240  10.170  0.3503  0.4311 -0.1684
 4643SOL    HW125388   3.014   4.278  10.094  2.7865 -0.1680 -1.8933
 4643SOL    HW225389   3.068   4.313  10.231 -2.2507 -1.0864  2.0874
 4644SOL     OW25390   0.011   0.590  11.793 -0.3479  0.7032 -0.0221
 4644SOL    HW125391   4.685   0.585  11.711 -2.2496  1.3139  1.0632
 4644SOL    HW225392   4.681   0.532  11.848 -0.7872  2.4791  1.4365
 4645SOL     OW25393   3.712   1.879  11.153  0.6410 -0.6842  0.3144
 4645SOL    HW125394   3.654   1.806  11.177  0.0152 -0.3601 -0.2206
 4645SOL    HW225395   3.791   1.841  11.192 -0.4005 -0.5890  2.5122
 4646SOL     OW25396   2.113   0.676   7.846 -0.1989 -0.2095 -0.1808
 4646SOL    HW125397   2.189   0.734   7.842 -0.4740  0.2065  0.6594
 4646SOL    HW225398   2.073   0.712   7.924  1.1045  0.5643  0.1296
 4647SOL     OW25399   0.745   1.555  16.554 -0.5000  0.1531  0.6969
 4647SOL    HW125400   0.739   1.600  16.638  0.0483  0.0440  0.7927
 4647SOL    HW225401   0.703   1.624  16.502  0.1416 -0.6580 -0.9029
 4648SOL     OW25402   0.037   4.581  13.725  0.0653  0.3881 -0.1041
 4648SOL    HW125403   0.060   4.515  13.659 -2.9331 -0.2238 -0.5462
 4648SOL    HW225404   0.009   4.657  13.674  0.0907  1.1007  0.9385
 4649SOL     OW25405   3.522   1.390  11.541 -0.1711  0.1417 -0.2091
 4649SOL    HW125406   3.555   1.300  11.537 -1.0137 -0.1248 -1.1107
 4649SOL    HW225407   3.467   1.394  11.620  2.1121 -0.5176  1.4109
 4650SOL     OW25408   0.903   4.483   5.515 -0.1239  0.3704  0.5739
 4650SOL    HW125409   0.860   4.401   5.491 -0.4932  1.3754 -2.1464
 4650SOL    HW225410   0.950   4.450   5.591 -0.1279  0.8783  0.7939
 4651SOL     OW25411   2.468   0.626   6.717 -0.0397 -0.1205  0.0327
 4651SOL    HW125412   2.498   0.623   6.808  2.3213 -0.3917 -0.7421
 4651SOL    HW225413   2.395   0.565   6.713  0.6497 -0.8206 -2.2629
 4652SOL     OW25414   1.805   2.507  13.627  0.1765 -0.3745  0.0369
 4652SOL    HW125415   1.756   2.488  13.547  0.2186  1.3746 -0.3983
 4652SOL    HW225416   1.858   2.428  13.638 -1.1228 -1.2455  0.0371
 4653SOL     OW25417   3.994   1.132   8.362  0.2497  0.2053 -0.3849
 4653SOL    HW125418   4.028   1.043   8.352 -0.1389  0.0461 -0.3053
 4653SOL    HW225419   4.018   1.170   8.278  0.4908  2.0673  0.5376
 4654SOL     OW25420   4.174   0.055  13.585 -0.4669 -0.0729 -0.0257
 4654SOL    HW125421   4.209   4.722  13.654 -0.1943  0.6878  0.4512
 4654SOL    HW225422   4.164   4.716  13.512 -0.0750 -0.0658 -0.0874
 4655SOL     OW25423   4.397   3.916  15.463 -0.0326 -0.3926  0.1931
 4655SOL    HW125424   4.349   3.999  15.469  0.3705 -0.2444  1.3449
 4655SOL    HW225425   4.461   3.948  15.399  0.2916  2.3242  1.8536
 4656SOL     OW25426   4.367   3.284   7.880 -0.3208  0.1078 -0.5035
 4656SOL    HW125427   4.316   3.298   7.959  1.4093  2.1315  0.2470
 4656SOL    HW225428   4.310   3.250   7.811 -0.5982  0.0621 -0.2495
 4657SOL     OW25429   3.625   2.695   1.884  0.3581 -0.0236 -0.6752
 4657SOL    HW125430   3.672   2.621   1.922  1.1795  0.1554 -1.3407
 4657SOL    HW225431   3.692   2.762   1.899 -1.4648  1.5420  0.6414
 4658SOL     OW25432   0.539   2.420  12.799  0.4706 -0.4989  0.6733
 4658SOL    HW125433   0.621   2.413  12.750 -0.4223 -0.8769 -0.7667
 4658SOL    HW225434   0.499   2.499  12.762  1.7715  0.6484  1.7635
 4659SOL     OW25435   0.553   1.252   7.476 -0.3946  0.5918  0.0627
 4659SOL    HW125436   0.605   1.225   7.552 -0.2221  1.1714  0.1504
 4659SOL    HW225437   0.467   1.216   7.498  0.4250 -2.4779 -1.6343
 4660SOL     OW25438   2.743   2.985   2.654 -0.1192 -0.6158  0.2342
 4660SOL    HW125439   2.755   2.897   2.689  1.0854 -0.5854 -0.1128
 4660SOL    HW225440   2.743   3.038   2.733 -1.9251  3.2380 -2.3137
 4661SOL     OW25441   0.054   2.608  15.818 -0.1701 -0.0975  0.2497
 4661SOL    HW125442   0.081   2.681  15.763 -0.4802 -0.4833 -0.4069
 4661SOL    HW225443   0.131   2.552  15.811  1.4401  2.0236  1.1565
 4662SOL     OW25444   0.608   0.285  12.641  0.4693 -0.8121 -0.3805
 4662SOL    HW125445   0.588   0.370  12.602  0.7999 -0.3111  0.5487
 4662SOL    HW225446   0.624   0.247  12.555 -1.4713  0.1010 -1.1364
 4663SOL     OW25447   3.735   1.174   6.755  0.4941 -0.2848  0.1715
 4663SOL    HW125448   3.689   1.090   6.753 -0.8714  0.4528  0.9761
 4663SOL    HW225449   3.667   1.240   6.741 -0.4658 -0.9493  1.7702
 4664SOL     OW25450   2.397   3.382  10.372  0.3048  0.0610  0.1302
 4664SOL    HW125451   2.310   3.356  10.402  0.6845 -0.2612  0.9339
 4664SOL    HW225452   2.411   3.346  10.285 -0.6197 -0.5819  0.2561
 4665SOL     OW25453   2.520   0.193  13.856 -0.0359 -0.1161 -0.2747
 4665SOL    HW125454   2.440   0.185  13.908  0.9341  1.3172  1.4425
 4665SOL    HW225455   2.493   0.130  13.790  0.0175 -1.3140  0.8458
 4666SOL     OW25456   2.824   0.357   8.358 -0.3919  0.1468  0.1104
 4666SOL    HW125457   2.749   0.301   8.381 -1.5230  1.1234 -1.2299
 4666SOL    HW225458   2.892   0.292   8.337  0.3475  1.5949 -1.9021
 4667SOL     OW25459   1.349   0.658   4.178  0.1677 -0.7574 -0.6359
 4667SOL    HW125460   1.378   0.600   4.248  0.5951 -0.9792 -1.0035
 4667SOL    HW225461   1.426   0.712   4.162 -0.4795  0.5362  0.5718
 4668SOL     OW25462   4.402   4.715  14.212  0.7366 -0.2567  0.1563
 4668SOL    HW125463   4.336   0.008  14.144 -0.9933 -0.3665  1.8090
 4668SOL    HW225464   4.483   4.705  14.161  1.0269 -0.4391  0.6564
 4669SOL     OW25465   2.620   3.002   6.485 -0.0971 -0.0575 -0.6985
 4669SOL    HW125466   2.707   2.967   6.504 -0.0357  1.4647  1.8546
 4669SOL    HW225467   2.596   2.937   6.419  2.3707 -0.3035 -1.3192
 4670SOL     OW25468   3.818   4.096   7.640  0.4328 -0.3286  0.3685
 4670SOL    HW125469   3.890   4.100   7.703  1.5071 -0.2232 -0.8893
 4670SOL    HW225470   3.750   4.047   7.688  1.0346 -0.2259  1.3245
 4671SOL     OW25471   3.387   1.414   1.392  0.4479  1.0156  0.2136
 4671SOL    HW125472   3.393   1.361   1.471  2.2700  0.0177 -0.5909
 4671SOL    HW225473   3.333   1.489   1.418  0.7743  0.3920  2.7116
 4672SOL     OW25474   0.573   4.657   2.174 -0.4188  0.2507 -0.1028
 4672SOL    HW125475   0.533   4.715   2.238  0.1202 -0.8858  1.2559
 4672SOL    HW225476   0.667   4.676   2.178 -0.1836 -1.0176  0.3783
 4673SOL     OW25477   2.182   0.420   2.287  0.3820  0.5431 -0.6349
 4673SOL    HW125478   2.180   0.503   2.240 -1.8498  1.0612  0.3562
 4673SOL    HW225479   2.123   0.369   2.231  0.9754  1.0853 -1.7465
 4674SOL     OW25480   1.219   3.255   8.379 -0.0087 -0.1272  0.0285
 4674SOL    HW125481   1.149   3.293   8.433  1.0887  0.2615  1.1732
 4674SOL    HW225482   1.295   3.284   8.430 -1.4709 -0.8814  2.6337
 4675SOL     OW25483   3.454   0.759   4.638  0.3281  0.2450  0.4099
 4675SOL    HW125484   3.508   0.834   4.615 -0.5296  0.0579 -2.2141
 4675SOL    HW225485   3.375   0.808   4.618 -0.1887 -1.2814 -1.3336
 4676SOL     OW25486   4.163   2.707  11.801  0.2296 -1.0103  0.3558
 4676SOL    HW125487   4.098   2.642  11.771  1.8667 -2.9004  0.9022
 4676SOL    HW225488   4.158   2.775  11.734 -2.5047 -1.9169 -0.3803
 4677SOL     OW25489   1.260   0.251   8.811  0.2458 -0.1260  0.2936
 4677SOL    HW125490   1.216   0.283   8.890  2.9182  1.0808  1.2775
 4677SOL    HW225491   1.199   0.279   8.743 -1.4158 -0.2048  1.7635
 4678SOL     OW25492   1.177   0.279  16.620 -0.1269 -0.1306  0.3134
 4678SOL    HW125493   1.223   0.218  16.678 -0.2004  0.5797  1.1139
 4678SOL    HW225494   1.223   0.256  16.539 -0.9706 -0.2793 -0.1262
 4679SOL     OW25495   3.280   3.179   2.282  0.6603  0.2343 -0.1826
 4679SOL    HW125496   3.286   3.099   2.335  2.4274 -0.9983 -2.1963
 4679SOL    HW225497   3.315   3.148   2.198 -2.5801  0.1207 -1.5019
 4680SOL     OW25498   3.394   0.352   9.850 -0.0503 -0.2011  0.2779
 4680SOL    HW125499   3.481   0.324   9.878  0.6121  1.4079 -0.1892
 4680SOL    HW225500   3.410   0.422   9.788  1.6493 -1.5602 -0.8120
 4681SOL     OW25501   2.922   3.633   2.397 -0.4136 -0.6692 -0.3241
 4681SOL    HW125502   2.998   3.608   2.344 -0.5302  3.3077 -2.3591
 4681SOL    HW225503   2.964   3.689   2.461 -1.2405  1.2582 -1.4816
 4682SOL     OW25504   1.998   1.050   3.071 -0.4066  0.0726  0.0693
 4682SOL    HW125505   1.903   1.059   3.064 -0.1837  2.3069 -0.1366
 4682SOL    HW225506   2.038   1.103   3.002 -1.0811  1.6705  0.9313
 4683SOL     OW25507   0.888   3.328   4.660 -0.5061  0.2302 -0.1910
 4683SOL    HW125508   0.968   3.306   4.708 -1.1984 -0.4927  0.6243
 4683SOL    HW225509   0.882   3.420   4.687 -0.1146  0.0778  0.4256
 4684SOL     OW25510   1.215   1.258  10.603 -0.2600  0.3063 -0.1264
 4684SOL    HW125511   1.170   1.295  10.678 -1.1717  1.5833 -1.3091
 4684SOL    HW225512   1.175   1.304  10.530  0.8980  0.2430 -0.8074
 4685SOL     OW25513   4.304   4.428   0.780  0.7229  0.4667  0.0714
 4685SOL    HW125514   4.290   4.372   0.856  1.4590 -1.6171 -1.3325
 4685SOL    HW225515   4.243   4.500   0.799  1.2340  0.8463  0.2591
 4686SOL     OW25516   0.411   2.573   1.063 -0.1865 -0.1569 -1.2974
 4686SOL    HW125517   0.432   2.494   1.114 -2.2039  0.2205  0.1437
 4686SOL    HW225518   0.491   2.623   1.074 -0.2167 -0.3227 -0.3248
 4687SOL     OW25519   2.303   2.158   4.275 -0.4110 -0.3612 -0.1219
 4687SOL    HW125520   2.385   2.205   4.291 -1.1237  0.2937  1.6225
 4687SOL    HW225521   2.265   2.189   4.193  0.7563 -0.4411 -0.6903
 4688SOL     OW25522   1.154   3.553   8.074 -0.3158 -0.3779 -0.5348
 4688SOL    HW125523   1.201   3.591   8.148  2.2955  1.3823 -3.1225
 4688SOL    HW225524   1.132   3.636   8.033  0.2720  0.3071  0.5364
 4689SOL     OW25525   1.208   0.195   4.836  0.6699 -0.1016 -0.0513
 4689SOL    HW125526   1.114   0.186   4.818  0.5871  1.0687 -0.1955
 4689SOL    HW225527   1.219   0.182   4.930  0.9794 -1.7196 -0.3151
 4690SOL     OW25528   0.416   0.607   4.888  0.2762  0.2354  0.2681
 4690SOL    HW125529   0.323   0.627   4.889 -0.8790 -4.8984 -1.4958
 4690SOL    HW225530   0.422   0.516   4.858  0.2498  0.6443 -0.9652
 4691SOL     OW25531   4.095   4.160  10.238  0.2958  0.5913  0.4937
 4691SOL    HW125532   4.121   4.072  10.265 -0.7736 -0.2528 -1.2285
 4691SOL    HW225533   4.008   4.141  10.203  1.2668 -2.8714 -0.0854
 4692SOL     OW25534   0.878   3.145  14.583 -0.0100  0.3128 -0.2680
 4692SOL    HW125535   0.808   3.131  14.646  0.2280  0.6922  0.0818
 4692SOL    HW225536   0.953   3.149  14.642 -1.0227 -0.3315  1.0440
 4693SOL     OW25537   1.301   3.730   3.504  0.1909  0.2330  0.3159
 4693SOL    HW125538   1.273   3.671   3.434  0.5268 -1.6444  1.7530
 4693SOL    HW225539   1.222   3.745   3.556  0.9534  0.0680  1.5057
 4694SOL     OW25540   1.904   4.093  10.393  1.1815 -0.3180 -0.2688
 4694SOL    HW125541   1.919   4.182  10.364 -1.2563 -0.5180 -2.1603
 4694SOL    HW225542   1.967   4.083  10.465  1.8028 -1.7494 -1.0082
 4695SOL     OW25543   1.607   4.124  10.365  0.0045 -0.4494  0.2085
 4695SOL    HW125544   1.629   4.071  10.441 -0.1414 -0.1929  0.4260
 4695SOL    HW225545   1.697   4.144  10.338 -0.3993  0.8349 -0.1554
 4696SOL     OW25546   3.155   3.401   3.266  0.2373  0.4738  0.0872
 4696SOL    HW125547   3.174   3.481   3.315  0.5771  1.6588 -1.9801
 4696SOL    HW225548   3.065   3.379   3.289  0.4812 -0.6925 -0.0303
 4697SOL     OW25549   4.094   3.366   0.933 -0.2823 -0.2616  0.3616
 4697SOL    HW125550   4.038   3.393   1.006 -0.2293  1.8938 -0.3970
 4697SOL    HW225551   4.178   3.386   0.974 -1.7402 -1.2936  3.8981
 4698SOL     OW25552   0.261   1.943   4.382 -0.6037 -0.8078  0.5753
 4698SOL    HW125553   0.238   1.879   4.449 -1.8845  0.6021  1.4981
 4698SOL    HW225554   0.252   1.886   4.305 -1.2969 -0.7358  0.6041
 4699SOL     OW25555   2.375   2.410   4.659  0.2651 -0.3687  0.6147
 4699SOL    HW125556   2.290   2.370   4.676 -0.6556  0.5328 -1.8984
 4699SOL    HW225557   2.345   2.499   4.642  2.0941 -0.1124 -1.3226
 4700SOL     OW25558   2.563   2.704   3.275 -0.1340  0.1574 -0.0217
 4700SOL    HW125559   2.566   2.690   3.370 -2.5340 -0.1432  0.0100
 4700SOL    HW225560   2.470   2.693   3.252 -0.6241 -1.7304  2.8218
 4701SOL     OW25561   2.530   1.793   7.349 -0.4835 -0.1031 -0.2027
 4701SOL    HW125562   2.514   1.830   7.435 -1.2105  0.1367 -0.4404
 4701SOL    HW225563   2.560   1.706   7.373 -0.3191  0.0279  0.0586
 4702SOL     OW25564   3.633   0.080   3.070 -0.0420  0.3649 -1.0423
 4702SOL    HW125565   3.645   0.054   2.979  1.9329 -1.8680 -0.1395
 4702SOL    HW225566   3.625   0.174   3.055 -0.9890  0.3698 -0.4931
 4703SOL     OW25567   2.258   3.405   5.067  0.6475  0.3985 -0.0826
 4703SOL    HW125568   2.223   3.428   5.154 -1.1435 -0.6295 -0.5179
 4703SOL    HW225569   2.339   3.456   5.072  1.9626 -1.8247  1.2647
 4704SOL     OW25570   3.208   1.596  12.368  0.3724  0.0758  0.0178
 4704SOL    HW125571   3.223   1.504  12.388  0.8999 -0.0044 -0.7464
 4704SOL    HW225572   3.295   1.614  12.333 -0.4601  1.1846 -1.5253
 4705SOL     OW25573   0.522   1.879  13.740 -0.2584  0.0570  0.5434
 4705SOL    HW125574   0.494   1.882  13.831  0.1930 -1.3601  0.7256
 4705SOL    HW225575   0.443   1.866  13.688  0.2112 -0.9850  0.0924
 4706SOL     OW25576   4.332   3.513   2.706  0.1148  0.4658  0.5793
 4706SOL    HW125577   4.240   3.528   2.730  0.0450  0.6071  0.2266
 4706SOL    HW225578   4.329   3.454   2.630  0.8042  0.3657  0.6288
 4707SOL     OW25579   0.897   2.359   5.835  0.3690 -0.3944  0.2104
 4707SOL    HW125580   0.870   2.423   5.902  0.3389 -0.5400  0.3364
 4707SOL    HW225581   0.815   2.351   5.787 -0.6342  1.2538  1.6254
 4708SOL     OW25582   3.288   1.486   7.400 -0.3169  0.8122 -0.0213
 4708SOL    HW125583   3.301   1.452   7.488 -1.8487 -0.2804 -0.2072
 4708SOL    HW225584   3.348   1.560   7.392  0.0085  0.9395  3.5993
 4709SOL     OW25585   1.072   0.922   3.179  0.6044  0.1056  0.2440
 4709SOL    HW125586   1.165   0.932   3.159  0.0133  0.3718 -2.3432
 4709SOL    HW225587   1.028   0.966   3.106  3.8082  2.2249 -0.4222
 4710SOL     OW25588   1.046   2.923  17.623  0.1510  0.3065 -0.4255
 4710SOL    HW125589   1.126   2.916  17.675 -0.0674  1.5558  0.0896
 4710SOL    HW225590   1.037   3.016  17.600  0.4342  0.7206  1.1038
 4711SOL     OW25591   4.295   1.350   5.419 -0.1936 -0.3759 -0.0559
 4711SOL    HW125592   4.248   1.280   5.466 -0.1727  0.7740  1.6952
 4711SOL    HW225593   4.304   1.328   5.327 -0.1874  0.3299 -0.2208
 4712SOL     OW25594   0.860   3.105  12.108  0.2213  0.3171  0.1175
 4712SOL    HW125595   0.785   3.136  12.057  0.2378 -0.3151 -0.2926
 4712SOL    HW225596   0.873   3.023  12.061 -0.9106  0.4568 -0.4244
 4713SOL     OW25597   0.665   0.198   3.095 -0.3464 -0.0801 -0.1386
 4713SOL    HW125598   0.752   0.158   3.096 -0.4213 -0.2461 -0.6251
 4713SOL    HW225599   0.632   0.160   3.014  2.3499  1.0254 -1.7825
 4714SOL     OW25600   0.112   3.646   9.243 -0.2944 -0.4506 -0.6131
 4714SOL    HW125601   0.205   3.633   9.221 -0.3131  1.5519 -1.8579
 4714SOL    HW225602   0.058   3.613   9.171 -0.6159  0.2515 -0.6941
 4715SOL     OW25603   1.499   0.552   9.344  0.5185  0.1061 -0.3734
 4715SOL    HW125604   1.411   0.540   9.308  0.7475 -1.0195 -0.5648
 4715SOL    HW225605   1.547   0.503   9.277  0.4911 -2.3809  1.4305
 4716SOL     OW25606   4.247   2.281   3.400  0.0030  0.0520  0.6339
 4716SOL    HW125607   4.160   2.315   3.382  0.4586  0.3643 -0.9212
 4716SOL    HW225608   4.237   2.261   3.493  0.0124 -1.2922  0.3489
 4717SOL     OW25609   0.125   4.104   8.388  0.1207  0.2659 -0.6434
 4717SOL    HW125610   0.106   4.151   8.469 -2.2670 -1.6434 -0.1115
 4717SOL    HW225611   0.132   4.174   8.323  0.8447  1.3871  0.6700
 4718SOL     OW25612   4.559   1.490   7.616 -0.1539 -0.2071 -0.3306
 4718SOL    HW125613   4.631   1.444   7.660  0.0792  1.2120  0.7523
 4718SOL    HW225614   4.512   1.539   7.683  2.1581  1.2694  0.2224
 4719SOL     OW25615   2.045   1.575   6.701  0.3538  0.8010  0.4496
 4719SOL    HW125616   2.047   1.592   6.607 -0.4615 -1.9910 -0.0859
 4719SOL    HW225617   2.138   1.566   6.723  0.2939  2.4611  1.3660
 4720SOL     OW25618   4.373   2.628   6.637 -0.2981 -0.0182  0.2941
 4720SOL    HW125619   4.424   2.577   6.700  2.0788 -0.4658 -1.9852
 4720SOL    HW225620   4.438   2.649   6.569 -1.6744 -0.9713 -1.3219
 4721SOL     OW25621   4.353   2.002   7.608 -1.0635  0.1412  0.1576
 4721SOL    HW125622   4.310   1.919   7.630  0.3972 -0.3502  1.1247
 4721SOL    HW225623   4.279   2.049   7.569 -2.0563 -0.4063  1.3817
 4722SOL     OW25624   4.282   2.926   1.262 -0.5853 -0.0661  0.4258
 4722SOL    HW125625   4.308   2.927   1.170 -1.1369 -0.5088  0.2623
 4722SOL    HW225626   4.234   2.843   1.252  1.4158 -1.3089  1.2142
 4723SOL     OW25627   3.963   3.025   4.924 -0.2744 -0.3098  0.1847
 4723SOL    HW125628   3.916   3.057   4.847 -0.3839  0.7803  0.7050
 4723SOL    HW225629   3.905   3.049   4.996  0.2126 -2.4773  1.2852
 4724SOL     OW25630   0.644   1.739  17.363 -0.1399  0.2709  0.3255
 4724SOL    HW125631   0.701   1.664  17.377 -1.7393 -1.3917 -1.9586
 4724SOL    HW225632   0.592   1.726  17.442 -0.7228 -0.3633 -0.1596
 4725SOL     OW25633   3.063   2.606   5.814  0.1015 -0.3447 -0.0947
 4725SOL    HW125634   3.049   2.650   5.730  3.8734  0.2812 -0.4423
 4725SOL    HW225635   3.069   2.517   5.779 -0.1620 -0.1950 -0.5162
 4726SOL     OW25636   2.422   4.663   5.847  0.2443 -0.1382  0.1662
 4726SOL    HW125637   2.450   4.617   5.768 -1.0746  2.0719 -1.5937
 4726SOL    HW225638   2.509   4.664   5.887  0.3903  0.9620 -0.1673
 4727SOL     OW25639   1.120   2.265   8.662  0.3780  0.3193 -0.4421
 4727SOL    HW125640   1.109   2.340   8.603  1.2325 -0.9614 -2.2122
 4727SOL    HW225641   1.173   2.304   8.731 -0.6807  1.3202 -0.1974
 4728SOL     OW25642   2.488   4.279   1.532 -0.1925  0.0957  0.7611
 4728SOL    HW125643   2.477   4.336   1.608 -1.9888 -0.0885  0.6218
 4728SOL    HW225644   2.468   4.192   1.567  0.1908 -0.3637 -0.1626
 4729SOL     OW25645   4.668   0.952  15.052 -0.7129  0.3721  0.0220
 4729SOL    HW125646   4.662   1.047  15.038  0.1270  0.2171 -1.4781
 4729SOL    HW225647   4.646   0.923  14.963 -1.3274  1.8579 -0.3261
 4730SOL     OW25648   2.295   0.181   4.638 -0.1461  0.3666  0.3329
 4730SOL    HW125649   2.369   0.130   4.605 -1.7165 -1.3104 -0.6026
 4730SOL    HW225650   2.276   0.245   4.570  0.1399 -0.4376 -0.4900
 4731SOL     OW25651   3.922   4.366  14.050  0.6410 -0.2172  0.8660
 4731SOL    HW125652   4.005   4.399  14.085 -0.0477  1.4248  0.9570
 4731SOL    HW225653   3.949   4.276  14.029  1.8917  0.2155  0.5873
 4732SOL     OW25654   2.916   3.407  10.444  0.2116 -0.2842 -0.1350
 4732SOL    HW125655   2.994   3.441  10.400 -0.1376 -1.3853 -1.5900
 4732SOL    HW225656   2.965   3.330  10.474 -0.7734 -0.7940  0.1547
 4733SOL     OW25657   1.657   3.342   8.064 -0.3393 -0.2691 -0.1576
 4733SOL    HW125658   1.728   3.404   8.045 -0.1069  0.1580  2.0595
 4733SOL    HW225659   1.576   3.385   8.036 -0.5146 -0.6461 -0.2284
 4734SOL     OW25660   2.192   4.187   4.922 -0.3467 -0.2032 -0.4113
 4734SOL    HW125661   2.169   4.096   4.907  1.3818 -0.6125 -0.6341
 4734SOL    HW225662   2.143   4.208   5.002  0.7607  0.7248  0.0296
 4735SOL     OW25663   0.504   3.386   4.807  0.1522  0.4642 -0.0626
 4735SOL    HW125664   0.540   3.386   4.718  3.1483 -0.2315  1.1494
 4735SOL    HW225665   0.479   3.296   4.830  0.0161  0.0206 -1.9393
 4736SOL     OW25666   0.889   2.123   4.708 -0.4254 -0.3553  0.5057
 4736SOL    HW125667   0.929   2.209   4.720  0.2976 -0.5272 -0.7344
 4736SOL    HW225668   0.825   2.146   4.642 -1.3247  0.2664  1.5940
 4737SOL     OW25669   1.359   3.295   6.526 -0.1565 -0.1188  0.2267
 4737SOL    HW125670   1.407   3.213   6.531 -0.5455 -0.2697  1.3986
 4737SOL    HW225671   1.291   3.275   6.461 -1.5415  3.1248  0.6644
 4738SOL     OW25672   2.502   3.506  14.010  0.5587  0.6763 -0.7661
 4738SOL    HW125673   2.578   3.564  13.998  0.6032  0.8907  0.5342
 4738SOL    HW225674   2.433   3.550  13.960  0.3210  2.0110  0.7144
 4739SOL     OW25675   3.432   2.939   7.781 -0.4390  0.0294  0.1500
 4739SOL    HW125676   3.433   2.943   7.877  0.9597  1.7665  0.0527
 4739SOL    HW225677   3.519   2.904   7.766  0.2315  1.7721 -0.0669
 4740SOL     OW25678   3.753   1.405   9.429 -0.8718  0.3529  0.8528
 4740SOL    HW125679   3.688   1.471   9.406 -1.2513  0.5984  2.6403
 4740SOL    HW225680   3.696   1.331   9.450 -1.4375  0.5356 -0.0068
 4741SOL     OW25681   3.906   4.343  17.248  0.3179 -0.1795  0.2875
 4741SOL    HW125682   3.919   4.318  17.157  0.6346  1.1513 -0.0292
 4741SOL    HW225683   3.812   4.324  17.258  0.3102  0.4716  1.4440
 4742SOL     OW25684   1.841   1.936   8.290 -0.4690 -0.2796 -0.4776
 4742SOL    HW125685   1.793   1.961   8.211 -1.4588 -0.0707  0.1867
 4742SOL    HW225686   1.870   1.854   8.251 -0.4469 -0.4950 -0.0010
 4743SOL     OW25687   3.134   1.277   5.562  0.1924  0.2376 -0.2522
 4743SOL    HW125688   3.041   1.280   5.541  0.1420  0.4659 -0.0062
 4743SOL    HW225689   3.145   1.372   5.573  0.4327  0.3149 -1.1074
 4744SOL     OW25690   4.008   2.142   7.324 -0.2118 -0.0601  0.4034
 4744SOL    HW125691   3.944   2.072   7.319 -2.0541  1.6200  0.4047
 4744SOL    HW225692   3.946   2.210   7.352  0.1979  0.6303 -0.3601
 4745SOL     OW25693   1.167   3.796   5.432  0.0882 -0.2124 -0.0114
 4745SOL    HW125694   1.233   3.780   5.365  1.2722  0.2487  1.0343
 4745SOL    HW225695   1.219   3.844   5.497 -1.7222  1.7317 -0.0301
 4746SOL     OW25696   2.139   2.526  17.151  0.3134 -0.7806 -0.2768
 4746SOL    HW125697   2.215   2.556  17.101  0.4755 -1.4117 -0.4034
 4746SOL    HW225698   2.151   2.554  17.242  1.1920  1.6907 -1.1449
 4747SOL     OW25699   3.842   2.068   4.822  0.5695  0.3281  0.0407
 4747SOL    HW125700   3.785   1.991   4.830 -0.8155  1.4397  0.7424
 4747SOL    HW225701   3.771   2.132   4.821  1.5572  1.4248  0.3988
 4748SOL     OW25702   4.408   3.969   3.686  0.0628  0.0521  0.2138
 4748SOL    HW125703   4.416   4.015   3.769  1.2685  0.1145  0.0588
 4748SOL    HW225704   4.433   3.882   3.719  0.6068  0.0064 -0.3179
 4749SOL     OW25705   3.847   1.099   3.450  0.4539  0.3541  0.0522
 4749SOL    HW125706   3.922   1.090   3.509 -0.9135  0.1838  1.7580
 4749SOL    HW225707   3.778   1.122   3.512 -0.0753 -1.6634  0.2009
 4750SOL     OW25708   2.992   2.118   3.972  0.5726  0.2099 -0.9100
 4750SOL    HW125709   2.945   2.035   3.963  1.5525 -0.3528 -0.8106
 4750SOL    HW225710   2.939   2.165   4.036  0.2753 -1.1892 -0.1291
 4751SOL     OW25711   0.251   0.329   4.506 -0.2563  0.0239 -0.1862
 4751SOL    HW125712   0.265   0.270   4.432 -2.1542 -0.8764  0.1496
 4751SOL    HW225713   0.157   0.344   4.517 -0.8739 -3.3448 -0.8521
 4752SOL     OW25714   1.143   3.958  15.798 -0.1534  0.6723  0.4078
 4752SOL    HW125715   1.140   3.958  15.703 -0.2052 -4.4579  0.4458
 4752SOL    HW225716   1.102   4.041  15.824 -0.1149  1.0910 -0.8640
 4753SOL     OW25717   1.757   1.682   0.003 -0.3576 -0.1352 -0.2029
 4753SOL    HW125718   1.811   1.753  17.662  0.9612 -0.7106  0.6876
 4753SOL    HW225719   1.705   1.658  17.620 -0.9911 -0.2448  0.2597
 4754SOL     OW25720   3.958   4.271   4.974  0.3801  0.1093  0.1746
 4754SOL    HW125721   3.966   4.285   5.068  1.7708  3.1873 -0.4103
 4754SOL    HW225722   3.865   4.247   4.972 -0.2892  2.5528  1.9211
 4755SOL     OW25723   3.538   1.222  10.318 -0.1854  0.0882  0.0652
 4755SOL    HW125724   3.602   1.157  10.288 -0.7055 -0.7359  0.7480
 4755SOL    HW225725   3.510   1.268  10.239 -0.4024 -0.7159 -0.3254
 4756SOL     OW25726   3.461   1.190   3.580 -0.0134 -0.2429 -0.2577
 4756SOL    HW125727   3.488   1.270   3.533  1.2520 -0.9256 -0.6834
 4756SOL    HW225728   3.552   1.162   3.591 -0.0351 -0.8073 -1.5087
 4757SOL     OW25729   4.686   0.407   2.958  0.0648  0.2745 -0.0706
 4757SOL    HW125730   4.627   0.360   2.899  0.8121  3.4525 -3.3631
 4757SOL    HW225731   4.692   0.491   2.913  1.2483  0.4946  0.4959
 4758SOL     OW25732   2.666   2.534   5.637 -0.2075 -0.4038 -0.3829
 4758SOL    HW125733   2.691   2.444   5.614  1.1339 -0.0943 -0.1330
 4758SOL    HW225734   2.734   2.574   5.583  0.7580  0.1572  1.2533
 4759SOL     OW25735   1.489   3.963   3.465 -0.0524 -0.1273  0.0593
 4759SOL    HW125736   1.408   4.014   3.459  0.5234  0.8392  0.6242
 4759SOL    HW225737   1.454   3.882   3.428  0.0269 -0.5019  0.7953
 4760SOL     OW25738   2.534   2.051   4.565 -0.1134 -0.2427  0.0556
 4760SOL    HW125739   2.526   1.956   4.560 -3.6637  0.2540 -3.3622
 4760SOL    HW225740   2.442   2.073   4.577  0.5538  2.5451 -0.0111
 4761SOL     OW25741   3.419   2.373  14.260  0.3313  0.3415 -0.3193
 4761SOL    HW125742   3.397   2.464  14.278  0.2377  0.0128  1.1892
 4761SOL    HW225743   3.409   2.384  14.165 -0.4165  0.2938 -0.2493
 4762SOL     OW25744   1.005   0.922   6.519  0.4538 -0.2588  0.1885
 4762SOL    HW125745   0.990   0.841   6.569 -0.5282  0.7072  1.4423
 4762SOL    HW225746   0.972   0.995   6.571  0.5694 -0.2024  0.1837
 4763SOL     OW25747   2.449   0.407   7.219 -0.1410 -0.1736 -0.3046
 4763SOL    HW125748   2.529   0.460   7.225 -0.1433 -0.1614 -0.3791
 4763SOL    HW225749   2.445   0.378   7.310 -2.0395 -2.4679 -1.1356
 4764SOL     OW25750   1.416   0.391  14.363 -0.4090 -0.4717  1.0524
 4764SOL    HW125751   1.417   0.442  14.444 -0.8014 -0.7954  1.2623
 4764SOL    HW225752   1.322   0.403  14.346 -0.0657  0.2654 -0.3378
 4765SOL     OW25753   0.926   0.101   3.151  0.4031 -0.2777  0.0206
 4765SOL    HW125754   1.013   0.125   3.119  0.5751 -0.1464  0.5946
 4765SOL    HW225755   0.941   0.130   3.241 -1.8069 -1.9744  0.9252
 4766SOL     OW25756   3.749   3.612   7.240 -0.1386  0.2580 -0.2595
 4766SOL    HW125757   3.743   3.614   7.144  0.0436  1.1757 -0.2472
 4766SOL    HW225758   3.819   3.675   7.251  1.3081 -1.3728 -0.1162
 4767SOL     OW25759   4.428   3.827   7.974  0.1486 -0.5440 -0.2482
 4767SOL    HW125760   4.486   3.802   8.046 -0.4916  0.8820  0.7518
 4767SOL    HW225761   4.473   3.781   7.903  1.4300  0.9984 -0.4065
 4768SOL     OW25762   0.097   0.828   3.349  0.2037 -0.4261 -0.0230
 4768SOL    HW125763   0.009   0.792   3.331  0.0661 -1.5495  2.8795
 4768SOL    HW225764   0.145   0.755   3.389  0.1791 -1.5814 -2.0910
 4769SOL     OW25765   1.206   0.167  13.740  0.0029  0.3416 -0.3212
 4769SOL    HW125766   1.267   0.115  13.792  0.0012  1.3399  0.6940
 4769SOL    HW225767   1.258   0.244  13.721  0.0950  0.1506 -0.8376
 4770SOL     OW25768   4.699   1.540   8.020  0.1891  0.7354  0.2577
 4770SOL    HW125769   0.006   1.485   7.948 -0.8830 -0.0744  0.4456
 4770SOL    HW225770   0.057   1.578   8.055  0.9080 -0.5399  0.0093
 4771SOL     OW25771   1.597   0.730   6.389 -0.3035  0.0668  0.4186
 4771SOL    HW125772   1.607   0.815   6.346  0.0798  0.4400  1.2451
 4771SOL    HW225773   1.513   0.692   6.362  2.0446 -3.8253 -1.4885
 4772SOL     OW25774   4.696   0.434   5.233  0.1497  0.1379  0.2926
 4772SOL    HW125775   4.692   0.521   5.192 -1.1506 -0.2921 -0.4946
 4772SOL    HW225776   4.666   0.459   5.321  2.6301  2.0406  0.5941
 4773SOL     OW25777   3.360   3.930   2.525 -0.2490 -0.2085  0.2231
 4773SOL    HW125778   3.383   4.002   2.584 -0.2820 -0.9245  1.1044
 4773SOL    HW225779   3.390   3.857   2.579 -2.3138 -0.6103  0.8421
 4774SOL     OW25780   3.965   1.834   4.503  0.5752  0.6355 -0.0926
 4774SOL    HW125781   3.956   1.774   4.577  0.5985 -0.7262 -1.2106
 4774SOL    HW225782   4.016   1.907   4.538 -0.5575  2.6002 -2.5246
 4775SOL     OW25783   0.894   1.587   4.107 -0.7720 -0.2903  0.5335
 4775SOL    HW125784   0.831   1.591   4.034  0.4457  0.2334 -0.4813
 4775SOL    HW225785   0.964   1.531   4.076 -0.8887 -0.4460  0.5537
 4776SOL     OW25786   4.362   3.779   9.986 -0.0617  0.4689 -0.0248
 4776SOL    HW125787   4.409   3.736   9.914 -0.7982 -0.2537 -0.0818
 4776SOL    HW225788   4.440   3.810  10.033  1.3164 -1.2721 -1.1618
 4777SOL     OW25789   3.424   0.751   5.239  0.8287  0.3625 -0.0647
 4777SOL    HW125790   3.352   0.811   5.222  0.7388  0.0341 -0.8671
 4777SOL    HW225791   3.427   0.755   5.335 -0.1131 -0.8691  0.0197
 4778SOL     OW25792   4.484   2.472   2.388 -0.0642 -0.1882  0.2024
 4778SOL    HW125793   4.413   2.530   2.417 -0.3759  0.1006 -1.1402
 4778SOL    HW225794   4.438   2.388   2.391  0.5199 -0.5312 -0.4302
 4779SOL     OW25795   1.494   3.912   9.127 -0.7321 -0.1237 -0.0032
 4779SOL    HW125796   1.430   3.965   9.173 -1.3662 -2.7689  2.1517
 4779SOL    HW225797   1.456   3.906   9.040  0.8586 -0.1923 -0.7003
 4780SOL     OW25798   2.932   2.580   0.941  1.0905  0.7033 -0.1129
 4780SOL    HW125799   2.982   2.582   0.859  0.3008 -1.5931 -0.6554
 4780SOL    HW225800   2.976   2.505   0.982  0.3975  1.3321  1.7876
 4781SOL     OW25801   0.376   3.069   1.137  0.3506  0.2075 -0.2654
 4781SOL    HW125802   0.429   2.993   1.160 -0.8770 -0.6509 -0.2705
 4781SOL    HW225803   0.321   3.037   1.066  1.0856  0.3586 -0.9023
 4782SOL     OW25804   4.132   1.708   5.514  0.1926 -0.0069 -0.2779
 4782SOL    HW125805   4.188   1.701   5.437 -0.4453 -2.6528 -0.5017
 4782SOL    HW225806   4.105   1.800   5.515 -1.2056 -0.3930 -1.3773
 4783SOL     OW25807   1.967   2.200   3.192 -0.2706  0.8834  0.0892
 4783SOL    HW125808   2.055   2.200   3.154  0.3633  0.5082  1.5616
 4783SOL    HW225809   1.948   2.292   3.174 -1.3806  0.4182 -1.1385
 4784SOL     OW25810   2.417   2.279   7.737 -0.3501 -0.0712 -0.4578
 4784SOL    HW125811   2.476   2.328   7.680 -0.6392  1.3776  0.5015
 4784SOL    HW225812   2.385   2.344   7.799  0.1436 -0.1071 -0.1672
 4785SOL     OW25813   2.694   2.079  10.338  0.2924 -0.9019  0.0072
 4785SOL    HW125814   2.608   2.069  10.297 -0.3578 -0.6328  1.3216
 4785SOL    HW225815   2.727   2.107  10.253 -0.7686 -1.1179 -0.4783
 4786SOL     OW25816   3.646   1.789   4.511  0.9429 -0.0649 -0.3075
 4786SOL    HW125817   3.717   1.780   4.574  1.0962  1.0491 -0.3212
 4786SOL    HW225818   3.686   1.796   4.424  1.8410 -0.9825  0.0367
 4787SOL     OW25819   0.328   0.557  13.097  0.0109  0.4273  0.1287
 4787SOL    HW125820   0.330   0.651  13.117  0.1266  0.7040 -1.2302
 4787SOL    HW225821   0.367   0.532  13.181  0.9414  0.0378 -0.4278
 4788SOL     OW25822   3.701   2.903   0.809 -0.3252 -0.3643  0.4085
 4788SOL    HW125823   3.674   2.868   0.894 -2.2952  1.0746  0.3663
 4788SOL    HW225824   3.638   2.974   0.803  1.2938  0.9433 -1.3027
 4789SOL     OW25825   2.400   1.894   1.172 -0.4189 -0.4134 -0.0485
 4789SOL    HW125826   2.452   1.896   1.092  0.0337  2.9826  0.3527
 4789SOL    HW225827   2.431   1.967   1.225  1.3528 -0.5534 -0.9227
 4790SOL     OW25828   1.013   3.414  17.281 -0.1788 -0.1043 -0.4185
 4790SOL    HW125829   1.062   3.333  17.275  1.6786  0.9331  0.9450
 4790SOL    HW225830   1.087   3.465  17.314 -0.4215  0.0883 -0.1705
 4791SOL     OW25831   3.529   0.952   7.889  0.0389 -0.2804 -0.0487
 4791SOL    HW125832   3.601   0.902   7.850  0.2622 -0.1045  0.1400
 4791SOL    HW225833   3.564   0.938   7.977 -1.7255  2.5662  1.0870
 4792SOL     OW25834   3.865   2.114   6.715 -0.7001  0.4937 -0.5264
 4792SOL    HW125835   3.888   2.206   6.700 -1.6853  0.9656  0.9277
 4792SOL    HW225836   3.915   2.105   6.796  2.0550 -0.4300 -2.2997
 4793SOL     OW25837   4.561   1.508   6.067 -0.0944  0.0584 -0.1528
 4793SOL    HW125838   4.520   1.439   6.119 -0.5599  0.1037 -0.4586
 4793SOL    HW225839   4.513   1.492   5.986  0.5440 -0.1245 -0.4890
 4794SOL     OW25840   3.437   3.875   6.498  0.5032  0.3420 -0.3480
 4794SOL    HW125841   3.355   3.828   6.507  0.2506  0.7542 -0.4816
 4794SOL    HW225842   3.482   3.829   6.427  0.9258 -0.3281  0.3555
 4795SOL     OW25843   0.845   3.189  17.241 -0.8697 -0.1977  0.2680
 4795SOL    HW125844   0.861   3.280  17.266 -0.5044 -0.2737  0.3195
 4795SOL    HW225845   0.934   3.154  17.244 -1.7399 -2.3844  0.5819
 4796SOL     OW25846   0.752   4.092   3.433  0.0947 -0.6113 -0.5020
 4796SOL    HW125847   0.814   4.024   3.458  0.5387 -0.2608 -0.6445
 4796SOL    HW225848   0.741   4.129   3.520 -1.7478 -1.2800 -0.4351
 4797SOL     OW25849   4.712   4.445   3.281  0.1394 -0.0167 -0.2771
 4797SOL    HW125850   0.015   4.500   3.355  1.0533 -3.2921  1.8324
 4797SOL    HW225851   0.051   4.483   3.218  2.6790 -1.6628  1.2008
 4798SOL     OW25852   1.470   3.514   4.447  0.5804 -0.1626 -0.0890
 4798SOL    HW125853   1.401   3.571   4.413  0.9397  0.1185 -0.3364
 4798SOL    HW225854   1.514   3.505   4.362  0.3735  1.5396 -0.3789
 4799SOL     OW25855   4.217   3.168   2.695  0.0192  0.4534 -0.0800
 4799SOL    HW125856   4.171   3.224   2.757 -2.8002 -2.7105  0.7369
 4799SOL    HW225857   4.175   3.192   2.613 -2.1990 -0.7016  0.7317
 4800SOL     OW25858   0.604   4.336  12.872 -0.3140 -0.3486  0.3404
 4800SOL    HW125859   0.637   4.309  12.786  0.8557  0.7188  0.4506
 4800SOL    HW225860   0.550   4.413  12.855  0.8728  0.6822  1.2834
 4801SOL     OW25861   0.095   0.291   8.735  0.6059 -0.2488  0.1696
 4801SOL    HW125862   0.175   0.306   8.685  0.2382  0.8842 -0.0854
 4801SOL    HW225863   0.056   0.208   8.707  1.6601 -0.6000 -0.2541
 4802SOL     OW25864   0.288   2.558   2.777 -0.1651  0.1442 -0.5150
 4802SOL    HW125865   0.246   2.513   2.850 -0.8276 -0.9978 -1.5922
 4802SOL    HW225866   0.364   2.593   2.823 -0.2102 -1.0269  0.4613
 4803SOL     OW25867   3.231   1.445  14.276 -0.0958  0.1354  0.1888
 4803SOL    HW125868   3.204   1.455  14.185 -1.9971  0.9671  0.8609
 4803SOL    HW225869   3.216   1.527  14.324  0.3028 -0.2694  1.0121
 4804SOL     OW25870   0.145   2.619   1.637 -0.3129  0.0282  0.5534
 4804SOL    HW125871   0.175   2.576   1.717 -0.1027  0.2318  0.5821
 4804SOL    HW225872   0.097   2.693   1.674  1.3449  0.7680  1.1962
 4805SOL     OW25873   1.411   2.774   7.307  0.1792 -0.1538  0.3169
 4805SOL    HW125874   1.336   2.729   7.347  0.4383  0.8042  1.8617
 4805SOL    HW225875   1.370   2.802   7.225 -0.4865  1.5922  1.2407
 4806SOL     OW25876   4.231   3.742   1.552 -0.1363  0.3749  0.3836
 4806SOL    HW125877   4.325   3.755   1.540 -0.4679  0.8515 -1.5526
 4806SOL    HW225878   4.234   3.690   1.633 -1.8033  0.3810  0.4586
 4807SOL     OW25879   2.953   2.977   3.968 -0.4193  0.5547  0.2339
 4807SOL    HW125880   2.871   2.931   3.981 -0.6658  0.8724 -0.1904
 4807SOL    HW225881   2.981   2.938   3.885  1.0618 -1.6713  1.7812
 4808SOL     OW25882   0.135   0.333  13.619 -0.0480  0.2950  0.2148
 4808SOL    HW125883   0.160   0.340  13.527  0.3979  2.2853  0.4858
 4808SOL    HW225884   0.117   0.240  13.630 -1.8038  0.5753 -0.1942
 4809SOL     OW25885   0.563   4.310   4.379  0.2753  0.0273 -0.3509
 4809SOL    HW125886   0.580   4.337   4.289  1.9965  0.1181  0.0012
 4809SOL    HW225887   0.618   4.232   4.367  0.0707 -0.1725  0.0057
 4810SOL     OW25888   1.122   2.421  15.392 -0.1540  0.1831  0.2253
 4810SOL    HW125889   1.101   2.392  15.481  0.1289  0.6821  0.4594
 4810SOL    HW225890   1.046   2.474  15.366  1.1670  1.2209 -1.5164
 4811SOL     OW25891   2.922   1.843   2.061 -0.0321  0.2032  0.0571
 4811SOL    HW125892   3.015   1.858   2.042  0.5685 -0.6792  2.2857
 4811SOL    HW225893   2.889   1.931   2.044 -0.7663  0.1576  1.2677
 4812SOL     OW25894   1.379   4.027  15.344  0.0660  0.0251  0.3565
 4812SOL    HW125895   1.430   4.095  15.390  1.8185 -1.1049  0.1002
 4812SOL    HW225896   1.444   3.984  15.288  0.2451  2.8205 -1.5933
 4813SOL     OW25897   2.282   0.293   8.138 -0.1915 -0.3649 -0.1093
 4813SOL    HW125898   2.190   0.315   8.123 -0.4672  0.5350  2.7956
 4813SOL    HW225899   2.270   0.200   8.158 -0.4071 -0.2711  0.1987
 4814SOL     OW25900   2.574   0.542   2.276  0.4869  0.2438 -0.1596
 4814SOL    HW125901   2.517   0.591   2.217  1.5421 -0.5853 -1.8680
 4814SOL    HW225902   2.599   0.473   2.215 -0.3545 -0.1917 -0.0212
 4815SOL     OW25903   1.352   1.318   0.111 -0.3123  0.1060  0.1641
 4815SOL    HW125904   1.417   1.339   0.178  1.4961 -0.8376 -1.2863
 4815SOL    HW225905   1.410   1.318   0.035  0.7716  0.7196  0.9971
 4816SOL     OW25906   4.365   2.344   5.310 -0.1108 -0.3589 -0.0177
 4816SOL    HW125907   4.286   2.386   5.277 -0.2813 -1.0691 -0.5097
 4816SOL    HW225908   4.326   2.271   5.357 -1.9256 -0.7565 -2.1495
 4817SOL     OW25909   1.643   2.057   8.889 -0.5492  0.3488 -0.0845
 4817SOL    HW125910   1.728   2.037   8.928 -0.4508 -0.5834 -0.7505
 4817SOL    HW225911   1.584   2.070   8.963 -1.2660 -1.3983 -0.3317
 4818SOL     OW25912   2.225   2.968   3.092 -0.4895 -0.5454  0.3615
 4818SOL    HW125913   2.233   2.980   2.997  0.0470  1.2039  0.6371
 4818SOL    HW225914   2.266   3.046   3.130 -1.1841  0.0143 -0.0253
 4819SOL     OW25915   2.811   1.564  10.008  0.1955  0.2725  0.3437
 4819SOL    HW125916   2.834   1.537   9.919 -0.1766 -1.6818  0.8344
 4819SOL    HW225917   2.882   1.625  10.027  0.9899 -0.8909  1.1322
 4820SOL     OW25918   4.418   3.649   9.697 -0.7667  0.1299 -0.0984
 4820SOL    HW125919   4.386   3.723   9.645 -0.0670 -0.4917 -1.4034
 4820SOL    HW225920   4.399   3.574   9.641  0.3387  0.3727 -0.7870
 4821SOL     OW25921   1.421   2.947   0.485 -0.4418  1.1717  0.5854
 4821SOL    HW125922   1.370   3.023   0.512 -1.0497  1.6729 -1.8895
 4821SOL    HW225923   1.366   2.903   0.420  2.9500 -0.9766 -0.7913
 4822SOL     OW25924   0.558   2.701  11.806  0.0923 -0.5651  0.2425
 4822SOL    HW125925   0.483   2.646  11.783  0.1747 -0.0439 -1.2649
 4822SOL    HW225926   0.566   2.762  11.732 -2.6706 -0.4881 -0.0156
 4823SOL     OW25927   4.666   2.244   1.563  0.2486 -0.0805 -0.0606
 4823SOL    HW125928   4.664   2.154   1.530  1.3040 -0.7915  1.7852
 4823SOL    HW225929   0.015   2.287   1.516  0.9177 -0.7733  0.3433
 4824SOL     OW25930   0.167   0.010   8.391  0.6367 -0.0332  0.4090
 4824SOL    HW125931   0.165   4.640   8.413  3.4425 -0.4004 -0.8850
 4824SOL    HW225932   0.104   0.046   8.453 -1.2178 -1.3887 -0.7209
 4825SOL     OW25933   4.051   0.475   4.236  0.4771  0.7182  0.1219
 4825SOL    HW125934   4.000   0.462   4.156  2.5438  0.5828 -1.1611
 4825SOL    HW225935   3.992   0.528   4.289  1.6020  0.3472  1.7637
 4826SOL     OW25936   1.872   1.941   8.979  0.3271 -0.0780 -0.0512
 4826SOL    HW125937   1.879   1.846   8.995  0.4145 -0.2044 -0.8460
 4826SOL    HW225938   1.933   1.968   9.048 -0.2563 -1.2957  0.9412
 4827SOL     OW25939   4.502   2.780   8.016  0.0322  0.0655  0.2798
 4827SOL    HW125940   4.440   2.852   8.006  0.7339  0.6684  0.2455
 4827SOL    HW225941   4.528   2.778   8.108  1.7129  1.1064 -0.1656
 4828SOL     OW25942   3.974   2.740   0.656  0.1859 -0.1688  0.2888
 4828SOL    HW125943   4.050   2.746   0.599 -0.1789  0.5346 -0.1223
 4828SOL    HW225944   3.995   2.660   0.704  0.0703  0.3906  1.2922
 4829SOL     OW25945   3.034   0.198   6.881 -0.2374  0.0055  0.5208
 4829SOL    HW125946   3.101   0.230   6.821 -2.4062 -0.8836 -2.3315
 4829SOL    HW225947   2.983   0.278   6.892 -1.1193 -0.4564 -0.2673
 4830SOL     OW25948   0.284   1.802   5.890  0.0446  0.0217  0.2958
 4830SOL    HW125949   0.341   1.735   5.928 -2.1079 -1.1093  1.5264
 4830SOL    HW225950   0.305   1.884   5.935  0.6266 -0.9228  1.7269
 4831SOL     OW25951   2.035   2.645   3.174 -0.1849  0.2627 -0.9994
 4831SOL    HW125952   2.091   2.599   3.236 -0.5257  0.1791 -0.7525
 4831SOL    HW225953   1.972   2.573   3.164  0.7659 -0.8795  1.1186
 4832SOL     OW25954   3.288   2.627  14.182 -0.8919  0.1381  0.1894
 4832SOL    HW125955   3.196   2.613  14.205 -0.7220  0.3246  0.9774
 4832SOL    HW225956   3.279   2.627  14.086 -0.7475 -0.7460  0.1730
 4833SOL     OW25957   4.151   0.748  15.970  0.7606 -0.1242 -0.1528
 4833SOL    HW125958   4.150   0.677  16.034 -1.1147 -2.4848 -2.7638
 4833SOL    HW225959   4.224   0.795  16.009 -0.0033  2.0043 -1.3055
 4834SOL     OW25960   2.669   3.757  13.004  0.2865  0.4938 -0.0807
 4834SOL    HW125961   2.583   3.762  13.045 -1.4555  3.1234 -3.9552
 4834SOL    HW225962   2.649   3.819  12.933  0.7021  0.2130 -0.4432
 4835SOL     OW25963   3.102   1.559   1.234 -0.1041 -0.5176 -0.1915
 4835SOL    HW125964   3.093   1.469   1.265 -0.0862 -0.5800 -0.3671
 4835SOL    HW225965   3.172   1.578   1.296 -0.2348  0.5268 -0.3691
 4836SOL     OW25966   3.245   1.847   3.308 -0.3869  0.3537 -0.2557
 4836SOL    HW125967   3.157   1.882   3.293  0.2801  0.9168 -2.8296
 4836SOL    HW225968   3.266   1.875   3.396 -1.3852 -0.8461  0.3731
 4837SOL     OW25969   1.070   2.594  10.055 -0.1874 -0.0577  0.5944
 4837SOL    HW125970   1.008   2.601   9.983 -0.5603  2.0055  1.0986
 4837SOL    HW225971   1.069   2.501  10.079  0.7925 -0.5713 -1.3818
 4838SOL     OW25972   0.583   4.240   9.376  0.4153  0.3781 -0.0296
 4838SOL    HW125973   0.543   4.157   9.400  2.6096 -0.7217 -0.1125
 4838SOL    HW225974   0.672   4.230   9.410 -0.1473 -1.6385  0.8314
 4839SOL     OW25975   3.129   4.440   7.592 -0.0458 -0.1470  0.3003
 4839SOL    HW125976   3.124   4.531   7.621 -1.1268 -1.0519  2.9470
 4839SOL    HW225977   3.171   4.444   7.506  1.7437  0.0689  1.1950
 4840SOL     OW25978   1.612   2.541   1.050  0.3773 -0.1867  0.1129
 4840SOL    HW125979   1.691   2.511   1.095  1.1946  0.6873 -0.7261
 4840SOL    HW225980   1.551   2.476   1.082 -0.9240  0.9286 -0.1198
 4841SOL     OW25981   3.221   2.149   8.054 -0.2363  0.2207 -0.0607
 4841SOL    HW125982   3.293   2.190   8.006  1.4946 -0.9565  1.5511
 4841SOL    HW225983   3.240   2.148   8.147 -0.0553 -0.7810 -0.1152
 4842SOL     OW25984   1.752   1.566  13.766 -0.7038 -0.7263 -0.2719
 4842SOL    HW125985   1.719   1.655  13.762 -0.2486 -0.6720 -3.0266
 4842SOL    HW225986   1.720   1.536  13.681  2.5037 -0.2213 -1.6785
 4843SOL     OW25987   1.072   1.702   2.585 -0.6621  0.1338  0.3232
 4843SOL    HW125988   1.068   1.770   2.653 -0.7739  0.2490  0.2014
 4843SOL    HW225989   0.981   1.681   2.564 -0.1799 -0.4024 -1.2479
 4844SOL     OW25990   3.357   3.195   1.167 -0.3167 -0.1638  0.0803
 4844SOL    HW125991   3.286   3.228   1.111 -0.1131  1.8874  1.0528
 4844SOL    HW225992   3.311   3.181   1.249  1.4032  1.4133  1.2969
 4845SOL     OW25993   3.085   2.974  16.534  0.2192  0.0336  0.0844
 4845SOL    HW125994   3.050   3.054  16.495  1.0060  0.0170 -0.6592
 4845SOL    HW225995   3.181   2.981  16.529  0.3592 -1.3956  0.8092
 4846SOL     OW25996   3.895   0.538   7.018  0.0369  0.5579 -0.0915
 4846SOL    HW125997   3.988   0.535   6.996  0.0604  0.4948  0.0135
 4846SOL    HW225998   3.898   0.621   7.066  0.2623  1.0314 -0.9201
 4847SOL     OW25999   3.633   1.208   5.762 -0.2750  0.3995 -0.2188
 4847SOL    HW126000   3.569   1.159   5.813 -0.7663 -1.0932 -2.2195
 4847SOL    HW226001   3.597   1.296   5.755 -1.2406  0.0760  0.7513
 4848SOL     OW26002   0.124   1.797   4.595 -0.3656 -0.0198 -0.0685
 4848SOL    HW126003   0.038   1.784   4.635 -0.3942  2.5392  0.7001
 4848SOL    HW226004   0.146   1.707   4.571 -0.1543  0.2051 -0.7002
 4849SOL     OW26005   2.041   2.646   8.428  0.1317 -0.0471 -0.0578
 4849SOL    HW126006   1.967   2.631   8.486  1.0054  1.7180  1.5121
 4849SOL    HW226007   2.033   2.741   8.421  0.7989  0.3812  5.3041
 4850SOL     OW26008   1.775   1.065   8.863 -0.3200 -0.1231 -0.8527
 4850SOL    HW126009   1.744   1.136   8.919  3.5001 -0.9341  2.2354
 4850SOL    HW226010   1.726   1.077   8.781  2.0621 -1.9225 -2.5352
 4851SOL     OW26011   1.871   1.451   5.460 -0.1024  0.3769 -0.4734
 4851SOL    HW126012   1.855   1.452   5.555  3.4761 -3.4091  0.1945
 4851SOL    HW226013   1.793   1.399   5.440  0.0600 -0.0721  0.0442
 4852SOL     OW26014   0.765   2.531  12.672  0.3030  0.1009  0.0678
 4852SOL    HW126015   0.771   2.615  12.718  1.5056  0.2955 -0.4305
 4852SOL    HW226016   0.808   2.554  12.590 -0.1634  0.7337  0.0027
 4853SOL     OW26017   4.051   3.250   7.297 -0.2099 -0.3620  0.2908
 4853SOL    HW126018   4.021   3.259   7.206 -0.1710 -0.7695  0.2392
 4853SOL    HW226019   4.076   3.340   7.318  1.3434 -0.7443  0.0913
 4854SOL     OW26020   3.651   2.346   8.094 -0.9601 -0.5157  0.5830
 4854SOL    HW126021   3.670   2.406   8.166  1.9399  1.3111 -1.7331
 4854SOL    HW226022   3.737   2.325   8.059 -0.2968  3.5742 -0.1789
 4855SOL     OW26023   2.962   0.441  15.849 -0.1689 -0.0917 -0.1016
 4855SOL    HW126024   2.941   0.374  15.785 -1.7652  0.6406 -0.3504
 4855SOL    HW226025   3.051   0.467  15.824  0.5523 -1.2991  1.1922
 4856SOL     OW26026   1.956   4.325   2.185 -0.3573  0.5091  0.3353
 4856SOL    HW126027   2.013   4.332   2.262 -1.0406  0.0325  0.8740
 4856SOL    HW226028   2.012   4.319   2.107  0.1509 -1.7401  0.8895
 4857SOL     OW26029   2.642   3.672   1.040  0.0396 -0.3018 -0.1874
 4857SOL    HW126030   2.597   3.610   1.098  0.6971 -0.2451  0.3889
 4857SOL    HW226031   2.658   3.746   1.099 -0.1610 -0.7798  0.4744
 4858SOL     OW26032   4.096   3.942   8.894  0.3342 -0.7025  0.3178
 4858SOL    HW126033   4.147   3.923   8.815  0.2893 -0.2094  0.1707
 4858SOL    HW226034   4.168   3.948   8.957  0.6823 -1.2246 -0.0258
 4859SOL     OW26035   3.181   3.213   0.965  0.1322 -0.5100  0.4693
 4859SOL    HW126036   3.173   3.263   0.883 -1.5736 -0.7002  0.5038
 4859SOL    HW226037   3.110   3.249   1.018 -0.0552 -2.0091  1.2256
 4860SOL     OW26038   3.165   0.313  12.039  0.1018 -0.2465 -0.5019
 4860SOL    HW126039   3.075   0.344  12.031  0.8673  1.3747 -2.7846
 4860SOL    HW226040   3.137   0.223  12.055 -0.6932  0.1533  0.2758
 4861SOL     OW26041   2.237   3.030   9.199 -0.2643 -0.0804  0.3999
 4861SOL    HW126042   2.207   3.050   9.110  1.0911  0.4916  0.0781
 4861SOL    HW226043   2.330   3.042   9.179 -0.3915  0.5731  0.1928
 4862SOL     OW26044   0.102   1.368  11.880  0.2180  0.1038  0.1902
 4862SOL    HW126045   0.134   1.323  11.959  2.2873  0.2842 -0.5434
 4862SOL    HW226046   0.072   1.454  11.907  0.5985  0.3657 -0.2207
 4863SOL     OW26047   3.272   3.419   5.355 -0.1411 -0.1528  0.1223
 4863SOL    HW126048   3.310   3.498   5.317 -2.9750  1.3137  0.3448
 4863SOL    HW226049   3.194   3.414   5.300 -0.5200  1.5793  0.4911
 4864SOL     OW26050   2.557   3.133   2.116  0.2316 -0.7448  0.4482
 4864SOL    HW126051   2.569   3.222   2.149 -0.8509 -0.4019 -0.0601
 4864SOL    HW226052   2.566   3.076   2.193  0.3564 -1.0526  0.2048
 4865SOL     OW26053   4.634   1.990   5.245  0.5358 -0.5483  0.1001
 4865SOL    HW126054   4.627   1.918   5.182 -1.3944  0.8860 -1.3165
 4865SOL    HW226055   4.658   1.944   5.325  0.7429 -3.4587 -1.6097
 4866SOL     OW26056   3.572   3.003   3.948 -0.6371  0.3963  0.7326
 4866SOL    HW126057   3.578   2.985   3.855  0.4497  2.0751  0.4863
 4866SOL    HW226058   3.649   3.059   3.947  0.5009 -1.2094 -0.9806
 4867SOL     OW26059   4.578   3.084   1.519 -0.7848  0.3864  0.3909
 4867SOL    HW126060   4.484   3.093   1.504 -1.0403 -2.9659  0.0422
 4867SOL    HW226061   4.611   3.024   1.453 -1.0874 -0.7855  1.3186
 4868SOL     OW26062   0.396   4.511   8.145  0.1532  0.6119  0.0496
 4868SOL    HW126063   0.417   4.459   8.223  2.2955 -1.3853 -1.8372
 4868SOL    HW226064   0.475   4.564   8.152 -0.5721  1.7680 -0.6366
 4869SOL     OW26065   1.577   3.105   8.532 -0.0716 -0.1380  0.1978
 4869SOL    HW126066   1.666   3.129   8.504 -0.1054 -1.1906 -0.8024
 4869SOL    HW226067   1.592   3.120   8.625 -1.0035 -0.0899  0.3418
 4870SOL     OW26068   4.243   1.222   7.869 -0.4925 -0.1343  0.3590
 4870SOL    HW126069   4.250   1.194   7.778 -2.3210 -0.4262  0.3153
 4870SOL    HW226070   4.322   1.272   7.890  0.0115 -0.7947  0.0256
 4871SOL     OW26071   3.603   0.906   5.402  0.2361 -0.0539 -0.2722
 4871SOL    HW126072   3.566   0.989   5.432  0.0092  0.6778 -2.5339
 4871SOL    HW226073   3.611   0.910   5.307  0.3541 -1.3727 -0.3107
 4872SOL     OW26074   3.676   3.713  16.759  0.3043  0.7746 -0.2876
 4872SOL    HW126075   3.610   3.778  16.735  0.6483  0.3961 -2.2923
 4872SOL    HW226076   3.660   3.660  16.681  1.7144 -0.0129 -0.0430
 4873SOL     OW26077   1.521   0.185  11.864 -0.3528  0.0297 -0.4636
 4873SOL    HW126078   1.488   0.275  11.868 -0.2632 -0.0555  1.8615
 4873SOL    HW226079   1.607   0.194  11.906 -0.3008 -3.3369  0.1600
 4874SOL     OW26080   2.081   2.478   4.979  0.7938 -0.1485 -0.3067
 4874SOL    HW126081   2.061   2.496   4.887  0.9269  0.1571 -0.2739
 4874SOL    HW226082   2.139   2.402   4.982  0.3855 -0.3935  1.1568
 4875SOL     OW26083   1.515   1.534  10.169  0.3680 -0.5026  0.3934
 4875SOL    HW126084   1.560   1.514  10.087 -0.4546 -0.4316 -0.0633
 4875SOL    HW226085   1.494   1.626  10.151  4.4757  0.6540  1.3991
 4876SOL     OW26086   4.662   2.397   8.783 -0.0770 -0.1064  0.0456
 4876SOL    HW126087   4.574   2.363   8.770 -0.3360  0.6939 -0.2847
 4876SOL    HW226088   4.658   2.491   8.766 -0.6479 -0.5611 -2.3289
 4877SOL     OW26089   3.792   3.883   6.968 -0.0754 -0.7715 -0.1032
 4877SOL    HW126090   3.833   3.960   7.008  1.2093 -1.7829  0.5238
 4877SOL    HW226091   3.829   3.815   7.024  1.0838  0.1084  0.2006
 4878SOL     OW26092   1.576   0.196  10.797 -0.0310 -0.0414 -0.1213
 4878SOL    HW126093   1.571   0.157  10.710 -3.7518 -0.1024  0.0955
 4878SOL    HW226094   1.530   0.129  10.849  1.2206 -1.1201 -0.3905
 4879SOL     OW26095   3.166   4.456   9.680 -0.0569  0.4052  0.0396
 4879SOL    HW126096   3.172   4.499   9.765  0.0006 -0.5867  0.5474
 4879SOL    HW226097   3.234   4.391   9.696 -0.1249  0.8880  2.1958
 4880SOL     OW26098   4.603   4.011   5.696  0.4357 -0.2834 -0.3809
 4880SOL    HW126099   4.524   3.980   5.739 -0.5306  1.1762 -1.1059
 4880SOL    HW226100   4.667   3.970   5.755  0.9439 -0.4406 -1.0394
 4881SOL     OW26101   2.893   1.021   9.361  0.2749 -0.5237 -0.3071
 4881SOL    HW126102   2.852   1.019   9.448  2.2613 -1.4911  0.5983
 4881SOL    HW226103   2.830   0.973   9.307 -0.0440  0.9208 -1.2160
 4882SOL     OW26104   4.563   3.866   6.506 -0.8411 -0.7977  0.0863
 4882SOL    HW126105   4.472   3.894   6.509 -0.0923  1.7688 -1.0710
 4882SOL    HW226106   4.608   3.947   6.482 -1.7662  0.0492  1.1864
 4883SOL     OW26107   2.165   3.428   5.913  0.3907 -0.3561 -0.2626
 4883SOL    HW126108   2.226   3.480   5.861  0.5601  0.4322  0.7136
 4883SOL    HW226109   2.177   3.338   5.883  0.7915 -0.2120 -0.5220
 4884SOL     OW26110   1.047   1.306  11.326 -0.1085  0.0595 -0.1999
 4884SOL    HW126111   1.020   1.393  11.356  1.8701  0.0816  1.4946
 4884SOL    HW226112   1.027   1.268  11.412  1.1919 -0.1465  0.0035
 4885SOL     OW26113   0.905   1.171   2.528  0.5854 -0.3863  0.0089
 4885SOL    HW126114   0.915   1.244   2.467  1.3999  0.0757  0.6839
 4885SOL    HW226115   0.929   1.097   2.472 -1.8034 -0.7875 -0.4972
 4886SOL     OW26116   0.735   2.349   2.756 -0.3784 -0.0896 -0.0128
 4886SOL    HW126117   0.760   2.423   2.810 -1.0974  1.9547 -2.5101
 4886SOL    HW226118   0.643   2.328   2.770 -0.4740 -0.0586 -0.6083
 4887SOL     OW26119   1.724   3.159   3.655  0.5369  0.0057 -0.1985
 4887SOL    HW126120   1.762   3.230   3.603  1.7449 -0.1791  0.4272
 4887SOL    HW226121   1.694   3.097   3.589 -1.2949  3.6357 -2.8123
 4888SOL     OW26122   1.542   1.362  16.757  0.0474 -0.0848 -0.2480
 4888SOL    HW126123   1.488   1.353  16.836 -1.2072 -1.6989 -1.3017
 4888SOL    HW226124   1.483   1.377  16.684 -0.8330  0.3511  0.5462
 4889SOL     OW26125   0.369   2.070   5.888  0.0065  0.0119  0.0620
 4889SOL    HW126126   0.428   2.037   5.821 -1.2167 -0.6043 -0.7193
 4889SOL    HW226127   0.424   2.095   5.962  0.8597  0.3209 -0.6859
 4890SOL     OW26128   2.297   1.955  11.240  0.3149  0.0798 -0.0145
 4890SOL    HW126129   2.275   1.973  11.148  2.8026 -1.7390 -0.9676
 4890SOL    HW226130   2.281   2.045  11.267 -2.2515 -0.6144  0.8249
 4891SOL     OW26131   2.036   2.041   6.039 -0.5768  0.1232  0.2971
 4891SOL    HW126132   1.965   1.981   6.018  0.4745 -0.8370 -0.4830
 4891SOL    HW226133   2.005   2.117   5.988  0.1036  1.1009  1.3455
 4892SOL     OW26134   4.225   1.420   7.368  0.1576  0.6168 -0.0032
 4892SOL    HW126135   4.186   1.350   7.315  2.1832 -1.2307  0.9335
 4892SOL    HW226136   4.199   1.496   7.316  1.8157  1.5049  0.4679
 4893SOL     OW26137   3.364   3.617  14.063  0.0068 -0.3189  0.8243
 4893SOL    HW126138   3.456   3.596  14.048 -0.4836 -1.9984  0.1990
 4893SOL    HW226139   3.334   3.542  14.116  2.1132 -1.4615  0.4075
 4894SOL     OW26140   3.533   4.414  10.159 -0.2429 -0.6239  0.3586
 4894SOL    HW126141   3.584   4.367  10.225 -0.5448 -0.1713  0.9153
 4894SOL    HW226142   3.450   4.369  10.176 -0.4494 -0.8430 -1.1777
 4895SOL     OW26143   3.973   4.154   3.252  0.1915  0.6651  0.2664
 4895SOL    HW126144   4.052   4.205   3.233  0.2375  0.5033  0.0187
 4895SOL    HW226145   3.905   4.221   3.240 -0.4422 -0.1232 -0.5321
 4896SOL     OW26146   0.837   0.162  10.453 -0.4048  0.5245 -0.6792
 4896SOL    HW126147   0.924   0.151  10.414  0.2126 -0.5082  0.9761
 4896SOL    HW226148   0.804   0.074  10.435 -2.9754  1.6408 -1.3411
 4897SOL     OW26149   1.259   1.891   5.712  0.0268  0.1352  0.0475
 4897SOL    HW126150   1.257   1.982   5.740  0.9511  0.2873 -0.3878
 4897SOL    HW226151   1.200   1.890   5.636 -1.8573 -0.5216  1.5209
 4898SOL     OW26152   1.241   3.583   7.741  0.3851 -0.0709  0.4574
 4898SOL    HW126153   1.303   3.588   7.668 -0.2726  0.4086 -0.0642
 4898SOL    HW226154   1.189   3.503   7.741  0.4725 -0.1281  0.3670
 4899SOL     OW26155   0.791   1.525   3.637  0.0054  0.2049  0.0679
 4899SOL    HW126156   0.747   1.609   3.623 -1.5872 -0.3371  1.7975
 4899SOL    HW226157   0.760   1.518   3.727 -0.2338  0.4772  0.0051
 4900SOL     OW26158   1.390   4.294   6.739 -0.2072 -0.3774  0.0334
 4900SOL    HW126159   1.398   4.199   6.752  0.2876 -0.3349  0.0645
 4900SOL    HW226160   1.441   4.310   6.819  0.4089 -0.1861 -0.3952
 4901SOL     OW26161   1.267   1.373  16.774  0.2999 -0.0696  0.3715
 4901SOL    HW126162   1.287   1.461  16.743 -0.6344  0.1353  0.3462
 4901SOL    HW226163   1.291   1.372  16.867 -1.2851  1.0921  0.7875
 4902SOL     OW26164   0.477   3.038   5.068 -0.6509 -0.3172  0.2597
 4902SOL    HW126165   0.434   2.954   5.049 -0.6982 -0.3430  0.4741
 4902SOL    HW226166   0.447   3.097   5.000  1.5639  1.1007  0.5186
 4903SOL     OW26167   4.214   0.935   9.450 -0.1144 -0.7486  0.0586
 4903SOL    HW126168   4.174   1.002   9.505 -0.5971 -1.0156  0.0335
 4903SOL    HW226169   4.193   0.858   9.503  1.4659  0.5142  2.5100
 4904SOL     OW26170   0.799   0.580   6.328 -0.2928 -0.5809  0.4902
 4904SOL    HW126171   0.742   0.588   6.405  0.9909  0.0138  1.3871
 4904SOL    HW226172   0.816   0.673   6.312  1.5046 -1.2786 -1.6384
 4905SOL     OW26173   0.350   3.505  13.789  0.3517 -0.3956 -0.4612
 4905SOL    HW126174   0.263   3.488  13.825  0.3714  1.3607  0.4023
 4905SOL    HW226175   0.370   3.590  13.829 -1.1353 -0.5131  0.5635
 4906SOL     OW26176   2.813   3.416   4.746 -0.2926 -0.4430  0.3702
 4906SOL    HW126177   2.751   3.359   4.791  0.5055 -0.9339  0.8527
 4906SOL    HW226178   2.878   3.441   4.812 -0.4677 -0.6023  0.6018
 4907SOL     OW26179   1.312   2.918   4.172 -0.1693  0.1147  0.3113
 4907SOL    HW126180   1.336   3.001   4.130 -2.0695  0.5304  0.0581
 4907SOL    HW226181   1.229   2.951   4.207  0.7589  1.7931  0.9463
 4908SOL     OW26182   0.602   3.007   0.942  0.0275 -0.3510  0.9598
 4908SOL    HW126183   0.628   3.071   0.875  0.0401 -2.6065 -1.2000
 4908SOL    HW226184   0.506   3.007   0.943 -0.0044 -0.8887 -1.5349
 4909SOL     OW26185   3.505   4.105   8.013 -0.1509  0.3021  0.4719
 4909SOL    HW126186   3.433   4.072   7.959  0.0641  0.0685  0.3246
 4909SOL    HW226187   3.504   4.200   8.009  1.3708  0.2619 -1.0758
 4910SOL     OW26188   3.217   0.767   7.346 -0.7779  0.0374  0.2804
 4910SOL    HW126189   3.266   0.819   7.410  1.6836 -0.0312 -1.5614
 4910SOL    HW226190   3.131   0.784   7.384 -0.1368  0.5258  1.5113
 4911SOL     OW26191   0.347   3.618   5.931 -0.3468  0.5718 -0.0478
 4911SOL    HW126192   0.339   3.681   5.859  0.6811 -0.2648 -0.8998
 4911SOL    HW226193   0.332   3.537   5.881 -1.3160  0.5599  0.2625
 4912SOL     OW26194   2.481   4.370  10.717  0.3462 -0.6758  0.1007
 4912SOL    HW126195   2.541   4.364  10.792 -3.3238  0.9975  3.1820
 4912SOL    HW226196   2.500   4.289  10.670  4.0648 -0.0449  0.5201
 4913SOL     OW26197   0.927   4.572   9.165  0.0028 -0.1722 -0.1853
 4913SOL    HW126198   0.958   4.485   9.142 -0.5049 -0.1094 -1.1240
 4913SOL    HW226199   1.009   4.616   9.189  0.5420 -0.8481 -0.7632
 4914SOL     OW26200   0.777   1.176   5.497 -0.2196 -0.2320 -0.5685
 4914SOL    HW126201   0.716   1.110   5.467 -1.4584  1.2260 -1.2610
 4914SOL    HW226202   0.842   1.158   5.429 -1.5122  1.2540 -2.1901
 4915SOL     OW26203   2.948   1.181   4.438  0.3351  1.0707  0.5495
 4915SOL    HW126204   2.896   1.126   4.380  2.2218 -2.0347  1.8502
 4915SOL    HW226205   2.938   1.269   4.401 -0.7828  1.1012  0.9126
 4916SOL     OW26206   2.085   1.765   3.341 -0.6024 -0.2984  0.1489
 4916SOL    HW126207   2.133   1.791   3.262 -2.2438  1.4436 -0.2816
 4916SOL    HW226208   2.148   1.762   3.413 -0.4971 -2.7860 -0.0680
 4917SOL     OW26209   2.111   2.376   4.460  0.5199 -0.3197  0.0620
 4917SOL    HW126210   2.102   2.329   4.377 -1.1078  1.7019 -0.8811
 4917SOL    HW226211   2.026   2.360   4.500  1.3262  0.2222  1.9625
 4918SOL     OW26212   2.937   0.773  10.001 -0.0155  0.8052  0.3188
 4918SOL    HW126213   2.922   0.727  10.083 -1.0760 -0.3581 -0.5258
 4918SOL    HW226214   2.976   0.704   9.946  1.1392  1.7174 -0.0086
 4919SOL     OW26215   1.317   3.898   5.611  0.4584  0.2525 -0.6510
 4919SOL    HW126216   1.367   3.980   5.616 -0.1593  0.5005  1.3646
 4919SOL    HW226217   1.354   3.850   5.685 -2.1411 -2.0509 -0.8486
 4920SOL     OW26218   4.692   3.451   7.330  0.0039  0.7364  0.4543
 4920SOL    HW126219   4.707   3.384   7.262 -0.6331  0.6669  0.3884
 4920SOL    HW226220   0.024   3.415   7.400 -1.0462  1.5263  1.6711
 4921SOL     OW26221   1.192   2.474   7.194  0.2692  0.4837  0.7216
 4921SOL    HW126222   1.105   2.437   7.179  1.0207 -1.0184  0.0760
 4921SOL    HW226223   1.253   2.405   7.169 -0.6072 -0.4384  1.1352
 4922SOL     OW26224   0.840   0.179   9.127  0.2051 -0.0353 -0.0766
 4922SOL    HW126225   0.798   0.245   9.072  2.8334  0.0166 -1.9833
 4922SOL    HW226226   0.790   0.101   9.099 -2.9424  1.5214  1.1798
 4923SOL     OW26227   1.814   1.940   5.054 -0.1647 -0.0053  0.5914
 4923SOL    HW126228   1.887   1.888   5.087  0.7386  0.6933 -0.3000
 4923SOL    HW226229   1.738   1.887   5.079 -1.6573  1.7612 -0.2462
 4924SOL     OW26230   3.697   1.364   7.650  0.1351 -0.0175  0.1870
 4924SOL    HW126231   3.644   1.326   7.580  2.2202 -2.0269 -0.3188
 4924SOL    HW226232   3.652   1.328   7.726  0.5453 -0.0256  0.4280
 4925SOL     OW26233   1.213   0.057  13.459  0.5125  0.1722 -0.2579
 4925SOL    HW126234   1.157   0.090  13.529 -1.4842 -0.7813 -1.4378
 4925SOL    HW226235   1.215   4.685  13.448  0.7099  0.3758 -1.9330
 4926SOL     OW26236   0.864   0.632   3.581  0.3986 -0.2904 -0.0438
 4926SOL    HW126237   0.892   0.657   3.493  1.2292  1.1631  0.6391
 4926SOL    HW226238   0.845   0.717   3.620  2.2342  0.1583 -0.1118
 4927SOL     OW26239   4.073   3.528   1.465  0.8316 -0.0231  0.4300
 4927SOL    HW126240   4.115   3.611   1.486  0.7789 -0.4648  2.2683
 4927SOL    HW226241   3.980   3.547   1.480  0.4008 -2.1558  0.4499
 4928SOL     OW26242   0.134   0.498   5.878 -0.0430  0.0266 -0.3252
 4928SOL    HW126243   0.157   0.422   5.824  2.7002 -0.3877  1.4111
 4928SOL    HW226244   0.221   0.538   5.872  0.8954 -2.1510 -1.3097
 4929SOL     OW26245   0.105   1.658   8.337  0.3702 -0.0572 -0.0522
 4929SOL    HW126246   0.023   1.707   8.345  0.6506  0.4490 -0.2833
 4929SOL    HW226247   0.087   1.593   8.405  1.3459 -0.3301 -0.0562
 4930SOL     OW26248   0.448   4.694   4.331 -0.1049 -0.1917  0.6815
 4930SOL    HW126249   0.509   4.662   4.397  0.9324  0.3811 -0.0001
 4930SOL    HW226250   0.369   4.644   4.352 -0.3829 -0.0633 -0.0483
 4931SOL     OW26251   3.317   0.060   7.577 -0.3035  0.5009  0.3560
 4931SOL    HW126252   3.380   0.104   7.521  0.5660 -2.4897 -1.0044
 4931SOL    HW226253   3.325   4.691   7.552 -1.3863  1.1310 -2.3725
 4932SOL     OW26254   4.657   2.311   3.708 -0.7370 -0.9203  0.0474
 4932SOL    HW126255   4.675   2.224   3.673  2.4328  0.1365 -0.9067
 4932SOL    HW226256   4.696   2.291   3.794  0.6316 -0.1793 -0.4169
 4933SOL     OW26257   4.404   1.101  13.228 -0.1021 -0.0920  0.5954
 4933SOL    HW126258   4.451   1.175  13.187 -1.3152 -0.1038 -0.8311
 4933SOL    HW226259   4.431   1.033  13.166 -0.4936 -1.3714  1.8351
 4934SOL     OW26260   0.349   3.018   3.561 -0.0701  0.1241  0.4129
 4934SOL    HW126261   0.290   2.942   3.561  0.7018 -0.4810 -0.2789
 4934SOL    HW226262   0.307   3.074   3.625 -1.8026 -1.1292  0.3670
 4935SOL     OW26263   0.424   1.663  11.779  0.1042  0.3382 -0.3542
 4935SOL    HW126264   0.478   1.613  11.718 -1.8039  1.3036 -2.7966
 4935SOL    HW226265   0.472   1.637  11.858  0.7990  1.3294 -0.4423
 4936SOL     OW26266   0.455   0.473   2.187 -0.1684  0.4077 -0.4465
 4936SOL    HW126267   0.401   0.394   2.194 -0.3488  0.4064 -1.9782
 4936SOL    HW226268   0.403   0.537   2.140 -0.8446  0.4021  0.2920
 4937SOL     OW26269   2.498   2.877   9.836 -0.1979 -0.5376  0.3921
 4937SOL    HW126270   2.481   2.820   9.761  1.1061 -1.9241  1.1459
 4937SOL    HW226271   2.523   2.809   9.900  1.5822 -2.8035 -2.7072
 4938SOL     OW26272   4.269   1.641   5.713  0.1668 -0.1757  0.1287
 4938SOL    HW126273   4.205   1.684   5.770  2.9188  0.3882  2.7876
 4938SOL    HW226274   4.239   1.682   5.633  0.7149 -1.1792 -0.5875
 4939SOL     OW26275   4.578   0.718   6.560  0.8546  0.4317  0.0106
 4939SOL    HW126276   4.483   0.732   6.561  0.5310 -1.8326  0.6196
 4939SOL    HW226277   4.592   0.779   6.633  1.9990  1.3058 -0.9327
 4940SOL     OW26278   0.050   1.323   2.850 -0.6701  0.2870 -0.4752
 4940SOL    HW126279   4.707   1.258   2.825  0.2819 -1.0730  0.4618
 4940SOL    HW226280   0.106   1.258   2.893 -0.8905  2.0892  2.5419
 4941SOL     OW26281   2.265   2.737  12.543  0.0997  0.2732  0.2765
 4941SOL    HW126282   2.329   2.754  12.612  1.7497  1.3715 -1.5238
 4941SOL    HW226283   2.314   2.757  12.463 -0.4934  1.2056  0.1410
 4942SOL     OW26284   0.307   4.586   2.126  0.0523 -0.7819 -0.0297
 4942SOL    HW126285   0.400   4.593   2.144 -0.4267  0.2316  2.0446
 4942SOL    HW226286   0.273   4.527   2.194 -1.3203 -2.5412 -2.2537
 4943SOL     OW26287   0.113   4.348   0.564 -0.1302  0.1952  0.0259
 4943SOL    HW126288   0.144   4.301   0.487 -0.3180 -0.8667  0.5955
 4943SOL    HW226289   0.022   4.368   0.542 -0.0192  0.8107  0.1165
 4944SOL     OW26290   3.412   2.030  13.098  0.1189  0.9689  0.1536
 4944SOL    HW126291   3.455   1.945  13.091 -0.7004  0.6600 -1.3078
 4944SOL    HW226292   3.342   2.016  13.033  1.6282  0.7834 -1.4367
 4945SOL     OW26293   2.409   0.431  16.452  0.4172  0.0570 -0.1671
 4945SOL    HW126294   2.343   0.462  16.514  0.1398  0.1482 -0.5084
 4945SOL    HW226295   2.488   0.462  16.496  0.8882 -1.4567  0.0639
 4946SOL     OW26296   2.810   3.875  16.151 -0.2882 -0.3762  0.6019
 4946SOL    HW126297   2.767   3.797  16.116  0.3258 -0.6205  0.3861
 4946SOL    HW226298   2.872   3.899  16.082  1.1150 -0.9121  1.6775
 4947SOL     OW26299   2.269   3.143  13.340 -0.0367  0.2901 -0.0915
 4947SOL    HW126300   2.317   3.149  13.422 -0.5496  0.9177  0.1597
 4947SOL    HW226301   2.223   3.061  13.358  1.4293 -0.1426  1.6703
 4948SOL     OW26302   1.558   3.906   2.217  0.2390 -0.1699  0.0532
 4948SOL    HW126303   1.561   3.887   2.310 -0.5328 -0.6620 -0.0153
 4948SOL    HW226304   1.484   3.968   2.213 -1.2388 -1.9575 -0.4593
 4949SOL     OW26305   3.449   1.823   3.795  0.3343  0.3851  0.0678
 4949SOL    HW126306   3.411   1.905   3.826 -4.1429 -1.5850 -0.2085
 4949SOL    HW226307   3.492   1.781   3.870 -1.5783 -2.2046 -0.2895
 4950SOL     OW26308   3.981   4.309   1.060  0.3231 -0.0906 -0.1819
 4950SOL    HW126309   4.054   4.296   0.999  0.5221  0.6049 -0.0961
 4950SOL    HW226310   3.938   4.226   1.039 -0.8212  0.6573 -0.7524
 4951SOL     OW26311   0.307   3.186   6.011 -0.0925 -0.1690  0.1651
 4951SOL    HW126312   0.335   3.141   6.090 -0.6029  0.1013  0.4979
 4951SOL    HW226313   0.278   3.273   6.037 -1.0415 -0.0522 -1.3136
 4952SOL     OW26314   1.849   2.627   6.294  0.2123  0.3015  0.3869
 4952SOL    HW126315   1.916   2.680   6.252 -0.4260  1.7964  1.2355
 4952SOL    HW226316   1.882   2.537   6.290 -0.9323 -0.0173 -1.8562
 4953SOL     OW26317   3.844   1.258   8.903  0.2498  0.1628 -0.1739
 4953SOL    HW126318   3.907   1.328   8.886 -0.5612  0.5389 -1.6437
 4953SOL    HW226319   3.772   1.317   8.927  0.0483  0.1878 -0.8353
 4954SOL     OW26320   2.749   3.294   1.106 -0.8257 -0.1771  0.1917
 4954SOL    HW126321   2.723   3.204   1.126  0.6209 -0.3083  1.5188
 4954SOL    HW226322   2.830   3.298   1.157  0.4156  0.5520 -1.8884
 4955SOL     OW26323   4.478   2.142  14.699 -0.0113 -0.4360 -0.3157
 4955SOL    HW126324   4.489   2.088  14.777  1.4712  2.4380  1.4525
 4955SOL    HW226325   4.501   2.090  14.622 -2.2250  0.8940 -1.8701
 4956SOL     OW26326   1.764   0.107  13.406  0.5604 -0.4752 -0.3397
 4956SOL    HW126327   1.712   0.187  13.411 -0.7942 -1.3827  0.1800
 4956SOL    HW226328   1.701   0.043  13.372  0.0919 -0.9605  1.4458
 4957SOL     OW26329   2.769   1.144  10.050  0.1218  0.2229  0.0688
 4957SOL    HW126330   2.817   1.086  10.109 -0.7795 -1.8361 -1.2286
 4957SOL    HW226331   2.750   1.211  10.116  0.8688  0.2088  0.3008
 4958SOL     OW26332   0.498   1.997   1.400  0.5092  0.3472  0.5005
 4958SOL    HW126333   0.444   2.023   1.474 -1.0296  1.2121 -0.9247
 4958SOL    HW226334   0.427   1.999   1.336  1.1364  1.0496 -0.1707
 4959SOL     OW26335   0.206   1.238   3.584 -0.3883  0.6055  0.4653
 4959SOL    HW126336   0.279   1.286   3.546 -0.7626 -1.8685 -3.3408
 4959SOL    HW226337   0.244   1.228   3.672 -2.5393 -0.9028  1.2137
 4960SOL     OW26338   1.998   4.002   8.256  0.6985  0.1208  0.2521
 4960SOL    HW126339   1.923   3.943   8.247 -0.4121  1.9816 -2.5543
 4960SOL    HW226340   2.055   3.947   8.310  0.7248 -3.0842 -3.0476
 4961SOL     OW26341   0.290   4.268   5.471 -0.3726  0.0131 -0.3808
 4961SOL    HW126342   0.291   4.360   5.498 -1.5344  0.2274 -1.0737
 4961SOL    HW226343   0.218   4.259   5.409  0.1689 -1.2196 -0.8297
 4962SOL     OW26344   2.724   4.653   9.531 -0.7925  0.0530  0.2392
 4962SOL    HW126345   2.787   4.588   9.561 -1.7999 -1.4494 -0.9026
 4962SOL    HW226346   2.740   0.000   9.594  1.9033  0.7915 -1.2470
 4963SOL     OW26347   3.188   0.947  14.451  0.0038 -0.6068 -1.1360
 4963SOL    HW126348   3.199   1.041  14.437  1.1684 -0.8695 -1.9920
 4963SOL    HW226349   3.279   0.928  14.475 -0.0466  2.6693  1.5481
 4964SOL     OW26350   0.602   0.188   8.257  0.5482 -0.2118  0.1260
 4964SOL    HW126351   0.585   0.238   8.177 -0.4370  1.0244  1.0939
 4964SOL    HW226352   0.618   0.102   8.218  1.8806 -0.5495  1.4483
 4965SOL     OW26353   1.202   0.079   4.431 -0.3827  0.5218  0.4226
 4965SOL    HW126354   1.280   0.058   4.379 -0.8725 -0.3187  0.0335
 4965SOL    HW226355   1.230   0.036   4.512  0.2342  0.5650  0.2344
 4966SOL     OW26356   2.468   1.775   4.637  0.3113 -0.8715  0.3967
 4966SOL    HW126357   2.390   1.750   4.588  0.2640  0.4704 -0.2113
 4966SOL    HW226358   2.419   1.844   4.683  0.7109 -0.2487 -0.0969
 4967SOL     OW26359   4.573   4.492   3.988 -0.0857  0.1835 -0.4259
 4967SOL    HW126360   4.616   4.524   4.067 -0.1998  0.2220 -0.3784
 4967SOL    HW226361   4.638   4.473   3.922 -1.6200 -0.6471 -1.7074
 4968SOL     OW26362   1.677   1.364   4.356 -0.4989 -0.0246  0.4331
 4968SOL    HW126363   1.693   1.283   4.307 -1.9420  0.3378 -0.6213
 4968SOL    HW226364   1.707   1.336   4.443  0.8254 -0.5901 -0.2151
 4969SOL     OW26365   3.630   2.413   0.748 -0.6790 -0.3980 -0.0135
 4969SOL    HW126366   3.682   2.363   0.685 -1.5093 -0.6481 -0.4944
 4969SOL    HW226367   3.627   2.503   0.714  2.0061  0.1947  1.3237
 4970SOL     OW26368   3.664   1.013   0.805  0.8680  0.1248  0.2761
 4970SOL    HW126369   3.680   0.918   0.798  1.7212  0.4379 -2.1287
 4970SOL    HW226370   3.627   1.020   0.893  1.3216 -4.0061  0.8259
 4971SOL     OW26371   2.860   0.674   9.121  0.1435  0.2289  0.5278
 4971SOL    HW126372   2.864   0.768   9.104 -0.2760 -0.0995 -1.4914
 4971SOL    HW226373   2.785   0.646   9.067  0.7791 -1.4369  0.5334
 4972SOL     OW26374   1.135   3.102   7.402  0.2932 -0.2014 -0.2333
 4972SOL    HW126375   1.149   3.163   7.330  2.4106 -0.5117 -0.0817
 4972SOL    HW226376   1.218   3.055   7.413  0.7369  0.4911 -0.6425
 4973SOL     OW26377   1.894   1.649   4.828 -0.0021  0.0079 -0.1283
 4973SOL    HW126378   1.986   1.666   4.809  0.3668 -0.7249  0.9518
 4973SOL    HW226379   1.894   1.625   4.921 -3.1585  0.5528  0.0221
 4974SOL     OW26380   2.342   4.530   2.793 -0.2203  0.0722 -0.0245
 4974SOL    HW126381   2.308   4.608   2.836 -1.0434  0.0283 -0.5807
 4974SOL    HW226382   2.347   4.472   2.868  3.0486 -0.7983 -0.9266
 4975SOL     OW26383   3.228   0.265   7.910  0.6168 -0.0916 -0.0860
 4975SOL    HW126384   3.188   0.312   7.983  0.1401 -2.2525  1.0311
 4975SOL    HW226385   3.258   0.341   7.861  0.4151 -0.5542 -0.9273
 4976SOL     OW26386   3.647   3.810   0.120  0.0441 -0.0586  0.2125
 4976SOL    HW126387   3.639   3.715   0.118 -0.4553  0.0046 -0.7779
 4976SOL    HW226388   3.582   3.829   0.053  0.1045  0.3213  0.2618
 4977SOL     OW26389   2.254   1.853   6.322  0.1320 -0.2779  0.7532
 4977SOL    HW126390   2.313   1.927   6.314  2.0680 -1.9431 -0.2003
 4977SOL    HW226391   2.320   1.784   6.322  2.8191  2.3041 -0.2244
 4978SOL     OW26392   3.298   0.837  10.201 -0.0628 -0.2679 -0.1534
 4978SOL    HW126393   3.290   0.783  10.122  0.9420 -0.5697 -0.0507
 4978SOL    HW226394   3.388   0.869  10.194 -0.5940  0.9815 -1.3049
 4979SOL     OW26395   3.049   3.706   3.210 -0.2388 -0.6282 -0.1933
 4979SOL    HW126396   3.126   3.737   3.164  0.0440 -0.3642  0.4530
 4979SOL    HW226397   3.090   3.683   3.294 -1.1410  0.9881  0.6866
 4980SOL     OW26398   1.935   0.936   2.774 -0.5669 -0.0259  0.2098
 4980SOL    HW126399   1.884   0.897   2.702 -1.7467 -0.4152  1.2555
 4980SOL    HW226400   1.884   0.910   2.851 -1.4583  2.4772  0.4766
 4981SOL     OW26401   0.791   1.147   3.963 -0.0918  0.0619 -0.3231
 4981SOL    HW126402   0.863   1.086   3.980  0.6116  0.5362 -1.5537
 4981SOL    HW226403   0.772   1.170   4.054 -1.5591  2.3152 -1.1846
 4982SOL     OW26404   1.301   1.968   3.458  0.0270 -0.1838  0.2511
 4982SOL    HW126405   1.347   2.021   3.393  1.4553  0.6106  1.9311
 4982SOL    HW226406   1.305   1.878   3.423  0.6932 -0.7625  1.8387
 4983SOL     OW26407   1.156   1.418   9.287  0.2851  0.5589 -0.3805
 4983SOL    HW126408   1.189   1.328   9.283  0.6025  0.7214 -1.4016
 4983SOL    HW226409   1.239   1.459   9.313  1.5408 -0.3798 -2.9637
 4984SOL     OW26410   2.051   2.039   1.976 -0.0570 -0.8891  0.4192
 4984SOL    HW126411   1.961   2.011   1.957 -0.8176  0.0433  2.6819
 4984SOL    HW226412   2.035   2.077   2.062  0.9349 -0.6864  0.5100
 4985SOL     OW26413   2.120   1.105   6.367 -0.8520  0.1607  0.3655
 4985SOL    HW126414   2.216   1.101   6.363 -0.9266 -2.2982  0.9792
 4985SOL    HW226415   2.101   1.191   6.329  0.0662 -0.2682 -1.0905
 4986SOL     OW26416   1.071   1.911   3.607 -0.3260  0.3116 -0.3171
 4986SOL    HW126417   1.054   1.821   3.633 -0.5920 -0.1041 -1.9252
 4986SOL    HW226418   1.155   1.899   3.563 -0.3950 -1.4489  0.0520
 4987SOL     OW26419   3.397   4.047   4.620  0.1924  0.1830 -0.5182
 4987SOL    HW126420   3.328   4.114   4.620 -0.0199 -0.0458  1.6285
 4987SOL    HW226421   3.393   4.017   4.711  1.5327 -0.0585 -0.5336
 4988SOL     OW26422   2.683   2.982   7.927 -0.2668 -0.3407 -0.0675
 4988SOL    HW126423   2.730   2.936   7.858 -1.9143  0.4849 -1.7136
 4988SOL    HW226424   2.739   3.060   7.933  0.0194 -0.5018 -0.6527
 4989SOL     OW26425   3.469   0.480  11.193  0.1952 -0.1415 -0.4226
 4989SOL    HW126426   3.448   0.567  11.228 -1.6482 -0.9465  0.5133
 4989SOL    HW226427   3.491   0.502  11.103  2.4780  0.5464  0.2977
 4990SOL     OW26428   4.140   4.019   6.858 -0.0971 -0.0904 -0.6810
 4990SOL    HW126429   4.101   4.106   6.863  0.1511  0.0157 -0.5804
 4990SOL    HW226430   4.117   3.989   6.946 -1.0698  0.6018 -0.7027
 4991SOL     OW26431   0.989   1.663   6.327 -0.4541  0.4323  0.0909
 4991SOL    HW126432   1.077   1.630   6.310  0.4982  2.5631  0.8201
 4991SOL    HW226433   0.994   1.737   6.388 -0.8221  0.1844  0.4215
 4992SOL     OW26434   2.616   4.426   1.271 -0.1276 -0.2481  0.5798
 4992SOL    HW126435   2.573   4.370   1.335 -1.9333  1.0156  0.4685
 4992SOL    HW226436   2.621   4.363   1.199  0.5193  1.3009 -0.7286
 4993SOL     OW26437   4.171   4.013   1.119  0.6519 -0.9168  0.3718
 4993SOL    HW126438   4.126   3.972   1.193 -1.2990 -0.4054 -0.5125
 4993SOL    HW226439   4.111   4.000   1.045  0.7477 -0.1634  0.1581
 4994SOL     OW26440   2.389   1.191   6.435  0.0439  0.6524  0.4467
 4994SOL    HW126441   2.467   1.136   6.443 -1.1725 -1.0450  0.6369
 4994SOL    HW226442   2.413   1.273   6.477  1.0727  0.5413  0.0887
 4995SOL     OW26443   3.899   4.667   3.584 -0.3517 -0.5160 -0.4761
 4995SOL    HW126444   3.901   4.625   3.498 -2.2300 -1.3719 -0.0930
 4995SOL    HW226445   3.903   4.587   3.636 -2.0303 -0.7037 -0.6190
 4996SOL     OW26446   0.778   3.794   6.974 -0.1453  0.1689  0.3371
 4996SOL    HW126447   0.718   3.748   6.916  2.3028 -0.6262 -1.5111
 4996SOL    HW226448   0.767   3.881   6.934 -1.8885  0.1808  0.8155
 4997SOL     OW26449   2.425   4.188   5.381 -0.3986 -0.2128 -0.1489
 4997SOL    HW126450   2.510   4.230   5.369  0.4008 -0.4609  4.8893
 4997SOL    HW226451   2.400   4.255   5.444 -0.1389  0.0028 -0.2735
 4998SOL     OW26452   2.427   1.408   7.731 -1.1361 -0.9672  0.0361
 4998SOL    HW126453   2.361   1.471   7.704 -2.3415 -3.8432 -3.7516
 4998SOL    HW226454   2.416   1.409   7.826  0.0928  1.8968  0.1312
 4999SOL     OW26455   1.830   0.812  14.711  0.0201 -0.4428 -0.0216
 4999SOL    HW126456   1.896   0.744  14.715  1.1413  0.6291 -0.3875
 4999SOL    HW226457   1.782   0.778  14.635 -0.4048  1.0831 -0.4475
 5000SOL     OW26458   1.178   1.025   0.865 -0.1020 -0.2564 -0.1958
 5000SOL    HW126459   1.234   1.045   0.940  1.2962 -0.4021 -1.2062
 5000SOL    HW226460   1.116   1.097   0.878  0.4507  0.5737 -2.1797
 5001SOL     OW26461   1.074   1.040   5.849 -0.2141 -0.4806  0.1895
 5001SOL    HW126462   0.985   1.005   5.856  0.1407 -1.6255 -0.9858
 5001SOL    HW226463   1.105   0.991   5.925 -2.3457 -1.0107  0.7091
 5002SOL     OW26464   0.311   1.766   3.118 -0.0765  0.0904  0.2737
 5002SOL    HW126465   0.246   1.696   3.106  1.7499 -1.4996 -0.2467
 5002SOL    HW226466   0.255   1.843   3.122  0.8071  0.7050  0.6314
 5003SOL     OW26467   1.563   3.879   7.444  0.3530 -0.8656 -0.3233
 5003SOL    HW126468   1.656   3.901   7.436 -0.8067  3.4253 -2.1339
 5003SOL    HW226469   1.526   3.905   7.360 -0.0869 -0.0701  0.1198
 5004SOL     OW26470   3.773   1.799   6.031  0.0363 -0.4357 -0.7825
 5004SOL    HW126471   3.725   1.813   6.113 -0.0551 -0.0786 -0.8959
 5004SOL    HW226472   3.814   1.886   6.033 -0.9606 -0.0037  0.9595
 5005SOL     OW26473   2.607   4.613   7.832  0.3756  0.0818  0.3228
 5005SOL    HW126474   2.601   4.669   7.755  1.9047  0.8326  0.7397
 5005SOL    HW226475   2.525   4.620   7.881 -0.0495 -2.2787 -0.0243
 5006SOL     OW26476   3.480   1.585  16.760  0.5147  0.5134 -0.4627
 5006SOL    HW126477   3.488   1.650  16.829  2.7013 -0.7742  0.4936
 5006SOL    HW226478   3.398   1.616  16.721 -1.0073 -0.7843  1.7484
 5007SOL     OW26479   0.393   0.687   6.595 -0.2658  0.2311 -0.3566
 5007SOL    HW126480   0.300   0.676   6.578 -0.2009  0.0510 -0.5935
 5007SOL    HW226481   0.405   0.716   6.685  0.9432 -1.5845  0.0696
 5008SOL     OW26482   3.027   0.267   5.249  0.2466  0.4941 -0.3353
 5008SOL    HW126483   3.080   0.339   5.216  3.2115 -1.9170 -0.8183
 5008SOL    HW226484   2.940   0.307   5.256 -0.4469 -1.2696  1.1584
 5009SOL     OW26485   1.657   1.639   4.293  0.8471  0.0745  0.3060
 5009SOL    HW126486   1.651   1.544   4.297 -0.7476  0.1311 -1.0080
 5009SOL    HW226487   1.598   1.674   4.360 -1.1324 -3.4855  0.4220
 5010SOL     OW26488   1.502   1.003   6.566  0.0135 -0.7201  0.5479
 5010SOL    HW126489   1.460   1.089   6.566  0.8637 -0.3140  0.8368
 5010SOL    HW226490   1.430   0.941   6.551  0.6129 -0.9394 -1.3841
 5011SOL     OW26491   1.728   2.897   5.149 -0.0167 -0.1258  0.3130
 5011SOL    HW126492   1.718   2.963   5.080 -2.9992 -0.4363  0.4441
 5011SOL    HW226493   1.639   2.863   5.136  0.1698  0.9127 -3.6816
 5012SOL     OW26494   0.427   1.057  12.333  0.0789 -0.2476  0.2831
 5012SOL    HW126495   0.490   1.095  12.394  2.6011  0.0054 -2.4835
 5012SOL    HW226496   0.363   1.128  12.334 -0.3762 -0.6330 -1.3602
 5013SOL     OW26497   3.483   2.856  10.784 -0.0083 -0.1103 -0.1520
 5013SOL    HW126498   3.478   2.913  10.861  3.0585 -0.6597  0.4683
 5013SOL    HW226499   3.522   2.922  10.727  1.2090 -0.8258 -0.1488
 5014SOL     OW26500   3.685   3.423   9.513 -0.1412  0.6690 -0.0528
 5014SOL    HW126501   3.704   3.455   9.425 -1.1564 -2.4442 -1.3981
 5014SOL    HW226502   3.593   3.447   9.520 -0.2824  0.9845 -2.9543
 5015SOL     OW26503   3.148   0.552  12.992 -0.2032  0.4810 -0.1311
 5015SOL    HW126504   3.154   0.647  13.004 -0.4965  0.2189  1.9826
 5015SOL    HW226505   3.204   0.539  12.916  0.2834 -0.9358  0.4829
 5016SOL     OW26506   2.965   0.548   8.795 -0.6508 -0.0187  0.3040
 5016SOL    HW126507   2.897   0.501   8.843  0.1220 -0.3080  1.0938
 5016SOL    HW226508   3.037   0.539   8.856  0.1244  1.7210 -0.3596
 5017SOL     OW26509   0.118   4.221   5.060  0.3595  0.4351  0.0678
 5017SOL    HW126510   0.134   4.219   5.155  1.5154 -1.1002 -0.1566
 5017SOL    HW226511   0.119   4.128   5.039  0.4358 -0.3576  3.4828
 5018SOL     OW26512   3.530   0.826   9.096  0.3566  0.3112 -0.6619
 5018SOL    HW126513   3.449   0.809   9.145 -0.4692  1.6624 -1.5572
 5018SOL    HW226514   3.574   0.744   9.118  0.5395  0.2567 -1.2470
 5019SOL     OW26515   1.499   1.760   4.495 -0.9332 -0.1950 -0.4254
 5019SOL    HW126516   1.420   1.711   4.520  0.9285 -1.8671  2.2436
 5019SOL    HW226517   1.544   1.767   4.580 -0.9464 -0.9854 -0.3511
 5020SOL     OW26518   4.356   4.101   8.367 -0.2156  0.1758 -0.3678
 5020SOL    HW126519   4.400   4.131   8.287 -0.6726  1.2026 -0.2317
 5020SOL    HW226520   4.401   4.146   8.439 -0.4217 -1.7459  0.9732
 5021SOL     OW26521   2.551   3.187  10.922 -0.4376  0.5979 -1.1152
 5021SOL    HW126522   2.623   3.203  10.860  1.1683  0.4063  0.6946
 5021SOL    HW226523   2.520   3.104  10.885  0.4892 -0.0803 -0.3686
 5022SOL     OW26524   0.145   2.155   7.500 -0.1135 -0.5783 -0.6179
 5022SOL    HW126525   0.064   2.157   7.551  0.1941  2.0278 -0.2437
 5022SOL    HW226526   0.107   2.144   7.413 -1.5308  0.3546 -0.1119
 5023SOL     OW26527   3.474   2.156   4.325 -0.2365  0.0617  0.5925
 5023SOL    HW126528   3.498   2.208   4.248 -0.4975 -0.9158 -0.1646
 5023SOL    HW226529   3.563   2.132   4.349  0.1632 -1.3469 -2.1943
 5024SOL     OW26530   3.576   1.720  14.291  0.4007  0.0170 -0.6460
 5024SOL    HW126531   3.639   1.651  14.309  0.9367  1.1598  1.8079
 5024SOL    HW226532   3.539   1.684  14.210 -2.3062  0.9878  0.1434
 5025SOL     OW26533   1.376   3.148   3.464  0.1836 -0.2534 -0.3010
 5025SOL    HW126534   1.359   3.055   3.449  2.0268 -0.6443  0.0326
 5025SOL    HW226535   1.471   3.147   3.476  0.4748 -0.1018 -2.6095
 5026SOL     OW26536   2.554   3.283   7.466  0.1306  0.0327  0.0089
 5026SOL    HW126537   2.565   3.378   7.459 -1.6349  0.3045  0.7912
 5026SOL    HW226538   2.594   3.271   7.551  0.4789  0.6015 -0.0724
 5027SOL     OW26539   4.404   3.370  10.527  0.2601  0.4436 -0.6581
 5027SOL    HW126540   4.379   3.303  10.590  3.1752 -0.7552 -0.8017
 5027SOL    HW226541   4.468   3.416  10.582  3.3368 -0.8879 -3.1516
 5028SOL     OW26542   3.064   2.684  13.286 -0.3628  0.3484 -0.4268
 5028SOL    HW126543   3.132   2.631  13.243 -0.7282 -0.0572 -0.5014
 5028SOL    HW226544   3.070   2.772  13.248 -0.5520 -0.2698 -1.8764
 5029SOL     OW26545   0.261   2.061   1.245 -0.8652  0.4922 -0.6356
 5029SOL    HW126546   0.243   2.000   1.316  0.8503 -1.6434 -2.0358
 5029SOL    HW226547   0.173   2.084   1.214 -0.8544 -0.5497 -1.4432
 5030SOL     OW26548   0.193   4.426  13.569 -0.1763 -0.3582  0.1769
 5030SOL    HW126549   0.271   4.441  13.622 -0.0650 -0.2405 -0.0189
 5030SOL    HW226550   0.185   4.332  13.585 -0.1096 -0.3763  0.1066
 5031SOL     OW26551   2.947   2.282   6.755 -0.1527 -0.1126  0.0967
 5031SOL    HW126552   2.937   2.312   6.845 -0.9417 -0.1168  0.0140
 5031SOL    HW226553   2.970   2.363   6.709 -2.1921  0.2844 -0.2059
 5032SOL     OW26554   3.856   3.051   6.773  0.2364  0.7510  0.7488
 5032SOL    HW126555   3.824   3.117   6.834  2.9469  2.6732  0.0910
 5032SOL    HW226556   3.930   3.097   6.732  2.1976 -2.6854  0.4123
 5033SOL     OW26557   1.601   2.634   1.405 -0.1159  0.1751 -0.0388
 5033SOL    HW126558   1.538   2.704   1.422  0.2035  0.6902 -1.0004
 5033SOL    HW226559   1.675   2.670   1.357 -1.3765 -0.4860 -2.4750
 5034SOL     OW26560   0.242   3.001  15.380  0.1142 -0.0547  0.1931
 5034SOL    HW126561   0.245   3.061  15.454 -0.1092 -0.4616  0.5341
 5034SOL    HW226562   0.318   2.946  15.397 -1.3699 -1.7709  1.2633
 5035SOL     OW26563   2.181   1.688   3.862 -0.2948 -0.3345 -0.0151
 5035SOL    HW126564   2.118   1.668   3.931  0.2419 -2.3441 -0.0890
 5035SOL    HW226565   2.123   1.675   3.787 -0.0510 -1.7907  0.0468
 5036SOL     OW26566   0.030   1.319   3.237  0.1415  0.0579  0.4244
 5036SOL    HW126567   4.683   1.281   3.184  1.0325  0.7600 -1.2836
 5036SOL    HW226568   0.053   1.244   3.292 -0.6216  0.2559  1.0122
 5037SOL     OW26569   4.010   2.929   0.878 -0.0832  0.0761  0.0548
 5037SOL    HW126570   4.055   3.003   0.837 -0.5396  0.5329  0.3800
 5037SOL    HW226571   3.957   2.888   0.809  0.1050 -0.3252  0.1500
 5038SOL     OW26572   1.888   1.674   5.126  0.4977  0.2446  0.0603
 5038SOL    HW126573   1.799   1.690   5.155  0.1925 -4.0538  1.4518
 5038SOL    HW226574   1.920   1.624   5.201 -1.2296 -1.3321 -0.2881
 5039SOL     OW26575   0.736   0.662  12.054 -0.0105  0.4878  0.5467
 5039SOL    HW126576   0.823   0.664  12.013  0.1086 -0.7399  0.7316
 5039SOL    HW226577   0.690   0.618  11.983  0.2084  1.4995 -0.2222
 5040SOL     OW26578   1.255   1.427   6.854  0.1124 -0.3804 -0.3179
 5040SOL    HW126579   1.351   1.421   6.849  0.0805  1.0899 -2.9213
 5040SOL    HW226580   1.253   1.497   6.919 -1.2172 -1.9838  1.3715
 5041SOL     OW26581   2.762   2.192   9.192 -0.4295  0.0957 -0.2183
 5041SOL    HW126582   2.759   2.118   9.130 -0.9197  0.8574 -1.0954
 5041SOL    HW226583   2.803   2.261   9.140  0.3219  0.1889  0.4941
 5042SOL     OW26584   2.287   2.038   5.266 -0.0971  0.1563  0.3073
 5042SOL    HW126585   2.244   1.956   5.242  0.5313 -0.0207 -0.2067
 5042SOL    HW226586   2.361   2.016   5.322 -0.4685  1.1776  1.1815
 5043SOL     OW26587   1.713   0.862  13.168 -0.3143  0.1251  1.2831
 5043SOL    HW126588   1.651   0.797  13.136  0.4167  0.7995 -1.5210
 5043SOL    HW226589   1.764   0.825  13.240 -0.8792  0.5122  1.8915
 5044SOL     OW26590   2.878   0.473   4.826 -0.9096 -0.4763  0.2100
 5044SOL    HW126591   2.819   0.399   4.830  0.2727 -1.5195 -1.4721
 5044SOL    HW226592   2.968   0.442   4.837 -0.6585  0.7792  1.7783
 5045SOL     OW26593   3.684   4.102   8.409 -0.1688 -0.3322  0.2524
 5045SOL    HW126594   3.624   4.176   8.421  0.5761  0.5123 -1.2442
 5045SOL    HW226595   3.644   4.073   8.327 -0.5019  0.8031  0.0134
 5046SOL     OW26596   0.597   3.385   1.013 -0.1475 -0.1311 -0.1970
 5046SOL    HW126597   0.531   3.386   1.083  1.0794 -0.9295  0.9772
 5046SOL    HW226598   0.681   3.388   1.061  0.2600 -0.0738 -0.9169
 5047SOL     OW26599   2.290   4.709   6.120  0.5106  0.0499  0.3107
 5047SOL    HW126600   2.311   4.669   6.036 -2.6524  0.1775 -0.5303
 5047SOL    HW226601   2.204   4.674   6.142 -1.1113  3.2470 -0.9865
 5048SOL     OW26602   2.850   3.823   0.251  0.3583  0.0099 -0.0566
 5048SOL    HW126603   2.762   3.791   0.271  0.1041  0.1797 -0.8847
 5048SOL    HW226604   2.907   3.746   0.261  0.8601  0.4832  0.6821
 5049SOL     OW26605   0.204   3.972   2.668 -0.0833  0.4185  0.3437
 5049SOL    HW126606   0.249   3.988   2.750  1.7831 -4.8994  0.3739
 5049SOL    HW226607   0.134   4.036   2.665  0.8204  1.5200  3.1004
 5050SOL     OW26608   4.603   3.996   0.655  0.2704  0.2615 -0.0883
 5050SOL    HW126609   4.549   3.935   0.605 -0.6081 -0.5342  1.8315
 5050SOL    HW226610   4.662   3.924   0.680 -1.7522 -1.4523 -0.2518
 5051SOL     OW26611   0.881   4.077   0.985 -0.4683  0.1909  0.0605
 5051SOL    HW126612   0.856   4.102   0.896 -0.0435 -1.0847 -0.4111
 5051SOL    HW226613   0.860   4.153   1.039 -0.7907  0.3309 -0.2666
 5052SOL     OW26614   3.346   1.789   6.449 -0.0361  0.6262  0.3418
 5052SOL    HW126615   3.324   1.778   6.542 -0.5621  0.0503  0.1534
 5052SOL    HW226616   3.431   1.746   6.449 -0.1185  0.4646  2.7037
 5053SOL     OW26617   1.957   4.231  14.044  0.4875  0.3597 -0.0515
 5053SOL    HW126618   1.915   4.312  14.073 -0.6414 -0.3113  0.2118
 5053SOL    HW226619   2.049   4.250  14.059  0.1416 -1.7243  4.5177
 5054SOL     OW26620   2.178   3.539   8.701  0.8483  0.0349  0.0065
 5054SOL    HW126621   2.137   3.612   8.748  1.7023  0.5186 -0.0057
 5054SOL    HW226622   2.258   3.521   8.751  0.5397  0.8996  0.8235
 5055SOL     OW26623   0.626   0.475   3.229  0.2291 -0.1600  0.2995
 5055SOL    HW126624   0.637   0.380   3.217  1.1279  0.2652 -2.3526
 5055SOL    HW226625   0.534   0.494   3.207  0.1139 -1.3811 -0.3067
 5056SOL     OW26626   0.375   3.149  17.076  0.3560  0.8601 -0.0848
 5056SOL    HW126627   0.436   3.166  17.004  0.4536 -1.3130 -0.5362
 5056SOL    HW226628   0.438   3.115  17.139 -0.8144  1.6797  1.5379
 5057SOL     OW26629   4.423   0.852   8.600  0.1654  0.0210  0.2213
 5057SOL    HW126630   4.516   0.853   8.576 -0.3041  1.1901 -1.5454
 5057SOL    HW226631   4.397   0.935   8.561  2.6502  0.0726 -1.3457
 5058SOL     OW26632   2.571   3.038  16.778  0.0743 -0.7518  0.9288
 5058SOL    HW126633   2.609   3.112  16.825  1.6481 -1.3025  0.5095
 5058SOL    HW226634   2.637   3.015  16.713 -0.4111  0.1408  0.1230
 5059SOL     OW26635   3.075   2.810  14.782 -0.3009  0.0248 -0.3901
 5059SOL    HW126636   3.065   2.735  14.840 -3.9229 -1.3791 -2.8264
 5059SOL    HW226637   3.155   2.857  14.807 -1.3832  1.5170  0.2663
 5060SOL     OW26638   2.665   1.383   8.540  0.3173  0.3716  0.4635
 5060SOL    HW126639   2.737   1.356   8.484 -0.1159  1.6984 -0.7190
 5060SOL    HW226640   2.689   1.468   8.578 -1.4663  0.6158  1.0819
 5061SOL     OW26641   1.192   0.120   7.755  0.2756  0.2708 -0.3186
 5061SOL    HW126642   1.117   0.169   7.720 -0.0686  0.4394  0.6401
 5061SOL    HW226643   1.164   0.030   7.738  1.3351  0.1912 -1.6280
 5062SOL     OW26644   3.635   4.026   4.353  0.2537  0.6452  0.0053
 5062SOL    HW126645   3.666   3.941   4.387  0.0895  0.0320 -1.3891
 5062SOL    HW226646   3.718   4.073   4.352  1.4702 -1.4951 -0.1451
 5063SOL     OW26647   0.399   2.354   1.588 -0.0855 -0.1347 -0.1321
 5063SOL    HW126648   0.479   2.404   1.600  0.6501 -1.0965 -1.0418
 5063SOL    HW226649   0.411   2.286   1.655  5.3769  1.1673  0.1677
 5064SOL     OW26650   0.074   4.327  17.664 -0.0301 -0.0411 -0.0309
 5064SOL    HW126651   0.031   4.251  17.626  0.4655 -1.7677  2.8615
 5064SOL    HW226652   0.003   4.353   0.029  0.1496 -1.7687  0.9572
 5065SOL     OW26653   2.642   3.208   6.749 -0.0802  0.0758  0.4863
 5065SOL    HW126654   2.722   3.165   6.719 -0.6631 -1.7583  1.5662
 5065SOL    HW226655   2.623   3.172   6.835  1.1802  0.4641  0.9267
 5066SOL     OW26656   1.655   0.709   4.654 -0.0262  0.2273 -0.1810
 5066SOL    HW126657   1.747   0.736   4.666  0.4247 -2.0559  1.5941
 5066SOL    HW226658   1.631   0.713   4.747  0.6972 -1.3571  0.0802
 5067SOL     OW26659   0.420   2.972  12.219 -0.0058 -0.0866 -0.6982
 5067SOL    HW126660   0.394   2.952  12.129 -0.6894  3.5922 -1.3475
 5067SOL    HW226661   0.372   3.054  12.233 -1.8267 -0.9827 -1.5465
 5068SOL     OW26662   2.145   0.855   1.256  0.1418  0.1981  0.4850
 5068SOL    HW126663   2.195   0.787   1.212 -1.4316  0.4859 -1.7159
 5068SOL    HW226664   2.128   0.926   1.194  0.5804  1.4095  1.7161
 5069SOL     OW26665   3.279   2.821  11.606 -0.2351  0.3078  0.0714
 5069SOL    HW126666   3.373   2.806  11.597  0.1040  0.4618  3.4327
 5069SOL    HW226667   3.277   2.882  11.679 -0.9132 -0.3853  0.6283
 5070SOL     OW26668   1.360   3.536  12.261  0.1435  0.1548  0.3889
 5070SOL    HW126669   1.313   3.525  12.343  0.4747  0.5981  0.6388
 5070SOL    HW226670   1.293   3.582  12.210  1.0418  1.2215  0.1682
 5071SOL     OW26671   4.471   2.237   4.341 -0.3009 -0.3627  0.2300
 5071SOL    HW126672   4.503   2.305   4.400  2.1744 -1.1733 -0.1851
 5071SOL    HW226673   4.437   2.171   4.402  1.2731  1.7910  3.4322
 5072SOL     OW26674   4.074   3.562   0.551  0.6046  0.6484 -0.0710
 5072SOL    HW126675   4.156   3.528   0.517  1.5206  0.9190  1.8924
 5072SOL    HW226676   4.010   3.491   0.549 -0.0592  1.1581  2.9392
 5073SOL     OW26677   4.012   1.563   1.046 -0.2395 -0.0530 -0.0371
 5073SOL    HW126678   3.941   1.588   1.106 -0.4299 -1.2078  0.2149
 5073SOL    HW226679   3.999   1.469   1.056 -3.5432  0.4468  0.6009
 5074SOL     OW26680   2.267   0.668  13.956 -0.1533  0.2824 -0.0269
 5074SOL    HW126681   2.284   0.583  13.914  1.2183  0.1160  0.8583
 5074SOL    HW226682   2.271   0.635  14.045 -0.1623 -2.1105 -0.9078
 5075SOL     OW26683   1.290   2.206   8.943  0.1014  0.2568  0.1333
 5075SOL    HW126684   1.212   2.182   8.992  1.0348 -0.0712  1.4643
 5075SOL    HW226685   1.359   2.163   8.993 -1.6950 -0.1263  2.2729
 5076SOL     OW26686   2.508   3.698   3.431 -0.1486 -0.1897  0.3063
 5076SOL    HW126687   2.586   3.644   3.434 -0.5941 -0.8423  0.2089
 5076SOL    HW226688   2.462   3.634   3.376  1.0653 -1.9907  1.3905
 5077SOL     OW26689   2.241   4.310   7.066  0.2134  0.0878 -0.0902
 5077SOL    HW126690   2.230   4.216   7.050 -0.2378  0.2827 -0.9378
 5077SOL    HW226691   2.324   4.319   7.113 -0.5568  2.6327  0.7727
 5078SOL     OW26692   1.437   1.359  16.148  0.3429 -0.5430  0.1225
 5078SOL    HW126693   1.388   1.287  16.187  1.8030 -1.0092  1.0637
 5078SOL    HW226694   1.524   1.321  16.152  0.8932  0.7927  0.8727
 5079SOL     OW26695   0.880   4.112  16.446  0.0875 -0.3395 -0.3446
 5079SOL    HW126696   0.944   4.120  16.375 -3.0929 -0.5125 -3.2733
 5079SOL    HW226697   0.888   4.194  16.495  1.6858  0.2888 -1.6596
 5080SOL     OW26698   0.375   2.825   6.069  0.9090 -0.6177  0.0680
 5080SOL    HW126699   0.429   2.900   6.094 -0.7125 -0.0821  1.9815
 5080SOL    HW226700   0.441   2.756   6.073  0.5507 -1.2270 -4.0111
 5081SOL     OW26701   2.541   0.037   9.381 -0.0346  0.6610  0.1067
 5081SOL    HW126702   2.610   0.011   9.442  0.1438  0.7416 -0.0581
 5081SOL    HW226703   2.464   0.000   9.423  1.8014 -2.2048  1.0156
 5082SOL     OW26704   3.682   0.200   8.072  0.5574  0.0843 -0.4947
 5082SOL    HW126705   3.638   0.259   8.011 -1.0650  0.0313  0.6005
 5082SOL    HW226706   3.721   0.270   8.124 -0.9201 -1.8184  3.2514
 5083SOL     OW26707   4.140   2.811   4.172 -0.1306  0.2615 -0.4601
 5083SOL    HW126708   4.051   2.832   4.146  1.2136  3.5050 -2.5057
 5083SOL    HW226709   4.164   2.748   4.104 -0.0309 -1.5829  1.2786
 5084SOL     OW26710   2.594   3.898   6.347 -0.1469 -0.4018  0.2479
 5084SOL    HW126711   2.576   3.958   6.419 -1.4015 -0.2342 -0.1995
 5084SOL    HW226712   2.669   3.850   6.383 -0.8559  0.3439  2.7367
 5085SOL     OW26713   2.052   3.726   2.724  0.4671 -0.2931 -0.8409
 5085SOL    HW126714   2.011   3.809   2.748 -1.1681 -1.0204 -1.1550
 5085SOL    HW226715   1.975   3.670   2.721 -0.2580  0.6592  0.0511
 5086SOL     OW26716   1.445   2.599   6.735  0.4182  0.3133  0.6962
 5086SOL    HW126717   1.528   2.581   6.779  1.2270 -0.3698 -1.1343
 5086SOL    HW226718   1.383   2.580   6.805  0.8289  2.2826  1.6083
 5087SOL     OW26719   0.561   2.137   1.749 -0.4571  0.3167 -0.1899
 5087SOL    HW126720   0.621   2.147   1.676  2.0998 -0.3857  1.8130
 5087SOL    HW226721   0.586   2.050   1.782 -0.0156  1.0554  1.4165
 5088SOL     OW26722   1.479   2.096   3.253  0.0777  0.1924  0.1871
 5088SOL    HW126723   1.574   2.083   3.252 -0.0272 -0.5561  1.8344
 5088SOL    HW226724   1.450   2.073   3.164 -0.6650  1.0799  0.1979
 5089SOL     OW26725   4.195   3.154   4.968  0.1006 -0.0553  0.1363
 5089SOL    HW126726   4.123   3.113   4.920 -0.0612  1.8249 -1.1974
 5089SOL    HW226727   4.178   3.124   5.058  1.5525  1.1851  0.8193
 5090SOL     OW26728   1.451   1.590  17.661  0.2971  0.2091 -0.4768
 5090SOL    HW126729   1.531   1.536  17.659  0.9882  1.1134  1.7700
 5090SOL    HW226730   1.479   1.667  17.611 -1.2698  2.8235  2.7006
 5091SOL     OW26731   3.459   3.582   7.201 -0.0468 -0.3880 -0.9935
 5091SOL    HW126732   3.529   3.547   7.257 -1.7025  0.1690  1.4219
 5091SOL    HW226733   3.506   3.617   7.125  0.1974  1.7288  0.1075
 5092SOL     OW26734   4.432   1.246   2.757  0.2112  0.0522 -0.3889
 5092SOL    HW126735   4.407   1.275   2.845  0.1347  0.3194 -0.4966
 5092SOL    HW226736   4.390   1.160   2.756 -1.7807  1.0497 -1.2753
 5093SOL     OW26737   0.699   1.786   6.526  0.4134 -0.1441  0.2633
 5093SOL    HW126738   0.679   1.694   6.542 -1.5638  0.2362 -0.0305
 5093SOL    HW226739   0.621   1.805   6.474  0.9125  0.0448 -0.4136
 5094SOL     OW26740   3.687   3.841   0.383  0.3679 -0.1127  0.3494
 5094SOL    HW126741   3.753   3.773   0.373  0.2275 -0.1378 -0.4378
 5094SOL    HW226742   3.669   3.851   0.289 -1.5057  0.1806  0.7426
 5095SOL     OW26743   0.722   1.745  11.611 -0.1906 -0.3370 -0.5582
 5095SOL    HW126744   0.636   1.780  11.587  0.7533  1.5910 -1.0765
 5095SOL    HW226745   0.704   1.655  11.637  1.3974 -0.2668  0.7898
 5096SOL     OW26746   3.037   2.999   4.509  0.1730  0.8060  0.3227
 5096SOL    HW126747   3.120   2.979   4.465  1.0215  2.5858  1.0867
 5096SOL    HW226748   2.981   3.043   4.445 -3.5177 -1.4841  1.9960
 5097SOL     OW26749   4.690   3.842   7.070  0.4160  0.3872 -0.2643
 5097SOL    HW126750   0.016   3.917   7.104  0.1668 -0.4628  1.9404
 5097SOL    HW226751   4.665   3.798   7.152  2.4397 -1.8993 -0.8999
 5098SOL     OW26752   4.621   0.611   7.688  0.1209  0.2057 -0.0422
 5098SOL    HW126753   4.531   0.645   7.690 -0.6415 -1.8193  0.6557
 5098SOL    HW226754   4.604   0.517   7.690  0.9335  0.0783  1.4440
 5099SOL     OW26755   2.392   1.167   3.985  0.3920 -0.1178 -0.0473
 5099SOL    HW126756   2.412   1.257   4.012  0.0942 -0.3264  0.8781
 5099SOL    HW226757   2.328   1.179   3.915  0.4319 -0.2419 -0.1043
 5100SOL     OW26758   2.027   3.898   7.625 -0.0784  0.1221  0.3412
 5100SOL    HW126759   2.054   3.908   7.717  0.8699 -0.6955  0.1518
 5100SOL    HW226760   2.016   3.804   7.610 -1.5503  0.2714  0.4100
 5101SOL     OW26761   2.904   1.037   6.009  0.3089  0.8316  0.2571
 5101SOL    HW126762   2.845   1.111   6.018 -1.5309 -0.7791  1.4325
 5101SOL    HW226763   2.841   0.969   6.033  0.7909 -1.6723 -5.7637
 5102SOL     OW26764   1.644   3.234   7.540 -0.3015  0.8428  0.0978
 5102SOL    HW126765   1.554   3.224   7.573 -0.9589  0.3775 -1.8314
 5102SOL    HW226766   1.692   3.187   7.607 -2.1433  0.1950  0.9717
 5103SOL     OW26767   0.399   3.214   3.360 -0.3711  0.1316  0.1956
 5103SOL    HW126768   0.331   3.249   3.303 -1.5200 -2.3882 -0.0210
 5103SOL    HW226769   0.358   3.148   3.416 -2.2513  1.2141  0.0785
 5104SOL     OW26770   1.415   1.369   6.012 -0.0425 -0.0365 -0.1309
 5104SOL    HW126771   1.336   1.422   6.019 -1.2267 -1.8353  0.1533
 5104SOL    HW226772   1.434   1.378   5.918 -0.6923 -0.9576 -0.3523
 5105SOL     OW26773   3.283   0.629   8.661  0.2911 -0.5595  0.0292
 5105SOL    HW126774   3.308   0.665   8.575 -0.3313 -3.0649 -1.1868
 5105SOL    HW226775   3.301   0.698   8.725 -2.1416 -0.5633  0.7077
 5106SOL     OW26776   2.482   1.686   3.112  0.0504  0.5030 -1.1547
 5106SOL    HW126777   2.539   1.647   3.178  0.1274  0.6204 -1.1528
 5106SOL    HW226778   2.504   1.635   3.033 -1.1021 -0.2880 -0.9588
 5107SOL     OW26779   0.587   1.199  16.966 -0.0893  0.7323  0.1914
 5107SOL    HW126780   0.520   1.151  17.015 -0.6217  1.1980 -0.0937
 5107SOL    HW226781   0.593   1.273  17.026 -0.8232 -0.2639  1.4889
 5108SOL     OW26782   1.481   3.136   3.757  0.5259 -0.2313  0.8396
 5108SOL    HW126783   1.467   3.042   3.769 -1.7635  0.3371  2.6891
 5108SOL    HW226784   1.570   3.152   3.726  0.0726 -0.4967 -0.5920
 5109SOL     OW26785   3.742   4.208  11.476 -0.7548  0.8510  0.1801
 5109SOL    HW126786   3.738   4.294  11.518 -0.7981  1.1945 -0.5368
 5109SOL    HW226787   3.668   4.202  11.416  1.1483 -0.8481 -1.9948
 5110SOL     OW26788   2.032   3.165   0.980 -0.3373  0.2702  0.1765
 5110SOL    HW126789   1.947   3.121   0.972  0.2200 -0.6890 -0.5174
 5110SOL    HW226790   2.008   3.234   1.042  1.3119  0.4214  0.6447
 5111SOL     OW26791   0.900   3.738   5.763 -0.3475 -0.4498 -0.2046
 5111SOL    HW126792   0.808   3.763   5.770 -0.2567  0.2577 -1.6606
 5111SOL    HW226793   0.954   3.814   5.786  0.9804 -1.6737  0.7193
 5112SOL     OW26794   0.696   4.235  13.879  0.6888 -0.5409 -0.1087
 5112SOL    HW126795   0.626   4.176  13.851 -0.1070 -0.5035  1.7976
 5112SOL    HW226796   0.659   4.283  13.953  0.9544 -0.9600  0.2989
 5113SOL     OW26797   3.583   3.025   1.542 -0.2753 -0.8612 -0.1839
 5113SOL    HW126798   3.488   3.013   1.537 -0.7107  2.3786 -0.1094
 5113SOL    HW226799   3.592   3.089   1.613 -4.5255 -1.2587  0.7363
 5114SOL     OW26800   3.344   1.997   6.907  0.0804 -0.2053  0.2577
 5114SOL    HW126801   3.440   1.999   6.900  0.0925  2.5876  1.1883
 5114SOL    HW226802   3.328   1.913   6.949  1.3935 -1.6720 -2.1702
 5115SOL     OW26803   3.956   3.109   8.576  0.7017  0.0365  0.3389
 5115SOL    HW126804   3.924   3.068   8.656 -0.3853 -2.3649 -1.3420
 5115SOL    HW226805   4.051   3.116   8.582  0.7575 -0.4346 -0.0860
 5116SOL     OW26806   3.332   4.167  13.761 -0.1471 -0.3313  0.4284
 5116SOL    HW126807   3.346   4.258  13.734 -1.9892 -0.0184  0.5249
 5116SOL    HW226808   3.381   4.166  13.843 -0.2852 -0.3415  0.5121
 5117SOL     OW26809   3.905   3.289   4.793  0.1557  0.2746 -0.1442
 5117SOL    HW126810   3.943   3.283   4.880 -1.0536 -1.1104  0.3011
 5117SOL    HW226811   3.832   3.348   4.812 -0.9473 -0.5385 -1.8535
 5118SOL     OW26812   3.216   4.444   4.500  0.3463  0.5342  0.3222
 5118SOL    HW126813   3.242   4.367   4.551 -0.6874 -0.7917 -1.1311
 5118SOL    HW226814   3.137   4.401   4.466  1.7496 -0.3552 -1.8109
 5119SOL     OW26815   2.900   4.618   6.076  0.0619  0.1585  0.3470
 5119SOL    HW126816   2.964   4.592   6.142 -1.3802  0.2986  1.8125
 5119SOL    HW226817   2.943   4.686   6.024  0.1931  0.3389  0.6896
 5120SOL     OW26818   4.007   0.955  12.141 -0.4207 -0.0951 -0.0422
 5120SOL    HW126819   3.934   0.969  12.081 -0.0989  1.1739 -0.1182
 5120SOL    HW226820   4.022   1.046  12.164 -1.4142 -0.3787  1.7247
 5121SOL     OW26821   2.001   0.273   2.163 -0.6406 -0.1779  1.0058
 5121SOL    HW126822   1.909   0.260   2.143 -0.1181 -0.6607 -1.0253
 5121SOL    HW226823   2.033   0.232   2.083  0.3509  3.4742 -0.4821
 5122SOL     OW26824   0.553   3.914   5.442  0.4746 -0.0240 -0.7504
 5122SOL    HW126825   0.527   3.981   5.379 -0.1388  0.1853 -0.2726
 5122SOL    HW226826   0.469   3.892   5.482 -0.1945  3.4682 -0.2153
 5123SOL     OW26827   2.341   2.395   1.164 -0.5274  0.0021  0.5247
 5123SOL    HW126828   2.347   2.471   1.106  2.3375  1.9080  3.3463
 5123SOL    HW226829   2.247   2.379   1.159 -0.3104 -1.1139  0.1151
 5124SOL     OW26830   0.265   1.264  12.369  0.2265  0.2518  0.1149
 5124SOL    HW126831   0.306   1.323  12.432 -0.4997  0.1268  0.7044
 5124SOL    HW226832   0.175   1.273  12.402 -0.1959  0.3865 -1.0639
 5125SOL     OW26833   4.375   3.426   0.168 -0.1702  0.0195 -0.3274
 5125SOL    HW126834   4.337   3.488   0.106  0.9826 -0.2846 -1.3526
 5125SOL    HW226835   4.443   3.479   0.210 -0.2203 -1.9715  2.2340
 5126SOL     OW26836   2.914   1.799  12.734 -0.0612 -0.1931 -0.1839
 5126SOL    HW126837   3.010   1.792  12.735 -0.1422 -1.3624 -0.3064
 5126SOL    HW226838   2.892   1.740  12.661 -0.4172 -0.2040 -0.0650
 5127SOL     OW26839   0.008   3.288   4.376 -0.1021 -0.5798  0.5583
 5127SOL    HW126840   0.059   3.287   4.457 -0.6790  0.3219  0.9299
 5127SOL    HW226841   4.642   3.271   4.407  0.4773 -0.7286  2.1015
 5128SOL     OW26842   3.070   0.134   2.503 -0.0231 -0.0855 -0.0499
 5128SOL    HW126843   3.105   0.219   2.475  0.1100  0.1357  0.7645
 5128SOL    HW226844   2.976   0.150   2.502  0.2303  1.5542  1.8521
 5129SOL     OW26845   0.388   0.216   6.066  0.4692 -0.0114  0.3579
 5129SOL    HW126846   0.306   0.198   6.020  1.1302  0.6257 -1.0562
 5129SOL    HW226847   0.433   0.131   6.061 -2.6996 -1.4478 -4.1199
 5130SOL     OW26848   4.070   1.530   2.283 -0.1466  0.0018 -0.1476
 5130SOL    HW126849   4.072   1.614   2.329  1.0960  0.0008 -0.1739
 5130SOL    HW226850   4.074   1.461   2.349  0.1432 -0.1205 -0.2925
 5131SOL     OW26851   4.692   1.482   7.353 -0.5093 -0.2508  0.0690
 5131SOL    HW126852   4.629   1.506   7.421 -0.8166 -0.1667 -0.2454
 5131SOL    HW226853   0.049   1.514   7.395  0.1967 -3.6216  1.3302
 5132SOL     OW26854   4.394   2.145   4.917 -0.3924 -0.6596  0.7755
 5132SOL    HW126855   4.364   2.221   4.867 -0.5608 -0.9228  0.4765
 5132SOL    HW226856   4.476   2.175   4.957  0.9400 -4.0999  0.5626
 5133SOL     OW26857   1.598   2.459  13.416  0.3791  0.4741  0.7905
 5133SOL    HW126858   1.584   2.551  13.397 -1.9721 -0.2249 -0.9408
 5133SOL    HW226859   1.536   2.417  13.357  2.9053  0.4698 -1.8519
 5134SOL     OW26860   4.329   0.119   3.619  0.1608 -0.6141  0.4498
 5134SOL    HW126861   4.402   0.155   3.569 -0.7393 -1.0265 -1.1594
 5134SOL    HW226862   4.347   0.158   3.704  2.9060 -0.9363  0.0297
 5135SOL     OW26863   0.439   1.506  11.161 -0.1362 -0.2360  0.8388
 5135SOL    HW126864   0.446   1.457  11.243 -0.0604 -1.5131  0.0600
 5135SOL    HW226865   0.470   1.594  11.186  1.4851 -0.5957  0.1082
 5136SOL     OW26866   3.196   3.708  16.801  0.0039  0.4658 -0.5546
 5136SOL    HW126867   3.266   3.758  16.758  1.0003  0.4914  1.1101
 5136SOL    HW226868   3.119   3.763  16.814 -0.8479 -0.8029 -0.1650
 5137SOL     OW26869   4.182   1.107  13.388 -0.4679 -0.0027 -0.1770
 5137SOL    HW126870   4.258   1.102  13.331 -0.2786  0.6905  0.0156
 5137SOL    HW226871   4.187   1.025  13.439 -0.0619  0.7442  0.9844
 5138SOL     OW26872   0.896   4.335   8.721  0.1276  0.1308  0.4924
 5138SOL    HW126873   0.866   4.425   8.734 -0.5319 -0.0774  0.4404
 5138SOL    HW226874   0.990   4.348   8.725  0.2578  0.2308 -2.5294
 5139SOL     OW26875   2.740   1.220   2.376 -0.0999 -0.6204  0.5591
 5139SOL    HW126876   2.812   1.208   2.438  0.6379 -0.0359 -0.1772
 5139SOL    HW226877   2.688   1.147   2.407  0.7939 -0.5079  2.3472
 5140SOL     OW26878   1.456   3.261   4.620  0.5422 -0.6282  0.2872
 5140SOL    HW126879   1.483   3.335   4.566  1.1036 -1.3013 -0.3529
 5140SOL    HW226880   1.390   3.226   4.560  0.7090  0.0731 -0.3113
 5141SOL     OW26881   3.492   3.212   7.061  0.0014 -0.1362  0.0022
 5141SOL    HW126882   3.542   3.151   7.115  1.5285  1.6530  0.6296
 5141SOL    HW226883   3.410   3.211   7.111  0.3734 -0.5412  0.6033
 5142SOL     OW26884   1.805   0.082   6.377  0.2804 -0.6177  0.2985
 5142SOL    HW126885   1.773   0.131   6.301 -0.4946 -1.8474 -0.1556
 5142SOL    HW226886   1.757   4.722   6.377  0.4873 -0.7372  0.3861
 5143SOL     OW26887   4.527   1.554   5.189  0.1400  0.3324  0.3314
 5143SOL    HW126888   4.560   1.518   5.107  0.0611 -0.0336  0.4601
 5143SOL    HW226889   4.551   1.487   5.253  0.4541  0.4964  0.3886
 5144SOL     OW26890   2.902   1.116   4.700  0.4699  1.0089 -0.1841
 5144SOL    HW126891   2.930   1.149   4.614 -0.2189  0.0868 -0.7641
 5144SOL    HW226892   2.981   1.145   4.746  0.0204  0.1459  1.1421
 5145SOL     OW26893   0.366   1.623  11.446 -0.1228  0.4020  0.0869
 5145SOL    HW126894   0.343   1.648  11.536 -0.0300  0.4571  0.0960
 5145SOL    HW226895   0.351   1.529  11.440  1.6229  0.3006 -2.6178
 5146SOL     OW26896   3.110   4.593  14.504  0.5753  0.8236  0.8751
 5146SOL    HW126897   3.098   4.498  14.501  1.7019  0.6738  1.1897
 5146SOL    HW226898   3.131   4.597  14.411 -0.3031  1.4898  0.6986
 5147SOL     OW26899   4.106   4.192   9.708  0.3073 -0.8511 -0.3916
 5147SOL    HW126900   4.105   4.096   9.700 -0.7043 -0.7281 -1.7469
 5147SOL    HW226901   4.153   4.202   9.790  0.3253  0.6773 -0.5826
 5148SOL     OW26902   1.944   4.208   2.887 -0.2024  0.1002  0.2040
 5148SOL    HW126903   1.994   4.197   2.968  1.5724 -0.5178 -0.9681
 5148SOL    HW226904   1.868   4.259   2.911  0.1497  1.3269 -1.3063
 5149SOL     OW26905   1.660   0.643   8.525  0.5254 -0.3402 -0.8516
 5149SOL    HW126906   1.574   0.610   8.498  0.1723 -0.2064  0.0879
 5149SOL    HW226907   1.661   0.730   8.487 -1.5213 -0.1603 -0.5191
 5150SOL     OW26908   0.282   4.517   4.433 -0.5493 -0.3246  0.4366
 5150SOL    HW126909   0.306   4.541   4.523  1.6066  1.0292 -0.4894
 5150SOL    HW226910   0.188   4.533   4.434 -0.2422  1.4342  0.1012
 5151SOL     OW26911   4.594   3.374   1.289 -0.3957 -0.0356 -0.0404
 5151SOL    HW126912   4.524   3.313   1.266  0.2729 -0.3618 -1.2228
 5151SOL    HW226913   4.670   3.336   1.246 -0.1559  2.5687 -1.9322
 5152SOL     OW26914   1.361   1.888  14.043 -0.6142  0.3735 -0.2035
 5152SOL    HW126915   1.377   1.971  13.999 -1.9738 -0.2725 -1.9194
 5152SOL    HW226916   1.276   1.862  14.009 -0.2698  0.5868 -1.2591
 5153SOL     OW26917   4.072   1.893   8.225 -0.0045  0.1924  0.7865
 5153SOL    HW126918   3.992   1.847   8.248  1.4333 -2.0180  1.4262
 5153SOL    HW226919   4.129   1.825   8.187  0.0037  0.5289  0.1920
 5154SOL     OW26920   0.759   0.861   8.328 -0.0962 -0.5581  0.5004
 5154SOL    HW126921   0.708   0.873   8.408 -0.1562  0.8035  0.2455
 5154SOL    HW226922   0.703   0.793   8.290 -1.2257 -0.5461  2.1474
 5155SOL     OW26923   2.187   3.621  13.015 -0.2780 -0.1843 -0.1635
 5155SOL    HW126924   2.092   3.619  13.004  0.0635  1.0754 -3.2013
 5155SOL    HW226925   2.205   3.541  13.064  3.2435  0.1018 -0.9650
 5156SOL     OW26926   0.320   4.362   3.507 -0.0474 -0.3960 -0.0256
 5156SOL    HW126927   0.326   4.397   3.596 -2.5209  1.8991 -0.7781
 5156SOL    HW226928   0.348   4.438   3.456  1.2020  0.4297  1.8941
 5157SOL     OW26929   3.599   1.378   5.035  0.5554 -0.5705  1.0102
 5157SOL    HW126930   3.643   1.317   4.976 -0.2923  0.6606 -0.9053
 5157SOL    HW226931   3.670   1.434   5.065  0.1146  0.8545 -0.6315
 5158SOL     OW26932   3.733   0.898   1.683 -0.7350  0.4675 -0.6229
 5158SOL    HW126933   3.727   0.844   1.604 -0.7122  0.8421 -0.8838
 5158SOL    HW226934   3.816   0.870   1.723  1.2278  3.0703 -2.8473
 5159SOL     OW26935   2.167   1.080  17.245  0.0152  0.4897 -0.0283
 5159SOL    HW126936   2.195   1.148  17.184 -0.6246  0.4104 -0.4073
 5159SOL    HW226937   2.211   1.105  17.326 -1.2959  1.5846  0.3358
 5160SOL     OW26938   0.434   0.674  16.569 -0.3352 -0.0043  0.1918
 5160SOL    HW126939   0.412   0.718  16.651  0.6907  3.5309 -1.4768
 5160SOL    HW226940   0.434   0.581  16.596  0.0532  0.3352  1.3814
 5161SOL     OW26941   1.302   3.668   4.279 -0.0321  0.4587 -0.1775
 5161SOL    HW126942   1.344   3.730   4.220  0.2010 -0.9822 -1.5230
 5161SOL    HW226943   1.234   3.732   4.297  0.2981  0.4507  1.1067
 5162SOL     OW26944   4.133   2.113  11.959  0.5680  0.3401  0.1280
 5162SOL    HW126945   4.221   2.136  11.931  0.2518  1.2714 -0.0941
 5162SOL    HW226946   4.137   2.017  11.963  0.0612  0.2953 -0.3881
 5163SOL     OW26947   1.141   2.109   2.549  0.2077  0.0670 -0.2225
 5163SOL    HW126948   1.193   2.115   2.629 -0.6549 -3.7737  0.6139
 5163SOL    HW226949   1.213   2.125   2.488  0.0462 -1.8389 -0.9100
 5164SOL     OW26950   2.576   3.476   7.741  1.0591 -0.4930 -0.0885
 5164SOL    HW126951   2.516   3.506   7.672  1.2213 -0.4534 -0.2121
 5164SOL    HW226952   2.662   3.494   7.704  1.4419 -2.8115 -0.2660
 5165SOL     OW26953   3.453   3.689   9.448 -0.5242 -0.0693 -0.1233
 5165SOL    HW126954   3.396   3.761   9.421 -0.5220  0.0012  0.0620
 5165SOL    HW226955   3.436   3.624   9.379  1.2999 -2.5443  1.7523
 5166SOL     OW26956   2.558   3.600   3.056 -0.1541  0.3625 -0.3289
 5166SOL    HW126957   2.626   3.544   3.094 -0.5405 -0.4016 -0.7599
 5166SOL    HW226958   2.605   3.651   2.990  1.2784  0.4401  0.7568
 5167SOL     OW26959   0.269   2.910   5.832  0.0172 -0.3405 -0.3841
 5167SOL    HW126960   0.218   2.840   5.792 -0.2910 -0.8174  0.8481
 5167SOL    HW226961   0.292   2.868   5.915 -0.0855  0.6020  0.1202
 5168SOL     OW26962   1.461   0.211  16.940  0.0081 -0.5256  0.5883
 5168SOL    HW126963   1.411   0.285  16.976 -1.2054 -0.9993 -0.1207
 5168SOL    HW226964   1.537   0.265  16.919 -0.5106 -0.7796 -1.9236
 5169SOL     OW26965   3.992   0.994   9.290  0.8083 -0.1445  0.0746
 5169SOL    HW126966   4.049   0.986   9.366  0.6240 -0.5852  0.1652
 5169SOL    HW226967   3.908   1.005   9.335  0.9550 -0.2614  0.3731
 5170SOL     OW26968   0.542   4.524  14.185  0.0681 -0.5785 -0.1422
 5170SOL    HW126969   0.501   4.590  14.128 -1.2114 -0.7213  0.6159
 5170SOL    HW226970   0.464   4.494  14.232 -0.1410 -1.5434 -1.1032
 5171SOL     OW26971   0.893   4.556   3.095  0.2040  0.3526  0.4004
 5171SOL    HW126972   0.904   4.651   3.092  0.9121  0.2641  0.2295
 5171SOL    HW226973   0.923   4.539   3.184 -0.2612  0.0375  0.5021
 5172SOL     OW26974   3.749   1.868   6.692  0.1656  0.3791 -0.0369
 5172SOL    HW126975   3.801   1.948   6.698 -1.3880  1.4691 -1.1920
 5172SOL    HW226976   3.674   1.905   6.646 -0.2369 -0.3267  0.0404
 5173SOL     OW26977   3.104   0.482   6.191  0.2940 -0.5143 -0.1822
 5173SOL    HW126978   3.016   0.483   6.154 -0.1241 -0.6409  0.8276
 5173SOL    HW226979   3.078   0.496   6.282 -3.1149 -1.7995 -0.9773
 5174SOL     OW26980   0.087   1.527  13.445 -0.3445 -0.7730 -0.1196
 5174SOL    HW126981   0.080   1.622  13.432 -0.2590 -0.4751  2.1060
 5174SOL    HW226982   4.716   1.510  13.454 -0.7792  1.5818 -0.1305
 5175SOL     OW26983   0.266   3.281   5.031 -0.2629 -0.0547  0.3130
 5175SOL    HW126984   0.313   3.255   4.952 -1.2130  0.5679 -0.4558
 5175SOL    HW226985   0.186   3.299   4.982  0.1882 -1.0858 -0.7908
 5176SOL     OW26986   3.308   3.756   1.774  0.3536  0.3197  0.3238
 5176SOL    HW126987   3.292   3.829   1.835 -1.9784 -0.3650  0.5066
 5176SOL    HW226988   3.403   3.765   1.782  0.6741 -1.8240 -1.2216
 5177SOL     OW26989   0.367   2.984   6.484  0.1694  0.1881 -0.3608
 5177SOL    HW126990   0.320   3.026   6.556  2.7908 -0.0537  1.4564
 5177SOL    HW226991   0.411   2.907   6.520 -1.7429  0.1469  1.8854
 5178SOL     OW26992   2.914   2.447  13.027 -0.1543 -0.2910  0.6972
 5178SOL    HW126993   2.820   2.438  13.011  0.0647 -1.4824  0.0295
 5178SOL    HW226994   2.931   2.370  13.081 -1.1635 -1.1538 -0.2116
 5179SOL     OW26995   0.797   3.080   6.416 -0.3472 -0.3281  0.1436
 5179SOL    HW126996   0.732   3.018   6.383  0.3621 -1.4289  0.8391
 5179SOL    HW226997   0.780   3.160   6.366  0.2970 -0.4754 -0.3114
 5180SOL     OW26998   1.587   2.942   1.352 -0.0085  0.2328 -0.2025
 5180SOL    HW126999   1.645   2.874   1.319  1.4937  1.9649 -1.1390
 5180SOL    HW227000   1.592   3.010   1.285  0.4056  1.1993  0.8082
 5181SOL     OW27001   1.232   1.041   0.128 -0.1265  0.3625 -0.2528
 5181SOL    HW127002   1.235   1.031   0.223  1.2128  0.8286 -0.2342
 5181SOL    HW227003   1.282   1.122   0.118 -0.2821  0.4508 -0.3046
 5182SOL     OW27004   0.603   0.681   6.884 -0.1884 -0.2678  0.1252
 5182SOL    HW127005   0.696   0.698   6.870 -0.2303  0.5977  0.9060
 5182SOL    HW227006   0.560   0.762   6.913 -0.0987 -1.0946  2.5071
 5183SOL     OW27007   2.500   2.595  10.072  0.0486  0.7629  0.6505
 5183SOL    HW127008   2.478   2.504  10.052  1.5408  0.4732  0.3199
 5183SOL    HW227009   2.582   2.574  10.116 -0.0053  1.0256  0.8699
 5184SOL     OW27010   0.526   3.699  10.040 -0.0669 -0.1988 -0.2303
 5184SOL    HW127011   0.462   3.721   9.971  1.2969 -1.9681 -2.0767
 5184SOL    HW227012   0.598   3.722   9.981 -0.8318  0.4685 -0.9014
 5185SOL     OW27013   2.231   1.176   7.265 -0.1182  0.1698  0.3268
 5185SOL    HW127014   2.161   1.241   7.258 -0.0525  0.0907 -1.1468
 5185SOL    HW227015   2.180   1.120   7.323  2.2321 -1.2465  1.0232
 5186SOL     OW27016   1.038   1.599   1.109  0.4906  0.0093 -0.3492
 5186SOL    HW127017   1.051   1.504   1.118 -0.1849 -0.0248  0.2323
 5186SOL    HW227018   1.058   1.608   1.015  1.0801  0.9286 -0.1364
 5187SOL     OW27019   2.991   0.247   3.901  0.0866 -0.8537 -0.6413
 5187SOL    HW127020   3.059   0.254   3.967 -2.6911 -0.7979  2.2255
 5187SOL    HW227021   2.946   0.325   3.934 -0.3524 -1.5785  0.4554
 5188SOL     OW27022   2.275   4.426   8.230 -0.5449 -0.2780  0.4470
 5188SOL    HW127023   2.338   4.498   8.230  0.4561 -1.1376  3.3051
 5188SOL    HW227024   2.329   4.362   8.276 -0.6239 -0.8426 -0.2388
 5189SOL     OW27025   4.513   3.909  15.133  0.9871  0.4983 -0.2842
 5189SOL    HW127026   4.481   3.820  15.148  1.2261  0.5169  0.3271
 5189SOL    HW227027   4.437   3.950  15.092  0.4009  0.9016  1.2079
 5190SOL     OW27028   4.194   3.700   8.546  0.1341 -0.1624 -0.4273
 5190SOL    HW127029   4.161   3.634   8.486 -2.6788 -0.2523  1.2182
 5190SOL    HW227030   4.129   3.685   8.615  1.3592  1.1515  0.9974
 5191SOL     OW27031   4.120   3.223   1.834 -0.1433  0.2464  0.3863
 5191SOL    HW127032   4.198   3.246   1.884 -0.0527 -0.9923  0.8160
 5191SOL    HW227033   4.083   3.310   1.818  1.1504  0.7777  0.3269
 5192SOL     OW27034   2.009   0.606  13.171  0.3902  0.4986  0.0143
 5192SOL    HW127035   1.960   0.638  13.247 -0.5549 -0.0054 -0.3814
 5192SOL    HW227036   2.043   0.694  13.158 -2.0735  1.7488  2.1340
 5193SOL     OW27037   2.546   0.167   5.615 -0.3097 -0.0474  0.4305
 5193SOL    HW127038   2.505   0.230   5.675 -1.9460 -0.5175 -0.1896
 5193SOL    HW227039   2.465   0.121   5.595 -0.1775 -0.5749  1.1199
 5194SOL     OW27040   2.175   2.311  16.041 -0.1486 -0.5769 -0.3505
 5194SOL    HW127041   2.135   2.374  15.982  0.0025  0.0729  0.2362
 5194SOL    HW227042   2.249   2.363  16.073 -0.2562  1.0037 -2.7120
 5195SOL     OW27043   1.096   4.415  13.853 -0.0689 -0.2615  0.1376
 5195SOL    HW127044   1.153   4.489  13.873 -0.9136  0.4238  0.0385
 5195SOL    HW227045   1.084   4.376  13.940  0.0756 -2.0536 -0.6534
 5196SOL     OW27046   0.868   4.339   4.178  0.3335 -0.6891  0.1537
 5196SOL    HW127047   0.881   4.369   4.267  0.8550 -3.3848  0.9917
 5196SOL    HW227048   0.849   4.421   4.132 -0.8344  0.3051  2.4461
 5197SOL     OW27049   1.300   1.707   3.452  0.0504  0.6669  0.3265
 5197SOL    HW127050   1.342   1.632   3.495  0.4173 -0.1040 -1.3884
 5197SOL    HW227051   1.212   1.675   3.433 -0.9012  2.6925  1.4601
 5198SOL     OW27052   4.183   3.648   2.129 -0.0622 -0.0590  0.5372
 5198SOL    HW127053   4.189   3.738   2.162  0.4713  0.1434 -0.1371
 5198SOL    HW227054   4.256   3.611   2.179 -2.1843 -0.2761  3.5554
 5199SOL     OW27055   0.267   3.204   5.294  0.2205 -0.2878  0.4211
 5199SOL    HW127056   0.266   3.242   5.206 -0.2400  1.6511  1.2674
 5199SOL    HW227057   0.355   3.227   5.326  0.3477 -0.4313  0.1746
 5200SOL     OW27058   1.026   1.103  12.478  0.3518  0.3836 -0.2144
 5200SOL    HW127059   0.987   1.016  12.469  0.7564  0.4278 -2.3791
 5200SOL    HW227060   1.115   1.074  12.498 -0.5694 -2.1707  0.2236
 5201SOL     OW27061   1.937   3.465   7.236  0.2858 -0.4364  0.0407
 5201SOL    HW127062   1.869   3.481   7.302 -0.6961  1.2370 -1.4028
 5201SOL    HW227063   1.972   3.382   7.267  0.8778 -0.3121 -0.3042
 5202SOL     OW27064   0.614   0.911  12.035  0.8421 -0.8106  0.1693
 5202SOL    HW127065   0.526   0.893  12.068 -0.0580 -0.0741 -1.7829
 5202SOL    HW227066   0.660   0.834  12.069 -1.0478 -1.1123  1.9931
 5203SOL     OW27067   1.194   2.554   9.627  0.0370 -0.6661 -0.2585
 5203SOL    HW127068   1.165   2.534   9.715 -0.7664 -2.6832 -0.9974
 5203SOL    HW227069   1.168   2.646   9.622  1.4133 -0.1728  1.6205
 5204SOL     OW27070   3.513   4.152  15.129 -0.2667 -0.3420 -0.1082
 5204SOL    HW127071   3.489   4.245  15.136 -2.1666 -0.9248  1.1973
 5204SOL    HW227072   3.428   4.117  15.153 -0.4581 -0.2940 -0.7177
 5205SOL     OW27073   4.710   3.568   9.469 -0.1917  0.2732 -0.3329
 5205SOL    HW127074   4.628   3.606   9.438 -0.4384  1.3027  1.5717
 5205SOL    HW227075   0.040   3.582   9.390 -0.5359 -0.3345 -0.6678
 5206SOL     OW27076   3.319   3.486   8.192 -0.2219 -0.0890 -0.2474
 5206SOL    HW127077   3.301   3.471   8.284  1.5081 -0.9548 -0.0481
 5206SOL    HW227078   3.408   3.521   8.189 -0.6968  1.2550  1.1707
 5207SOL     OW27079   3.192   0.897   6.375 -0.2949  1.0914 -0.0345
 5207SOL    HW127080   3.195   0.968   6.310 -0.7335  0.3957 -0.8093
 5207SOL    HW227081   3.103   0.868   6.358 -0.1426  1.2199 -1.0325
 5208SOL     OW27082   2.681   1.763   1.224  0.1695  0.0826 -0.3433
 5208SOL    HW127083   2.632   1.793   1.300  2.0829 -0.5998  1.1615
 5208SOL    HW227084   2.639   1.815   1.156 -0.6212 -0.8684 -0.5792
 5209SOL     OW27085   0.565   0.025   4.104 -0.4328  0.3941 -0.3455
 5209SOL    HW127086   0.602   0.109   4.133  2.8965 -0.9598 -0.7425
 5209SOL    HW227087   0.542   4.714   4.190 -0.3599 -3.4475 -1.8488
 5210SOL     OW27088   4.400   4.667   7.962  0.2977 -0.0737  0.1120
 5210SOL    HW127089   4.415   4.641   8.053  2.0646  0.8935  0.0962
 5210SOL    HW227090   4.413   0.038   7.958  1.4465 -0.3234 -1.9267
 5211SOL     OW27091   4.435   2.148  10.493  0.4067  0.2440 -0.1421
 5211SOL    HW127092   4.355   2.170  10.542  0.7682 -3.1425  1.9375
 5211SOL    HW227093   4.503   2.183  10.550  0.0240  0.5474  0.1286
 5212SOL     OW27094   2.392   3.063   7.446 -0.1162  0.5254 -0.2921
 5212SOL    HW127095   2.326   3.098   7.505 -0.0385  0.0849  0.0598
 5212SOL    HW227096   2.443   3.141   7.428  0.3377  0.4315  0.5731
 5213SOL     OW27097   4.637   0.987   0.184  0.2614 -0.1871 -0.2186
 5213SOL    HW127098   0.002   0.964   0.215 -0.6658 -0.9997  1.8581
 5213SOL    HW227099   4.585   0.980   0.265  0.5858 -1.3485 -0.1104
 5214SOL     OW27100   4.336   3.184   4.706  0.7239 -0.1446 -0.1151
 5214SOL    HW127101   4.251   3.206   4.667 -0.6019  0.8636  3.3518
 5214SOL    HW227102   4.309   3.194   4.797  0.1820  1.6932 -0.4652
 5215SOL     OW27103   0.966   3.073   1.555 -0.2377 -0.4414 -0.1495
 5215SOL    HW127104   0.927   3.083   1.642  0.8617 -2.0632  0.5265
 5215SOL    HW227105   0.954   2.980   1.537 -0.6467 -0.8878  2.3310
 5216SOL     OW27106   2.542   4.338  12.183 -0.2748 -0.3211  0.4695
 5216SOL    HW127107   2.469   4.399  12.186 -1.3702 -1.6792  1.0457
 5216SOL    HW227108   2.509   4.249  12.185 -0.1191 -0.3515  1.6928
 5217SOL     OW27109   1.165   0.834  17.657  0.2734 -0.2575 -0.1833
 5217SOL    HW127110   1.193   0.917   0.001 -0.0573 -0.1477 -0.1839
 5217SOL    HW227111   1.070   0.844  17.666  0.5113  0.1202  1.8097
 5218SOL     OW27112   0.712   1.098   9.612  0.5297 -0.6626 -0.1886
 5218SOL    HW127113   0.725   1.059   9.698 -0.5799 -2.2148 -0.7107
 5218SOL    HW227114   0.617   1.114   9.612  0.2500 -2.3132 -0.1141
 5219SOL     OW27115   3.533   1.997   5.868  0.1370 -0.1159  0.0020
 5219SOL    HW127116   3.604   2.034   5.920  0.0653 -1.0731  0.7953
 5219SOL    HW227117   3.480   1.953   5.935  0.5639 -0.5661  0.0482
 5220SOL     OW27118   3.320   2.289   3.821 -0.2635  0.2217 -0.3586
 5220SOL    HW127119   3.386   2.326   3.763 -0.4986  0.4206 -0.5006
 5220SOL    HW227120   3.342   2.338   3.901 -1.4485  0.7180 -0.3289
 5221SOL     OW27121   2.344   3.057   6.961  0.1672 -0.0656  0.2899
 5221SOL    HW127122   2.364   2.989   6.896  0.9005  0.7035 -0.2867
 5221SOL    HW227123   2.434   3.076   6.985  0.9302 -2.1465 -0.8827
 5222SOL     OW27124   1.397   0.290   7.032 -0.3399  0.1186 -0.1913
 5222SOL    HW127125   1.340   0.231   6.983 -1.7178  2.1852 -1.0711
 5222SOL    HW227126   1.461   0.305   6.963  1.6278  2.2562  2.1081
 5223SOL     OW27127   1.666   0.075   7.654 -0.0498 -0.2252 -0.3701
 5223SOL    HW127128   1.616   0.060   7.574 -2.1985  0.0149  0.9149
 5223SOL    HW227129   1.586   0.093   7.705 -0.8861 -2.0364 -1.0442
 5224SOL     OW27130   1.953   3.368   6.672 -0.2104  0.0327  0.0729
 5224SOL    HW127131   1.913   3.396   6.755 -2.9165 -1.9363 -0.5643
 5224SOL    HW227132   1.990   3.284   6.698  0.9094  1.0541  1.7151
 5225SOL     OW27133   1.494   0.960   4.443  0.3277  0.1606  0.6037
 5225SOL    HW127134   1.505   1.047   4.481  2.3431 -0.4194  1.3775
 5225SOL    HW227135   1.424   0.922   4.496 -1.0808  1.7783 -0.1054
 5226SOL     OW27136   1.496   2.857   2.948 -0.0916  0.0250  0.1672
 5226SOL    HW127137   1.456   2.829   2.865  0.9466  0.5390 -0.5122
 5226SOL    HW227138   1.428   2.924   2.961  1.0414  0.8799  1.6455
 5227SOL     OW27139   1.741   4.062   3.256 -0.4851 -0.0428 -0.4180
 5227SOL    HW127140   1.809   4.119   3.292  0.0715  0.1619 -1.7889
 5227SOL    HW227141   1.765   3.981   3.301 -1.1267 -0.1876 -0.3393
 5228SOL     OW27142   1.833   2.793   0.204 -0.4783 -0.3909  0.3312
 5228SOL    HW127143   1.766   2.824   0.143 -2.0268 -2.6197  0.9183
 5228SOL    HW227144   1.870   2.719   0.156 -0.0875 -1.6053  2.4819
 5229SOL     OW27145   2.131   1.641  12.636  0.2094  0.1046  0.5399
 5229SOL    HW127146   2.211   1.591  12.622  0.6645  1.4139 -1.4161
 5229SOL    HW227147   2.167   1.728  12.618  0.3613 -0.4089 -1.6294
 5230SOL     OW27148   1.131   2.816  16.912 -0.7095  0.3822  0.1230
 5230SOL    HW127149   1.071   2.811  16.987 -0.3886 -0.9961  0.2982
 5230SOL    HW227150   1.105   2.900  16.874  0.6438 -0.1124 -1.8551
 5231SOL     OW27151   1.313   0.746  15.365 -0.3019  0.2095 -0.1348
 5231SOL    HW127152   1.305   0.693  15.445  1.1268  1.4836  0.8541
 5231SOL    HW227153   1.270   0.693  15.298 -0.4609 -2.1420  1.8232
 5232SOL     OW27154   4.615   2.614   5.575 -0.4011 -0.1011  0.5036
 5232SOL    HW127155   4.666   2.569   5.508  0.0122  0.7431  0.2636
 5232SOL    HW227156   4.527   2.611   5.539  0.5894  1.6771 -2.0602
 5233SOL     OW27157   3.302   1.866   1.748  0.3122  0.7700 -0.3997
 5233SOL    HW127158   3.348   1.813   1.683  1.0063  0.3628  0.4227
 5233SOL    HW227159   3.268   1.812   1.820  0.9112 -1.1225 -1.5321
 5234SOL     OW27160   3.279   3.855   7.400 -0.7321  0.4127  0.0837
 5234SOL    HW127161   3.291   3.760   7.399  1.8050  0.7547 -1.1762
 5234SOL    HW227162   3.319   3.875   7.485  0.3261  2.6012 -0.9457
 5235SOL     OW27163   1.447   1.480   9.351 -0.1204 -0.4266  0.2568
 5235SOL    HW127164   1.491   1.438   9.278  1.2651 -0.1359  0.9375
 5235SOL    HW227165   1.429   1.409   9.413  2.2838  0.1263  1.5870
 5236SOL     OW27166   4.522   3.618   0.534 -0.2827 -0.1873  0.0435
 5236SOL    HW127167   4.517   3.621   0.630 -4.6677  0.0232 -0.1793
 5236SOL    HW227168   4.491   3.699   0.493  1.4827  0.1350 -0.6648
 5237SOL     OW27169   0.417   3.113  12.496  0.2809  0.2689 -0.0591
 5237SOL    HW127170   0.406   3.051  12.424 -0.1039 -0.0475  0.2669
 5237SOL    HW227171   0.332   3.102  12.540 -0.7176  1.6444 -1.6451
 5238SOL     OW27172   2.896   2.393  11.983  0.2712  0.5587 -0.4954
 5238SOL    HW127173   2.904   2.481  11.947  0.7815  0.8072  0.2356
 5238SOL    HW227174   2.952   2.396  12.061 -2.5260 -0.5806  1.5728
 5239SOL     OW27175   2.640   1.809  12.927  0.0625  0.1359 -0.3008
 5239SOL    HW127176   2.550   1.783  12.948 -0.4686  1.1909 -1.2092
 5239SOL    HW227177   2.659   1.734  12.871 -0.9199  0.3549 -0.9304
 5240SOL     OW27178   1.455   2.896  14.792  0.2934 -0.1020  0.7261
 5240SOL    HW127179   1.502   2.890  14.875 -2.1298 -0.1878  2.0816
 5240SOL    HW227180   1.482   2.984  14.765 -2.9869  0.5419 -0.5233
 5241SOL     OW27181   0.021   3.224   4.125 -0.5129 -0.0653 -0.6109
 5241SOL    HW127182   0.026   3.269   4.209  1.3494  0.1362 -0.8336
 5241SOL    HW227183   0.037   3.133   4.150 -1.3184  0.5745  2.2994
 5242SOL     OW27184   1.298   2.580  10.303  0.0110 -0.3376 -0.0622
 5242SOL    HW127185   1.207   2.597  10.324  0.2759 -2.1725  2.4909
 5242SOL    HW227186   1.307   2.617  10.215 -0.5144 -1.9110 -0.7729
 5243SOL     OW27187   2.718   1.730   6.172  0.9871  0.3745 -0.0244
 5243SOL    HW127188   2.642   1.671   6.169 -0.8639  2.6602  1.0567
 5243SOL    HW227189   2.781   1.683   6.118  1.5287 -0.8213  1.6186
 5244SOL     OW27190   1.788   4.703  17.465 -0.0812  0.3654  0.4322
 5244SOL    HW127191   1.821   0.020  17.385  0.0261 -0.1857  0.2049
 5244SOL    HW227192   1.819   4.615  17.444  4.6014  1.5593  2.2744
 5245SOL     OW27193   0.201   1.347   2.433 -0.3761  0.7131 -0.3821
 5245SOL    HW127194   0.163   1.288   2.497  2.2192 -0.4409  0.0970
 5245SOL    HW227195   0.242   1.417   2.484  1.5650 -1.0746  0.5027
 5246SOL     OW27196   2.287   0.393   9.754  0.1158  0.2012 -0.2175
 5246SOL    HW127197   2.264   0.387   9.661  1.3124 -1.6772 -0.4006
 5246SOL    HW227198   2.234   0.320   9.786 -0.2255  1.0655  1.1695
 5247SOL     OW27199   1.380   2.835  12.550  0.6042  0.4716 -0.6836
 5247SOL    HW127200   1.330   2.897  12.497 -0.9864  0.0914  0.3963
 5247SOL    HW227201   1.348   2.859  12.637 -0.1272 -0.2103 -0.7651
 5248SOL     OW27202   3.015   4.470   9.235  0.6725  0.4437 -0.6445
 5248SOL    HW127203   3.102   4.506   9.255  1.0838 -0.8351 -0.0888
 5248SOL    HW227204   2.963   4.550   9.239  2.2949  1.4104  1.0123
 5249SOL     OW27205   3.179   1.135   3.545  0.3414 -0.2784  0.1142
 5249SOL    HW127206   3.270   1.110   3.555  0.6712  1.6373  1.9158
 5249SOL    HW227207   3.161   1.073   3.474  0.9262  0.2272 -0.4679
 5250SOL     OW27208   4.513   1.255   0.238  0.1874  0.2138  0.6696
 5250SOL    HW127209   4.542   1.197   0.167 -2.0346 -0.7755  0.5790
 5250SOL    HW227210   4.577   1.325   0.232  1.2179 -0.8597 -1.1486
 5251SOL     OW27211   0.222   2.135  15.089  0.2845 -0.1696  0.6878
 5251SOL    HW127212   0.217   2.116  14.996  1.5120  1.4834  0.2783
 5251SOL    HW227213   0.142   2.092  15.120 -1.3342  1.8061 -0.7246
 5252SOL     OW27214   1.609   0.352   8.216  0.0401  0.1898 -0.0884
 5252SOL    HW127215   1.555   0.389   8.146 -1.1993 -0.1142  0.7133
 5252SOL    HW227216   1.687   0.408   8.222  0.7626 -0.7861 -0.5510
 5253SOL     OW27217   2.747   0.606   8.322 -0.0484  0.4836 -0.1558
 5253SOL    HW127218   2.719   0.621   8.412 -3.4388  0.8251 -1.2339
 5253SOL    HW227219   2.785   0.520   8.342  1.1561  1.2021  0.6198
 5254SOL     OW27220   0.681   3.590   4.249  0.1756  0.5558  0.4033
 5254SOL    HW127221   0.754   3.649   4.267 -0.3115  1.3069 -0.0503
 5254SOL    HW227222   0.630   3.650   4.195 -0.1923  0.3442  0.5167
 5255SOL     OW27223   0.597   4.213   6.910 -0.0832  0.0363 -0.0720
 5255SOL    HW127224   0.548   4.239   6.832  0.0461  1.1250  0.2063
 5255SOL    HW227225   0.637   4.295   6.938  2.6754 -1.2100 -0.3288
 5256SOL     OW27226   3.459   0.230  15.905 -0.1128 -0.1841 -0.1013
 5256SOL    HW127227   3.379   0.204  15.859  0.5136 -0.8814 -0.7937
 5256SOL    HW227228   3.467   0.161  15.971 -0.3229 -0.0823  0.0306
 5257SOL     OW27229   0.987   3.745   4.033  0.3513 -0.1874  0.4803
 5257SOL    HW127230   0.942   3.733   4.117  0.0542  1.6565  0.5875
 5257SOL    HW227231   1.003   3.653   4.015 -0.9531 -0.8243  2.6558
 5258SOL     OW27232   4.628   2.575   2.165 -0.0188 -0.1666  0.0475
 5258SOL    HW127233   4.632   2.497   2.110 -0.5826 -1.0919  1.3333
 5258SOL    HW227234   4.568   2.547   2.234  2.0419  0.3316  2.0138
 5259SOL     OW27235   2.010   1.376  13.987 -0.1365  0.1083  0.1524
 5259SOL    HW127236   2.056   1.457  14.009 -0.0034  0.2391 -0.6328
 5259SOL    HW227237   2.062   1.345  13.913  0.6934 -0.5777  1.0120
 5260SOL     OW27238   0.493   3.365   5.660 -0.0130  0.4745 -0.2411
 5260SOL    HW127239   0.466   3.274   5.671  0.6110  0.4012  0.6738
 5260SOL    HW227240   0.559   3.350   5.593 -1.0590  0.6581 -1.3094
 5261SOL     OW27241   4.598   3.588   5.949  0.0390 -0.2937  0.1587
 5261SOL    HW127242   4.641   3.515   5.992 -0.5109  0.8175  2.5771
 5261SOL    HW227243   4.669   3.650   5.965  0.5369 -1.6050  2.9142
 5262SOL     OW27244   2.061   3.278   5.623 -0.6023  0.0965  0.2934
 5262SOL    HW127245   2.095   3.203   5.575  3.0776  2.1406 -0.2445
 5262SOL    HW227246   2.147   3.306   5.654 -0.2751 -1.7213  0.9768
 5263SOL     OW27247   1.296   1.184   3.660  0.2767 -0.3854 -0.0668
 5263SOL    HW127248   1.303   1.176   3.565 -0.1654  2.3874 -0.3329
 5263SOL    HW227249   1.273   1.091   3.671  0.6485 -0.6598 -1.6673
 5264SOL     OW27250   0.695   2.514   7.574  0.1104  0.2882  0.2214
 5264SOL    HW127251   0.681   2.527   7.668  1.1789 -0.2948  0.4701
 5264SOL    HW227252   0.705   2.604   7.543 -0.0995  1.0628  2.3890
 5265SOL     OW27253   2.484   3.172   5.436 -0.7523  0.3632 -0.3715
 5265SOL    HW127254   2.445   3.122   5.364  0.0099 -1.7848  0.7022
 5265SOL    HW227255   2.562   3.123   5.461 -0.6662 -0.5612 -2.4310
 5266SOL     OW27256   4.408   0.071   2.235  0.0596  0.1633  0.5334
 5266SOL    HW127257   4.326   0.104   2.271  0.2649  2.3840 -1.0419
 5266SOL    HW227258   4.381   4.702   2.235  0.6406 -0.0131  1.7351
 5267SOL     OW27259   0.389   3.001  11.419  0.0978  0.2294  0.4415
 5267SOL    HW127260   0.408   3.093  11.402 -2.6255  0.3147 -2.0282
 5267SOL    HW227261   0.406   2.956  11.336 -0.6843 -1.7781  1.3772
 5268SOL     OW27262   0.484   3.853  16.436  0.2279  0.0552  0.0011
 5268SOL    HW127263   0.490   3.762  16.407 -0.6980  0.0454 -0.1583
 5268SOL    HW227264   0.396   3.872  16.405 -0.8218 -1.5056  2.0282
 5269SOL     OW27265   2.592   3.638   9.756 -0.0902  0.2461  0.8177
 5269SOL    HW127266   2.668   3.694   9.766  1.0387 -1.1291 -0.0496
 5269SOL    HW227267   2.644   3.563   9.728 -1.8579 -1.1295  1.1860
 5270SOL     OW27268   1.247   1.198   8.285  0.0222 -0.1853  0.1112
 5270SOL    HW127269   1.191   1.263   8.246 -2.2223 -1.9899  0.3282
 5270SOL    HW227270   1.237   1.134   8.214 -0.5978  2.3504 -2.0612
 5271SOL     OW27271   2.736   1.301  13.510  0.5429 -0.5285  0.3508
 5271SOL    HW127272   2.743   1.383  13.460 -0.8740  0.7441  2.2359
 5271SOL    HW227273   2.809   1.303  13.573  1.2922  0.6018 -0.5457
 5272SOL     OW27274   4.158   0.498  16.542 -0.4467 -0.2315  0.2207
 5272SOL    HW127275   4.110   0.510  16.623  0.2252  0.8521  0.4537
 5272SOL    HW227276   4.146   0.584  16.504  1.4359  1.1664  2.8097
 5273SOL     OW27277   0.583   1.854   4.897  0.2010 -0.3205 -0.0042
 5273SOL    HW127278   0.583   1.921   4.829  1.7961 -0.8931 -0.5586
 5273SOL    HW227279   0.582   1.769   4.854 -1.1330 -0.0416 -0.5117
 5274SOL     OW27280   3.262   3.959  13.337  0.6389 -0.4876  0.0562
 5274SOL    HW127281   3.229   4.017  13.268  2.4402  1.4193  0.7828
 5274SOL    HW227282   3.284   3.877  13.292 -1.5481 -2.0293  1.8086
 5275SOL     OW27283   1.598   1.147  10.322  0.2241  0.6553 -0.5650
 5275SOL    HW127284   1.693   1.155  10.331  0.0822  1.5056  0.1494
 5275SOL    HW227285   1.583   1.158  10.228 -3.2345  1.1038  0.0410
 5276SOL     OW27286   2.829   0.441   5.250 -0.4791  0.5156  1.1374
 5276SOL    HW127287   2.820   0.536   5.255 -0.5545  0.5718 -0.0266
 5276SOL    HW227288   2.787   0.410   5.330  0.0656  0.2676  1.3222
 5277SOL     OW27289   0.141   1.511   3.430 -0.4346 -0.1417 -0.1244
 5277SOL    HW127290   0.056   1.545   3.400 -0.5589 -0.3285  0.0174
 5277SOL    HW227291   0.151   1.437   3.370  0.0852  0.8793 -1.2881
 5278SOL     OW27292   1.152   1.456   2.958  0.4488 -0.1131  0.2788
 5278SOL    HW127293   1.211   1.523   2.925  1.2116  0.7800  3.3817
 5278SOL    HW227294   1.103   1.432   2.880 -0.1417  0.5882  0.4337
 5279SOL     OW27295   3.657   4.017   4.687  0.1091 -0.3112  0.0044
 5279SOL    HW127296   3.703   3.942   4.648 -0.1749  0.3328 -1.5798
 5279SOL    HW227297   3.570   4.017   4.646  0.0243  0.3367  0.1853
 5280SOL     OW27298   4.243   2.744   5.942  0.3336  0.3817 -0.0494
 5280SOL    HW127299   4.205   2.673   5.891  1.1595 -0.1110  0.0230
 5280SOL    HW227300   4.233   2.814   5.878 -1.7065  1.5514  1.5428
 5281SOL     OW27301   3.303   2.068   2.953 -0.3874  0.8197 -0.3487
 5281SOL    HW127302   3.251   2.026   2.884  0.6326 -0.2353 -0.4586
 5281SOL    HW227303   3.239   2.127   2.994  0.1084  0.5232  0.8618
 5282SOL     OW27304   1.616   0.763   3.256  0.4939  0.6569  0.1065
 5282SOL    HW127305   1.571   0.732   3.335 -2.9943  2.1710 -1.2472
 5282SOL    HW227306   1.641   0.675   3.226  1.1273  1.8073 -2.6988
 5283SOL     OW27307   3.292   3.899   9.430 -0.1317  0.4875 -0.1341
 5283SOL    HW127308   3.226   3.895   9.500  0.5551 -1.3311  0.4122
 5283SOL    HW227309   3.322   3.988   9.415  0.5487  0.2951  0.0561
 5284SOL     OW27310   3.340   1.315   4.992  0.3777 -0.4646  0.7462
 5284SOL    HW127311   3.310   1.313   5.083 -1.9792 -3.4528 -0.0889
 5284SOL    HW227312   3.427   1.346   5.017  1.1675 -2.9435  1.1152
 5285SOL     OW27313   2.057   0.367   7.034 -0.2702  0.0071 -0.0874
 5285SOL    HW127314   2.020   0.396   6.950 -0.8585 -1.2992 -0.2722
 5285SOL    HW227315   2.057   0.272   7.026  0.2644  0.1526 -1.8005
 5286SOL     OW27316   0.201   1.337   5.160  0.0374 -0.1517 -0.1001
 5286SOL    HW127317   0.241   1.422   5.176 -0.7124  0.3461 -0.9319
 5286SOL    HW227318   0.215   1.284   5.240 -0.6610 -0.1450  0.0265
 5287SOL     OW27319   2.593   2.779   1.892  0.7130  0.2658  0.9472
 5287SOL    HW127320   2.654   2.743   1.828 -1.6464 -2.4171  0.2250
 5287SOL    HW227321   2.532   2.709   1.914  0.2757 -0.0028 -1.0493
 5288SOL     OW27322   2.977   1.800   4.622  0.2596  0.1902 -0.3327
 5288SOL    HW127323   2.928   1.728   4.662  2.2371 -0.1613  1.4281
 5288SOL    HW227324   3.051   1.802   4.683  0.3238  3.0516 -0.4682
 5289SOL     OW27325   1.368   1.681   9.533  0.4451  0.7454  0.2086
 5289SOL    HW127326   1.426   1.685   9.609  2.9546  0.2170 -1.6748
 5289SOL    HW227327   1.402   1.601   9.494  1.4356  0.6964  1.1731
 5290SOL     OW27328   3.852   0.347   8.210  0.5980 -0.3408 -0.5004
 5290SOL    HW127329   3.870   0.385   8.296 -2.0645 -0.1105 -0.0593
 5290SOL    HW227330   3.928   0.374   8.158  0.3622  2.0380  0.4225
 5291SOL     OW27331   2.966   1.882   0.529 -0.0047  0.4018 -0.8781
 5291SOL    HW127332   2.954   1.872   0.434 -0.5945  0.2335 -0.7886
 5291SOL    HW227333   2.915   1.809   0.565 -1.9542  1.0576 -2.3374
 5292SOL     OW27334   3.132   0.115  14.829  0.0532  0.2378  0.2976
 5292SOL    HW127335   3.068   0.150  14.891 -2.6897 -0.8973 -1.9308
 5292SOL    HW227336   3.171   0.202  14.818 -1.0544  0.3660 -2.5126
 5293SOL     OW27337   3.575   3.409   2.725 -0.2979  0.0867 -0.2651
 5293SOL    HW127338   3.489   3.380   2.693 -1.0710 -0.0110  1.8930
 5293SOL    HW227339   3.561   3.421   2.819  1.0875 -1.2978  0.1256
 5294SOL     OW27340   2.992   2.727   4.535  0.3502  0.1925  0.0366
 5294SOL    HW127341   2.899   2.728   4.510  0.4958 -1.2327 -0.5738
 5294SOL    HW227342   3.015   2.820   4.537  1.6162 -0.1791  2.0120
 5295SOL     OW27343   3.490   0.976   9.874  0.2037 -0.1140 -0.3309
 5295SOL    HW127344   3.511   0.973   9.967 -1.7039 -0.6446  0.0826
 5295SOL    HW227345   3.567   0.993   9.820  0.1631  1.4914  0.1134
 5296SOL     OW27346   1.955   4.683   1.641  0.2372  0.4291  0.2119
 5296SOL    HW127347   1.976   4.618   1.707  1.3338  1.1995  0.6200
 5296SOL    HW227348   1.949   4.625   1.565 -2.2995 -0.2070  0.8895
 5297SOL     OW27349   1.284   4.293  12.768  0.8394 -0.0958  0.5504
 5297SOL    HW127350   1.304   4.268  12.859 -0.7272  1.1831  1.2649
 5297SOL    HW227351   1.304   4.216  12.716  0.2580 -0.1634  0.4302
 5298SOL     OW27352   1.191   4.471  14.222 -0.7108 -0.1054 -0.2731
 5298SOL    HW127353   1.287   4.474  14.218 -0.5913 -0.7267  2.1353
 5298SOL    HW227354   1.176   4.377  14.221  0.9774 -0.3612 -2.3397
 5299SOL     OW27355   1.195   0.081   5.095  0.1745  0.3129 -0.4116
 5299SOL    HW127356   1.239   0.143   5.154  0.2355  2.4655 -2.7096
 5299SOL    HW227357   1.209   0.002   5.148 -0.1433  1.0116  0.7209
 5300SOL     OW27358   2.706   2.837   6.975  0.3222  0.4830 -0.1575
 5300SOL    HW127359   2.698   2.933   6.979 -3.5168  0.1822 -0.5157
 5300SOL    HW227360   2.641   2.812   6.909  0.6536  2.1666 -1.1257
 5301SOL     OW27361   4.028   1.826   1.416  0.3144  0.1814 -0.1365
 5301SOL    HW127362   4.015   1.912   1.455 -0.7351  0.9703 -2.2139
 5301SOL    HW227363   4.034   1.838   1.321  1.2220 -0.8873 -0.2159
 5302SOL     OW27364   2.626   3.236   4.883  0.9414 -0.1423  0.4396
 5302SOL    HW127365   2.640   3.297   4.955  1.1268 -0.2287  0.4777
 5302SOL    HW227366   2.555   3.283   4.839  0.4270 -2.5736 -1.3461
 5303SOL     OW27367   0.559   1.786   7.674  0.0402  0.3119  0.2395
 5303SOL    HW127368   0.625   1.815   7.611  1.4951 -1.0886  1.1342
 5303SOL    HW227369   0.550   1.855   7.740  2.1164 -0.0472  0.8976
 5304SOL     OW27370   0.669   2.582  15.720 -0.2314  0.3994  0.1761
 5304SOL    HW127371   0.685   2.608  15.629  2.6661 -4.4443 -0.6778
 5304SOL    HW227372   0.640   2.668  15.751 -1.6761 -0.6155  1.6183
 5305SOL     OW27373   0.719   1.829  14.225  0.0462  0.3926 -0.2720
 5305SOL    HW127374   0.700   1.911  14.271 -3.6019  0.2324 -1.5004
 5305SOL    HW227375   0.720   1.764  14.296 -1.5727  0.2745 -0.3525
 5306SOL     OW27376   0.014   1.107   5.473  0.3329 -0.5808 -0.8186
 5306SOL    HW127377   0.077   1.071   5.536 -0.0350  0.4161  0.1158
 5306SOL    HW227378   4.677   1.033   5.466 -1.0070  0.3558  0.8197
 5307SOL     OW27379   4.435   3.825   8.391 -0.0563 -0.0817  0.0319
 5307SOL    HW127380   4.361   3.801   8.445 -0.1104  0.1550  0.0626
 5307SOL    HW227381   4.419   3.919   8.379  1.6600  0.0379 -1.5124
 5308SOL     OW27382   4.336   3.977   2.665 -0.5714  0.1069 -0.2578
 5308SOL    HW127383   4.359   3.892   2.627 -1.6557 -0.7229  0.9445
 5308SOL    HW227384   4.335   4.022   2.580 -2.0374 -1.6287 -1.1665
 5309SOL     OW27385   2.925   1.546   4.758  0.4704  0.2329  0.1537
 5309SOL    HW127386   3.017   1.525   4.743 -0.1059 -2.3225  0.2314
 5309SOL    HW227387   2.894   1.477   4.816 -1.0663 -0.4124 -1.4564
 5310SOL     OW27388   1.843   1.868   5.917  0.2525  0.0048 -0.0645
 5310SOL    HW127389   1.801   1.785   5.938  0.0619 -0.1951 -1.2586
 5310SOL    HW227390   1.818   1.885   5.827  0.8602 -1.2808 -0.4716
 5311SOL     OW27391   2.433   4.714   5.189  0.0311 -0.2368 -0.3883
 5311SOL    HW127392   2.411   4.654   5.118  0.5400  1.2774 -1.8249
 5311SOL    HW227393   2.498   4.680   5.250 -0.1045 -0.1710 -0.2063
 5312SOL     OW27394   2.422   0.222   5.858  0.0941 -0.2130 -0.0305
 5312SOL    HW127395   2.403   0.257   5.945  1.3239 -0.4560  0.3395
 5312SOL    HW227396   2.395   0.131   5.863 -3.4029  0.6956 -1.8939
 5313SOL     OW27397   1.542   3.218  13.606 -0.0942 -0.0930  0.3471
 5313SOL    HW127398   1.582   3.164  13.539 -0.7595  1.8048 -1.5778
 5313SOL    HW227399   1.469   3.253  13.556  2.2840  2.3983 -1.4154
 5314SOL     OW27400   1.109   4.236   7.301  0.4613  0.2024  0.8270
 5314SOL    HW127401   1.089   4.328   7.321 -0.9350  0.1698 -0.4161
 5314SOL    HW227402   1.134   4.246   7.209  0.1142  2.2367  0.9513
 5315SOL     OW27403   1.948   0.076   5.955  1.3159  0.1143 -0.0598
 5315SOL    HW127404   1.862   0.094   5.992  0.7586 -0.1498 -1.2584
 5315SOL    HW227405   1.971   0.164   5.924  1.0015  0.0545 -0.4624
 5316SOL     OW27406   0.273   3.172   8.415  0.3079 -1.2282  0.1490
 5316SOL    HW127407   0.324   3.193   8.337 -2.2358  0.0787 -1.1524
 5316SOL    HW227408   0.189   3.150   8.373 -1.4819 -1.0862  3.6920
 5317SOL     OW27409   3.368   4.149   6.350 -0.1657 -0.1162 -0.2227
 5317SOL    HW127410   3.422   4.084   6.394 -2.2300 -1.8553 -0.2651
 5317SOL    HW227411   3.340   4.105   6.270  1.4768 -3.6647  1.1601
 5318SOL     OW27412   3.825   4.399   7.723 -0.3385 -0.3493 -0.2040
 5318SOL    HW127413   3.775   4.339   7.668 -1.3254 -1.4961  1.9358
 5318SOL    HW227414   3.913   4.384   7.691 -0.9280 -0.2174 -1.8692
 5319SOL     OW27415   1.115   0.472   6.645  0.0530  0.2151 -0.5977
 5319SOL    HW127416   1.155   0.386   6.657  1.3552  0.5609 -2.5300
 5319SOL    HW227417   1.034   0.458   6.694  0.6923 -1.5675 -0.0643
 5320SOL     OW27418   4.657   0.878   9.205 -0.1231 -0.5296 -0.0698
 5320SOL    HW127419   4.600   0.938   9.252 -0.3038  0.3923 -1.4612
 5320SOL    HW227420   4.707   0.845   9.279 -2.5061 -1.2671  1.2078
 5321SOL     OW27421   4.017   0.453  13.450  0.1350 -0.6965  0.0170
 5321SOL    HW127422   3.948   0.398  13.487  0.5703 -1.6731 -0.6173
 5321SOL    HW227423   4.094   0.407  13.482 -0.6298 -3.0986 -1.6174
 5322SOL     OW27424   3.999   2.093   3.139  0.2267  0.1901 -0.3561
 5322SOL    HW127425   4.069   2.074   3.076 -0.9842 -1.7744 -1.0950
 5322SOL    HW227426   3.933   2.140   3.088  0.4739 -1.8669 -2.5666
 5323SOL     OW27427   2.515   4.403  15.257 -0.2253 -0.0071 -0.0029
 5323SOL    HW127428   2.563   4.412  15.175  1.0139 -1.7897  0.5399
 5323SOL    HW227429   2.431   4.372  15.222 -0.1395  1.0664 -1.1518
 5324SOL     OW27430   4.393   4.011   7.424  0.3996 -0.1046  0.1927
 5324SOL    HW127431   4.478   4.053   7.438 -1.3233  2.9600  1.3582
 5324SOL    HW227432   4.421   3.939   7.368 -0.9228 -0.5890  0.1494
 5325SOL     OW27433   0.104   4.627   5.394  0.3749  0.1408 -0.2699
 5325SOL    HW127434   0.078   4.717   5.373  0.4464  0.6465  1.8367
 5325SOL    HW227435   0.058   4.585   5.322  1.2321  0.5069 -1.0395
 5326SOL     OW27436   1.483   3.612   1.081 -0.3030 -0.1037 -0.1045
 5326SOL    HW127437   1.496   3.706   1.095  0.2753 -0.0383 -1.1440
 5326SOL    HW227438   1.571   3.576   1.082  0.4488  1.8143  2.9113
 5327SOL     OW27439   1.988   0.127  11.443  0.1452  0.0823 -0.5223
 5327SOL    HW127440   1.897   0.151  11.426 -0.2231  0.0159  1.3893
 5327SOL    HW227441   2.027   0.212  11.425  0.6019  0.2924  1.4747
 5328SOL     OW27442   4.678   2.265   2.753 -0.0132  0.1067  0.0071
 5328SOL    HW127443   4.644   2.197   2.695 -1.3781  1.2548 -0.5356
 5328SOL    HW227444   4.720   2.337   2.705  1.9903  0.6974  2.6454
 5329SOL     OW27445   4.713   3.303   9.571  0.5184 -0.1419  0.2630
 5329SOL    HW127446   0.004   3.397   9.561  0.3334 -0.1557 -0.1276
 5329SOL    HW227447   0.007   3.296   9.664 -2.9985  1.7956  1.0579
 5330SOL     OW27448   0.505   2.468  11.570  0.0358  0.1130 -0.5046
 5330SOL    HW127449   0.461   2.492  11.489  0.0758  0.9042 -0.2847
 5330SOL    HW227450   0.437   2.493  11.633  0.4816 -0.5530  0.2476
 5331SOL     OW27451   4.281   0.100  13.255  0.2036  0.7695  0.4739
 5331SOL    HW127452   4.206   0.159  13.254  0.9721  1.7174 -1.6591
 5331SOL    HW227453   4.282   0.076  13.348  2.5641 -2.2214 -0.3338
 5332SOL     OW27454   4.610   0.467  13.502  0.1728  0.0539  0.4831
 5332SOL    HW127455   4.695   0.428  13.522  0.6565 -1.4437 -4.6664
 5332SOL    HW227456   4.626   0.555  13.467  0.4317 -0.4363 -0.6259
 5333SOL     OW27457   2.931   0.344   0.117  0.4880  0.1451 -0.1146
 5333SOL    HW127458   2.881   0.297   0.184  1.0656 -2.0791 -1.2483
 5333SOL    HW227459   2.892   0.429   0.136 -0.1689  0.1468 -1.4557
 5334SOL     OW27460   1.859   0.074   7.407  0.4163  0.3886  0.1648
 5334SOL    HW127461   1.856   0.006   7.474  0.8511 -0.7097 -0.9389
 5334SOL    HW227462   1.769   0.084   7.375  1.2789 -0.9736 -2.6573
 5335SOL     OW27463   0.654   4.020  14.309 -0.1181  0.3179  0.0807
 5335SOL    HW127464   0.698   4.091  14.262  2.1240 -0.3482  1.2062
 5335SOL    HW227465   0.585   4.076  14.344  2.8497  4.8079 -1.3296
 5336SOL     OW27466   3.857   3.135   5.166 -0.5126 -0.2012 -0.0836
 5336SOL    HW127467   3.772   3.098   5.142 -0.5276  0.6911 -1.3830
 5336SOL    HW227468   3.830   3.163   5.254  0.3797  0.5343 -0.0454
 5337SOL     OW27469   4.301   3.816  11.364  0.0588 -0.0814 -0.0119
 5337SOL    HW127470   4.268   3.880  11.427 -1.3299 -0.6911 -0.0997
 5337SOL    HW227471   4.365   3.761  11.409 -0.7242 -0.5434  0.5419
 5338SOL     OW27472   0.034   1.956   3.377  0.5347 -0.4076 -0.2154
 5338SOL    HW127473   0.112   1.903   3.391 -1.1734 -2.4040  1.6906
 5338SOL    HW227474   4.708   1.893   3.324  0.4006 -1.4442  1.1319
 5339SOL     OW27475   4.180   1.664   8.092 -0.0561  0.3729 -0.5180
 5339SOL    HW127476   4.160   1.612   8.014 -1.7152 -0.4258  0.4421
 5339SOL    HW227477   4.275   1.675   8.092 -0.0418  0.4225  2.1869
 5340SOL     OW27478   1.781   0.874   8.189  0.0797  0.3405  0.0521
 5340SOL    HW127479   1.707   0.910   8.141 -1.3828  1.2810  3.0601
 5340SOL    HW227480   1.752   0.890   8.279  2.6206 -1.5790  1.2015
 5341SOL     OW27481   0.535   2.028   4.107 -0.1750 -0.1504  0.3111
 5341SOL    HW127482   0.477   2.036   4.183  0.1422  2.2433  0.3084
 5341SOL    HW227483   0.606   2.085   4.137 -0.2109  0.5907 -1.0189
 5342SOL     OW27484   1.876   1.953  12.633  0.8268 -0.6888 -0.1660
 5342SOL    HW127485   1.926   1.936  12.713  0.4832 -1.0919 -0.0372
 5342SOL    HW227486   1.828   1.871  12.621 -1.6546  0.5212  1.4912
 5343SOL     OW27487   0.476   3.238  14.152  0.3165 -0.5821  0.1583
 5343SOL    HW127488   0.499   3.266  14.063 -2.3828 -3.2463 -1.3613
 5343SOL    HW227489   0.566   3.242  14.185  0.1652 -0.0288  0.5087
 5344SOL     OW27490   0.579   4.289   2.368  0.3635 -0.4131  0.0170
 5344SOL    HW127491   0.524   4.210   2.362  0.4241 -0.2817 -2.5649
 5344SOL    HW227492   0.648   4.246   2.419 -0.3625 -1.9996 -0.3432
 5345SOL     OW27493   3.211   0.782   3.192  0.0489  0.5719 -0.2218
 5345SOL    HW127494   3.150   0.734   3.248  1.4156  0.7215  1.3945
 5345SOL    HW227495   3.300   0.760   3.220  0.0990  2.0458  0.7580
 5346SOL     OW27496   0.655   0.019   5.221  0.3503  0.5796 -0.7201
 5346SOL    HW127497   0.603   0.096   5.200 -2.5249 -0.7235  1.5251
 5346SOL    HW227498   0.685   0.048   5.307 -0.3572  2.4992 -1.1181
 5347SOL     OW27499   0.916   0.583  11.151  0.6567 -0.4649  0.7399
 5347SOL    HW127500   0.997   0.537  11.128  0.0722 -0.6061 -1.0933
 5347SOL    HW227501   0.882   0.516  11.210 -1.6920 -0.0946 -0.1753
 5348SOL     OW27502   2.257   0.882   6.210  0.0656  0.1738 -0.3467
 5348SOL    HW127503   2.174   0.930   6.219  0.5868  0.8192  1.1077
 5348SOL    HW227504   2.229   0.791   6.220  1.7078 -0.3421 -0.4409
 5349SOL     OW27505   1.391   3.766   6.777  0.1611 -0.2173  0.2117
 5349SOL    HW127506   1.357   3.855   6.777  0.0666 -0.2530  0.9264
 5349SOL    HW227507   1.356   3.737   6.693 -0.4557 -1.7491  0.9944
 5350SOL     OW27508   1.464   2.884   3.882  0.3672 -0.3618  0.8514
 5350SOL    HW127509   1.468   2.812   3.819 -0.6535  0.3959 -0.0815
 5350SOL    HW227510   1.429   2.840   3.959 -3.5068  1.7603  0.3072
 5351SOL     OW27511   3.661   0.837   6.952  0.5365 -0.2121 -0.0031
 5351SOL    HW127512   3.667   0.908   7.015 -0.4972  0.5043 -0.7150
 5351SOL    HW227513   3.609   0.770   6.997  0.1668 -0.8683 -1.3994
 5352SOL     OW27514   0.360   2.482   6.450 -0.1673 -0.0195 -0.2889
 5352SOL    HW127515   0.298   2.409   6.448 -1.1100  0.7889 -0.5808
 5352SOL    HW227516   0.352   2.521   6.537  3.0980  0.4228 -0.1529
 5353SOL     OW27517   1.385   2.880   8.527  0.1911 -0.4020  0.5074
 5353SOL    HW127518   1.445   2.955   8.525  0.4199 -0.6190 -0.8212
 5353SOL    HW227519   1.323   2.906   8.595 -1.0729  0.9044 -1.1549
 5354SOL     OW27520   3.922   3.499  15.120 -0.0487 -0.2943 -0.5026
 5354SOL    HW127521   3.938   3.466  15.208  0.7006  2.5660  0.4430
 5354SOL    HW227522   3.973   3.436  15.070  0.6042  0.5596 -0.9135
 5355SOL     OW27523   2.462   3.669   2.213  0.9370  0.1678  0.2516
 5355SOL    HW127524   2.523   3.671   2.286  1.4545 -0.4086 -0.1572
 5355SOL    HW227525   2.468   3.752   2.165  1.0576 -0.4249 -0.7786
 5356SOL     OW27526   4.236   3.599  16.675  0.3460 -0.4545 -0.3485
 5356SOL    HW127527   4.164   3.562  16.725  0.1247 -0.9890 -1.0633
 5356SOL    HW227528   4.199   3.611  16.587 -2.3717 -0.4624  0.8096
 5357SOL     OW27529   0.568   3.515   5.026 -0.3506 -0.1454  0.2340
 5357SOL    HW127530   0.512   3.589   5.004 -0.5086 -0.5094 -0.5843
 5357SOL    HW227531   0.556   3.471   4.942 -0.3586 -0.8059  0.5855
 5358SOL     OW27532   0.443   4.321   6.569  0.1635  0.6390 -0.0583
 5358SOL    HW127533   0.360   4.283   6.541  0.6998  2.2253 -3.7406
 5358SOL    HW227534   0.411   4.353   6.654  1.7666 -0.7573  1.0681
 5359SOL     OW27535   0.419   0.094   8.469 -0.5374 -0.6442 -0.1244
 5359SOL    HW127536   0.323   0.091   8.458 -0.5346 -2.7285  0.4032
 5359SOL    HW227537   0.443   0.091   8.376 -0.8838 -2.2509 -0.1582
 5360SOL     OW27538   1.663   1.316  15.308 -0.1055 -0.3273  0.3140
 5360SOL    HW127539   1.722   1.294  15.236  2.4625  0.6786  2.1459
 5360SOL    HW227540   1.585   1.354  15.267 -0.1327 -0.4943  0.2116
 5361SOL     OW27541   3.759   0.102   1.936 -0.5230  0.1066  0.1457
 5361SOL    HW127542   3.804   0.021   1.912  1.7492  0.8908  1.7360
 5361SOL    HW227543   3.821   0.172   1.957 -0.9058  0.7047 -0.7313
 5362SOL     OW27544   4.634   4.187  14.934 -0.4699 -0.0389  0.0303
 5362SOL    HW127545   4.609   4.203  15.025  0.3265 -0.8728  0.3856
 5362SOL    HW227546   4.625   4.276  14.897 -3.8885 -0.9509 -1.3983
 5363SOL     OW27547   3.387   4.225   8.399 -0.0645 -0.2868 -0.6072
 5363SOL    HW127548   3.318   4.213   8.465  0.5515 -2.2043 -0.2978
 5363SOL    HW227549   3.405   4.319   8.395 -1.1735 -0.0193  0.6838
 5364SOL     OW27550   1.013   4.418   8.353  0.4622  0.3463 -0.4922
 5364SOL    HW127551   1.096   4.430   8.398  0.9219 -1.9005 -0.7803
 5364SOL    HW227552   0.986   4.332   8.385  0.0738  1.2965  1.7100
 5365SOL     OW27553   4.007   4.412   0.694 -0.5497 -0.3931  0.0395
 5365SOL    HW127554   4.029   4.334   0.746  1.9689  0.9734  1.0125
 5365SOL    HW227555   3.984   4.478   0.759  0.1776 -1.3607  1.2816
 5366SOL     OW27556   1.160   2.101  10.009  0.0103 -0.1819  0.0394
 5366SOL    HW127557   1.100   2.047   9.957  1.5994 -1.6155 -0.3152
 5366SOL    HW227558   1.092   2.151  10.055  0.1392 -2.2784  2.5843
 5367SOL     OW27559   0.140   4.646   9.365  0.5505  0.1268 -0.3066
 5367SOL    HW127560   0.092   4.566   9.385 -0.9965  1.1540  0.0949
 5367SOL    HW227561   0.097   4.698   9.433  2.4128 -0.0572  0.9923
 5368SOL     OW27562   3.326   4.249   1.239  0.2987  0.1383  0.2462
 5368SOL    HW127563   3.352   4.259   1.331  0.8190  0.0664  0.1084
 5368SOL    HW227564   3.300   4.341   1.232  1.1622  0.3127 -0.5712
 5369SOL     OW27565   4.489   4.590  13.077 -0.5081 -0.0671  0.3135
 5369SOL    HW127566   4.467   4.675  13.039 -1.3883 -0.9543 -1.1427
 5369SOL    HW227567   4.502   4.535  12.999  2.7520  1.6972 -0.4006
 5370SOL     OW27568   0.786   2.773   4.446 -0.2636 -0.2987 -0.1159
 5370SOL    HW127569   0.800   2.792   4.539 -4.4437 -2.4773  0.9264
 5370SOL    HW227570   0.758   2.682   4.447  0.2569 -0.4778 -1.6647
 5371SOL     OW27571   0.957   2.831   9.538 -0.1360  0.0954  0.1300
 5371SOL    HW127572   1.049   2.822   9.560  0.1433  0.4928 -0.8641
 5371SOL    HW227573   0.968   2.780   9.457  2.9842 -0.1923  0.7300
 5372SOL     OW27574   1.290   2.149   4.457  0.5133 -0.3067 -0.3519
 5372SOL    HW127575   1.376   2.174   4.492  0.4198 -1.8055  0.9621
 5372SOL    HW227576   1.314   2.096   4.381  1.9846 -1.7195  1.1230
 5373SOL     OW27577   0.366   4.187   3.200 -0.0979 -0.5792 -0.3839
 5373SOL    HW127578   0.324   4.262   3.158 -0.0415 -0.9458 -1.0960
 5373SOL    HW227579   0.296   4.122   3.195 -1.6651  1.2168 -1.8115
 5374SOL     OW27580   1.069   0.486   6.371  0.4989 -0.5368 -0.4039
 5374SOL    HW127581   0.991   0.541   6.368  1.0561  0.2414 -0.4975
 5374SOL    HW227582   1.058   0.457   6.461 -0.3864 -3.7476 -1.5406
 5375SOL     OW27583   0.852   2.604  12.433 -0.3662 -0.0023 -0.2219
 5375SOL    HW127584   0.917   2.584  12.366 -0.2606  0.9611 -0.4061
 5375SOL    HW227585   0.766   2.621  12.395 -0.6016 -0.2501  0.1977
 5376SOL     OW27586   2.005   2.730   7.724  0.1267  0.4001  0.2767
 5376SOL    HW127587   2.001   2.799   7.658 -1.9688  1.0164  1.0671
 5376SOL    HW227588   1.925   2.747   7.773 -0.0071 -1.6829  0.8078
 5377SOL     OW27589   1.519   1.036   7.293 -0.2544 -0.0206  0.1462
 5377SOL    HW127590   1.598   1.008   7.247 -0.5853 -0.9659  0.1619
 5377SOL    HW227591   1.452   1.002   7.234  0.3838 -0.6389 -0.2189
 5378SOL     OW27592   0.333   2.517  16.014  0.5391 -0.3411 -0.4708
 5378SOL    HW127593   0.353   2.476  15.930 -3.7007  0.1532 -1.7501
 5378SOL    HW227594   0.370   2.602  15.991  0.0320  0.2411  0.8508
 5379SOL     OW27595   3.285   0.499   2.225 -0.2287  0.1814  0.2074
 5379SOL    HW127596   3.274   0.590   2.197  0.1927  0.9472  2.5457
 5379SOL    HW227597   3.312   0.454   2.145 -0.1380  1.1350 -0.2921
 5380SOL     OW27598   2.132   0.591   5.870 -0.2959  0.1499  0.3009
 5380SOL    HW127599   2.105   0.648   5.799  0.6845 -0.8340 -0.8444
 5380SOL    HW227600   2.218   0.624   5.894  0.0958 -0.5060 -0.2028
 5381SOL     OW27601   2.822   3.634   7.633 -0.5016 -0.3037  0.1847
 5381SOL    HW127602   2.882   3.617   7.706 -1.5703 -0.8514  0.9334
 5381SOL    HW227603   2.827   3.730   7.641 -0.2645 -0.4566  1.9660
 5382SOL     OW27604   1.060   1.749   8.442 -0.5051  0.0776 -0.4330
 5382SOL    HW127605   1.128   1.769   8.378 -0.7255 -1.5631 -1.1627
 5382SOL    HW227606   0.993   1.815   8.425 -2.3920 -1.9472 -0.8553
 5383SOL     OW27607   3.373   0.011  12.010  0.0730 -0.7489 -0.2575
 5383SOL    HW127608   3.414   0.042  11.929 -1.7206 -0.7238 -1.1552
 5383SOL    HW227609   3.407   0.076  12.071  1.3152 -1.5037 -0.1576
 5384SOL     OW27610   0.971   3.597   2.897 -0.5724  0.3035  0.0103
 5384SOL    HW127611   1.013   3.557   2.973 -1.7017 -2.1979 -0.7136
 5384SOL    HW227612   0.884   3.629   2.922  0.4227  1.9891  1.3700
 5385SOL     OW27613   4.414   0.517   7.373 -0.1093  0.6304 -0.2795
 5385SOL    HW127614   4.335   0.465   7.358  1.1364 -0.8403 -1.8382
 5385SOL    HW227615   4.433   0.494   7.464  1.8279  0.4361 -0.7356
 5386SOL     OW27616   0.133   1.881   8.027 -0.2173  0.0471  0.2010
 5386SOL    HW127617   0.039   1.865   8.021  0.0839 -1.1142 -1.2162
 5386SOL    HW227618   0.162   1.797   8.063 -1.5512  0.6426  2.6841
 5387SOL     OW27619   3.432   2.480   7.404 -0.2968  0.3340  0.0603
 5387SOL    HW127620   3.415   2.429   7.483  1.0391  0.4872  0.4412
 5387SOL    HW227621   3.366   2.548   7.418 -0.6766 -0.0329  0.0519
 5388SOL     OW27622   0.781   1.262   5.936 -0.0461 -0.2891  0.4179
 5388SOL    HW127623   0.704   1.205   5.939 -0.0092 -0.2251  2.8736
 5388SOL    HW227624   0.775   1.312   5.854  3.9253  0.9287  0.8456
 5389SOL     OW27625   0.514   4.554   6.422 -0.0695  0.7452  0.3492
 5389SOL    HW127626   0.511   4.606   6.502  1.2399  0.9159  0.2865
 5389SOL    HW227627   0.485   4.467   6.450  0.9319  0.2886 -0.0398
 5390SOL     OW27628   2.049   0.627   6.921  0.0877 -0.0608  0.2169
 5390SOL    HW127629   2.020   0.565   6.854 -2.5833  2.1597 -0.7198
 5390SOL    HW227630   2.127   0.590   6.962  0.7705  1.9642  0.7312
 5391SOL     OW27631   1.259   1.975   6.134 -0.2420  0.2672  0.3580
 5391SOL    HW127632   1.258   1.923   6.214 -1.7974  0.1405  0.2592
 5391SOL    HW227633   1.281   2.062   6.166  0.8018 -0.3979  1.4393
 5392SOL     OW27634   2.485   3.116   5.850  0.3194  0.7573  0.2654
 5392SOL    HW127635   2.501   3.098   5.942 -2.6539  0.8050  0.7866
 5392SOL    HW227636   2.578   3.137   5.840  0.4563 -0.2727 -0.6426
 5393SOL     OW27637   4.477   3.057   6.301 -0.0144  0.0335  0.4391
 5393SOL    HW127638   4.532   3.070   6.378  0.0172  0.5449  0.3292
 5393SOL    HW227639   4.525   2.984   6.261 -0.5867 -0.1692  0.1144
 5394SOL     OW27640   3.697   3.256   2.399 -1.0250  0.2167 -0.4817
 5394SOL    HW127641   3.642   3.261   2.477 -0.9046  2.1530 -0.5258
 5394SOL    HW227642   3.699   3.348   2.374  0.3714  0.3714  0.2080
 5395SOL     OW27643   2.266   2.072   8.420 -0.9335 -0.2185 -0.0164
 5395SOL    HW127644   2.350   2.075   8.375 -0.3261 -0.6569  1.0922
 5395SOL    HW227645   2.291   2.068   8.512 -1.2130 -0.9395  0.0256
 5396SOL     OW27646   2.672   2.476  15.433 -0.1991  1.0041 -0.0190
 5396SOL    HW127647   2.672   2.381  15.443 -1.0920  1.5049  4.6129
 5396SOL    HW227648   2.656   2.482  15.339  2.1149  0.8759 -0.4214
 5397SOL     OW27649   3.083   2.347  13.900  0.3502 -0.0733 -0.1389
 5397SOL    HW127650   3.089   2.333  13.806  1.8816  3.1805 -0.5516
 5397SOL    HW227651   3.083   2.254  13.920  0.2701  0.2266  1.2522
 5398SOL     OW27652   3.175   2.291   4.212  0.0702 -0.3755  0.2741
 5398SOL    HW127653   3.124   2.340   4.147  0.3132  0.6885  0.8864
 5398SOL    HW227654   3.128   2.314   4.293  1.6844  2.8057  0.3028
 5399SOL     OW27655   4.549   4.381  11.312 -0.1340  0.0836 -0.1980
 5399SOL    HW127656   4.629   4.355  11.358  0.2921  2.0630  0.1893
 5399SOL    HW227657   4.498   4.306  11.341  3.1801 -1.3377  1.9125
 5400SOL     OW27658   4.451   2.424   6.186  0.1292  0.4074  0.1326
 5400SOL    HW127659   4.412   2.409   6.272  1.6164 -0.5701  0.6307
 5400SOL    HW227660   4.371   2.425   6.133  0.7070 -0.2191 -0.7422
 5401SOL     OW27661   0.788   0.260   8.705  0.1492  0.1122 -0.4466
 5401SOL    HW127662   0.828   0.173   8.707  2.5387  1.1932 -0.7235
 5401SOL    HW227663   0.696   0.248   8.730  0.8122 -1.7333  1.0765
 5402SOL     OW27664   3.770   1.541   9.822  0.1556 -0.2520  0.0783
 5402SOL    HW127665   3.709   1.607   9.853 -0.9641 -1.8887  1.3540
 5402SOL    HW227666   3.722   1.461   9.844 -0.0069 -0.3600 -0.6478
 5403SOL     OW27667   1.687   3.735   7.758  0.1663  0.4602 -0.1573
 5403SOL    HW127668   1.731   3.776   7.832 -1.6590  2.1324  0.0078
 5403SOL    HW227669   1.745   3.669   7.721 -1.6643 -2.1534  1.7143
 5404SOL     OW27670   2.876   4.143   7.845 -0.1712 -0.0673 -0.4668
 5404SOL    HW127671   2.818   4.087   7.897  1.0835 -1.4072 -0.5377
 5404SOL    HW227672   2.840   4.111   7.762  1.1855 -1.7544 -0.3913
 5405SOL     OW27673   2.454   2.958  10.817 -0.4385 -0.3815  0.1261
 5405SOL    HW127674   2.512   2.906  10.762  2.6904  1.1943  1.9419
 5405SOL    HW227675   2.436   2.886  10.878  0.6356  1.1559  2.2916
 5406SOL     OW27676   3.701   0.483   9.512  0.2555 -0.3148 -0.3672
 5406SOL    HW127677   3.778   0.446   9.470 -1.4170 -1.6659 -2.2462
 5406SOL    HW227678   3.736   0.570   9.530 -0.6682 -0.0602  0.2086
 5407SOL     OW27679   2.894   1.517  13.324 -0.2684  0.3503  0.5504
 5407SOL    HW127680   2.922   1.549  13.410 -0.5536  0.6251  0.5399
 5407SOL    HW227681   2.889   1.597  13.272 -0.7495  1.4702  2.3371
 5408SOL     OW27682   1.821   2.156   5.598  0.1607 -0.2777  0.1531
 5408SOL    HW127683   1.836   2.160   5.504 -2.9693  0.2241 -0.3386
 5408SOL    HW227684   1.728   2.178   5.606  0.2877  0.2158  0.2762
 5409SOL     OW27685   0.087   4.383  10.500  0.0941  0.1072  0.3444
 5409SOL    HW127686   0.039   4.368  10.582  0.3551 -1.7863  0.1320
 5409SOL    HW227687   0.103   4.295  10.467  0.8369  0.2889  0.2215
 5410SOL     OW27688   2.029   3.028   2.138  0.1035 -0.0219  0.4149
 5410SOL    HW127689   2.043   3.062   2.050  1.3440  0.8490  0.9534
 5410SOL    HW227690   2.026   2.935   2.115 -1.0527  0.0269  0.3693
 5411SOL     OW27691   2.230   2.653   9.809  0.0693 -0.0656  0.2584
 5411SOL    HW127692   2.163   2.697   9.756 -0.2516 -1.2442 -0.3141
 5411SOL    HW227693   2.295   2.635   9.741 -0.2139  5.2379 -1.4978
 5412SOL     OW27694   0.469   1.182   0.786 -0.2334  0.5623  0.6664
 5412SOL    HW127695   0.375   1.169   0.779 -0.0139 -0.6996  0.0246
 5412SOL    HW227696   0.470   1.266   0.741  0.8129  1.9224  3.2324
 5413SOL     OW27697   4.662   4.067   4.430 -0.5477 -0.1687  0.2826
 5413SOL    HW127698   4.684   4.116   4.509 -0.6678 -0.5272  0.5387
 5413SOL    HW227699   4.568   4.084   4.419  0.4759  3.7760 -2.3578
 5414SOL     OW27700   2.552   4.518   3.450 -0.1384  0.2335  0.0172
 5414SOL    HW127701   2.631   4.527   3.396 -0.9439 -1.4920 -1.4778
 5414SOL    HW227702   2.507   4.438   3.421  0.6892 -0.9923  2.1286
 5415SOL     OW27703   4.306   3.124   0.198  0.0506 -0.3478 -0.1554
 5415SOL    HW127704   4.359   3.199   0.170 -2.2362  0.5626 -2.0934
 5415SOL    HW227705   4.275   3.156   0.282  1.1063 -0.1893  0.1688
 5416SOL     OW27706   2.683   4.307   4.251 -0.2387  0.9416 -0.0464
 5416SOL    HW127707   2.644   4.312   4.338 -2.1423  0.8053 -0.8887
 5416SOL    HW227708   2.614   4.341   4.193  1.0871  0.4868 -1.9035
 5417SOL     OW27709   0.533   4.210   5.833 -0.0259 -0.2143  0.2314
 5417SOL    HW127710   0.485   4.129   5.814  1.6305 -1.1475 -0.0086
 5417SOL    HW227711   0.591   4.224   5.758 -0.1120 -0.0386  0.2000
 5418SOL     OW27712   4.058   3.714   6.796 -0.2028  0.1469  0.1257
 5418SOL    HW127713   4.040   3.788   6.738 -1.0848  0.6163  0.9854
 5418SOL    HW227714   4.014   3.747   6.874 -0.7704  0.4358 -0.3176
 5419SOL     OW27715   1.574   2.735   2.166  0.2022  0.5930  0.2121
 5419SOL    HW127716   1.498   2.780   2.130 -0.6857 -0.3536  0.9315
 5419SOL    HW227717   1.644   2.791   2.130 -0.1142  0.1612 -1.0756
 5420SOL     OW27718   0.411   1.511   2.525  0.4393  0.4508 -0.7215
 5420SOL    HW127719   0.457   1.442   2.477 -0.2533 -0.4291 -0.1083
 5420SOL    HW227720   0.452   1.514   2.611  2.4638 -0.1355 -1.6693
 5421SOL     OW27721   1.738   3.523   1.043  0.5424  0.2753 -0.2303
 5421SOL    HW127722   1.744   3.546   0.950  0.8797  1.2223  0.0242
 5421SOL    HW227723   1.738   3.428   1.034  1.4785  0.2259  0.3105
 5422SOL     OW27724   2.240   3.985   7.252 -0.3843 -0.3386  0.4644
 5422SOL    HW127725   2.243   4.034   7.334 -1.9892 -0.2383  0.4732
 5422SOL    HW227726   2.177   4.036   7.201 -0.0585  1.8114  2.1597
 5423SOL     OW27727   3.694   2.878   5.679 -0.0782  0.1459  0.4691
 5423SOL    HW127728   3.670   2.913   5.593 -0.5280 -0.8786  0.1790
 5423SOL    HW227729   3.654   2.951   5.727 -0.0608 -0.0525  0.7805
 5424SOL     OW27730   0.008   0.121  16.769  0.0297  0.0908 -0.6672
 5424SOL    HW127731   4.643   0.143  16.799 -0.7378  1.7246 -4.1098
 5424SOL    HW227732   4.718   0.144  16.677  1.3124 -1.2559 -1.1987
 5425SOL     OW27733   0.166   1.341   8.980 -0.3733 -0.2930 -0.2769
 5425SOL    HW127734   0.106   1.269   8.961 -0.0039 -0.8684  0.7086
 5425SOL    HW227735   0.100   1.395   9.023  1.5091  2.9480 -1.4562
 5426SOL     OW27736   0.066   0.032  17.552  0.0958  0.3330  0.2348
 5426SOL    HW127737   0.003   0.042  17.481 -0.2822 -0.2436  0.4844
 5426SOL    HW227738   0.119   0.109  17.531  1.0646 -0.4598 -0.1882
 5427SOL     OW27739   1.907   4.289  12.005 -0.1763  0.5330  0.1573
 5427SOL    HW127740   1.825   4.241  11.993 -1.3147  2.6951 -0.7429
 5427SOL    HW227741   1.886   4.372  11.963  1.7740  0.8920 -0.1057
 5428SOL     OW27742   0.921   2.592   4.009 -0.7258  0.0212  0.3469
 5428SOL    HW127743   0.888   2.681   4.020  0.7160  0.8518 -2.0783
 5428SOL    HW227744   0.962   2.575   4.094  2.1834 -0.1959 -1.0854
 5429SOL     OW27745   1.564   4.257   2.703 -0.1755 -0.1518 -0.1633
 5429SOL    HW127746   1.481   4.215   2.680 -0.2846 -2.3110  4.2297
 5429SOL    HW227747   1.534   4.290   2.787  0.4472 -0.4506  0.1791
 5430SOL     OW27748   2.636   0.445   3.020  0.2558  0.5153 -0.1533
 5430SOL    HW127749   2.625   0.505   3.093 -0.0759 -0.8167  0.8961
 5430SOL    HW227750   2.567   0.472   2.959  0.6591 -3.0366 -2.1759
 5431SOL     OW27751   1.869   4.207   6.741  0.6760 -0.6575  0.2360
 5431SOL    HW127752   1.873   4.117   6.772 -2.4290 -0.8163  0.1702
 5431SOL    HW227753   1.963   4.222   6.741  0.4527  0.8284  1.2540
 5432SOL     OW27754   0.720   2.188   6.446 -0.6778 -0.0023 -0.1368
 5432SOL    HW127755   0.799   2.168   6.396 -1.2332 -0.3158 -0.8894
 5432SOL    HW227756   0.743   2.170   6.538  1.3118  1.8309 -0.2855
 5433SOL     OW27757   2.293   1.287  11.888  0.3336 -0.4893  0.1996
 5433SOL    HW127758   2.201   1.263  11.885 -0.2129  1.6391 -0.1764
 5433SOL    HW227759   2.334   1.209  11.926  0.7718  0.0132  0.7438
 5434SOL     OW27760   4.434   3.739   3.816 -0.0681  0.3952 -0.2822
 5434SOL    HW127761   4.518   3.697   3.837 -0.6667  0.2713  1.8756
 5434SOL    HW227762   4.379   3.682   3.871 -2.3270  0.0612 -2.9171
 5435SOL     OW27763   0.028   3.390   0.209 -0.0159  0.5842 -0.3783
 5435SOL    HW127764   0.031   3.317   0.147  1.7099  0.2586  0.0868
 5435SOL    HW227765   4.669   3.435   0.187  0.0824 -0.3771 -2.6371
 5436SOL     OW27766   1.304   1.365   8.047 -0.1471 -0.2054  0.5781
 5436SOL    HW127767   1.363   1.400   8.114  0.1893  1.9005 -0.8059
 5436SOL    HW227768   1.218   1.383   8.084 -0.7996 -3.5292  0.6064
 5437SOL     OW27769   1.955   1.669   9.093  0.2555 -0.8725 -0.0127
 5437SOL    HW127770   2.030   1.709   9.136 -0.0207 -0.1554 -0.1918
 5437SOL    HW227771   2.001   1.648   9.012  1.4073 -0.4690  0.5488
 5438SOL     OW27772   3.988   0.722  13.832  0.0115  0.0526  0.2121
 5438SOL    HW127773   3.981   0.724  13.928 -2.3669 -0.4744  0.0449
 5438SOL    HW227774   4.020   0.632  13.825  3.1297  1.2771 -1.0586
 5439SOL     OW27775   1.749   0.760   4.400 -0.0278  0.0591  0.3529
 5439SOL    HW127776   1.675   0.729   4.452  0.3637 -1.2568  0.1300
 5439SOL    HW227777   1.785   0.829   4.456 -0.0645  1.0695 -0.8678
 5440SOL     OW27778   1.209   4.635  13.971 -0.0510 -0.6035 -0.3392
 5440SOL    HW127779   1.297   4.663  13.997 -0.0365 -0.2851 -0.7388
 5440SOL    HW227780   1.153   4.636  14.049  1.8827 -1.3665  1.0582
 5441SOL     OW27781   0.574   0.233   3.693 -0.0352  0.1722 -0.0038
 5441SOL    HW127782   0.625   0.313   3.706 -0.7114  0.6240 -0.1219
 5441SOL    HW227783   0.514   0.238   3.768 -0.2927  1.5314 -0.3136
 5442SOL     OW27784   2.195   2.567   5.734  0.6211  0.1163 -0.2895
 5442SOL    HW127785   2.251   2.643   5.753 -0.1964  0.2080  1.7989
 5442SOL    HW227786   2.183   2.586   5.641  1.4178 -0.7911 -0.5898
 5443SOL     OW27787   2.286   0.013  13.271 -0.1558 -0.2474  0.6097
 5443SOL    HW127788   2.338   4.657  13.258 -0.4490 -0.5652  1.3729
 5443SOL    HW227789   2.349   0.070  13.314 -0.8603  2.2377 -1.6582
 5444SOL     OW27790   2.281   0.411   6.754  0.0496 -0.4301  0.3423
 5444SOL    HW127791   2.320   0.398   6.840  0.7443 -0.6513 -0.0067
 5444SOL    HW227792   2.188   0.396   6.773  0.0928 -1.9573 -0.6458
 5445SOL     OW27793   3.055   1.902  16.601 -0.4643 -0.3053 -0.8974
 5445SOL    HW127794   3.109   1.859  16.667 -0.6390 -0.4487 -0.8477
 5445SOL    HW227795   3.087   1.869  16.517 -1.1050 -0.4546 -1.0809
 5446SOL     OW27796   1.348   2.043  10.880 -0.4464  0.6859  0.0631
 5446SOL    HW127797   1.401   2.117  10.853 -0.4930  0.6107 -0.2311
 5446SOL    HW227798   1.292   2.090  10.942 -0.2058  1.1634 -0.0824
 5447SOL     OW27799   0.713   2.082   5.433 -0.3972  0.2037  0.1037
 5447SOL    HW127800   0.674   1.995   5.429 -1.6713  0.8976 -2.7252
 5447SOL    HW227801   0.779   2.069   5.501 -1.7427 -1.9556  1.0026
 5448SOL     OW27802   2.532   0.407   9.878 -0.1727 -0.3043 -0.2614
 5448SOL    HW127803   2.578   0.458   9.811  0.1185  0.0665  0.2235
 5448SOL    HW227804   2.448   0.410   9.833 -0.7933  0.0944  0.9354
 5449SOL     OW27805   0.960   3.405  14.482 -0.3894 -0.1934 -0.4508
 5449SOL    HW127806   0.966   3.451  14.566 -1.3294 -0.2438 -0.3546
 5449SOL    HW227807   0.892   3.340  14.503 -0.3423  0.1042  0.6204
 5450SOL     OW27808   3.607   1.288  12.988 -0.1930 -0.1856  0.2005
 5450SOL    HW127809   3.514   1.310  12.984 -0.5924 -1.7009  1.1438
 5450SOL    HW227810   3.609   1.206  13.037  1.8659  0.2248  0.8360
 5451SOL     OW27811   2.113   2.096   7.427  0.2081 -0.3450  0.1475
 5451SOL    HW127812   2.197   2.072   7.468  0.9929  0.7015 -0.8432
 5451SOL    HW227813   2.099   2.179   7.473 -1.1227 -1.0883  1.0776
 5452SOL     OW27814   3.688   3.857   9.332  0.0281 -0.2904  0.1447
 5452SOL    HW127815   3.608   3.899   9.300 -0.1684 -1.1047 -0.4442
 5452SOL    HW227816   3.737   3.936   9.353 -0.9974  0.8520 -1.7602
 5453SOL     OW27817   4.032   2.520   6.085 -0.1720  0.1581  0.4887
 5453SOL    HW127818   3.957   2.514   6.025 -0.2750 -0.2175  0.6539
 5453SOL    HW227819   4.005   2.599   6.131 -2.9508 -1.2453  1.3303
 5454SOL     OW27820   4.481   2.710   4.505 -0.1224  0.0394 -0.2981
 5454SOL    HW127821   4.452   2.721   4.596 -1.5111 -1.0264 -0.6141
 5454SOL    HW227822   4.395   2.729   4.468 -0.1393 -0.2448 -0.4060
 5455SOL     OW27823   1.238   2.898  14.655  0.3564  0.0866  0.4683
 5455SOL    HW127824   1.296   2.900  14.579 -0.2483  1.8195  0.0635
 5455SOL    HW227825   1.302   2.872  14.721  2.5471  0.7079 -1.4292
 5456SOL     OW27826   2.328   0.926   7.558 -0.3308  0.2550  0.1918
 5456SOL    HW127827   2.342   1.017   7.585  0.8388  0.5643 -1.4498
 5456SOL    HW227828   2.240   0.935   7.521 -0.5619 -0.1535  0.6427
 5457SOL     OW27829   2.834   0.895  12.742 -0.0818  0.0556 -0.1141
 5457SOL    HW127830   2.759   0.900  12.683  0.3781  0.8407 -0.6236
 5457SOL    HW227831   2.800   0.831  12.805 -1.0835  0.7362  0.0278
 5458SOL     OW27832   2.146   2.562   8.077  0.2890  0.3454  0.1449
 5458SOL    HW127833   2.168   2.646   8.036  2.6655 -0.8814 -1.0852
 5458SOL    HW227834   2.178   2.584   8.164  2.4186 -0.7442 -0.3413
 5459SOL     OW27835   0.307   2.589   7.409  0.1335  0.2827 -0.5508
 5459SOL    HW127836   0.398   2.617   7.401 -0.2734  2.2760  1.9055
 5459SOL    HW227837   0.296   2.551   7.496 -0.9689  0.3070 -0.6834
 5460SOL     OW27838   2.908   3.064  16.031 -0.5788  0.0548  0.2336
 5460SOL    HW127839   2.868   3.121  15.966 -1.5959  0.8315  1.5280
 5460SOL    HW227840   2.841   2.997  16.046 -1.4114  0.8664  0.0955
 5461SOL     OW27841   0.720   0.721  14.369 -0.3269  0.0669  0.2627
 5461SOL    HW127842   0.664   0.652  14.334  1.6153 -0.7895 -1.1512
 5461SOL    HW227843   0.796   0.665  14.385 -0.8806 -0.9588 -0.7044
 5462SOL     OW27844   0.222   0.325   2.583 -0.4147  0.0025 -0.1261
 5462SOL    HW127845   0.226   0.331   2.488  2.3590 -0.0926 -0.0064
 5462SOL    HW227846   0.165   0.401   2.601  0.3900  0.5782 -0.0163
 5463SOL     OW27847   1.151   4.389   4.736  0.4504 -0.5334  0.5294
 5463SOL    HW127848   1.178   4.412   4.824  0.6293  0.5743  0.1797
 5463SOL    HW227849   1.154   4.293   4.740 -2.1431 -0.6767 -0.4592
 5464SOL     OW27850   3.096   2.243   2.668 -0.6399  0.0421  0.0241
 5464SOL    HW127851   3.166   2.200   2.619  0.3916 -1.0409  2.4605
 5464SOL    HW227852   3.043   2.163   2.678  1.2958 -0.8882  2.5709
 5465SOL     OW27853   4.682   4.623   5.879 -0.3895 -0.5310  0.1781
 5465SOL    HW127854   4.592   4.648   5.901 -0.3239  1.4610 -1.7823
 5465SOL    HW227855   4.698   4.542   5.927 -0.4914  0.8260  2.5291
 5466SOL     OW27856   0.639   1.973  11.862 -0.5098  0.2823  0.2950
 5466SOL    HW127857   0.585   2.026  11.920 -0.5400  0.5405  0.0272
 5466SOL    HW227858   0.573   1.908  11.836 -1.2412  0.5840  1.3874
 5467SOL     OW27859   0.210   2.488  15.019  0.3280  0.0943 -0.4250
 5467SOL    HW127860   0.263   2.568  15.024  1.3947 -0.6949  0.7291
 5467SOL    HW227861   0.123   2.514  14.987  0.0140 -0.7106 -0.2092
 5468SOL     OW27862   2.183   4.111   7.476 -0.2373 -0.6991  0.5606
 5468SOL    HW127863   2.224   4.176   7.534  1.4956 -1.1858 -0.1120
 5468SOL    HW227864   2.147   4.054   7.544 -1.9480 -1.8483 -1.3135
 5469SOL     OW27865   3.301   0.246   3.213  0.4329 -0.4119  0.2495
 5469SOL    HW127866   3.261   0.178   3.267  0.3285 -0.0322  0.6521
 5469SOL    HW227867   3.280   0.206   3.129  1.3184 -0.5811  0.1088
 5470SOL     OW27868   3.727   3.284   6.884  0.4330  0.0939  0.2211
 5470SOL    HW127869   3.647   3.255   6.927  0.4499  0.7779  0.7230
 5470SOL    HW227870   3.696   3.339   6.812  2.6709 -0.6834 -1.3524
 5471SOL     OW27871   4.468   1.346   2.398  0.2617 -0.1635 -0.7153
 5471SOL    HW127872   4.552   1.325   2.438 -1.0441 -1.3124  1.4338
 5471SOL    HW227873   4.408   1.272   2.413  1.2682 -0.5329  1.5069
 5472SOL     OW27874   1.222   2.572  16.808 -0.2294 -0.4121 -0.0080
 5472SOL    HW127875   1.198   2.662  16.827  0.0418 -0.4141  0.3522
 5472SOL    HW227876   1.165   2.551  16.734 -0.2612 -0.7278  0.1042
 5473SOL     OW27877   4.512   2.770  10.849  0.7253 -0.1581 -0.6250
 5473SOL    HW127878   4.425   2.802  10.873  0.9319  0.8770 -1.2685
 5473SOL    HW227879   4.505   2.685  10.893 -0.1005  0.3003  0.1203
 5474SOL     OW27880   2.050   1.362   7.555  0.1516 -0.0191 -0.3236
 5474SOL    HW127881   2.062   1.363   7.460  1.7430 -2.2916 -0.1382
 5474SOL    HW227882   1.962   1.400   7.560  0.0336 -0.0823 -1.8457
 5475SOL     OW27883   1.036   3.765   3.666  0.4781  0.1489  0.0859
 5475SOL    HW127884   0.952   3.745   3.707 -0.0940  2.5250  0.0463
 5475SOL    HW227885   1.004   3.832   3.605  0.6660  1.7457  1.7474
 5476SOL     OW27886   2.524   2.078   5.816 -0.2858  0.2306 -0.1376
 5476SOL    HW127887   2.498   2.125   5.896 -0.2661  1.8970 -1.1185
 5476SOL    HW227888   2.434   2.060   5.792  0.3595  0.0249 -2.4033
 5477SOL     OW27889   1.126   4.377  17.385  0.2171  0.1657 -0.1000
 5477SOL    HW127890   1.196   4.319  17.417  0.2825  0.4621  0.2985
 5477SOL    HW227891   1.169   4.444  17.333  1.6516 -0.3831  0.3785
 5478SOL     OW27892   0.945   1.620   6.049 -0.1417 -0.0619 -0.3353
 5478SOL    HW127893   0.950   1.646   6.141  0.5842 -0.9926 -0.1049
 5478SOL    HW227894   0.951   1.708   6.010  2.8090  0.3304  1.0049
 5479SOL     OW27895   3.556   3.284   0.535  0.3363  0.2363 -0.1028
 5479SOL    HW127896   3.514   3.346   0.475  0.2942  2.1910  1.9738
 5479SOL    HW227897   3.552   3.204   0.483 -1.1546  0.1696  0.1060
 5480SOL     OW27898   0.389   1.015   3.850 -0.1803 -0.1915  0.3606
 5480SOL    HW127899   0.432   1.022   3.935 -0.8880 -1.8608  0.8370
 5480SOL    HW227900   0.462   1.004   3.789 -0.9281 -1.1532 -0.3638
 5481SOL     OW27901   1.346   4.524   7.528  0.1465 -0.0390 -0.4867
 5481SOL    HW127902   1.280   4.550   7.464 -0.6989  0.0558  0.4229
 5481SOL    HW227903   1.314   4.435   7.546 -0.4799  0.7442  2.3065
 5482SOL     OW27904   2.135   3.680   7.247 -0.4716 -0.2886  0.0535
 5482SOL    HW127905   2.082   3.759   7.248  1.1631  0.8208 -0.2090
 5482SOL    HW227906   2.070   3.610   7.244 -0.7977  0.0610 -1.3581
 5483SOL     OW27907   1.482   0.396   2.951 -0.6003 -0.7793  0.0310
 5483SOL    HW127908   1.475   0.336   3.025  1.7525 -1.5558 -0.3679
 5483SOL    HW227909   1.477   0.336   2.876 -1.0196  0.7017 -1.1132
 5484SOL     OW27910   3.044   3.989   5.394 -0.4272 -0.0616 -0.0053
 5484SOL    HW127911   2.952   4.016   5.400 -0.3956 -0.0190  0.2878
 5484SOL    HW227912   3.043   3.893   5.389 -0.6261  0.0252 -1.4938
 5485SOL     OW27913   0.212   1.196   2.671 -0.2865 -0.7513 -0.1658
 5485SOL    HW127914   0.117   1.185   2.662 -0.3364  0.9953 -1.9626
 5485SOL    HW227915   0.206   1.236   2.758  1.9592 -0.4774 -0.1286
 5486SOL     OW27916   4.292   0.247  17.162 -0.1383  0.0876  0.2319
 5486SOL    HW127917   4.238   0.221  17.088 -1.1627  0.9793  0.6598
 5486SOL    HW227918   4.241   0.207  17.232 -0.2467 -0.8953 -0.4109
 5487SOL     OW27919   0.900   2.644   1.215  0.4659 -0.2553  0.0887
 5487SOL    HW127920   0.936   2.686   1.137  0.2172  0.2802  0.2645
 5487SOL    HW227921   0.977   2.641   1.272 -0.3951 -2.0301  1.1863
 5488SOL     OW27922   0.568   4.166  16.518 -0.3998  0.5139  0.3752
 5488SOL    HW127923   0.479   4.163  16.555 -0.2176  0.6985  0.8219
 5488SOL    HW227924   0.590   4.254  16.549 -1.5509  0.6135  0.9352
 5489SOL     OW27925   2.113   1.863   9.588  0.2262  0.4426 -0.0713
 5489SOL    HW127926   2.160   1.943   9.611  0.6236  0.0415  0.5323
 5489SOL    HW227927   2.105   1.814   9.670 -0.0368 -0.5854 -0.7126
 5490SOL     OW27928   2.445   0.376   4.857  0.5182  0.2313 -0.5090
 5490SOL    HW127929   2.437   0.415   4.770 -0.3431  0.4781 -0.3186
 5490SOL    HW227930   2.436   0.281   4.849 -1.6593  0.5406 -1.5965
 5491SOL     OW27931   1.308   4.011   1.402  0.1051  0.4504  0.2162
 5491SOL    HW127932   1.281   3.954   1.330  2.3507 -0.4384  0.0516
 5491SOL    HW227933   1.242   4.079   1.396  0.4464  1.0191  2.5828
 5492SOL     OW27934   2.427   1.058   6.840  0.1636  0.1965 -0.0076
 5492SOL    HW127935   2.433   1.057   6.935  1.9746  1.5460 -0.1025
 5492SOL    HW227936   2.514   1.021   6.826  0.1723 -0.4726  1.8527
 5493SOL     OW27937   2.775   0.720   5.291 -0.4548 -0.3347 -0.3363
 5493SOL    HW127938   2.795   0.712   5.385 -1.5599 -0.2964 -0.0944
 5493SOL    HW227939   2.687   0.756   5.283 -1.8703 -3.4040  1.3703
 5494SOL     OW27940   2.928   0.165   3.645 -0.4604 -0.0045  0.3570
 5494SOL    HW127941   2.961   0.177   3.734  0.4246 -0.4992  0.0923
 5494SOL    HW227942   2.886   0.250   3.633 -1.6463 -0.5686  0.5400
 5495SOL     OW27943   3.816   1.989  16.274 -0.2713 -0.0199  0.4261
 5495SOL    HW127944   3.863   1.908  16.252  0.5826  0.3215  0.9924
 5495SOL    HW227945   3.866   2.059  16.231  0.2263 -0.6779 -0.0649
 5496SOL     OW27946   2.518   3.796  17.344 -0.2689  0.1046  0.2380
 5496SOL    HW127947   2.467   3.750  17.410 -2.8097  0.3368 -1.5722
 5496SOL    HW227948   2.524   3.880  17.389  0.1632  0.3762 -0.3276
 5497SOL     OW27949   3.654   1.944  17.010  0.2350 -0.9299 -0.0254
 5497SOL    HW127950   3.607   1.975  17.087 -2.1835 -0.3641 -1.7314
 5497SOL    HW227951   3.745   1.974  17.012 -0.6170  1.4254  3.5952
 5498SOL     OW27952   3.633   0.933   2.356 -0.4888  0.0516 -0.0353
 5498SOL    HW127953   3.600   0.888   2.434  0.5435  0.2789  0.5199
 5498SOL    HW227954   3.550   0.939   2.307 -0.3267  0.0231 -0.3154
 5499SOL     OW27955   0.647   3.445  12.184  0.4088  0.2097 -0.8979
 5499SOL    HW127956   0.653   3.477  12.273 -0.5473  1.2594 -1.2125
 5499SOL    HW227957   0.597   3.512  12.137 -1.1175  0.0730  0.5015
 5500SOL     OW27958   2.444   0.379   9.038  0.9944  0.1176  0.0163
 5500SOL    HW127959   2.446   0.288   9.068  0.9303  0.2359  0.3853
 5500SOL    HW227960   2.366   0.374   8.982  0.5169  1.6944  0.5467
 5501SOL     OW27961   1.726   2.826  13.893 -0.2616  0.4503  0.1026
 5501SOL    HW127962   1.810   2.791  13.862  0.3935  3.2224 -1.2770
 5501SOL    HW227963   1.742   2.921  13.888  0.6545  0.1915 -1.6826
 5502SOL     OW27964   2.498   3.214   3.646 -0.4420 -0.4043 -0.7527
 5502SOL    HW127965   2.456   3.144   3.695  0.1351 -1.9248 -2.4095
 5502SOL    HW227966   2.587   3.211   3.681 -1.9116 -2.8976  2.7454
 5503SOL     OW27967   1.962   1.124   1.090 -0.2398  0.2352  0.5623
 5503SOL    HW127968   1.894   1.185   1.064 -0.9902 -0.8597 -0.0458
 5503SOL    HW227969   1.969   1.152   1.181  0.6115  0.9175  0.2920
 5504SOL     OW27970   1.683   3.769   6.926 -0.3637  0.0248  0.3436
 5504SOL    HW127971   1.589   3.780   6.916 -0.2925  1.2376  0.9673
 5504SOL    HW227972   1.686   3.724   7.011 -0.7988 -0.3555  0.1540
 5505SOL     OW27973   1.674   1.982   6.389  0.5678  0.6040  0.0774
 5505SOL    HW127974   1.653   2.007   6.300  1.1408 -1.9618 -0.7861
 5505SOL    HW227975   1.619   1.906   6.411 -0.2791  1.7651  1.9953
 5506SOL     OW27976   1.048   1.870  15.421  0.1701  0.2456  0.0399
 5506SOL    HW127977   0.965   1.830  15.397  0.0339 -1.0414  2.6235
 5506SOL    HW227978   1.109   1.799  15.401 -2.1111 -2.4511  2.6068
 5507SOL     OW27979   4.615   0.568   5.484 -0.4030  0.5678  0.0975
 5507SOL    HW127980   4.586   0.554   5.574  0.8562 -1.9936  0.0930
 5507SOL    HW227981   4.653   0.655   5.486 -1.7713  1.1816 -0.3766
 5508SOL     OW27982   0.605   4.700  13.794 -0.1993  0.6070 -0.2652
 5508SOL    HW127983   0.608   4.663  13.706  1.0811 -0.1440  0.0909
 5508SOL    HW227984   0.689   4.665  13.825 -0.4369  1.4715  1.3784
 5509SOL     OW27985   0.550   0.871   9.350  0.0592  0.7053 -0.2066
 5509SOL    HW127986   0.544   0.799   9.287 -1.2995  0.6769 -0.0349
 5509SOL    HW227987   0.536   0.823   9.431 -1.8851 -0.9402 -1.5312
 5510SOL     OW27988   4.152   1.649   3.551 -0.5625 -0.5566  0.3557
 5510SOL    HW127989   4.141   1.709   3.478 -1.6866 -1.3636 -0.1552
 5510SOL    HW227990   4.173   1.559   3.526  0.8774 -1.0696  3.3499
 5511SOL     OW27991   3.723   3.642   9.041  0.1088  0.4878  0.3807
 5511SOL    HW127992   3.773   3.713   9.000  0.2488 -0.6364 -1.4051
 5511SOL    HW227993   3.712   3.571   8.977  1.0153  1.8270 -1.2734
 5512SOL     OW27994   0.679   0.536   4.398 -0.1887 -0.5625 -0.0921
 5512SOL    HW127995   0.715   0.617   4.433 -1.8988  0.0954  0.1369
 5512SOL    HW227996   0.652   0.491   4.478  0.1544 -1.9790 -0.7695
 5513SOL     OW27997   0.725   2.870   2.260 -0.1100 -0.0280 -0.3288
 5513SOL    HW127998   0.676   2.794   2.292 -0.0694  0.4097  0.7751
 5513SOL    HW227999   0.796   2.872   2.324 -0.3220  0.1584 -0.1007
 5514SOL     OW28000   0.878   3.414   7.403  0.5101  0.6893 -0.2452
 5514SOL    HW128001   0.909   3.345   7.461  0.7004  1.5215  0.6431
 5514SOL    HW228002   0.900   3.485   7.463  0.9557 -0.5805  1.0975
 5515SOL     OW28003   3.209   0.789   2.911  0.5532 -0.3667  0.2690
 5515SOL    HW128004   3.166   0.800   2.996 -0.0253  2.9401 -0.4875
 5515SOL    HW228005   3.137   0.783   2.849  1.3532 -0.9658 -0.6009
 5516SOL     OW28006   2.312   0.594   6.249  0.0086  0.0852  0.3807
 5516SOL    HW128007   2.257   0.637   6.314 -1.1914  0.3165 -0.7984
 5516SOL    HW228008   2.362   0.526   6.295 -2.1186 -2.0226 -0.4189
 5517SOL     OW28009   4.257   3.100   7.675 -0.2935  0.0759  0.1608
 5517SOL    HW128010   4.231   3.009   7.686  0.6627 -0.2474 -0.3665
 5517SOL    HW228011   4.212   3.127   7.595 -1.1868 -1.4268  0.1557
 5518SOL     OW28012   4.514   4.257   7.898 -0.3792  0.4275 -0.6174
 5518SOL    HW128013   4.575   4.324   7.868 -1.1081  0.6123 -1.6878
 5518SOL    HW228014   4.429   4.296   7.878  0.2746  2.2627  0.2310
 5519SOL     OW28015   2.891   0.709   7.686  0.2720 -0.5481  0.7018
 5519SOL    HW128016   2.832   0.658   7.630  2.4497  0.6390 -2.6179
 5519SOL    HW228017   2.954   0.735   7.619 -1.5429  2.1375  0.0719
 5520SOL     OW28018   2.188   0.316   4.417  0.0889 -0.3831  0.5788
 5520SOL    HW128019   2.117   0.378   4.432  0.6149  0.7023 -1.3493
 5520SOL    HW228020   2.152   0.262   4.347 -1.7505  2.5312 -0.7252
 5521SOL     OW28021   1.288   3.784  14.845  0.2871 -0.0814 -0.0301
 5521SOL    HW128022   1.368   3.784  14.792  1.0439  0.6387  1.1328
 5521SOL    HW228023   1.239   3.844  14.789  3.2531  0.7768 -1.7210
 5522SOL     OW28024   1.397   1.949  10.041  0.0466 -0.3971 -0.5542
 5522SOL    HW128025   1.309   1.985  10.032  0.5063  0.8180 -0.1156
 5522SOL    HW228026   1.429   1.999  10.116  0.0864 -0.4874 -0.5102
 5523SOL     OW28027   3.383   3.814   8.044  0.1060  0.5585  0.2734
 5523SOL    HW128028   3.301   3.780   8.078  0.6107 -0.9583 -0.0455
 5523SOL    HW228029   3.412   3.880   8.108  2.9269 -1.1153  0.7098
 5524SOL     OW28030   4.323   0.416   5.781 -0.2471 -0.4386  0.4128
 5524SOL    HW128031   4.412   0.441   5.806 -0.3818  1.2843 -0.8726
 5524SOL    HW228032   4.339   0.362   5.704 -1.8439  0.4641 -0.5428
 5525SOL     OW28033   4.448   1.479   9.642  0.7611 -0.6365 -0.2969
 5525SOL    HW128034   4.375   1.417   9.649  1.1490 -1.1594 -0.8851
 5525SOL    HW228035   4.406   1.549   9.693 -0.1194 -0.3749 -1.3758
 5526SOL     OW28036   3.712   3.363   7.402 -0.6408 -0.9079 -0.1925
 5526SOL    HW128037   3.736   3.410   7.322 -2.5191 -0.5859 -0.5604
 5526SOL    HW228038   3.622   3.331   7.390 -1.1339 -0.4875  2.5181
 5527SOL     OW28039   0.267   1.963   1.552 -0.0132 -0.1238  0.4691
 5527SOL    HW128040   0.298   1.914   1.628 -2.6154 -2.1754  0.2035
 5527SOL    HW228041   0.175   1.951   1.572 -0.5474  0.7467 -1.4801
 5528SOL     OW28042   2.658   3.524   7.444  0.4012 -0.1503  0.2651
 5528SOL    HW128043   2.717   3.578   7.496 -1.7908  1.2466  1.2827
 5528SOL    HW228044   2.717   3.482   7.382  0.4463  0.9714 -0.4472
 5529SOL     OW28045   2.686   2.251   5.666  0.0643  0.4798  0.0744
 5529SOL    HW128046   2.602   2.232   5.708 -0.3027  1.1061 -0.3669
 5529SOL    HW228047   2.746   2.184   5.697 -2.8570 -1.1906  2.1300
 5530SOL     OW28048   0.144   2.826   3.615 -0.5855 -0.0720  0.1494
 5530SOL    HW128049   0.132   2.739   3.577  1.9172 -0.4595  0.2322
 5530SOL    HW228050   0.121   2.803   3.705 -2.4517  0.5273 -0.1801
 5531SOL     OW28051   4.423   3.385   7.329  0.1403  0.3845  0.2938
 5531SOL    HW128052   4.429   3.296   7.296 -2.8143  0.1146  0.4887
 5531SOL    HW228053   4.511   3.411   7.358  0.7280 -1.5441  0.2260
 5532SOL     OW28054   0.407   0.159   3.912 -0.2587  0.4572 -0.8266
 5532SOL    HW128055   0.470   0.112   3.966  0.8194 -0.1864 -2.6689
 5532SOL    HW228056   0.321   0.127   3.941  0.7043 -0.0067  1.4643
 5533SOL     OW28057   1.678   1.294   5.755  0.0343 -0.4052 -0.1518
 5533SOL    HW128058   1.723   1.213   5.730  1.2501 -0.5186  2.3937
 5533SOL    HW228059   1.592   1.254   5.764 -0.2862 -0.3771 -3.1156
 5534SOL     OW28060   2.999   1.595   6.597 -0.0222  0.1668 -0.2071
 5534SOL    HW128061   2.904   1.603   6.601  0.0252  0.6351 -0.0478
 5534SOL    HW228062   3.020   1.676   6.551 -0.6399 -1.0675 -2.6582
 5535SOL     OW28063   3.093   0.186   2.983  0.9007  0.2239 -0.6182
 5535SOL    HW128064   3.089   0.116   2.918  0.7135  0.1004 -0.4757
 5535SOL    HW228065   3.100   0.268   2.934 -1.3567  0.5040 -0.4991
 5536SOL     OW28066   2.908   1.514   3.229 -0.4060  0.3012  0.1194
 5536SOL    HW128067   2.961   1.538   3.305 -0.8507  0.5521  0.3524
 5536SOL    HW228068   2.986   1.499   3.177  0.0477 -0.7848  1.1123
 5537SOL     OW28069   0.030   2.969   4.250 -0.3261  0.1257 -0.3535
 5537SOL    HW128070   4.671   2.918   4.252 -0.3166  0.1107 -0.3481
 5537SOL    HW228071   0.046   2.983   4.343 -1.4233 -0.9581  0.0038
 5538SOL     OW28072   2.011   3.873   4.555 -0.0735 -0.3597  0.1772
 5538SOL    HW128073   2.065   3.922   4.492 -1.7392  1.4820  0.2001
 5538SOL    HW228074   1.940   3.851   4.494  1.2421  1.5759 -2.0543
 5539SOL     OW28075   2.531   3.839   4.600 -0.3340 -0.0768 -0.1671
 5539SOL    HW128076   2.535   3.869   4.509 -0.7094 -0.3979 -0.2889
 5539SOL    HW228077   2.546   3.921   4.646 -1.7059  0.8166 -1.2928
 5540SOL     OW28078   3.160   1.456   5.950  0.2315 -0.4770 -0.0652
 5540SOL    HW128079   3.208   1.523   5.998 -0.2482  1.2819 -2.0191
 5540SOL    HW228080   3.139   1.388   6.014 -1.8694  0.7766  0.5770
 5541SOL     OW28081   3.936   0.112   3.138  0.2030 -0.0500  0.4039
 5541SOL    HW128082   3.944   0.113   3.043  0.8286  2.0891  0.4835
 5541SOL    HW228083   3.850   0.074   3.159  0.7246 -2.4503 -1.8977
 5542SOL     OW28084   1.182   3.127   6.770 -0.1559  0.2836  0.3109
 5542SOL    HW128085   1.210   3.044   6.807 -3.7769 -0.9943  0.1908
 5542SOL    HW228086   1.168   3.097   6.680  2.7375  0.1540 -0.0966
 5543SOL     OW28087   0.652   0.572  14.616  0.3822 -0.7688 -0.0894
 5543SOL    HW128088   0.648   0.594  14.709  0.7623  1.9139 -0.7109
 5543SOL    HW228089   0.661   0.661  14.581 -0.7967 -0.4893  0.3184
 5544SOL     OW28090   1.475   3.339   3.016  0.1608 -0.9732 -0.1732
 5544SOL    HW128091   1.502   3.410   2.958 -1.9950  1.1880  1.4625
 5544SOL    HW228092   1.556   3.330   3.066 -0.0366  1.6243  0.6101
 5545SOL     OW28093   4.551   1.658   3.970  0.4302 -0.3258 -0.2348
 5545SOL    HW128094   4.624   1.720   3.962 -1.1424  1.4205 -1.1144
 5545SOL    HW228095   4.562   1.608   3.890  0.1038 -0.8308  0.0401
 5546SOL     OW28096   2.202   2.935   3.502 -0.1239 -0.3707  0.1678
 5546SOL    HW128097   2.132   2.869   3.506  0.3880 -0.9069  0.4077
 5546SOL    HW228098   2.153   3.016   3.514 -0.4774 -0.5852  0.1772
 5547SOL     OW28099   0.507   4.366   7.276 -0.1000 -0.0331 -0.0097
 5547SOL    HW128100   0.577   4.394   7.217  1.1497 -1.8864  0.5923
 5547SOL    HW228101   0.565   4.323   7.338  1.1482 -0.2927 -1.3501
 5548SOL     OW28102   4.708   4.359  12.915 -0.2057  0.2026 -0.3805
 5548SOL    HW128103   4.637   4.315  12.962  1.5918 -0.4351  1.7644
 5548SOL    HW228104   0.008   4.426  12.979 -2.5454 -0.6579  1.3618
 5549SOL     OW28105   2.980   2.708   9.255  0.8184  0.4275 -0.0317
 5549SOL    HW128106   3.025   2.776   9.205 -1.1634  1.9584  0.2606
 5549SOL    HW228107   2.897   2.697   9.208 -0.1817  1.7742  1.4383
 5550SOL     OW28108   1.835   1.291   3.654  0.4045  0.0139 -0.1106
 5550SOL    HW128109   1.882   1.217   3.616 -2.0555 -1.2261 -0.7472
 5550SOL    HW228110   1.829   1.350   3.580  0.1213  2.5344  1.9020
 5551SOL     OW28111   0.028   4.528   4.708 -0.1222  0.6872  0.0951
 5551SOL    HW128112   4.664   4.569   4.698 -1.2401 -1.7306 -0.1782
 5551SOL    HW228113   0.081   4.606   4.693  0.9504 -0.0552  0.0635
 5552SOL     OW28114   0.668   3.964   4.127  0.0015 -0.0201 -0.1350
 5552SOL    HW128115   0.726   4.016   4.072  0.0303  2.5383  2.2547
 5552SOL    HW228116   0.677   3.877   4.089 -0.2211 -0.4958  0.8840
 5553SOL     OW28117   3.562   1.231   3.294  0.2238 -0.1348 -0.2043
 5553SOL    HW128118   3.548   1.138   3.311  1.5220 -0.5831 -1.5735
 5553SOL    HW228119   3.478   1.257   3.332  1.2431  0.4092  1.7015
 5554SOL     OW28120   4.470   0.255   8.563  0.1252  0.1132  0.0689
 5554SOL    HW128121   4.377   0.271   8.548  0.1171  0.5664  0.6032
 5554SOL    HW228122   4.466   0.160   8.553 -0.4779 -0.0406  1.7565
 5555SOL     OW28123   0.081   4.234  14.010 -0.0181 -0.5208  0.3431
 5555SOL    HW128124   0.072   4.274  14.096  1.7737  0.4535  0.0762
 5555SOL    HW228125   0.171   4.204  14.000  1.0954  2.8531  0.3855
 5556SOL     OW28126   0.019   3.287  10.283  0.0711 -0.1304 -0.2712
 5556SOL    HW128127   0.002   3.381  10.296  1.7838  0.0023  1.0052
 5556SOL    HW228128   0.000   3.259  10.373 -2.4338  0.8192 -0.4847
 5557SOL     OW28129   0.120   0.837   5.973  0.7151 -0.0850 -0.2189
 5557SOL    HW128130   0.041   0.783   5.973 -0.9711  2.4233  1.0031
 5557SOL    HW228131   0.188   0.770   5.982  2.1000  1.3708  0.0560
 5558SOL     OW28132   0.235   4.149  13.615  0.3727 -0.0331  0.0027
 5558SOL    HW128133   0.176   4.077  13.596  2.5381 -1.7639 -0.1279
 5558SOL    HW228134   0.298   4.117  13.680 -0.2785  0.2035  0.7430
 5559SOL     OW28135   4.178   3.759   7.286  0.0681 -0.2767  0.4649
 5559SOL    HW128136   4.251   3.713   7.247  0.3792  1.1726 -0.6502
 5559SOL    HW228137   4.147   3.707   7.361 -1.3350 -2.2529 -1.4816
 5560SOL     OW28138   1.292   2.178   9.612 -0.0487  0.5249 -0.1235
 5560SOL    HW128139   1.296   2.250   9.548  1.7991  1.3839  0.9656
 5560SOL    HW228140   1.197   2.176   9.623  0.1951  2.3886  2.3054
 5561SOL     OW28141   2.136   4.552  10.949  0.0789  0.0042  0.2001
 5561SOL    HW128142   2.139   4.535  10.855 -1.7037 -3.3457  0.7476
 5561SOL    HW228143   2.209   4.498  10.980 -0.3072 -1.5746 -1.6795
 5562SOL     OW28144   2.562   0.312   9.502  0.3879 -0.7219  0.0055
 5562SOL    HW128145   2.625   0.335   9.434  0.5400  2.2252  1.1096
 5562SOL    HW228146   2.603   0.231   9.534  0.4489 -0.2777  1.0545
 5563SOL     OW28147   0.959   2.864   6.895  0.0407  0.2317 -0.1203
 5563SOL    HW128148   0.931   2.955   6.903  0.3883  0.1614  1.8478
 5563SOL    HW228149   1.046   2.855   6.858 -0.3542 -3.0893 -0.2587
 5564SOL     OW28150   0.180   4.331   1.773 -0.2039  0.4738 -0.1218
 5564SOL    HW128151   0.178   4.426   1.784  0.9168  0.1028  3.1715
 5564SOL    HW228152   0.100   4.317   1.722  0.7441  1.6254 -1.9296
 5565SOL     OW28153   4.601   0.111  17.118  0.1547 -0.3277 -0.3026
 5565SOL    HW128154   4.591   0.149  17.205  0.0476  0.4984 -0.6690
 5565SOL    HW228155   4.509   0.089  17.100 -0.3555  0.5140  1.2677
 5566SOL     OW28156   1.253   0.407   3.223  1.0427  0.4173  0.7175
 5566SOL    HW128157   1.245   0.332   3.164  0.5260  0.4081  0.7946
 5566SOL    HW228158   1.159   0.417   3.238  0.6137  0.4494 -2.0039
 5567SOL     OW28159   4.035   2.520  11.319  0.0320 -0.2925  0.7144
 5567SOL    HW128160   4.044   2.426  11.337  0.2310 -0.5404 -0.6459
 5567SOL    HW228161   4.042   2.519  11.223  0.6089 -1.8429  0.7634
 5568SOL     OW28162   0.598   3.316  15.236  0.1780 -0.4990  0.1796
 5568SOL    HW128163   0.639   3.380  15.294  0.6502 -1.0707  0.4761
 5568SOL    HW228164   0.634   3.350  15.154 -0.0967 -1.4919 -0.3647
 5569SOL     OW28165   1.559   2.662  15.395  0.1597  0.3651 -0.0095
 5569SOL    HW128166   1.516   2.586  15.355  0.7841 -0.8951  1.7251
 5569SOL    HW228167   1.646   2.623  15.382 -0.3585 -0.8665  0.2875
 5570SOL     OW28168   1.979   4.210  14.368 -0.0839  0.1577  0.0476
 5570SOL    HW128169   1.916   4.185  14.301  1.0313 -1.4355 -0.3994
 5570SOL    HW228170   2.030   4.132  14.390 -1.1722 -1.1119 -1.9253
 5571SOL     OW28171   4.622   4.355   0.366 -0.0918 -0.1957 -0.0790
 5571SOL    HW128172   4.546   4.347   0.424 -0.2675 -0.6423 -0.3776
 5571SOL    HW228173   4.608   4.441   0.328  0.1674  0.6821  1.7768
 5572SOL     OW28174   1.008   2.047   9.425 -0.5403  0.8181  0.7399
 5572SOL    HW128175   1.031   2.099   9.503 -0.6786  0.6089  0.9195
 5572SOL    HW228176   0.983   1.965   9.467  0.8284  1.4321  2.7804
 5573SOL     OW28177   4.008   0.101   1.755  0.4036 -0.3070  0.2540
 5573SOL    HW128178   3.980   0.027   1.810  3.0752 -2.0404 -0.7395
 5573SOL    HW228179   4.086   0.135   1.798  0.9099  2.4166 -2.8842
 5574SOL     OW28180   1.777   0.952   6.602  0.0878 -0.2088  0.1542
 5574SOL    HW128181   1.699   0.981   6.555  0.2091  1.3674  0.9205
 5574SOL    HW228182   1.840   0.943   6.531  0.0863  0.2831  0.0880
 5575SOL     OW28183   0.810   0.357   5.520  0.3767 -0.4683 -0.3350
 5575SOL    HW128184   0.757   0.329   5.595  0.0870 -0.9815 -0.7311
 5575SOL    HW228185   0.804   0.452   5.531 -3.8765 -0.9608  1.6953
 5576SOL     OW28186   2.153   1.256  11.598  0.0927 -0.5252  0.2661
 5576SOL    HW128187   2.242   1.232  11.573  0.3472  0.0917  0.5824
 5576SOL    HW228188   2.128   1.174  11.640 -0.8308  0.0417  0.8140
 5577SOL     OW28189   1.017   1.614  17.665  0.5082  0.1775  0.3114
 5577SOL    HW128190   1.069   1.571   0.040  0.3043  0.6842  0.7831
 5577SOL    HW228191   1.081   1.672  17.624  1.1819 -0.3646  0.5906
 5578SOL     OW28192   2.209   1.785   2.639  0.0239 -0.5036  0.2196
 5578SOL    HW128193   2.253   1.759   2.719  0.8888 -0.5840 -0.2839
 5578SOL    HW228194   2.210   1.880   2.626  0.2351 -0.3649  1.3213
 5579SOL     OW28195   2.427   0.600   5.971 -0.0383  0.1554  0.2333
 5579SOL    HW128196   2.511   0.554   5.976 -0.8950 -1.3942  0.4440
 5579SOL    HW228197   2.399   0.591   6.062  0.0398 -0.3113  0.2101
 5580SOL     OW28198   4.315   4.458   4.015 -0.1518 -0.1672 -0.3773
 5580SOL    HW128199   4.408   4.481   4.017 -0.1604  0.0205 -2.1766
 5580SOL    HW228200   4.316   4.368   3.981  0.1890 -0.8382  1.4120
 5581SOL     OW28201   2.147   1.807  17.499 -0.3709  0.0395  0.0673
 5581SOL    HW128202   2.109   1.868  17.436  1.2020 -0.0497 -0.9888
 5581SOL    HW228203   2.212   1.860  17.544  0.8102  0.0332 -1.6006
 5582SOL     OW28204   1.165   3.027   6.527  0.0103 -0.2185  0.3064
 5582SOL    HW128205   1.257   3.002   6.517  0.0250 -0.4485  1.0513
 5582SOL    HW228206   1.125   2.977   6.456 -0.8396 -2.5802  2.4592
 5583SOL     OW28207   0.283   1.910  11.767  0.1896  0.0684  0.3230
 5583SOL    HW128208   0.319   1.821  11.777 -1.4142 -0.4292  1.8337
 5583SOL    HW228209   0.250   1.928  11.855  0.0998  0.4703  0.2065
 5584SOL     OW28210   0.683   0.516  13.587 -0.3692 -0.1420 -0.6938
 5584SOL    HW128211   0.696   0.457  13.662 -1.1594  1.2800  0.5737
 5584SOL    HW228212   0.700   0.448  13.522  1.4148  0.5021 -0.8962
 5585SOL     OW28213   2.608   2.231   7.286 -0.1480 -1.0937  0.0689
 5585SOL    HW128214   2.664   2.190   7.353 -0.2152 -1.6994 -0.2491
 5585SOL    HW228215   2.648   2.211   7.202 -0.4039 -0.5762 -0.1728
 5586SOL     OW28216   3.203   3.850  12.905  0.1547 -0.1296  0.5240
 5586SOL    HW128217   3.135   3.868  12.840  1.3945  2.3367 -0.1145
 5586SOL    HW228218   3.220   3.758  12.885  2.3208  0.3896 -0.0144
 5587SOL     OW28219   3.597   0.262   3.836 -0.4325 -0.6172  0.6784
 5587SOL    HW128220   3.671   0.317   3.862  0.7874 -0.0808 -3.8987
 5587SOL    HW228221   3.625   0.172   3.846 -1.3263 -0.8411  1.2042
 5588SOL     OW28222   1.602   3.371   6.542 -0.1816  0.4345 -0.3621
 5588SOL    HW128223   1.598   3.354   6.636 -2.6149 -0.2864 -0.6030
 5588SOL    HW228224   1.509   3.367   6.522 -0.1726 -2.4088  0.1254
 5589SOL     OW28225   2.745   4.217   1.465 -0.4584 -0.2514  0.4595
 5589SOL    HW128226   2.665   4.237   1.513 -0.7147  1.8094 -0.8629
 5589SOL    HW228227   2.730   4.125   1.444 -2.0300  0.0546  0.2509
 5590SOL     OW28228   4.356   3.797   1.094  0.4419 -0.5399 -0.1190
 5590SOL    HW128229   4.333   3.744   1.170  0.0338  1.8694  1.4475
 5590SOL    HW228230   4.325   3.883   1.123 -0.9031 -0.2302 -2.4391
 5591SOL     OW28231   0.488   0.109   5.780 -0.4174 -0.1409 -0.8408
 5591SOL    HW128232   0.472   0.119   5.874  2.7577 -0.0278 -0.3311
 5591SOL    HW228233   0.406   0.075   5.744 -0.8644 -0.4805  0.5186
 5592SOL     OW28234   0.616   3.443   2.426  0.1926  0.1213 -0.9665
 5592SOL    HW128235   0.639   3.372   2.366 -2.2275  0.8339 -2.7395
 5592SOL    HW228236   0.535   3.403   2.459  1.2057  0.1838  1.5564
 5593SOL     OW28237   1.351   3.152  15.268  0.2978 -0.0438  0.2242
 5593SOL    HW128238   1.274   3.096  15.277  0.4982 -0.1323  1.3063
 5593SOL    HW228239   1.410   3.086  15.232 -0.5105 -0.5489 -0.1686
 5594SOL     OW28240   2.710   1.815   6.713 -0.2088 -0.4740  0.3865
 5594SOL    HW128241   2.623   1.835   6.748  0.7672  1.1894  1.8709
 5594SOL    HW228242   2.684   1.796   6.623 -2.2771 -2.0343  1.3112
 5595SOL     OW28243   3.923   1.923   7.603  0.2827 -0.3056 -0.8997
 5595SOL    HW128244   3.969   2.003   7.628  0.3665 -1.1110  1.5221
 5595SOL    HW228245   3.838   1.932   7.646 -0.1873 -1.2534 -1.6309
 5596SOL     OW28246   2.512   1.950   2.744 -0.0494 -0.2583  0.2309
 5596SOL    HW128247   2.489   1.936   2.652 -2.1113  0.7173  0.5870
 5596SOL    HW228248   2.553   2.036   2.738 -0.9512  0.3043  2.3156
 5597SOL     OW28249   2.425   2.326   6.016  0.1573 -0.0921  0.5710
 5597SOL    HW128250   2.403   2.344   6.108  0.5100 -0.2720  0.6895
 5597SOL    HW228251   2.343   2.338   5.967 -1.3952  1.1109  3.4480
 5598SOL     OW28252   0.825   3.768   1.010  0.6230  0.2049 -0.2481
 5598SOL    HW128253   0.830   3.858   0.980 -1.6337  0.9468  1.6430
 5598SOL    HW228254   0.733   3.760   1.035  0.3885 -1.9894 -1.7908
 5599SOL     OW28255   3.519   2.359   2.000 -0.3540 -0.2486 -0.3041
 5599SOL    HW128256   3.559   2.432   1.954 -0.6999  0.4161  0.4453
 5599SOL    HW228257   3.433   2.399   2.018  0.4174  1.7976 -1.2234
 5600SOL     OW28258   1.695   1.641   0.255 -0.0695 -0.7252 -0.1418
 5600SOL    HW128259   1.717   1.671   0.167  0.7016 -0.4433  0.1533
 5600SOL    HW228260   1.761   1.574   0.272  0.3067 -0.2661  0.1963
 5601SOL     OW28261   2.027   3.692   7.929  0.4796 -0.3927 -0.2599
 5601SOL    HW128262   2.029   3.787   7.931 -4.0153 -0.2795 -0.0071
 5601SOL    HW228263   2.054   3.675   8.019  3.1398 -1.0968 -1.1986
 5602SOL     OW28264   2.757   2.120   7.781 -0.2038 -0.2895 -0.1665
 5602SOL    HW128265   2.814   2.132   7.857  0.0117 -2.1917 -0.0288
 5602SOL    HW228266   2.710   2.041   7.806 -2.4144  0.6927 -1.2183
 5603SOL     OW28267   0.096   1.572   7.134  0.5531  0.4215 -0.2529
 5603SOL    HW128268   0.047   1.554   7.215  0.9448 -1.4390 -0.4165
 5603SOL    HW228269   0.187   1.582   7.163 -0.0815  1.5922  1.3295
 5604SOL     OW28270   1.051   1.214  13.090 -0.0668  0.0476  0.0098
 5604SOL    HW128271   0.965   1.227  13.051 -0.6671  1.6712  1.9084
 5604SOL    HW228272   1.078   1.299  13.125 -0.3163  0.5516 -1.0139
 5605SOL     OW28273   2.816   0.922   2.886 -0.7846  0.0791  0.1103
 5605SOL    HW128274   2.817   0.827   2.872  0.5696  0.1770 -0.4838
 5605SOL    HW228275   2.818   0.933   2.981  0.3243  1.9905 -0.1300
 5606SOL     OW28276   3.136   3.842  11.894 -0.2016 -0.5641  0.1420
 5606SOL    HW128277   3.072   3.812  11.829 -0.5566  0.1349  0.1731
 5606SOL    HW228278   3.073   3.848  11.965 -0.6025  2.5491 -0.4644
 5607SOL     OW28279   4.317   2.572  10.943 -0.0832  0.1171 -0.2939
 5607SOL    HW128280   4.379   2.513  10.901  1.8166  1.4037  0.6871
 5607SOL    HW228281   4.264   2.505  10.985  0.1109  0.2559  0.1736
 5608SOL     OW28282   4.647   1.884  11.981 -0.4895 -0.0889 -0.6327
 5608SOL    HW128283   4.624   1.976  11.964 -0.2782  0.0322 -0.2535
 5608SOL    HW228284   4.569   1.856  12.029  0.5909 -3.2834 -0.7590
 5609SOL     OW28285   0.630   3.392   7.558  0.8677  0.2068 -0.4576
 5609SOL    HW128286   0.610   3.477   7.520 -1.0265 -0.4552 -0.9305
 5609SOL    HW228287   0.710   3.361   7.517 -0.9279  0.1852 -3.9151
 5610SOL     OW28288   4.604   0.227   8.246 -0.0322 -0.0522  0.1079
 5610SOL    HW128289   4.560   0.261   8.168 -2.0865 -1.0021  0.8463
 5610SOL    HW228290   4.526   0.175   8.265  0.2363 -0.5418 -0.1214
 5611SOL     OW28291   1.137   2.120   6.440  0.1539 -0.7975 -0.5526
 5611SOL    HW128292   1.054   2.109   6.394  0.6489 -0.9818 -1.4028
 5611SOL    HW228293   1.187   2.162   6.370  0.0674 -0.0652 -0.1696
 5612SOL     OW28294   0.559   3.317  12.888 -0.4194 -0.2119  0.2322
 5612SOL    HW128295   0.552   3.274  12.973 -1.0056 -0.9910 -0.2088
 5612SOL    HW228296   0.526   3.403  12.913 -0.4855 -0.1668 -0.0111
 5613SOL     OW28297   3.436   3.477   6.349 -0.0275 -0.0223  0.0258
 5613SOL    HW128298   3.428   3.434   6.434  0.1718 -2.7631 -1.3493
 5613SOL    HW228299   3.436   3.409   6.281  0.2615  0.4608 -0.4543
 5614SOL     OW28300   1.745   3.671  11.801 -0.3618  0.0865  0.0965
 5614SOL    HW128301   1.702   3.603  11.853 -0.2043  1.4107  1.9708
 5614SOL    HW228302   1.822   3.691  11.855  0.5481 -0.3084 -1.0602
 5615SOL     OW28303   3.757   1.668  16.677 -0.0868 -0.0062 -0.0044
 5615SOL    HW128304   3.776   1.657  16.770 -0.2927  2.3177  0.2911
 5615SOL    HW228305   3.848   1.664  16.646  0.1132  0.4510  0.5306
 5616SOL     OW28306   4.109   1.340  13.304  0.4083 -0.2714 -0.7091
 5616SOL    HW128307   4.196   1.333  13.265  0.8161  1.6240 -0.1535
 5616SOL    HW228308   4.100   1.253  13.342  0.0009 -1.7461 -4.2218
 5617SOL     OW28309   3.502   2.785   6.851 -0.3965  0.3689  0.0423
 5617SOL    HW128310   3.493   2.768   6.757  0.4892 -0.6339  0.1422
 5617SOL    HW228311   3.597   2.783   6.864 -0.0784  1.6862 -2.0222
 5618SOL     OW28312   2.774   2.516  10.188 -0.0069  0.2723  0.1146
 5618SOL    HW128313   2.857   2.564  10.193  0.1586 -0.0403  0.4157
 5618SOL    HW228314   2.802   2.436  10.143  1.8769  1.1476 -0.2722
 5619SOL     OW28315   2.814   3.133  11.620 -0.1456 -0.2089 -0.0631
 5619SOL    HW128316   2.761   3.074  11.567 -0.0508  1.1357 -1.6521
 5619SOL    HW228317   2.902   3.122  11.584  0.2050  1.7370  0.1714
 5620SOL     OW28318   2.836   2.517   2.451 -0.5489 -0.0248  0.1026
 5620SOL    HW128319   2.925   2.509   2.485 -0.1283  2.7459 -0.3550
 5620SOL    HW228320   2.853   2.552   2.363  1.9480 -0.5051  0.3837
 5621SOL     OW28321   1.894   0.960   9.870 -0.2206 -0.4294  0.7655
 5621SOL    HW128322   1.822   0.956   9.933 -0.1686 -3.4465  0.6307
 5621SOL    HW228323   1.919   1.052   9.876 -0.7158 -0.2686  0.3479
 5622SOL     OW28324   3.428   1.500   3.512  0.3273  0.0115 -0.9328
 5622SOL    HW128325   3.391   1.439   3.448 -1.6629 -0.9748  1.1529
 5622SOL    HW228326   3.349   1.532   3.556  0.1956 -0.1213 -1.0721
 5623SOL     OW28327   4.090   4.074  12.591  0.1880 -0.2370  0.4929
 5623SOL    HW128328   3.997   4.075  12.615  0.2873 -0.0988  0.8733
 5623SOL    HW228329   4.117   4.018  12.664 -0.7111 -0.8508  0.3566
 5624SOL     OW28330   2.736   3.030   2.928  0.3459  0.0020 -0.3591
 5624SOL    HW128331   2.818   3.006   2.970  0.2128  0.3148  0.0723
 5624SOL    HW228332   2.680   2.960   2.962 -0.7806 -0.0965 -2.3791
 5625SOL     OW28333   3.682   4.684  15.238 -0.0135  0.1212  0.1247
 5625SOL    HW128334   3.744   4.626  15.282 -0.1551 -2.5883 -3.2994
 5625SOL    HW228335   3.638   0.002  15.312 -0.0374 -0.7679  0.6009
 5626SOL     OW28336   0.253   3.078  14.198 -0.0064  0.2341 -0.1737
 5626SOL    HW128337   0.315   3.010  14.223 -1.1355 -0.8404 -0.2651
 5626SOL    HW228338   0.301   3.158  14.180 -1.1699  1.1040  0.5745
 5627SOL     OW28339   3.172   2.118   0.321 -0.3119 -0.0692 -0.4560
 5627SOL    HW128340   3.147   2.132   0.413 -1.7191 -2.1873 -0.5008
 5627SOL    HW228341   3.183   2.204   0.281 -1.4077  1.2771  2.1027
 5628SOL     OW28342   4.560   1.910   8.731  0.2446 -0.7039 -0.2604
 5628SOL    HW128343   4.467   1.904   8.711  0.2522  0.5339 -0.6865
 5628SOL    HW228344   4.584   1.993   8.689 -1.0520  0.5297  1.4267
 5629SOL     OW28345   3.597   4.712  11.214 -0.2158 -0.1669  0.1618
 5629SOL    HW128346   3.555   0.063  11.170 -1.6779  0.5483  2.7329
 5629SOL    HW228347   3.675   0.036  11.245 -0.5519  0.7800 -0.4273
 5630SOL     OW28348   3.033   2.095   7.854  0.0090 -0.1913  0.2396
 5630SOL    HW128349   3.017   2.008   7.890 -2.2143  0.1945  0.2210
 5630SOL    HW228350   3.110   2.112   7.908 -0.4313  1.1476  0.4511
 5631SOL     OW28351   1.672   2.669   2.990 -0.5470  0.0094 -0.0561
 5631SOL    HW128352   1.591   2.719   2.977 -0.4209  0.0928 -0.5445
 5631SOL    HW228353   1.748   2.712   2.951 -0.5829 -1.3205 -1.6033
 5632SOL     OW28354   3.775   0.737   3.924 -0.3984  0.3027 -0.4491
 5632SOL    HW128355   3.835   0.755   3.852 -0.3958  0.8732 -0.3047
 5632SOL    HW228356   3.711   0.807   3.910 -1.0102 -0.4157 -1.2898
 5633SOL     OW28357   0.484   1.924   5.672 -0.0310 -0.2263  0.8026
 5633SOL    HW128358   0.441   1.848   5.711  0.3741 -0.6599  0.4122
 5633SOL    HW228359   0.498   1.886   5.585  0.8256  1.6557  0.1013
 5634SOL     OW28360   3.330   0.705   9.215  0.4275 -0.6251 -0.0117
 5634SOL    HW128361   3.389   0.652   9.268  0.1931 -0.0973  0.7906
 5634SOL    HW228362   3.258   0.736   9.270 -0.1637 -0.1202 -1.0644
 5635SOL     OW28363   4.169   1.869   5.908 -0.1105 -0.4628  0.1042
 5635SOL    HW128364   4.162   1.954   5.865 -0.9223 -1.7649 -2.3608
 5635SOL    HW228365   4.168   1.905   5.997  0.4428  0.9360 -0.4618
 5636SOL     OW28366   0.832   1.220  15.058  0.7254 -0.0808 -0.4966
 5636SOL    HW128367   0.770   1.150  15.036  0.3610  0.6781 -1.8424
 5636SOL    HW228368   0.834   1.215  15.153 -2.4689  4.4666 -0.2112
 5637SOL     OW28369   3.077   1.345   6.217 -0.1440  0.3756 -0.2838
 5637SOL    HW128370   3.098   1.428   6.259 -0.4819 -1.1716  2.9399
 5637SOL    HW228371   2.995   1.321   6.261 -0.6838  0.9008 -1.0092
 5638SOL     OW28372   2.244   4.433  12.970 -0.1126  0.6946  0.3836
 5638SOL    HW128373   2.169   4.490  12.984 -0.8418 -0.8045  2.5634
 5638SOL    HW228374   2.273   4.473  12.888  1.2968 -0.3582  0.3469
 5639SOL     OW28375   4.289   1.556   3.251  0.1370 -0.1908  0.5451
 5639SOL    HW128376   4.266   1.468   3.221  0.4019 -0.9771  2.6101
 5639SOL    HW228377   4.380   1.569   3.224  0.7281 -1.5580  1.8774
 5640SOL     OW28378   1.497   1.133   1.870  0.6044 -0.1771 -0.4409
 5640SOL    HW128379   1.425   1.114   1.931 -0.1303  1.3701 -0.8300
 5640SOL    HW228380   1.565   1.073   1.901 -0.5712 -0.2218  2.0683
 5641SOL     OW28381   3.321   3.189   3.856 -0.0709 -0.2444  0.3132
 5641SOL    HW128382   3.358   3.115   3.904  0.0257 -0.3547  0.0678
 5641SOL    HW228383   3.367   3.176   3.773  0.1121 -0.7112  0.4885
 5642SOL     OW28384   2.517   2.898   4.761 -0.7469  0.3748  0.3886
 5642SOL    HW128385   2.475   2.840   4.698  2.3392 -0.8624 -0.5385
 5642SOL    HW228386   2.573   2.952   4.706 -0.5037 -0.1853  0.0890
 5643SOL     OW28387   4.668   4.239  12.691  0.1027  0.3085 -0.1533
 5643SOL    HW128388   4.681   4.293  12.769  0.5285  0.2949 -0.2172
 5643SOL    HW228389   0.026   4.263  12.646  0.2147 -1.8111 -1.1002
 5644SOL     OW28390   3.494   0.267   5.799  0.3448 -0.2425  0.4222
 5644SOL    HW128391   3.576   0.294   5.841  0.6335  0.0243 -0.3050
 5644SOL    HW228392   3.429   0.316   5.850 -0.3168  0.8415 -1.4613
 5645SOL     OW28393   4.576   0.569   2.703  0.5154  0.6990 -0.6358
 5645SOL    HW128394   4.670   0.581   2.698  0.5672  1.3116  2.2019
 5645SOL    HW228395   4.570   0.519   2.621 -0.2020  0.3981 -0.3985
 5646SOL     OW28396   1.426   3.372   1.175  0.1093  0.2503  0.3619
 5646SOL    HW128397   1.401   3.379   1.267 -1.1020 -2.8199  0.2580
 5646SOL    HW228398   1.418   3.461   1.141  1.5172  0.3887  0.3744
 5647SOL     OW28399   0.156   4.296   0.258 -0.4245 -0.2028 -0.0103
 5647SOL    HW128400   0.065   4.314   0.282 -0.7728 -0.3927 -1.2051
 5647SOL    HW228401   0.157   4.303   0.163  0.6680  0.8125  0.0691
 5648SOL     OW28402   2.324   3.302   5.621  0.0553 -0.4287 -0.5761
 5648SOL    HW128403   2.372   3.379   5.652  1.1582 -1.2100 -0.3335
 5648SOL    HW228404   2.383   3.266   5.556  1.1593  1.1366 -0.4268
 5649SOL     OW28405   4.519   2.301   3.287 -0.0924 -0.3459 -0.3100
 5649SOL    HW128406   4.494   2.373   3.229  0.3975  0.3835  0.3681
 5649SOL    HW228407   4.440   2.265   3.327 -0.3681 -0.0299 -0.5721
 5650SOL     OW28408   1.853   3.987   7.435  0.2540  0.5710 -0.2632
 5650SOL    HW128409   1.866   4.080   7.419 -0.9638  0.4590 -1.8689
 5650SOL    HW228410   1.876   3.979   7.528 -1.2410  1.7097  0.1993
 5651SOL     OW28411   3.889   2.567   6.627 -0.7272  0.1819 -0.0807
 5651SOL    HW128412   3.835   2.630   6.675 -1.1873 -0.9975  0.9627
 5651SOL    HW228413   3.940   2.629   6.575  0.0583 -0.8114 -0.5125
 5652SOL     OW28414   0.767   2.368  15.346 -0.6230  0.2509 -0.2401
 5652SOL    HW128415   0.829   2.439  15.361 -0.7032  0.0317  1.1594
 5652SOL    HW228416   0.735   2.383  15.257 -0.1691 -0.3826 -0.5021
 5653SOL     OW28417   1.482   0.582   5.376  0.0127  0.3739  0.1433
 5653SOL    HW128418   1.425   0.630   5.436 -0.2451 -2.5725  2.2145
 5653SOL    HW228419   1.490   0.500   5.424  1.1127  0.6460  0.4244
 5654SOL     OW28420   0.793   1.612   3.223 -0.3737 -0.3476 -0.3879
 5654SOL    HW128421   0.756   1.700   3.215  2.5886  0.8569 -0.9808
 5654SOL    HW228422   0.709   1.576   3.250 -0.6656 -0.9243 -2.0461
 5655SOL     OW28423   1.844   2.834   2.810  0.0937 -0.0551  0.1308
 5655SOL    HW128424   1.883   2.880   2.736 -1.4788  1.3976  0.1970
 5655SOL    HW228425   1.765   2.799   2.770  0.4165 -0.0152 -0.5483
 5656SOL     OW28426   1.004   4.307   9.117  0.7514  0.4609 -0.1521
 5656SOL    HW128427   1.061   4.296   9.193 -1.9900  0.1423  1.8457
 5656SOL    HW228428   0.974   4.219   9.092  2.0078  0.2965 -1.0629
 5657SOL     OW28429   3.326   4.641   3.476  0.6880  0.1290 -0.8108
 5657SOL    HW128430   3.247   4.695   3.472  1.3878  1.2619  0.3018
 5657SOL    HW228431   3.352   4.652   3.384  0.8998  0.0266 -0.7622
 5658SOL     OW28432   4.023   2.170   0.639 -0.2802  0.2745 -0.1879
 5658SOL    HW128433   3.956   2.222   0.595 -0.6722  0.3776  0.5174
 5658SOL    HW228434   4.071   2.221   0.704 -0.6872  2.4318 -1.5786
 5659SOL     OW28435   2.760   1.866  14.439  0.0591 -0.0566 -0.0756
 5659SOL    HW128436   2.759   1.961  14.445  1.3463 -0.0152 -0.6333
 5659SOL    HW228437   2.734   1.853  14.347 -0.2925  0.8243 -0.0990
 5660SOL     OW28438   1.821   3.448   6.986  0.1817 -0.2806 -0.1897
 5660SOL    HW128439   1.789   3.538   6.994  0.3893 -0.1252 -1.2396
 5660SOL    HW228440   1.862   3.442   7.073 -0.3900 -0.7223  0.0528
 5661SOL     OW28441   2.554   3.983   2.090  0.0933 -0.3020 -0.2980
 5661SOL    HW128442   2.474   3.952   2.048  0.5080 -1.0789 -0.5162
 5661SOL    HW228443   2.515   4.059   2.132 -0.6657 -0.7251 -0.2300
 5662SOL     OW28444   3.589   3.466   5.303  0.3096  0.2165  0.4248
 5662SOL    HW128445   3.667   3.424   5.339  0.6931  1.2102  0.7520
 5662SOL    HW228446   3.650   3.527   5.262  0.1181  1.5046  2.0549
 5663SOL     OW28447   3.117   0.563   3.897  0.7280 -0.0620 -0.6554
 5663SOL    HW128448   3.055   0.534   3.963  0.6033 -0.9564 -1.1741
 5663SOL    HW228449   3.194   0.564   3.954 -0.9264 -2.6669  1.6029
 5664SOL     OW28450   1.292   2.082   4.951 -0.1410 -0.1231  0.4437
 5664SOL    HW128451   1.226   2.049   5.012 -0.3560 -1.5424 -0.5417
 5664SOL    HW228452   1.244   2.081   4.868 -0.9620 -2.6152  0.9484
 5665SOL     OW28453   1.358   2.895   2.579 -0.1542  0.2494 -0.5555
 5665SOL    HW128454   1.435   2.842   2.598 -0.1382 -0.1122 -1.6018
 5665SOL    HW228455   1.306   2.879   2.658  1.2270 -2.1541 -0.1301
 5666SOL     OW28456   0.018   3.341   8.585 -0.2820 -0.7239 -0.6362
 5666SOL    HW128457   4.716   3.425   8.545 -0.2394  1.3430  3.5992
 5666SOL    HW228458   0.076   3.308   8.517  1.4415  1.3769 -0.1892
 5667SOL     OW28459   3.765   0.080  16.095 -0.2103 -0.2444  0.1417
 5667SOL    HW128460   3.780   0.020  16.168 -1.3261  0.3614  0.8614
 5667SOL    HW228461   3.706   0.147  16.128  1.5802 -0.7104  4.3076
 5668SOL     OW28462   3.157   3.813   7.708 -1.2446 -0.1212 -0.0818
 5668SOL    HW128463   3.203   3.730   7.715  1.4800  1.3596 -0.0726
 5668SOL    HW228464   3.089   3.801   7.775 -1.1921 -0.8351 -0.1568
 5669SOL     OW28465   0.737   2.413  17.330  0.1241 -0.3823 -0.0894
 5669SOL    HW128466   0.654   2.460  17.324  0.2386 -0.1249  0.3964
 5669SOL    HW228467   0.707   2.324  17.346  1.0165 -0.5465  0.6983
 5670SOL     OW28468   0.076   2.251   3.378  0.0218 -0.6746  0.0361
 5670SOL    HW128469   4.721   2.306   3.377 -0.0648 -0.7836  1.0007
 5670SOL    HW228470   0.035   2.168   3.354  1.6073 -0.7865 -2.3398
 5671SOL     OW28471   3.080   0.730   2.659 -0.1063 -0.5240 -0.3862
 5671SOL    HW128472   3.070   0.802   2.596 -0.7701 -1.8608 -1.7885
 5671SOL    HW228473   3.012   0.669   2.633 -0.6419 -1.0398  2.1473
 5672SOL     OW28474   2.707   1.078   5.228  0.2718 -0.3056 -0.5928
 5672SOL    HW128475   2.647   1.004   5.234  1.6070 -1.3273  0.1721
 5672SOL    HW228476   2.696   1.097   5.135 -0.6374  0.9249 -0.2286
 5673SOL     OW28477   4.384   2.100   3.906  0.2860  0.7198 -0.0171
 5673SOL    HW128478   4.393   2.070   3.815 -0.2226 -1.2058  0.5684
 5673SOL    HW228479   4.466   2.146   3.928 -0.2386  0.7350  1.8766
 5674SOL     OW28480   2.192   0.019   2.932  0.5477 -0.1602 -0.0077
 5674SOL    HW128481   2.237   0.077   2.993  0.0812  0.2798 -0.0761
 5674SOL    HW228482   2.159   0.081   2.866 -0.7320  0.6912  1.4411
 5675SOL     OW28483   2.217   2.617   4.495 -0.4876 -0.1063  0.4743
 5675SOL    HW128484   2.164   2.538   4.508  0.6379 -1.3786 -2.6151
 5675SOL    HW228485   2.150   2.685   4.500 -0.3180  0.0981  0.0357
 5676SOL     OW28486   0.344   4.205   4.490  0.1411  0.3446 -0.7436
 5676SOL    HW128487   0.314   4.164   4.410 -1.1718  0.1055 -0.1231
 5676SOL    HW228488   0.419   4.255   4.456  2.5293 -1.8698  1.2109
 5677SOL     OW28489   0.012   3.196   5.411  0.5637  0.5539  0.6178
 5677SOL    HW128490   4.690   3.280   5.403 -0.4097 -0.0721 -0.5757
 5677SOL    HW228491   0.091   3.215   5.360  0.5826  0.0067  0.4440
 5678SOL     OW28492   1.992   0.342  14.825  0.5207  0.3487 -0.0119
 5678SOL    HW128493   2.076   0.326  14.781 -0.2741 -1.6890 -0.7509
 5678SOL    HW228494   1.942   0.265  14.800  0.4897  0.4716 -0.3277
 5679SOL     OW28495   3.270   4.609   8.069 -0.0174 -0.1066 -0.1177
 5679SOL    HW128496   3.322   4.603   7.989 -0.1616  0.1897 -0.2315
 5679SOL    HW228497   3.296   4.695   8.101 -1.2902 -0.0431  0.7291
 5680SOL     OW28498   4.690   1.500   5.755 -0.3456  0.4486  0.5129
 5680SOL    HW128499   4.655   1.587   5.771 -1.1718  0.3783 -0.8864
 5680SOL    HW228500   4.605   1.455   5.751 -0.2821  0.3213  0.5961
 5681SOL     OW28501   3.020   4.251  13.876  0.0255 -0.0095  0.2974
 5681SOL    HW128502   3.109   4.216  13.872 -0.1164 -0.3609  0.2963
 5681SOL    HW228503   3.017   4.298  13.793 -0.5682  1.4016  1.1118
 5682SOL     OW28504   3.921   1.172   5.891 -0.0699  0.2201 -0.0315
 5682SOL    HW128505   3.831   1.205   5.893 -0.1382  0.0529 -0.4260
 5682SOL    HW228506   3.975   1.249   5.906 -0.6143  0.3310  1.3832
 5683SOL     OW28507   4.098   3.436   5.321  0.3102 -0.0374  0.3050
 5683SOL    HW128508   4.183   3.476   5.338  1.9010 -3.9513  1.4628
 5683SOL    HW228509   4.043   3.512   5.302 -1.3462 -1.6284 -1.3428
 5684SOL     OW28510   4.281   1.686   6.766 -0.5632  0.5587  0.0495
 5684SOL    HW128511   4.229   1.610   6.740  0.3003 -0.0628  0.1313
 5684SOL    HW228512   4.220   1.758   6.752  0.5951  1.5859  0.2953
 5685SOL     OW28513   1.490   0.907   6.829 -0.8648  0.0936 -0.0532
 5685SOL    HW128514   1.489   0.820   6.789 -0.4767  0.7670 -1.5237
 5685SOL    HW228515   1.476   0.964   6.754  3.7667  2.2652  0.7119
 5686SOL     OW28516   3.140   1.929   7.231 -0.0304  0.3134  0.1945
 5686SOL    HW128517   3.211   1.876   7.196  0.2746  1.5141 -0.9857
 5686SOL    HW228518   3.180   1.992   7.292  0.0358  0.3243  0.1393
 5687SOL     OW28519   0.938   3.125  14.126  0.0883 -0.1331 -0.0510
 5687SOL    HW128520   0.921   3.163  14.040 -0.9528 -0.3996  0.0412
 5687SOL    HW228521   0.969   3.204  14.171 -0.6329 -1.1349  2.2110
 5688SOL     OW28522   4.101   1.462  10.949 -0.0680  0.5203  0.1800
 5688SOL    HW128523   4.180   1.466  11.003 -0.6428  2.9452  0.8283
 5688SOL    HW228524   4.058   1.394  11.002 -0.2072 -0.2674 -0.9319
 5689SOL     OW28525   3.081   0.191   9.246 -0.4909  0.2934 -0.7607
 5689SOL    HW128526   3.035   0.240   9.178 -2.1856  1.3548  1.1555
 5689SOL    HW228527   3.025   0.117   9.273  0.7779 -0.4394 -0.1378
 5690SOL     OW28528   4.076   1.555   0.305  0.0753  0.2484  0.2140
 5690SOL    HW128529   4.121   1.471   0.309 -1.4457 -0.5785 -0.1327
 5690SOL    HW228530   4.053   1.582   0.394  0.7791  0.4616  0.3330
 5691SOL     OW28531   1.572   1.631   5.399  0.9002 -0.3089 -0.0494
 5691SOL    HW128532   1.558   1.537   5.408  1.0699 -0.2909  0.4380
 5691SOL    HW228533   1.555   1.661   5.489  1.2442  0.6161 -0.2879
 5692SOL     OW28534   4.139   1.531   3.800 -0.4449  0.2547 -0.0121
 5692SOL    HW128535   4.144   1.591   3.875  2.2623 -0.4142  0.3388
 5692SOL    HW228536   4.141   1.588   3.722  1.2774 -2.6353 -2.0665
 5693SOL     OW28537   2.762   3.582  10.570  0.6757  0.1669 -0.3420
 5693SOL    HW128538   2.821   3.520  10.527 -2.4939 -2.6172 -0.6915
 5693SOL    HW228539   2.817   3.602  10.646  3.2088 -1.9935 -1.5750
 5694SOL     OW28540   1.806   2.517   8.021  0.3356  0.4303 -0.2062
 5694SOL    HW128541   1.870   2.510   8.091  0.2006  0.4842 -0.0788
 5694SOL    HW228542   1.829   2.438   7.972  2.4929 -2.0008  4.7082
 5695SOL     OW28543   3.335   4.188   9.441  0.1944 -0.6397  0.3594
 5695SOL    HW128544   3.381   4.260   9.396 -0.1645 -0.4276  0.3321
 5695SOL    HW228545   3.344   4.210   9.534  0.0845 -2.2826  0.7423
 5696SOL     OW28546   1.042   4.713   0.137  0.2426 -0.6341  0.0980
 5696SOL    HW128547   1.069   4.629   0.174  0.6898 -0.4728  0.1330
 5696SOL    HW228548   0.946   4.710   0.143  0.2437  1.2652  0.8843
 5697SOL     OW28549   1.975   2.347   6.318  0.5356  0.2316  0.2950
 5697SOL    HW128550   2.012   2.373   6.234  0.0506 -0.9049 -0.2677
 5697SOL    HW228551   2.016   2.261   6.325  0.2200  0.0700  0.1379
 5698SOL     OW28552   4.664   1.383   1.959  0.3409  0.0514  0.1283
 5698SOL    HW128553   4.596   1.321   1.985  0.5184 -1.4046 -2.8552
 5698SOL    HW228554   4.633   1.461   2.005 -2.5680 -0.4651 -0.9642
 5699SOL     OW28555   0.164   0.991   2.155 -0.3807 -0.0995  0.5904
 5699SOL    HW128556   0.217   0.997   2.235  1.0696 -0.1215 -0.3695
 5699SOL    HW228557   0.147   0.897   2.159  0.2836 -0.2622 -0.4356
 5700SOL     OW28558   0.671   0.594   0.903  0.1239  0.0033  0.7265
 5700SOL    HW128559   0.597   0.613   0.846  0.4167  0.0215  0.3495
 5700SOL    HW228560   0.699   0.679   0.936 -1.2779  0.8652 -0.3162
 5701SOL     OW28561   0.185   1.940   8.310 -0.3034  0.3533 -0.3266
 5701SOL    HW128562   0.145   1.873   8.365 -0.5237 -0.7410 -1.8221
 5701SOL    HW228563   0.147   1.914   8.226  0.2535  1.3956 -0.9093
 5702SOL     OW28564   3.859   2.360   7.415 -0.8012  0.2483  0.5399
 5702SOL    HW128565   3.785   2.392   7.466 -1.4558 -0.8083  0.2432
 5702SOL    HW228566   3.913   2.440   7.411  0.9056 -0.8412  1.7783
 5703SOL     OW28567   2.007   3.221   7.348  0.2180  0.1428  0.9208
 5703SOL    HW128568   2.055   3.159   7.293  1.0465  1.6358 -0.0723
 5703SOL    HW228569   1.954   3.157   7.394 -1.4454 -0.4021 -1.7555
 5704SOL     OW28570   3.579   1.788   8.785 -0.2071 -0.3769  0.6362
 5704SOL    HW128571   3.624   1.824   8.861  1.5649 -1.7171  0.2186
 5704SOL    HW228572   3.492   1.783   8.824  0.0547  3.4769  1.7047
 5705SOL     OW28573   0.596   4.002   7.170 -0.5473 -0.2198  0.4233
 5705SOL    HW128574   0.630   4.074   7.117 -0.1022  0.8146  2.0878
 5705SOL    HW228575   0.526   3.971   7.112  1.0715 -0.1023 -1.5726
 5706SOL     OW28576   3.563   3.882   5.298 -0.1950 -0.6407  0.0559
 5706SOL    HW128577   3.644   3.832   5.300  0.0532 -0.3022 -1.2273
 5706SOL    HW228578   3.548   3.890   5.392  0.9813  1.1700  0.0784
 5707SOL     OW28579   2.410   1.873  16.217  0.0931  0.2729 -0.2454
 5707SOL    HW128580   2.350   1.927  16.165 -0.8622 -0.5783 -0.0185
 5707SOL    HW228581   2.351   1.838  16.284  1.7611 -1.9186  0.0674
 5708SOL     OW28582   0.884   4.027   6.339 -0.6967  0.0753  0.0354
 5708SOL    HW128583   0.887   3.935   6.314  0.8978  1.1888 -3.8830
 5708SOL    HW228584   0.817   4.051   6.275 -1.2190  1.9085  1.2654
 5709SOL     OW28585   1.097   4.005   8.627 -0.2659  0.0760  0.0851
 5709SOL    HW128586   1.120   3.993   8.719  0.5958  0.0722 -0.1352
 5709SOL    HW228587   1.186   4.012   8.594  0.7214 -0.2901  2.6226
 5710SOL     OW28588   2.359   2.881  13.500 -0.6289  0.2629 -0.1714
 5710SOL    HW128589   2.416   2.815  13.462 -1.0030 -0.1034 -0.1043
 5710SOL    HW228590   2.407   2.964  13.497  3.3870 -2.0307  0.7811
 5711SOL     OW28591   3.010   3.617   1.038  0.1184 -0.5655 -0.5948
 5711SOL    HW128592   2.944   3.684   1.058  2.4182  1.4302  0.3557
 5711SOL    HW228593   3.085   3.674   1.051  0.4016 -0.9116 -0.7229
 5712SOL     OW28594   3.917   2.516   0.393  0.5571 -0.2609  0.9177
 5712SOL    HW128595   3.863   2.594   0.405 -0.3646 -0.7058 -0.3738
 5712SOL    HW228596   3.997   2.541   0.438 -0.2866  1.5750  1.3803
 5713SOL     OW28597   2.226   0.058   8.220  0.1564  0.0525  0.3292
 5713SOL    HW128598   2.204   0.030   8.309 -1.0466  1.1633  0.4028
 5713SOL    HW228599   2.148   0.031   8.171  0.8862  2.2682 -2.0779
 5714SOL     OW28600   3.550   0.022   4.963 -0.1171  0.2309 -0.4689
 5714SOL    HW128601   3.463   0.027   5.003  0.9166 -2.3106  2.0958
 5714SOL    HW228602   3.602   0.081   5.018 -0.8968  1.1238 -0.6854
 5715SOL     OW28603   2.772   2.647   9.833  0.2840 -0.1495  0.0352
 5715SOL    HW128604   2.816   2.691   9.905 -2.0489 -2.4348  2.8206
 5715SOL    HW228605   2.759   2.558   9.865 -0.1600  0.2805  1.0416
 5716SOL     OW28606   2.825   4.078   4.817 -0.0315  0.1018 -0.0013
 5716SOL    HW128607   2.781   4.013   4.872 -1.3368  0.2751 -0.8280
 5716SOL    HW228608   2.913   4.042   4.810 -0.4537 -1.0365  0.6120
 5717SOL     OW28609   2.376   2.637  16.020 -0.4130  0.2933 -0.0741
 5717SOL    HW128610   2.314   2.691  16.070 -0.6728 -1.6643  1.7330
 5717SOL    HW228611   2.387   2.555  16.068  0.3187  0.2530 -0.3151
 5718SOL     OW28612   4.172   2.849  10.612 -0.0688  0.0131 -0.3512
 5718SOL    HW128613   4.104   2.884  10.669  0.2034  0.4279 -0.2786
 5718SOL    HW228614   4.151   2.756  10.611 -0.6236  0.1185  1.0501
 5719SOL     OW28615   1.608   2.967  15.033  0.1131 -0.1124 -0.0045
 5719SOL    HW128616   1.553   2.930  15.102  1.0435 -0.4186  0.5710
 5719SOL    HW228617   1.680   3.000  15.087 -0.8738 -0.6783  1.6560
 5720SOL     OW28618   3.800   3.802   2.585  0.0678  0.0790 -0.2922
 5720SOL    HW128619   3.886   3.820   2.623 -0.3054 -1.4022  1.2325
 5720SOL    HW228620   3.823   3.806   2.492 -0.2964 -0.1350 -0.3884
 5721SOL     OW28621   4.011   2.516   8.899  0.5058  0.1697  0.0206
 5721SOL    HW128622   4.092   2.565   8.884  0.6333  0.0098  0.1754
 5721SOL    HW228623   3.936   2.575   8.898 -0.1833 -0.6625  3.1563
 5722SOL     OW28624   3.550   3.921   8.569 -0.5808  0.1009 -0.3721
 5722SOL    HW128625   3.492   3.972   8.625  1.6278  2.2539 -0.0591
 5722SOL    HW228626   3.611   3.988   8.537  0.1191 -0.9666 -1.2902
 5723SOL     OW28627   3.659   3.454   4.800  0.5353 -0.0549  0.3614
 5723SOL    HW128628   3.665   3.483   4.891  0.2122 -0.1939  0.4286
 5723SOL    HW228629   3.622   3.369   4.824  1.7875 -0.6196  0.2803
 5724SOL     OW28630   4.523   0.424   2.455 -0.1857 -0.7401  0.0084
 5724SOL    HW128631   4.460   0.377   2.400 -1.0251  1.8200 -1.2043
 5724SOL    HW228632   4.487   0.511   2.440 -0.5360 -1.1302 -1.4237
 5725SOL     OW28633   3.457   2.109   3.436  0.2152  0.4464  0.1286
 5725SOL    HW128634   3.502   2.028   3.461 -2.0620 -0.3687  1.5814
 5725SOL    HW228635   3.366   2.081   3.450 -0.0922  0.7340 -1.3427
 5726SOL     OW28636   3.535   1.840  13.986 -0.7821  0.2759  0.0451
 5726SOL    HW128637   3.555   1.839  13.892 -0.3847 -0.8439  0.1383
 5726SOL    HW228638   3.573   1.756  14.014  0.8270  1.2454  0.7504
 5727SOL     OW28639   0.823   0.723   9.166 -0.0126  0.2464 -0.0103
 5727SOL    HW128640   0.845   0.805   9.122 -1.8808  0.2244 -0.9767
 5727SOL    HW228641   0.785   0.747   9.250 -0.3115 -1.2289  0.2754
 5728SOL     OW28642   2.708   2.024   8.408 -0.2484 -0.1097  0.0513
 5728SOL    HW128643   2.762   2.087   8.360 -0.8004 -0.1202 -0.5806
 5728SOL    HW228644   2.618   2.043   8.381  0.0533  1.6064  0.2580
 5729SOL     OW28645   1.361   2.488   6.183 -0.3419  0.8087 -0.6366
 5729SOL    HW128646   1.313   2.531   6.113 -3.2337 -0.0703  0.8353
 5729SOL    HW228647   1.450   2.518   6.165  0.2088 -0.0176  0.7082
 5730SOL     OW28648   0.787   1.380   9.702  0.2912  0.2465 -0.2256
 5730SOL    HW128649   0.730   1.455   9.680  1.3568  0.3668 -2.6005
 5730SOL    HW228650   0.746   1.320   9.640  0.4706 -2.5761  2.3837
 5731SOL     OW28651   1.022   4.362   9.458 -0.8870 -0.5656  0.1140
 5731SOL    HW128652   0.928   4.367   9.474 -0.4952  0.7502  1.9593
 5731SOL    HW228653   1.020   4.270   9.431 -0.5042 -0.0621 -1.6649
 5732SOL     OW28654   3.130   2.507   8.552  0.2747  0.5526  0.2219
 5732SOL    HW128655   3.067   2.517   8.481 -0.0174 -0.2373  0.3684
 5732SOL    HW228656   3.209   2.480   8.505  0.5219  0.8883  0.4432
 5733SOL     OW28657   3.655   1.665   2.716 -0.2235  0.7542  0.1294
 5733SOL    HW128658   3.642   1.635   2.806 -0.6400  2.4431  0.6147
 5733SOL    HW228659   3.618   1.753   2.716 -1.2155  0.3821 -4.0353
 5734SOL     OW28660   0.833   1.899   2.925 -0.2995  0.3617  0.0635
 5734SOL    HW128661   0.893   1.919   2.853 -0.7490 -0.4231 -0.5288
 5734SOL    HW228662   0.762   1.957   2.897 -0.9896  0.1204  1.2846
 5735SOL     OW28663   4.700   4.149  10.975  0.3484 -0.2059 -0.2564
 5735SOL    HW128664   0.068   4.119  10.977  0.0807 -1.2916 -3.9480
 5735SOL    HW228665   4.671   4.132  11.064  1.3165 -0.8324 -0.0512
 5736SOL     OW28666   0.845   4.062   6.868 -0.0194 -0.4883 -0.2512
 5736SOL    HW128667   0.788   4.136   6.887 -0.2146 -0.8166  0.4480
 5736SOL    HW228668   0.843   4.072   6.773  0.4189  1.6439 -0.0404
 5737SOL     OW28669   3.203   0.876  12.255 -0.0710  0.0281  0.7761
 5737SOL    HW128670   3.158   0.809  12.203  1.2773 -2.3898  2.7211
 5737SOL    HW228671   3.163   0.860  12.340 -0.3418  0.7018  0.7758
 5738SOL     OW28672   3.496   0.603  11.739 -0.1291 -0.0757 -0.2959
 5738SOL    HW128673   3.426   0.663  11.715  0.0823  0.1408 -0.3738
 5738SOL    HW228674   3.446   0.523  11.753 -1.8606  0.7284 -1.9645
 5739SOL     OW28675   4.587   3.770   1.527 -0.4374  0.3866  0.3192
 5739SOL    HW128676   4.682   3.762   1.519 -0.3708  1.5214 -0.1103
 5739SOL    HW228677   4.569   3.682   1.559 -1.5706  0.7855  0.7867
 5740SOL     OW28678   3.255   3.090   6.475 -0.1139  0.1602 -0.4386
 5740SOL    HW128679   3.264   3.010   6.527  2.3451  0.4983 -0.3314
 5740SOL    HW228680   3.176   3.075   6.424  0.7291  0.0932 -1.7161
 5741SOL     OW28681   0.154   4.548   2.573  0.6463  0.1416 -0.8806
 5741SOL    HW128682   0.159   4.558   2.478 -0.2141 -1.5012 -1.0866
 5741SOL    HW228683   0.063   4.527   2.591  0.3965 -0.2962 -2.6706
 5742SOL     OW28684   3.212   3.580   4.851 -0.1949  0.0475  0.0380
 5742SOL    HW128685   3.292   3.624   4.823  0.7090 -0.0037  2.5176
 5742SOL    HW228686   3.154   3.633   4.797 -1.0684  0.7202  1.6518
 5743SOL     OW28687   3.051   4.033   1.207 -0.1117  0.4160  0.1093
 5743SOL    HW128688   3.102   4.112   1.190 -0.6931  0.7069 -0.2613
 5743SOL    HW228689   3.117   3.989   1.260 -0.5453  0.7368  0.9101
 5744SOL     OW28690   1.880   1.688   4.497 -0.2293 -0.1175 -0.5396
 5744SOL    HW128691   1.809   1.706   4.560  1.2050  2.4909  0.3076
 5744SOL    HW228692   1.840   1.619   4.443  0.7643 -2.7333  2.0400
 5745SOL     OW28693   0.043   2.564   3.602 -0.2112 -0.0934 -0.1841
 5745SOL    HW128694   0.131   2.527   3.597 -0.3249 -0.5341  0.9884
 5745SOL    HW228695   4.719   2.488   3.637 -1.4387  0.4777 -0.5800
 5746SOL     OW28696   0.685   1.231  17.522 -0.2333 -0.7124  0.0048
 5746SOL    HW128697   0.722   1.278  17.597  3.0869 -2.7820 -0.3385
 5746SOL    HW228698   0.639   1.310  17.495 -0.0622  0.1708  2.2296
 5747SOL     OW28699   0.576   1.563   8.021  0.1804  0.6705  0.4951
 5747SOL    HW128700   0.505   1.502   8.005 -0.2588  0.9391  1.4130
 5747SOL    HW228701   0.518   1.637   8.002 -1.7838 -1.3946 -1.4984
 5748SOL     OW28702   3.521   1.115  12.126  0.2076  0.2245  1.0167
 5748SOL    HW128703   3.462   1.186  12.152 -1.0490 -0.1545 -0.7511
 5748SOL    HW228704   3.600   1.131  12.177  0.5469 -0.1023  0.5936
 5749SOL     OW28705   0.491   1.452   1.847 -0.0166  0.7184 -0.2372
 5749SOL    HW128706   0.527   1.540   1.850  2.2389 -0.2657  1.8452
 5749SOL    HW228707   0.510   1.435   1.755 -0.3815 -1.1695  0.0235
 5750SOL     OW28708   4.651   2.793  11.223  0.1030  0.6060 -0.5045
 5750SOL    HW128709   4.654   2.854  11.150 -1.0106  0.3527 -0.7638
 5750SOL    HW228710   0.021   2.781  11.244  0.7213 -0.5515 -3.8579
 5751SOL     OW28711   3.573   0.381   6.780  0.0199 -0.2984 -0.4121
 5751SOL    HW128712   3.649   0.323   6.785  0.5419  0.3576 -0.7885
 5751SOL    HW228713   3.532   0.354   6.862 -0.5076  0.6356 -0.3744
 5752SOL     OW28714   3.678   3.969   3.576 -0.6635  0.2598 -0.1084
 5752SOL    HW128715   3.654   4.054   3.612 -0.0680  0.9214 -1.2841
 5752SOL    HW228716   3.702   3.914   3.651  2.1866  1.4270 -0.1867
 5753SOL     OW28717   2.149   0.648   9.792 -0.0339 -0.2453 -0.3821
 5753SOL    HW128718   2.230   0.692   9.820  1.9771 -1.4456 -4.4505
 5753SOL    HW228719   2.187   0.561   9.793  0.2037 -0.1426 -0.4249
 5754SOL     OW28720   1.676   4.051   3.661  0.9195  0.1834 -0.3249
 5754SOL    HW128721   1.629   4.024   3.582 -1.5229 -0.6785  1.4034
 5754SOL    HW228722   1.610   4.090   3.718 -0.5029 -1.2938 -0.9523
 5755SOL     OW28723   1.124   1.438   2.647 -0.2440  0.7205 -0.2098
 5755SOL    HW128724   1.214   1.468   2.657  0.2359 -0.6479 -0.4227
 5755SOL    HW228725   1.075   1.520   2.654 -2.7642 -1.0167  3.1974
 5756SOL     OW28726   0.204   4.646   2.806 -0.1840 -0.3337  0.0533
 5756SOL    HW128727   0.271   4.713   2.790  1.2948 -1.5457  1.1437
 5756SOL    HW228728   0.173   4.623   2.718  0.8841  0.1856 -0.4605
 5757SOL     OW28729   4.146   2.993  17.141 -0.0566 -0.1283  0.1261
 5757SOL    HW128730   4.073   3.022  17.086 -0.0062 -0.2828 -0.0231
 5757SOL    HW228731   4.176   3.072  17.185 -0.3781 -0.9917  1.8780
 5758SOL     OW28732   2.958   4.645  14.745 -0.0496 -0.4761 -0.0830
 5758SOL    HW128733   3.025   4.702  14.783 -0.8407  0.8321 -0.6591
 5758SOL    HW228734   2.988   4.637  14.655  0.8966  2.2405 -0.0337
 5759SOL     OW28735   0.866   1.941   7.751  0.2940  0.4168 -0.9165
 5759SOL    HW128736   0.950   1.985   7.764  1.3232 -2.1181  0.9270
 5759SOL    HW228737   0.886   1.882   7.678 -1.1045 -2.2133  0.8181
 5760SOL     OW28738   3.620   3.015   5.117  0.6117  0.5063  0.0289
 5760SOL    HW128739   3.533   3.040   5.146  0.2436  2.1523 -2.4740
 5760SOL    HW228740   3.628   2.920   5.117  1.4512  0.5797  1.6627
 5761SOL     OW28741   2.595   1.977   6.209 -0.0748 -0.0588  0.2733
 5761SOL    HW128742   2.590   1.995   6.303 -0.4646 -0.9223  0.4166
 5761SOL    HW228743   2.612   1.883   6.202 -3.1481 -0.6456  0.8342
 5762SOL     OW28744   2.748   2.881  10.708 -0.2604 -0.4666 -0.3445
 5762SOL    HW128745   2.843   2.873  10.712 -0.2740 -0.1256  0.7730
 5762SOL    HW228746   2.716   2.801  10.749 -0.6317 -0.3514 -0.4132
 5763SOL     OW28747   0.481   4.538   7.864 -0.1255  0.2030 -0.9030
 5763SOL    HW128748   0.467   4.446   7.883  0.5787  0.5873  1.4243
 5763SOL    HW228749   0.424   4.587   7.923  1.3836  0.0413  0.6713
 5764SOL     OW28750   2.447   2.375   8.164 -0.0277 -0.3575 -0.2531
 5764SOL    HW128751   2.531   2.393   8.122 -0.0685 -0.6546 -0.4599
 5764SOL    HW228752   2.407   2.458   8.191 -0.0891 -1.3604  2.7631
 5765SOL     OW28753   2.329   0.262   8.602  0.3305  0.5582  0.1673
 5765SOL    HW128754   2.340   0.354   8.577  0.6127  0.7552  1.0121
 5765SOL    HW228755   2.402   0.247   8.662 -0.2237 -1.9729  0.2141
 5766SOL     OW28756   3.185   1.911   2.013 -0.2936 -0.3383 -0.5333
 5766SOL    HW128757   3.223   1.999   2.006 -1.5261  0.3517  1.4662
 5766SOL    HW228758   3.264   1.865   2.042 -0.8948 -1.4143 -0.6264
 5767SOL     OW28759   3.637   0.643   6.128  0.0376  0.5103  0.4869
 5767SOL    HW128760   3.561   0.589   6.106  1.8059 -1.6590 -0.2179
 5767SOL    HW228761   3.647   0.616   6.219 -0.8957  0.0085  0.4482
 5768SOL     OW28762   3.414   0.907   8.179 -0.0068  0.3151  0.1704
 5768SOL    HW128763   3.491   0.857   8.151  0.4467  1.1326 -0.0391
 5768SOL    HW228764   3.348   0.838   8.175  1.6756 -1.1780 -1.7587
 5769SOL     OW28765   1.701   2.962   0.442 -0.9744  0.0427  0.5019
 5769SOL    HW128766   1.695   3.030   0.510 -1.3574 -0.3173  0.8235
 5769SOL    HW228767   1.610   2.933   0.446 -1.5351  1.9230  1.7348
 5770SOL     OW28768   2.652   3.660   4.002 -0.1640  0.2849 -0.0783
 5770SOL    HW128769   2.653   3.624   3.913 -2.3437 -1.0575  0.4267
 5770SOL    HW228770   2.606   3.586   4.042 -1.2460  1.2389  0.4023
 5771SOL     OW28771   3.570   4.663   3.984  0.3695 -0.1325 -0.0847
 5771SOL    HW128772   3.631   4.678   3.912 -0.8363 -0.0359 -1.0938
 5771SOL    HW228773   3.483   4.671   3.944  0.5208 -0.1120 -0.4080
 5772SOL     OW28774   1.787   1.543   6.822 -0.2898 -0.4987  0.1781
 5772SOL    HW128775   1.825   1.461   6.854  1.5975 -0.1671 -1.1701
 5772SOL    HW228776   1.864   1.588   6.787  0.3097 -1.1937  0.6027
 5773SOL     OW28777   1.918   3.499   0.018 -0.0746 -1.2386 -0.0734
 5773SOL    HW128778   1.834   3.459   0.039  0.6404 -2.8025 -0.2128
 5773SOL    HW228779   1.919   3.491  17.616  0.1486  0.7320 -0.2438
 5774SOL     OW28780   2.766   1.159   3.545  0.2128 -0.1515 -0.4333
 5774SOL    HW128781   2.802   1.110   3.471 -3.5739  0.9380 -2.9806
 5774SOL    HW228782   2.809   1.110   3.615  0.8556  1.9587  0.6534
 5775SOL     OW28783   4.308   2.783   4.744 -0.3748 -0.6035  0.4333
 5775SOL    HW128784   4.304   2.825   4.829 -1.9851  0.7450 -0.3129
 5775SOL    HW228785   4.225   2.737   4.753 -1.9999  2.7696  2.3968
 5776SOL     OW28786   1.191   3.187  10.352  0.1872  0.0221  0.5637
 5776SOL    HW128787   1.170   3.098  10.325 -0.8460  0.4672 -0.1110
 5776SOL    HW228788   1.117   3.213  10.406  0.9175 -2.2678  2.6870
 5777SOL     OW28789   4.618   0.928   6.717  0.2524  0.1294  0.5191
 5777SOL    HW128790   4.695   0.897   6.765 -0.3754  0.4608  1.7359
 5777SOL    HW228791   4.645   1.011   6.676  1.0387 -0.1058  0.5532
 5778SOL     OW28792   1.471   0.857  11.702 -0.0978 -0.4253  0.0728
 5778SOL    HW128793   1.457   0.847  11.796 -0.3357 -0.4235  0.0369
 5778SOL    HW228794   1.486   0.951  11.690  0.7671 -0.4491  1.0326
 5779SOL     OW28795   1.420   4.449   9.550  0.2244 -0.4555 -0.3665
 5779SOL    HW128796   1.511   4.475   9.536 -0.1038  1.8079  1.7518
 5779SOL    HW228797   1.391   4.528   9.595  1.6590 -0.9083  1.3981
 5780SOL     OW28798   2.273   2.824   7.376  0.2368  0.2378  0.1671
 5780SOL    HW128799   2.183   2.852   7.389 -0.0294 -0.1132 -0.8951
 5780SOL    HW228800   2.322   2.906   7.369  3.1585 -1.4543  0.3795
 5781SOL     OW28801   2.402   4.024   3.913  0.5209  0.0417 -0.2196
 5781SOL    HW128802   2.396   3.960   3.843 -0.3822  0.4236 -0.4903
 5781SOL    HW228803   2.497   4.032   3.926  0.1609 -0.5198  2.7339
 5782SOL     OW28804   2.946   3.971  13.662  0.4764 -0.2051 -0.0450
 5782SOL    HW128805   3.028   3.924  13.674  0.7993  1.2064  3.2579
 5782SOL    HW228806   2.965   4.064  13.674 -1.8771  0.3331 -0.4240
 5783SOL     OW28807   2.132   0.696   2.159 -0.2690 -0.3033 -0.3445
 5783SOL    HW128808   2.120   0.782   2.199 -0.4343 -0.9322  0.9627
 5783SOL    HW228809   2.064   0.705   2.092 -0.5690  0.9419  0.1173
 5784SOL     OW28810   1.854   2.467   5.514 -0.5665  0.3692 -0.2478
 5784SOL    HW128811   1.866   2.524   5.438 -1.4465  0.9655  0.0549
 5784SOL    HW228812   1.841   2.386   5.466  2.2599 -0.4181  0.3412
 5785SOL     OW28813   2.214   3.484   4.410 -0.2708 -0.7925  0.5035
 5785SOL    HW128814   2.243   3.505   4.499 -1.3838 -1.9413  1.1353
 5785SOL    HW228815   2.279   3.540   4.366 -0.8546 -0.7550 -0.3024
 5786SOL     OW28816   0.608   3.339   4.163 -0.0881 -0.3153 -0.5834
 5786SOL    HW128817   0.665   3.320   4.237 -0.1125 -1.9635 -0.9816
 5786SOL    HW228818   0.596   3.432   4.183  0.4651  0.0438 -1.9137
 5787SOL     OW28819   2.241   0.961   5.802  0.0362 -0.4000  0.1138
 5787SOL    HW128820   2.181   0.925   5.868 -0.0228 -2.6787 -1.1591
 5787SOL    HW228821   2.208   0.918   5.723  1.2658 -1.2245  0.0525
 5788SOL     OW28822   0.115   2.984   8.210 -0.0441 -0.4764  0.5194
 5788SOL    HW128823   0.147   2.978   8.120  0.2101 -1.4390  0.6724
 5788SOL    HW228824   0.199   2.957   8.248 -0.2099 -1.3605  0.2563
 5789SOL     OW28825   2.963   2.325   2.123  0.2792 -0.4531  0.4733
 5789SOL    HW128826   3.030   2.279   2.174  0.7030  1.9653  2.1009
 5789SOL    HW228827   2.988   2.310   2.031 -1.6705 -1.1952  0.0707
 5790SOL     OW28828   4.255   4.172   6.227  0.6129  0.7196 -0.1463
 5790SOL    HW128829   4.285   4.262   6.217 -0.3820  0.8833 -1.6307
 5790SOL    HW228830   4.238   4.158   6.134 -2.3493  0.6680  0.4030
 5791SOL     OW28831   4.494   4.682   8.576 -0.0627 -0.2339  0.2458
 5791SOL    HW128832   4.437   4.640   8.512 -1.7903  1.3169  0.7587
 5791SOL    HW228833   4.492   4.608   8.637  1.8744 -1.4756 -1.2348
 5792SOL     OW28834   2.743   2.436   8.153 -0.4715 -0.0274  0.2622
 5792SOL    HW128835   2.751   2.518   8.104 -0.6495 -1.3741 -2.0003
 5792SOL    HW228836   2.800   2.377   8.106 -0.0388 -1.2187  2.2739
 5793SOL     OW28837   3.297   3.773   1.014 -0.2081 -0.4594  0.2836
 5793SOL    HW128838   3.340   3.767   0.928 -0.4377 -1.0458  0.2148
 5793SOL    HW228839   3.292   3.868   1.023  1.0624 -0.5471  1.9733
 5794SOL     OW28840   4.447   1.425   5.670  0.0559 -0.1757  0.1966
 5794SOL    HW128841   4.387   1.497   5.653  2.5864  1.7154 -0.7822
 5794SOL    HW228842   4.422   1.366   5.600 -0.8383  0.5029 -0.0475
 5795SOL     OW28843   4.045   2.989  11.342 -0.7940 -0.2038 -0.3147
 5795SOL    HW128844   4.085   2.997  11.428  2.5200  1.7361 -2.0192
 5795SOL    HW228845   3.965   2.948  11.374  0.4686 -3.5387 -1.4171
 5796SOL     OW28846   0.804   2.083  12.372  0.2099  0.2220  0.0733
 5796SOL    HW128847   0.882   2.139  12.379  0.8689 -0.8822  1.5151
 5796SOL    HW228848   0.795   2.078  12.277 -1.9181 -0.4055  0.3208
 5797SOL     OW28849   1.342   2.275   7.068 -0.0950  0.1574 -0.2090
 5797SOL    HW128850   1.320   2.254   6.977  1.1656  1.2804 -0.7686
 5797SOL    HW228851   1.432   2.303   7.052  0.4507 -0.7365  1.2859
 5798SOL     OW28852   3.766   2.003   7.112  0.1002  0.7867  0.5262
 5798SOL    HW128853   3.719   2.038   7.187 -0.5790  2.6657 -0.7743
 5798SOL    HW228854   3.692   1.982   7.055  0.4208  1.6184 -0.1885
 5799SOL     OW28855   2.392   2.423  16.212 -0.1824  0.0840 -0.0064
 5799SOL    HW128856   2.465   2.470  16.252  1.7631 -2.4430 -0.5855
 5799SOL    HW228857   2.395   2.336  16.252 -0.8199  0.1571  0.1929
 5800SOL     OW28858   4.140   0.040   7.095  0.4625 -0.1080 -0.5345
 5800SOL    HW128859   4.232   0.061   7.083  0.7129 -0.3913  0.9453
 5800SOL    HW228860   4.136   4.675   7.059 -1.3250  0.8367 -2.6767
 5801SOL     OW28861   2.211   2.719   6.652  0.1194 -0.8953  0.2960
 5801SOL    HW128862   2.176   2.632   6.632  0.3460 -1.5770  2.8625
 5801SOL    HW228863   2.176   2.771   6.580  0.8059 -0.1387  0.5079
 5802SOL     OW28864   4.159   0.805   4.300 -0.1378  0.1050  0.0720
 5802SOL    HW128865   4.248   0.841   4.300 -0.9293  2.1258 -1.3555
 5802SOL    HW228866   4.134   0.801   4.207  0.1271  0.4580 -0.0168
 5803SOL     OW28867   3.849   3.670   1.481 -0.0660  0.4185 -0.0559
 5803SOL    HW128868   3.874   3.685   1.573  1.1490  1.4872 -0.5663
 5803SOL    HW228869   3.773   3.726   1.470 -0.0124  0.3513 -0.7765
 5804SOL     OW28870   4.167   4.521  10.685  0.1362  0.4513  0.1438
 5804SOL    HW128871   4.139   4.581  10.754 -1.1479 -0.6560  0.5813
 5804SOL    HW228872   4.117   4.444  10.712 -0.1120 -0.0468 -1.7165
 5805SOL     OW28873   1.946   2.994   2.620  0.0025 -0.2906  0.2249
 5805SOL    HW128874   1.985   3.048   2.688  1.0232 -0.3064 -0.3436
 5805SOL    HW228875   2.026   2.967   2.574 -0.8613 -1.3660 -0.6637
 5806SOL     OW28876   0.838   1.556  17.444 -0.5764 -0.3092 -0.1905
 5806SOL    HW128877   0.899   1.558  17.370 -0.1330 -1.4185  0.1377
 5806SOL    HW228878   0.894   1.605  17.503 -0.0630  0.4978 -1.3359
 5807SOL     OW28879   4.333   1.552   2.922  0.0846  0.3320  0.1994
 5807SOL    HW128880   4.297   1.638   2.903 -1.2708  0.4253  3.1952
 5807SOL    HW228881   4.384   1.579   2.998 -1.4523  1.1391  0.9325
 5808SOL     OW28882   3.505   3.777   7.805  0.6334 -0.0853 -0.2778
 5808SOL    HW128883   3.470   3.812   7.886  1.1125 -0.1543 -0.0433
 5808SOL    HW228884   3.479   3.685   7.801 -0.3323  0.1430  0.9653
 5809SOL     OW28885   3.832   1.392  13.379  0.6721  0.2597 -0.6192
 5809SOL    HW128886   3.925   1.408  13.362  0.2131  1.6135 -1.8662
 5809SOL    HW228887   3.844   1.306  13.419  0.8964  0.5913  0.0268
 5810SOL     OW28888   2.252   0.794   2.799 -1.0359 -0.3992 -0.3441
 5810SOL    HW128889   2.239   0.735   2.874 -1.7012  0.1661 -0.0265
 5810SOL    HW228890   2.176   0.851   2.799  0.0929  1.0947  0.7594
 5811SOL     OW28891   2.064   1.391   6.259  0.1613 -0.1830 -0.5254
 5811SOL    HW128892   2.047   1.459   6.324 -0.4845 -0.7572 -0.0937
 5811SOL    HW228893   2.144   1.422   6.218  1.4370 -0.8122  1.5025
 5812SOL     OW28894   1.031   1.504   3.369  0.5939 -0.2838 -0.3143
 5812SOL    HW128895   0.997   1.418   3.394 -3.0377  1.0265 -0.7154
 5812SOL    HW228896   0.954   1.551   3.338 -0.3833 -1.0544  0.9175
 5813SOL     OW28897   2.549   0.684   5.597 -0.1387  0.0180 -0.4460
 5813SOL    HW128898   2.549   0.590   5.615 -1.5521  0.2656  0.8732
 5813SOL    HW228899   2.464   0.701   5.558  0.3827  3.0673 -0.2460
 5814SOL     OW28900   2.920   2.586   7.785  0.0919  0.3938 -0.1096
 5814SOL    HW128901   2.844   2.532   7.763  0.5072 -0.5283  0.7133
 5814SOL    HW228902   2.993   2.533   7.754  1.1102  2.3686 -1.0371
 5815SOL     OW28903   0.507   0.587   9.255 -0.2343 -0.0787  0.0634
 5815SOL    HW128904   0.447   0.613   9.185  0.4635 -1.7655 -1.1702
 5815SOL    HW228905   0.562   0.532   9.199 -3.1064 -2.6540 -0.2451
 5816SOL     OW28906   0.679   2.182   0.027 -0.0353  0.0483 -0.2707
 5816SOL    HW128907   0.665   2.201   0.120 -0.4113  2.2045 -0.7684
 5816SOL    HW228908   0.713   2.092   0.024 -1.2516 -0.4684  1.3474
 5817SOL     OW28909   4.603   1.029   3.821  0.1461 -0.2794 -0.4031
 5817SOL    HW128910   4.656   1.087   3.876  1.2447 -1.8065  0.1374
 5817SOL    HW228911   4.643   0.949   3.856  2.1063  0.5570 -0.7001
 5818SOL     OW28912   1.172   2.564   1.311 -0.0259 -0.0714 -0.3461
 5818SOL    HW128913   1.210   2.527   1.390  2.3727  0.6990 -1.1430
 5818SOL    HW228914   1.175   2.492   1.248  0.9465 -0.3692  0.0534
 5819SOL     OW28915   3.696   2.380   6.763 -0.3649  0.0771 -0.0618
 5819SOL    HW128916   3.743   2.430   6.696  2.9408 -1.2968  1.2402
 5819SOL    HW228917   3.675   2.295   6.724  0.4011  0.1233 -0.5716
 5820SOL     OW28918   0.692   0.719   4.108 -0.8191  0.8069 -0.2045
 5820SOL    HW128919   0.779   0.693   4.137 -1.1056 -0.9143 -0.9219
 5820SOL    HW228920   0.675   0.790   4.170 -1.2001  0.6180 -0.0947
 5821SOL     OW28921   2.467   2.291  11.681  0.1296  0.1600 -0.1373
 5821SOL    HW128922   2.472   2.212  11.734  1.7999  0.9324  0.8534
 5821SOL    HW228923   2.543   2.276  11.624 -0.5371 -2.6040 -0.3158
 5822SOL     OW28924   2.344   3.565   7.633  0.3140 -0.1789  0.4593
 5822SOL    HW128925   2.280   3.511   7.587 -0.5440  2.3098 -1.2790
 5822SOL    HW228926   2.313   3.578   7.722  0.9396  1.8170  0.3837
 5823SOL     OW28927   3.138   1.434   9.050 -0.5324  0.2101 -0.9048
 5823SOL    HW128928   3.135   1.518   9.005  2.1543  0.1819 -1.1324
 5823SOL    HW228929   3.076   1.381   8.999 -0.0960 -1.4416  0.2674
 5824SOL     OW28930   3.022   1.080   8.283 -0.2984 -0.0867  0.3705
 5824SOL    HW128931   3.074   1.037   8.351  1.5050  1.5256  0.0387
 5824SOL    HW228932   3.021   1.021   8.208  0.7744  0.1418  0.1760
 5825SOL     OW28933   2.494   3.077   9.115 -0.8883 -0.2472 -0.4815
 5825SOL    HW128934   2.514   3.170   9.120  2.1944 -0.9463  0.2450
 5825SOL    HW228935   2.584   3.047   9.132 -1.0343 -1.3892 -1.7809
 5826SOL     OW28936   0.291   2.951   1.534 -0.3186  0.5836 -0.1595
 5826SOL    HW128937   0.352   3.024   1.544 -1.3452  1.5113 -0.6555
 5826SOL    HW228938   0.236   2.952   1.613  1.0857  1.1025  0.8217
 5827SOL     OW28939   3.922   0.730   8.769 -0.1922  0.5761  0.1605
 5827SOL    HW128940   3.915   0.740   8.674  3.5374 -0.6842 -0.2665
 5827SOL    HW228941   3.901   0.638   8.787 -0.3601  0.9600  1.8662
 5828SOL     OW28942   0.386   4.163   1.669 -0.4615 -0.1183 -0.1396
 5828SOL    HW128943   0.326   4.228   1.707 -0.4477  0.4531 -1.1098
 5828SOL    HW228944   0.322   4.101   1.634 -0.6177  0.6454 -1.1864
 5829SOL     OW28945   4.145   2.963  17.631  0.0630 -0.0368 -0.5426
 5829SOL    HW128946   4.190   2.899  17.575 -1.2498 -2.4833  1.1973
 5829SOL    HW228947   4.092   3.014  17.569  2.1443  0.7929 -1.6437
 5830SOL     OW28948   0.715   1.870   8.007 -0.7162 -0.4560  0.1931
 5830SOL    HW128949   0.770   1.886   7.930 -1.0414  4.0824  0.9087
 5830SOL    HW228950   0.772   1.825   8.069  0.4344 -0.6980 -1.0323
 5831SOL     OW28951   4.638   4.481   1.312  0.0664 -0.1534  0.0957
 5831SOL    HW128952   4.577   4.499   1.383 -0.1173  1.0348 -0.3654
 5831SOL    HW228953   4.579   4.448   1.244  0.2385 -0.9073  0.3137
 5832SOL     OW28954   4.667   2.184   5.842  0.4398 -0.2846 -0.2396
 5832SOL    HW128955   0.027   2.204   5.885 -0.7933 -0.1859  2.0672
 5832SOL    HW228956   4.634   2.123   5.908 -1.9045  0.9557 -0.2748
 5833SOL     OW28957   0.291   2.848   8.386 -0.8142 -0.4799  0.5231
 5833SOL    HW128958   0.380   2.883   8.386 -1.2418  0.5875 -0.1288
 5833SOL    HW228959   0.311   2.760   8.353 -0.1354  0.1278 -0.6838
 5834SOL     OW28960   4.327   3.321   1.959  0.1314  0.6458 -0.1944
 5834SOL    HW128961   4.403   3.349   2.010  1.2895 -0.6530 -1.1809
 5834SOL    HW228962   4.332   3.379   1.883 -0.6574 -0.9563 -1.4636
 5835SOL     OW28963   0.712   0.429  14.398  0.8303 -0.3320  0.0074
 5835SOL    HW128964   0.697   0.449  14.490 -1.6769  1.2913 -0.7504
 5835SOL    HW228965   0.798   0.468  14.382  0.3673 -0.1811 -2.1771
 5836SOL     OW28966   2.999   0.736   8.610  0.4483  0.0603  0.4622
 5836SOL    HW128967   2.987   0.679   8.686 -2.0015 -1.0050 -0.7275
 5836SOL    HW228968   3.071   0.787   8.648  0.8612  0.3764 -0.7514
 5837SOL     OW28969   1.818   1.079  15.902 -0.3364 -0.2219 -0.2338
 5837SOL    HW128970   1.882   1.148  15.884  0.4436 -0.9928 -0.4310
 5837SOL    HW228971   1.851   1.041  15.983 -0.9319 -0.0924  0.0700
 5838SOL     OW28972   3.119   1.662   4.374 -0.4322  0.2068  0.2194
 5838SOL    HW128973   3.073   1.706   4.445 -0.9679  0.5984 -0.3591
 5838SOL    HW228974   3.205   1.669   4.414 -0.6882 -0.3154  0.8590
 5839SOL     OW28975   1.998   1.279  14.629  0.2608 -0.2128  0.5403
 5839SOL    HW128976   2.077   1.261  14.680  0.9316 -1.2527 -0.8696
 5839SOL    HW228977   2.010   1.367  14.594 -0.4033 -0.3398  0.0017
 5840SOL     OW28978   2.427   2.812  16.354 -0.0112 -0.1974 -0.1596
 5840SOL    HW128979   2.337   2.781  16.348 -0.4867  0.5998  2.5026
 5840SOL    HW228980   2.461   2.771  16.275  1.0584  0.2934  0.0490
 5841SOL     OW28981   1.112   2.691  15.780 -0.2168  0.5099 -0.1517
 5841SOL    HW128982   1.123   2.740  15.699  1.2058  2.7017  1.3892
 5841SOL    HW228983   1.070   2.757  15.835 -0.0799  0.7166 -0.2947
 5842SOL     OW28984   2.098   0.939  15.091 -0.2512  0.0403 -0.6532
 5842SOL    HW128985   2.085   0.914  15.183  2.4824  1.8474  0.2346
 5842SOL    HW228986   2.192   0.948  15.075  0.1683  0.2080  1.8087
 5843SOL     OW28987   3.372   0.258   3.688 -0.6546 -0.1919 -0.0237
 5843SOL    HW128988   3.343   0.170   3.710  0.0835 -0.2806  0.5917
 5843SOL    HW228989   3.457   0.265   3.732 -0.5262 -4.5428  0.4046
 5844SOL     OW28990   1.066   3.944  16.615  0.5938  0.3684  0.5081
 5844SOL    HW128991   1.026   3.887  16.680  2.1568  0.0669  1.2075
 5844SOL    HW228992   0.986   3.989  16.587 -1.0752 -2.1301  1.2946
 5845SOL     OW28993   2.460   2.260  11.271  0.1501  0.3142 -0.3147
 5845SOL    HW128994   2.421   2.344  11.295 -0.7030 -0.4543  0.9903
 5845SOL    HW228995   2.422   2.245  11.184 -3.0721 -0.1906  1.1693
 5846SOL     OW28996   3.586   3.134   6.366 -0.0586  0.3210  0.7142
 5846SOL    HW128997   3.629   3.085   6.436  1.7250  1.5234  0.4452
 5846SOL    HW228998   3.522   3.183   6.418  1.1293  1.5622  0.9942
 5847SOL     OW28999   0.976   1.065  15.685  0.2378  0.1343 -0.3092
 5847SOL    HW129000   1.069   1.076  15.664  0.6717 -2.0263  0.5380
 5847SOL    HW229001   0.963   0.981  15.640  1.7837  1.2585 -2.8894
 5848SOL     OW29002   4.487   3.252   4.470  0.3754  0.7566 -0.6516
 5848SOL    HW129003   4.457   3.239   4.560  0.0174  0.9172 -0.7508
 5848SOL    HW229004   4.413   3.213   4.425  0.2719  2.1636 -1.6932
 5849SOL     OW29005   0.564   1.854   8.282  0.1265 -0.1359 -0.4240
 5849SOL    HW129006   0.557   1.842   8.187  0.4277  0.1399 -0.4855
 5849SOL    HW229007   0.496   1.797   8.316 -0.0404  0.1735 -0.2458
 5850SOL     OW29008   4.174   0.040   7.631  0.4669  0.0093 -0.1011
 5850SOL    HW129009   4.170   0.038   7.727 -2.1532 -1.9781 -0.2816
 5850SOL    HW229010   4.227   0.119   7.616 -0.9070  0.8780 -0.3394
 5851SOL     OW29011   1.350   0.127   1.684  0.4436 -0.4507  0.0564
 5851SOL    HW129012   1.261   0.124   1.717  0.1692  0.6348 -0.5576
 5851SOL    HW229013   1.331   0.164   1.597 -0.3305  0.9261  0.8004
 5852SOL     OW29014   4.574   3.947  10.390  0.0093 -0.2222 -0.3442
 5852SOL    HW129015   4.598   3.919  10.479 -1.1514  0.1074  0.0805
 5852SOL    HW229016   4.528   3.866  10.366 -0.1476  0.7161 -3.1919
 5853SOL     OW29017   2.680   3.769   2.813 -0.3726 -0.2933 -0.0373
 5853SOL    HW129018   2.726   3.816   2.743 -0.9793  0.1611 -0.1285
 5853SOL    HW229019   2.719   3.804   2.893  0.5107 -1.4662  0.0526
 5854SOL     OW29020   3.324   1.740   6.728  0.4431 -0.4675 -0.0178
 5854SOL    HW129021   3.355   1.650   6.737 -2.7155 -1.7658 -2.1056
 5854SOL    HW229022   3.241   1.737   6.775 -0.0931 -0.8179 -1.0155
 5855SOL     OW29023   2.567   3.774  14.503 -0.8040  0.0876  0.3090
 5855SOL    HW129024   2.562   3.812  14.415 -0.9936 -0.5258  0.0535
 5855SOL    HW229025   2.624   3.832  14.554  1.1990 -0.5399 -1.1892
 5856SOL     OW29026   0.130   2.181   6.046  0.7048  0.0832  0.2996
 5856SOL    HW129027   0.105   2.149   6.133 -0.2433 -2.0182 -0.7233
 5856SOL    HW229028   0.196   2.122   6.011 -0.3513 -0.4419 -0.8132
 5857SOL     OW29029   0.502   3.704   6.157  0.0142  0.0040  0.1982
 5857SOL    HW129030   0.443   3.675   6.226 -1.2874  0.2418 -0.8002
 5857SOL    HW229031   0.448   3.692   6.078  0.7651  1.4424 -0.5352
 5858SOL     OW29032   2.567   1.011   7.448 -0.2314  0.1032 -0.3608
 5858SOL    HW129033   2.640   1.037   7.504 -0.9241 -0.9176  0.9967
 5858SOL    HW229034   2.502   0.958   7.493  0.0713 -1.1227 -1.3627
 5859SOL     OW29035   2.425   0.360   6.354 -0.2931  0.0586 -0.1256
 5859SOL    HW129036   2.421   0.290   6.420 -0.6939  0.1850 -0.0185
 5859SOL    HW229037   2.394   0.319   6.274  1.1338  0.2437 -0.7810
 5860SOL     OW29038   3.019   1.689   1.558  0.1288  0.8137  0.1553
 5860SOL    HW129039   3.098   1.641   1.535 -1.0244 -1.5554  1.2069
 5860SOL    HW229040   2.978   1.700   1.472 -0.3399  0.7476  0.3669
 5861SOL     OW29041   2.265   1.231   8.749  0.3411  0.1312  0.0821
 5861SOL    HW129042   2.265   1.310   8.803  0.4319  1.3700 -1.7082
 5861SOL    HW229043   2.177   1.194   8.751 -0.3664  1.7464 -0.8348
 5862SOL     OW29044   1.174   2.321  12.593 -0.4172 -0.1664 -0.6399
 5862SOL    HW129045   1.096   2.333  12.538 -1.0326 -0.0148  0.2540
 5862SOL    HW229046   1.231   2.287  12.525  1.7464  0.9144  0.6376
 5863SOL     OW29047   3.400   0.452   4.121 -0.3449  0.4102 -0.8724
 5863SOL    HW129048   3.479   0.486   4.163 -2.1306 -0.4317  3.1176
 5863SOL    HW229049   3.414   0.481   4.030 -1.4521 -1.7798 -1.7250
 5864SOL     OW29050   4.434   2.601  11.283  0.2351 -0.1300  0.3697
 5864SOL    HW129051   4.350   2.644  11.268  0.3977 -0.2004 -0.7415
 5864SOL    HW229052   4.488   2.681  11.282  1.3653 -0.8563  3.0459
 5865SOL     OW29053   1.167   1.561   8.625 -0.1533  0.6918 -0.1808
 5865SOL    HW129054   1.163   1.611   8.707 -1.0869  0.0638  0.1646
 5865SOL    HW229055   1.104   1.611   8.572 -2.2104 -0.0139  1.6123
 5866SOL     OW29056   3.022   3.005  15.084 -0.2069  0.1406  0.1664
 5866SOL    HW129057   3.029   3.049  15.169 -1.4442 -0.8133  0.7690
 5866SOL    HW229058   3.113   2.996  15.056 -0.9452 -2.1206 -1.4916
 5867SOL     OW29059   4.177   3.070   6.688 -0.2604  0.2373 -0.1049
 5867SOL    HW129060   4.175   2.984   6.730  0.8436  1.1042  1.7401
 5867SOL    HW229061   4.209   3.041   6.602 -1.2733 -0.0579 -0.3733
 5868SOL     OW29062   2.721   3.246  14.108 -0.0294 -0.5020 -0.1849
 5868SOL    HW129063   2.683   3.218  14.025  0.2076 -1.2391 -0.0500
 5868SOL    HW229064   2.788   3.311  14.088 -0.8128  0.0034 -1.1490
 5869SOL     OW29065   3.815   2.879   1.510  0.1017 -0.5788  0.3605
 5869SOL    HW129066   3.838   2.956   1.563 -0.7268 -0.0824 -0.0041
 5869SOL    HW229067   3.722   2.885   1.530  0.5007  0.5630  1.8820
 5870SOL     OW29068   3.314   1.066  17.585  0.2226  0.2492  0.6532
 5870SOL    HW129069   3.277   1.114  17.660 -0.7567  0.8480 -0.2070
 5870SOL    HW229070   3.295   0.976  17.609  1.8019 -0.2116  0.1360
 5871SOL     OW29071   2.906   4.296   7.494  0.8077 -0.4140  0.1669
 5871SOL    HW129072   2.837   4.344   7.540  1.3313  0.0863  0.4299
 5871SOL    HW229073   2.983   4.345   7.522  1.5378 -2.3626  1.5873
 5872SOL     OW29074   3.405   1.569  13.151  0.1547 -0.5802  0.4174
 5872SOL    HW129075   3.477   1.609  13.102 -0.0271 -1.2213 -0.3803
 5872SOL    HW229076   3.457   1.540  13.226 -0.9755 -0.0029  1.4312
 5873SOL     OW29077   2.891   3.149   4.352 -0.4462  0.8575  0.0534
 5873SOL    HW129078   2.833   3.223   4.370  0.7534  1.5152  1.1831
 5873SOL    HW229079   2.849   3.096   4.284  0.5503 -1.8279  1.4937
 5874SOL     OW29080   2.316   0.566  14.201 -0.4632  0.1668  0.0317
 5874SOL    HW129081   2.323   0.471  14.207  3.1903  0.5457  1.7885
 5874SOL    HW229082   2.365   0.597  14.277  2.1988 -2.7455 -0.5032
 5875SOL     OW29083   4.655   4.391   1.667 -0.1606 -0.1122  0.0492
 5875SOL    HW129084   4.605   4.310   1.652 -1.6248  0.9579 -0.8484
 5875SOL    HW229085   4.591   4.448   1.624 -1.2180 -1.6564 -0.4467
 5876SOL     OW29086   3.083   3.113   2.757 -0.2296 -0.9974 -0.1799
 5876SOL    HW129087   3.079   3.029   2.711  1.4331 -2.4169  2.2465
 5876SOL    HW229088   3.005   3.148   2.714  1.4725  1.3723 -1.2774
 5877SOL     OW29089   0.531   3.467   3.826 -0.2573 -0.2195  0.4377
 5877SOL    HW129090   0.513   3.496   3.736  0.3275  0.8266  0.6588
 5877SOL    HW229091   0.489   3.381   3.819 -0.0308 -0.3391  0.5770
 5878SOL     OW29092   0.247   0.664   7.873  0.1763 -0.0141  0.4629
 5878SOL    HW129093   0.332   0.619   7.867 -0.3526 -0.8820 -0.4588
 5878SOL    HW229094   0.266   0.754   7.844  0.6177 -0.6868 -1.3612
 5879SOL     OW29095   1.496   4.104   8.272  0.2952 -0.0501  0.7222
 5879SOL    HW129096   1.502   4.195   8.299  0.1306 -0.6863  2.8590
 5879SOL    HW229097   1.515   4.051   8.349  1.3860 -0.0658  0.4469
 5880SOL     OW29098   3.894   3.746   1.736  0.6874 -0.1184  0.3691
 5880SOL    HW129099   3.882   3.840   1.751 -2.2223 -0.2805 -0.7924
 5880SOL    HW229100   3.972   3.725   1.787  0.1027 -0.3327  1.1773
 5881SOL     OW29101   3.898   0.822   6.786 -0.5826  0.3772 -0.1956
 5881SOL    HW129102   3.823   0.814   6.844  0.4959 -0.8203  1.0480
 5881SOL    HW229103   3.849   0.818   6.705  0.2797 -1.5155 -0.6332
 5882SOL     OW29104   1.695   4.284   9.282  0.4392 -0.1071  0.1760
 5882SOL    HW129105   1.619   4.252   9.233  0.8585 -2.5664  1.1283
 5882SOL    HW229106   1.675   4.261   9.373  1.0719  0.0230  0.3476
 5883SOL     OW29107   4.469   4.238  15.177 -0.5786  0.6356 -0.2815
 5883SOL    HW129108   4.425   4.197  15.252  0.4054  1.3268  0.6583
 5883SOL    HW229109   4.399   4.298  15.151 -1.7160 -0.1706  0.9112
 5884SOL     OW29110   2.359   0.534   0.712 -0.2410  0.7916  0.2690
 5884SOL    HW129111   2.397   0.518   0.798  0.8110  2.2099  0.0581
 5884SOL    HW229112   2.278   0.485   0.724 -0.0036 -0.0770 -1.7122
 5885SOL     OW29113   2.694   4.331  12.645 -0.0681  0.2864  0.5759
 5885SOL    HW129114   2.658   4.372  12.724  0.5032 -0.0558  1.0093
 5885SOL    HW229115   2.619   4.329  12.585  1.1973 -0.4022 -0.9835
 5886SOL     OW29116   0.142   0.951   7.794 -0.9944  1.0133 -0.0614
 5886SOL    HW129117   0.067   0.925   7.846 -1.7813  1.0121 -1.1950
 5886SOL    HW229118   0.118   0.922   7.705 -1.1767  0.5608  0.1322
 5887SOL     OW29119   1.479   2.720   6.501  0.7731 -0.4019  0.2112
 5887SOL    HW129120   1.498   2.641   6.449  0.6791  0.4292 -1.0995
 5887SOL    HW229121   1.489   2.677   6.586 -0.4938  1.2879  1.1979
 5888SOL     OW29122   3.271   1.841   8.114  0.1709 -0.3514  0.5159
 5888SOL    HW129123   3.350   1.896   8.113 -0.1057  0.0328  0.0288
 5888SOL    HW229124   3.210   1.886   8.171  0.4311  0.3233  0.2596
 5889SOL     OW29125   4.437   2.196  17.120  0.1524 -0.1347  0.1754
 5889SOL    HW129126   4.406   2.120  17.170 -1.4842  0.8647  0.6905
 5889SOL    HW229127   4.461   2.151  17.039 -1.4335 -0.0967 -0.3274
 5890SOL     OW29128   0.115   0.771   7.588 -0.6611  0.4498 -0.3521
 5890SOL    HW129129   0.203   0.756   7.552  0.3783  0.7119  2.0064
 5890SOL    HW229130   0.097   0.687   7.631 -0.4051 -0.4274 -1.9587
 5891SOL     OW29131   4.186   0.203  14.718 -0.4089 -0.8535 -0.1601
 5891SOL    HW129132   4.115   0.139  14.704  0.6438 -1.7442 -1.4301
 5891SOL    HW229133   4.237   0.142  14.771  0.1925  0.6683  0.9893
 5892SOL     OW29134   4.560   4.560   3.663  0.0009 -0.3852  0.0356
 5892SOL    HW129135   4.534   4.478   3.622  0.0024  0.1543 -1.0591
 5892SOL    HW229136   4.647   4.570   3.623  1.3813 -1.1249  2.8713
 5893SOL     OW29137   0.395   3.876   7.040  0.3963  0.0877  0.0146
 5893SOL    HW129138   0.328   3.922   6.989  0.4212  1.4711  1.2164
 5893SOL    HW229139   0.442   3.818   6.981  0.2156 -0.6372  0.5837
 5894SOL     OW29140   3.154   3.389   4.168 -0.3222  1.1780  1.1619
 5894SOL    HW129141   3.121   3.402   4.257  2.9599  0.1722  2.4929
 5894SOL    HW229142   3.069   3.368   4.128 -0.7360 -1.9862  3.6877
 5895SOL     OW29143   0.111   1.412   6.569 -0.5473  0.0287 -0.3098
 5895SOL    HW129144   0.126   1.476   6.500  0.2251 -1.8348 -1.8624
 5895SOL    HW229145   0.082   1.474   6.636  0.2519  2.1262 -1.9032
 5896SOL     OW29146   1.392   0.615   8.421  0.0305  0.3740  0.7005
 5896SOL    HW129147   1.319   0.615   8.483 -0.9111  0.7653 -0.4118
 5896SOL    HW229148   1.369   0.695   8.374  2.0267  0.2306 -0.5139
 5897SOL     OW29149   1.223   0.906   4.896  0.2436 -0.5155 -0.2156
 5897SOL    HW129150   1.136   0.916   4.858  0.1335  0.0611  0.1818
 5897SOL    HW229151   1.241   0.812   4.892  0.7158 -0.3939 -0.9341
 5898SOL     OW29152   2.565   0.228   5.141 -0.0287  0.0069 -0.3426
 5898SOL    HW129153   2.571   0.269   5.228 -2.1569  1.3957 -0.8430
 5898SOL    HW229154   2.503   0.157   5.149 -0.2475  0.2200 -0.1564
 5899SOL     OW29155   0.971   3.308   0.767 -0.3411  0.2616 -0.2723
 5899SOL    HW129156   1.051   3.318   0.818  0.1441  2.4999 -1.4697
 5899SOL    HW229157   0.995   3.370   0.698  0.6631  0.7547  0.5352
 5900SOL     OW29158   1.456   3.962   2.835 -0.0901  0.2051  0.0931
 5900SOL    HW129159   1.398   4.006   2.773 -1.5346  1.2403  2.1544
 5900SOL    HW229160   1.427   3.871   2.828 -2.6504  0.9297  1.3470
 5901SOL     OW29161   2.771   3.718  17.076  0.3559  0.5112 -0.2314
 5901SOL    HW129162   2.785   3.762  17.160  1.5691 -2.7930  1.2947
 5901SOL    HW229163   2.748   3.797  17.027  0.9469  0.4506 -0.6077
 5902SOL     OW29164   0.826   0.810  13.136  0.3754 -0.2122  0.1046
 5902SOL    HW129165   0.822   0.875  13.065  1.1804  0.6323  0.8287
 5902SOL    HW229166   0.917   0.834  13.157  0.2776 -0.5110  0.8714
 5903SOL     OW29167   0.609   2.428  16.077  0.0380 -0.2675  0.3099
 5903SOL    HW129168   0.703   2.415  16.084  0.3762  1.3696 -1.2487
 5903SOL    HW229169   0.595   2.520  16.098  1.9261  0.1484 -0.2832
 5904SOL     OW29170   1.386   0.954   7.085 -0.1710 -0.2362 -0.0236
 5904SOL    HW129171   1.327   1.018   7.044  0.3904  0.0800 -0.3347
 5904SOL    HW229172   1.441   0.935   7.009 -1.0454 -3.1476  0.0640
 5905SOL     OW29173   2.952   3.259   4.049  0.4921  0.5549 -0.5418
 5905SOL    HW129174   2.860   3.275   4.067  0.2696 -1.9480  0.6164
 5905SOL    HW229175   2.943   3.164   4.040  0.3963  0.4942  0.1292
 5906SOL     OW29176   4.516   1.073   3.228 -0.3625  0.2075  0.1201
 5906SOL    HW129177   4.607   1.058   3.251 -0.4042  1.5243  1.2023
 5906SOL    HW229178   4.474   1.029   3.302 -2.1762  1.5012 -0.1422
 5907SOL     OW29179   0.919   2.449   4.265 -0.6629 -0.1928 -0.6595
 5907SOL    HW129180   0.898   2.382   4.199 -0.3139 -0.5866 -0.3717
 5907SOL    HW229181   0.986   2.411   4.322 -1.9991 -2.3674 -0.5152
 5908SOL     OW29182   2.167   3.390   2.764 -0.4644 -0.2900  0.1592
 5908SOL    HW129183   2.204   3.464   2.812  2.1288 -2.1464  1.0306
 5908SOL    HW229184   2.157   3.431   2.678  2.9528 -1.5257 -0.8475
 5909SOL     OW29185   0.181   3.307   3.210 -0.2671 -0.8203 -0.5788
 5909SOL    HW129186   0.117   3.304   3.281  0.9551  2.1777  0.6689
 5909SOL    HW229187   0.126   3.307   3.131  0.4295 -1.1025 -1.0677
 5910SOL     OW29188   2.400   0.109  14.848 -0.1667 -0.6280 -0.1807
 5910SOL    HW129189   2.403   0.035  14.787 -2.3930 -0.1656 -0.8747
 5910SOL    HW229190   2.339   0.166  14.801  1.4868  0.5585 -0.8586
 5911SOL     OW29191   0.267   0.102  17.319  0.1240 -0.1658  0.2991
 5911SOL    HW129192   0.212   0.177  17.344 -2.9431 -2.0723 -0.8131
 5911SOL    HW229193   0.243   0.096  17.226 -1.0045 -0.6201  0.6235
 5912SOL     OW29194   1.152   2.517   6.385 -0.5560  0.3084  0.3395
 5912SOL    HW129195   1.209   2.499   6.310 -2.3085  0.9943 -1.1635
 5912SOL    HW229196   1.062   2.512   6.352 -0.2477 -1.1287 -0.2613
 5913SOL     OW29197   1.039   1.539   5.644  0.3631 -0.5504  0.0273
 5913SOL    HW129198   1.084   1.590   5.712  0.5221  0.2771 -0.7029
 5913SOL    HW229199   1.062   1.454   5.682 -0.5386 -0.9769 -0.3858
 5914SOL     OW29200   0.274   2.984   4.000  0.7762  0.2077  0.2111
 5914SOL    HW129201   0.275   3.068   3.954  0.8037 -0.9978 -2.0000
 5914SOL    HW229202   0.205   2.940   3.951  0.3883  0.1983  0.7713
 5915SOL     OW29203   1.212   3.376  10.881 -0.3091  0.0467  0.0441
 5915SOL    HW129204   1.234   3.329  10.961 -1.7118 -1.8409 -0.6729
 5915SOL    HW229205   1.262   3.325  10.818 -1.4343 -0.8354 -0.1530
 5916SOL     OW29206   4.704   1.124   3.454  0.0745  0.6607 -0.4459
 5916SOL    HW129207   0.062   1.169   3.480  0.2125  0.1806 -0.0395
 5916SOL    HW229208   4.716   1.030   3.469  1.6431  0.3416 -3.6391
 5917SOL     OW29209   3.035   1.245   5.079  0.3701 -0.2224  0.3546
 5917SOL    HW129210   3.077   1.320   5.121 -0.0788  0.2717 -0.0846
 5917SOL    HW229211   3.097   1.172   5.089  0.7165  0.2814  1.7669
 5918SOL     OW29212   3.461   3.222   7.724 -0.2704 -0.1538 -0.0411
 5918SOL    HW129213   3.467   3.182   7.638 -2.3535  0.5238 -0.4781
 5918SOL    HW229214   3.415   3.151   7.768  1.3393 -1.0345  0.2425
 5919SOL     OW29215   0.925   2.773   5.889  0.1893  0.0582  0.3497
 5919SOL    HW129216   0.834   2.763   5.861  0.7434 -0.6872 -1.1627
 5919SOL    HW229217   0.916   2.794   5.982  1.0641  0.5222  0.3320
 5920SOL     OW29218   2.267   4.608   9.386  0.0876 -0.0002  0.6218
 5920SOL    HW129219   2.221   4.691   9.376  1.2150  0.3304 -1.8050
 5920SOL    HW229220   2.192   4.562   9.349  0.3652 -1.4965  1.9498
 5921SOL     OW29221   0.895   3.948  10.757 -0.0659 -0.1771 -0.3213
 5921SOL    HW129222   0.883   4.042  10.768  0.7225  0.1773 -2.5012
 5921SOL    HW229223   0.878   3.953  10.663  1.1422  3.0435 -0.3642
 5922SOL     OW29224   2.602   0.151   3.524  0.5789  0.0154 -0.4380
 5922SOL    HW129225   2.649   0.209   3.584 -1.1169  1.7138 -0.7484
 5922SOL    HW229226   2.602   0.065   3.567 -1.0192  0.2647  0.0688
 5923SOL     OW29227   1.500   0.392   7.436  0.0839  0.0855 -0.3217
 5923SOL    HW129228   1.495   0.386   7.532 -2.3117  0.1664 -0.4361
 5923SOL    HW229229   1.571   0.455   7.422  1.6293 -1.6711 -0.2796
 5924SOL     OW29230   2.495   3.356   2.458  0.4775  0.6851  0.0869
 5924SOL    HW129231   2.503   3.335   2.365 -2.1977  0.5777 -0.0938
 5924SOL    HW229232   2.583   3.389   2.477  1.3832 -1.0598 -1.0017
 5925SOL     OW29233   0.636   2.062   6.816  0.2078 -0.2781  0.3005
 5925SOL    HW129234   0.598   2.043   6.901 -1.5160  1.8504 -0.0087
 5925SOL    HW229235   0.582   2.000   6.768  0.5395 -1.4006  1.4029
 5926SOL     OW29236   4.620   0.669   6.289 -0.5368  0.1248 -0.3979
 5926SOL    HW129237   4.634   0.576   6.302  0.4687  0.3603  0.2087
 5926SOL    HW229238   4.600   0.691   6.380 -1.1290 -0.2905 -0.4313
 5927SOL     OW29239   0.322   4.074  10.036  0.4494 -0.3040 -1.0318
 5927SOL    HW129240   0.405   4.063  10.083  1.2307 -0.1344 -2.3517
 5927SOL    HW229241   0.274   4.101  10.114  1.9962  2.1668 -0.9383
 5928SOL     OW29242   4.093   0.270   3.292 -0.2542  0.1254  0.3191
 5928SOL    HW129243   4.042   0.225   3.225  2.2013 -1.2281 -0.6558
 5928SOL    HW229244   4.052   0.231   3.369  0.3675 -1.1362  0.0127
 5929SOL     OW29245   0.731   1.637  16.808 -0.4402  0.6988 -0.4862
 5929SOL    HW129246   0.773   1.589  16.880  0.1199  5.3835  2.3267
 5929SOL    HW229247   0.642   1.604  16.823  0.3218 -0.0695  2.3605
 5930SOL     OW29248   4.306   1.054   4.531 -0.3096 -0.1650  0.1552
 5930SOL    HW129249   4.262   1.120   4.584 -2.1100  0.1209 -1.6799
 5930SOL    HW229250   4.252   0.979   4.556  0.4333 -0.8760 -0.3263
 5931SOL     OW29251   2.127   3.073   6.032  0.3446 -0.1496 -0.0782
 5931SOL    HW129252   2.194   3.114   5.977 -1.2902  1.8970 -0.5681
 5931SOL    HW229253   2.111   3.151   6.084  1.3383 -0.1030  0.1414
 5932SOL     OW29254   4.507   0.362   7.601  0.0906 -0.2341 -0.2349
 5932SOL    HW129255   4.434   0.315   7.641 -1.1598  0.2191 -1.9826
 5932SOL    HW229256   4.582   0.307   7.623  0.4979  0.1522 -0.6486
 5933SOL     OW29257   1.825   4.271   7.385 -0.2514 -0.7111 -0.1449
 5933SOL    HW129258   1.777   4.350   7.410  1.3837 -0.2975  1.7041
 5933SOL    HW229259   1.909   4.311   7.361  0.5787 -1.7559  1.0411
 5934SOL     OW29260   0.038   2.298   1.839  0.4656 -0.6416  0.1348
 5934SOL    HW129261   0.101   2.233   1.868  0.8111 -0.6922 -0.7377
 5934SOL    HW229262   0.015   2.264   1.753 -0.5146  3.7564 -1.3506
 5935SOL     OW29263   3.733   4.094   8.865 -0.0943  0.5925 -0.0313
 5935SOL    HW129264   3.772   4.181   8.854 -2.2029  1.6791  1.0563
 5935SOL    HW229265   3.665   4.111   8.931 -0.0516  3.0886 -0.6384
 5936SOL     OW29266   0.353   3.323  15.795 -0.1454 -0.3904 -0.0936
 5936SOL    HW129267   0.323   3.317  15.885  0.0616 -2.3775 -0.1416
 5936SOL    HW229268   0.336   3.417  15.791 -0.7274 -0.5236 -0.6844
 5937SOL     OW29269   2.441   2.096  11.845  0.0600  0.1817 -0.3335
 5937SOL    HW129270   2.361   2.140  11.874  0.4717  0.9530 -0.3647
 5937SOL    HW229271   2.424   2.011  11.885  1.3529  0.2711  0.4240
 5938SOL     OW29272   0.617   1.440   2.124  0.9369  0.1190 -0.1038
 5938SOL    HW129273   0.564   1.449   2.045 -0.0248  0.2358  0.5598
 5938SOL    HW229274   0.693   1.401   2.082 -0.0580  0.9185 -2.6726
 5939SOL     OW29275   0.373   2.475   4.647 -0.4868  0.5483 -0.4638
 5939SOL    HW129276   0.288   2.513   4.670 -0.6168 -0.2214  0.3113
 5939SOL    HW229277   0.346   2.387   4.622 -0.5712  0.4772 -0.1336
 5940SOL     OW29278   0.112   4.630   7.846  0.0276  0.0166  0.4195
 5940SOL    HW129279   0.088   4.722   7.858  1.9507  0.4819  0.6980
 5940SOL    HW229280   0.147   4.632   7.757 -1.1476 -0.4798 -0.0451
 5941SOL     OW29281   3.916   2.134  13.725  0.3035 -0.3891  0.7062
 5941SOL    HW129282   4.008   2.118  13.749  0.2899 -1.3203  0.1115
 5941SOL    HW229283   3.933   2.204  13.662  1.4120 -0.1793  1.2321
 5942SOL     OW29284   1.255   3.100   8.659 -0.2628 -0.3617 -0.3568
 5942SOL    HW129285   1.197   3.173   8.679  0.7286  0.1153  0.7855
 5942SOL    HW229286   1.286   3.081   8.748  3.5765  0.4755 -1.5108
 5943SOL     OW29287   3.997   2.571   7.933  0.2539 -0.3059 -0.3072
 5943SOL    HW129288   3.969   2.652   7.890 -3.0442 -2.0856 -1.5334
 5943SOL    HW229289   4.061   2.593   8.001  0.2823 -0.8091 -0.1705
 5944SOL     OW29290   1.782   1.222   6.710 -0.0700 -0.4054 -0.1340
 5944SOL    HW129291   1.751   1.250   6.624  1.2309  1.5507  0.0290
 5944SOL    HW229292   1.806   1.134   6.682 -0.7211  0.2705 -2.8786
 5945SOL     OW29293   3.849   4.380   5.777 -0.1193  0.4072 -0.1584
 5945SOL    HW129294   3.805   4.461   5.800 -0.9842 -0.7157  2.1480
 5945SOL    HW229295   3.845   4.334   5.861  1.1871  0.4274 -0.0858
 5946SOL     OW29296   2.315   4.322  15.093 -0.0476  0.5017  0.3301
 5946SOL    HW129297   2.358   4.246  15.054 -0.5288  1.1803 -1.5164
 5946SOL    HW229298   2.233   4.282  15.122 -0.6335  1.2861 -0.2365
 5947SOL     OW29299   2.431   0.507   2.868  0.1784 -0.2333 -0.6576
 5947SOL    HW129300   2.354   0.557   2.894 -0.2205 -1.4346  0.4125
 5947SOL    HW229301   2.394   0.446   2.804 -0.3254 -1.2112  0.5936
 5948SOL     OW29302   1.358   0.267   3.741 -0.0705  0.6552  0.2150
 5948SOL    HW129303   1.364   0.264   3.646 -3.1956 -0.6411  0.0377
 5948SOL    HW229304   1.452   0.273   3.757 -0.2512 -0.9398  1.9805
 5949SOL     OW29305   1.561   2.934   5.547  0.2255  0.2683  0.2799
 5949SOL    HW129306   1.649   2.965   5.568  0.2200  1.0748 -0.9240
 5949SOL    HW229307   1.576   2.840   5.536 -1.4158 -0.1036  1.2626
 5950SOL     OW29308   0.784   4.177  16.084  0.1112 -0.5713  0.1690
 5950SOL    HW129309   0.740   4.107  16.132  0.1753  1.0741  2.6057
 5950SOL    HW229310   0.868   4.155  16.125  0.1874 -0.0353  0.2929
 5951SOL     OW29311   0.230   0.205   4.259 -0.5004 -0.2588 -0.7026
 5951SOL    HW129312   0.284   0.126   4.263 -0.1859 -0.0789 -1.4451
 5951SOL    HW229313   0.250   0.231   4.169  1.3741  1.2362  0.1300
 5952SOL     OW29314   3.545   2.748   5.049 -0.6307 -0.2331 -0.4051
 5952SOL    HW129315   3.544   2.659   5.014  4.4614 -1.6297  2.9816
 5952SOL    HW229316   3.452   2.762   5.065 -0.1708  0.7410  1.4149
 5953SOL     OW29317   4.023   4.399  16.978 -0.6910  0.1927 -0.0363
 5953SOL    HW129318   4.079   4.359  16.912 -0.7987 -1.0422  0.6344
 5953SOL    HW229319   3.941   4.355  16.953  0.0264  0.1605 -2.3310
 5954SOL     OW29320   3.205   1.579   6.273 -0.1700  0.7018 -0.2782
 5954SOL    HW129321   3.201   1.660   6.223 -1.4109  1.6963  1.3996
 5954SOL    HW229322   3.196   1.612   6.363  0.1047 -1.1044  0.4080
 5955SOL     OW29323   2.517   0.111  12.764  0.6125  0.3107 -0.2758
 5955SOL    HW129324   2.608   0.116  12.794  0.0208 -0.7952  1.7179
 5955SOL    HW229325   2.517   0.103  12.668 -2.6791  2.8088 -0.5003
 5956SOL     OW29326   3.674   1.901   4.264  0.0935 -0.1879 -0.0350
 5956SOL    HW129327   3.733   1.917   4.190 -0.1057  0.4515 -0.0612
 5956SOL    HW229328   3.596   1.869   4.220 -0.0837 -0.6198  0.5973
 5957SOL     OW29329   0.723   2.704  15.097 -0.1716  0.1526  0.4724
 5957SOL    HW129330   0.721   2.611  15.075 -1.2307  0.6060 -1.3642
 5957SOL    HW229331   0.817   2.701  15.109 -0.2831 -0.0304  1.3052
 5958SOL     OW29332   2.862   3.956   5.825 -0.1222 -0.4216  0.1276
 5958SOL    HW129333   2.784   3.937   5.876  0.2544 -1.9610  0.1156
 5958SOL    HW229334   2.855   4.048   5.799  1.6790 -0.5450 -0.8633
 5959SOL     OW29335   2.323   1.553   6.858 -0.5114  0.3713 -0.1478
 5959SOL    HW129336   2.366   1.469   6.873 -0.2885  0.3203 -1.1254
 5959SOL    HW229337   2.365   1.612   6.920  1.0521  0.6522 -1.4917
 5960SOL     OW29338   3.046   2.928  11.498  0.1531 -0.0195  0.4104
 5960SOL    HW129339   2.976   2.863  11.500  0.1942 -0.1496 -1.5492
 5960SOL    HW229340   3.117   2.875  11.535 -0.3907 -0.9007  0.1943
 5961SOL     OW29341   1.211   3.576   3.305 -0.4047 -0.2287 -0.0905
 5961SOL    HW129342   1.142   3.639   3.290 -0.1684 -0.7499 -3.4213
 5961SOL    HW229343   1.284   3.620   3.260 -1.0727  1.4440  0.4807
 5962SOL     OW29344   2.802   2.038   2.303 -0.2173 -1.0987  0.0066
 5962SOL    HW129345   2.776   2.111   2.359  0.3012 -1.5975  0.8826
 5962SOL    HW229346   2.732   2.051   2.238  1.5980  0.3219 -1.6882
 5963SOL     OW29347   0.561   3.738   1.101 -0.2965  0.9326  0.1430
 5963SOL    HW129348   0.548   3.691   1.019  0.4936 -0.0687  0.5956
 5963SOL    HW229349   0.485   3.796   1.101 -1.7138 -0.9238 -1.6132
 5964SOL     OW29350   1.302   4.517   2.466  0.0863  0.1675  0.9165
 5964SOL    HW129351   1.361   4.591   2.453 -0.3853  0.2303 -0.7735
 5964SOL    HW229352   1.360   4.443   2.450  1.1828  1.4323 -0.8269
 5965SOL     OW29353   2.373   0.498   3.769  0.0568 -0.1758 -0.2217
 5965SOL    HW129354   2.418   0.570   3.726 -0.4407 -2.0762 -3.9351
 5965SOL    HW229355   2.282   0.516   3.745  0.1341  1.0201  0.4207
 5966SOL     OW29356   2.575   3.967   8.527  0.2905 -0.0880  0.4053
 5966SOL    HW129357   2.511   4.036   8.542  0.1879 -0.0205 -0.3557
 5966SOL    HW229358   2.524   3.888   8.540  1.1809 -0.5109  1.3856
 5967SOL     OW29359   0.454   1.121  17.350  0.0165  0.6388 -0.2827
 5967SOL    HW129360   0.418   1.198  17.305  0.5844 -0.2878 -2.2953
 5967SOL    HW229361   0.521   1.168  17.400 -0.1971  0.6006  0.0389
 5968SOL     OW29362   1.228   0.501   1.537 -0.1181 -0.5774  0.0220
 5968SOL    HW129363   1.184   0.458   1.611  0.3975  0.3939  0.8994
 5968SOL    HW229364   1.298   0.437   1.523 -0.9128 -0.8211 -2.7735
 5969SOL     OW29365   0.955   1.037   6.773  0.2207 -0.1327  0.0382
 5969SOL    HW129366   0.955   0.970   6.841 -2.5507  0.9866  1.1436
 5969SOL    HW229367   1.010   1.099   6.821  0.5364  1.3025 -2.1543
 5970SOL     OW29368   2.134   2.349   7.576  0.0499 -0.3663 -0.3065
 5970SOL    HW129369   2.173   2.435   7.563  1.5061 -0.8381  0.8775
 5970SOL    HW229370   2.070   2.363   7.645 -1.0240  1.0074 -1.6036
 5971SOL     OW29371   4.208   2.010   2.973  0.6154 -0.3414  0.0119
 5971SOL    HW129372   4.300   1.984   2.978  1.0719  1.3012  0.0767
 5971SOL    HW229373   4.226   2.079   2.909 -0.4781  1.4101  1.5969
 5972SOL     OW29374   1.511   2.369   6.517  0.0285  0.1156 -0.1277
 5972SOL    HW129375   1.434   2.418   6.487 -1.0651 -1.6791 -0.2178
 5972SOL    HW229376   1.478   2.281   6.499  0.3839  0.4806 -2.5761
 5973SOL     OW29377   3.770   1.560   3.722  0.0588  0.0232  0.2669
 5973SOL    HW129378   3.721   1.557   3.640 -0.5183 -0.2863  0.6273
 5973SOL    HW229379   3.851   1.601   3.694 -0.7769  0.5617 -1.3163
 5974SOL     OW29380   0.265   0.576  10.572  0.0766 -0.4292 -0.1984
 5974SOL    HW129381   0.177   0.559  10.606  0.1740 -1.2777 -0.3837
 5974SOL    HW229382   0.250   0.563  10.478 -1.9436  0.0665  0.0514
 5975SOL     OW29383   3.576   0.783   5.662  0.2596  0.2717 -0.1293
 5975SOL    HW129384   3.609   0.817   5.579 -0.5480 -1.3753 -1.1348
 5975SOL    HW229385   3.583   0.855   5.725  4.0298  0.2985 -0.5520
 5976SOL     OW29386   3.798   1.054   9.470 -0.2022 -0.1058 -0.1014
 5976SOL    HW129387   3.734   1.002   9.518  0.5269 -0.1443  0.8256
 5976SOL    HW229388   3.747   1.072   9.391 -0.5332  0.9052  0.3457
 5977SOL     OW29389   3.970   0.981  10.081 -0.2185  0.1305 -0.2814
 5977SOL    HW129390   3.899   0.982  10.145  0.0459 -1.0021  0.0297
 5977SOL    HW229391   4.039   0.924  10.116  0.6383  2.8458  2.4181
 5978SOL     OW29392   2.180   2.600   0.633  0.2433 -0.1241 -0.2772
 5978SOL    HW129393   2.200   2.557   0.716 -1.1235  0.9264  0.5944
 5978SOL    HW229394   2.129   2.536   0.583 -0.0273 -0.3491  0.2907
 5979SOL     OW29395   2.833   4.342   3.662  0.2366 -0.8753  0.1231
 5979SOL    HW129396   2.916   4.300   3.639 -0.3255 -1.5625 -0.6621
 5979SOL    HW229397   2.839   4.413   3.598  0.3463 -2.1821 -1.3184
 5980SOL     OW29398   4.404   1.255   4.134  0.0346  0.1228 -0.5103
 5980SOL    HW129399   4.376   1.165   4.116 -0.4569  0.1784 -0.0378
 5980SOL    HW229400   4.416   1.279   4.043  1.2619  1.2172 -0.0654
 5981SOL     OW29401   2.000   4.687  15.965  0.2934  0.6861 -0.0065
 5981SOL    HW129402   2.088   4.651  15.965  0.5007  1.1676 -1.5928
 5981SOL    HW229403   1.997   4.713  16.057 -0.8690  1.4832 -0.2669
 5982SOL     OW29404   3.610   0.685   1.792  0.2125 -1.0040  0.1050
 5982SOL    HW129405   3.627   0.767   1.747 -0.6279 -0.6347  0.4490
 5982SOL    HW229406   3.690   0.633   1.802  0.6247 -0.2385  0.7896
 5983SOL     OW29407   2.137   3.675   1.033 -0.1609  0.2319  0.5057
 5983SOL    HW129408   2.154   3.591   0.990  1.6555 -1.3400  4.2610
 5983SOL    HW229409   2.139   3.726   0.953 -0.7876 -1.4677 -0.6009
 5984SOL     OW29410   3.749   1.101   9.894  0.4062 -0.7085 -0.4519
 5984SOL    HW129411   3.833   1.108   9.848  0.4015  3.1381  0.1526
 5984SOL    HW229412   3.777   1.048   9.969  0.1015 -0.4855 -0.1817
 5985SOL     OW29413   3.584   3.743  10.603  0.0303  0.3075  0.1350
 5985SOL    HW129414   3.529   3.787  10.669  3.4290  2.3147  1.5934
 5985SOL    HW229415   3.667   3.729  10.649  0.4314  1.9248 -0.1263
 5986SOL     OW29416   0.727   2.905   7.246 -0.0390  0.1596  0.5705
 5986SOL    HW129417   0.791   2.949   7.191 -1.3044 -0.9631 -1.8407
 5986SOL    HW229418   0.671   2.974   7.280  0.2576  0.1172  1.1402
 5987SOL     OW29419   2.012   1.189   4.391 -0.0572  0.4038  0.4418
 5987SOL    HW129420   2.092   1.171   4.342 -0.0713  0.0060  0.5608
 5987SOL    HW229421   2.015   1.284   4.380  0.0048  0.3954  0.3861
 5988SOL     OW29422   4.067   0.645   9.341 -0.3756  0.5330  0.9140
 5988SOL    HW129423   4.107   0.686   9.265 -0.0937 -0.1895  0.6756
 5988SOL    HW229424   4.109   0.690   9.415  0.7186  2.0183 -0.6082
 5989SOL     OW29425   4.349   1.497  13.034  0.7706  0.9664  0.1745
 5989SOL    HW129426   4.410   1.427  13.015  0.6030  0.4396  1.6006
 5989SOL    HW229427   4.362   1.504  13.128 -0.5246  0.5864  0.3927
 5990SOL     OW29428   1.400   2.212   3.932 -0.0682  0.3048  0.5767
 5990SOL    HW129429   1.432   2.289   3.978  1.8420 -0.1031 -0.0934
 5990SOL    HW229430   1.469   2.191   3.869 -2.2154 -2.7638 -0.7816
 5991SOL     OW29431   0.665   1.125   2.285 -0.1989 -0.5830  0.5099
 5991SOL    HW129432   0.730   1.057   2.302 -1.3203 -1.4009  1.4776
 5991SOL    HW229433   0.631   1.096   2.201 -1.3787 -3.7633  2.0876
 5992SOL     OW29434   2.029   4.610   8.904 -0.3894  0.5853  0.2645
 5992SOL    HW129435   1.957   4.574   8.955 -0.4740 -0.4465 -0.5764
 5992SOL    HW229436   1.984   4.680   8.857 -1.2858  0.4444  0.9168
 5993SOL     OW29437   2.714   0.396   4.270 -0.1848  0.2012 -0.6061
 5993SOL    HW129438   2.623   0.399   4.240  0.1178 -1.8225 -1.7506
 5993SOL    HW229439   2.692   0.433   4.355 -0.3075 -1.1981 -0.0277
 5994SOL     OW29440   3.101   3.699   2.899  0.6522  0.5292  0.0644
 5994SOL    HW129441   3.041   3.771   2.920  0.5984  0.2028  0.9925
 5994SOL    HW229442   3.041   3.630   2.871 -0.2317  1.6020 -0.6949
 5995SOL     OW29443   1.089   2.330   4.455  0.1506  0.1206 -0.6926
 5995SOL    HW129444   1.051   2.343   4.541  2.5803  0.4631  0.3439
 5995SOL    HW229445   1.164   2.274   4.475 -2.0238 -2.2773  0.5765
 5996SOL     OW29446   3.635   3.621   1.095  0.4285 -0.1818  0.2312
 5996SOL    HW129447   3.570   3.646   1.162  0.8672  3.1983 -0.6172
 5996SOL    HW229448   3.624   3.526   1.100  1.3889 -0.3256 -0.4678
 5997SOL     OW29449   2.096   3.219   4.954 -0.3893 -0.0717 -0.2177
 5997SOL    HW129450   2.154   3.201   4.880  0.5673  0.8927  0.3201
 5997SOL    HW229451   2.149   3.281   5.003 -2.4086  3.5285 -2.5507
 5998SOL     OW29452   2.806   1.908   2.907 -0.3658  0.1699 -0.0435
 5998SOL    HW129453   2.792   1.857   2.827 -0.2886 -0.8376  0.5877
 5998SOL    HW229454   2.798   1.839   2.973  1.5375  0.1175  0.1543
 5999SOL     OW29455   3.538   4.708   8.329 -0.5832  0.3367 -0.0560
 5999SOL    HW129456   3.444   4.709   8.347 -0.4445  1.6434  0.6261
 5999SOL    HW229457   3.567   0.062   8.379  1.2654 -1.8384  2.2568
 6000SOL     OW29458   4.120   4.049   8.221 -0.7129  0.4992  0.6989
 6000SOL    HW129459   4.145   4.095   8.141 -1.2018  1.2909  1.0010
 6000SOL    HW229460   4.185   4.090   8.277 -1.0724  0.2969  1.2616
 6001SOL     OW29461   3.261   0.951   9.020 -0.0577  0.0865  0.6170
 6001SOL    HW129462   3.349   0.920   9.042  0.8276  2.0154 -0.1553
 6001SOL    HW229463   3.225   0.981   9.103 -2.1974  2.4974 -1.1690
 6002SOL     OW29464   3.103   2.278   2.967 -0.1092  0.1420  0.2109
 6002SOL    HW129465   3.027   2.224   2.990 -0.8037  1.0009 -0.0293
 6002SOL    HW229466   3.103   2.269   2.872 -1.6586  1.9083  0.0318
 6003SOL     OW29467   4.470   2.232   7.307 -0.0270  0.0407  0.1505
 6003SOL    HW129468   4.515   2.315   7.324  0.3861 -0.4173  1.2838
 6003SOL    HW229469   4.456   2.233   7.212  0.6780  0.3271  0.0468
 6004SOL     OW29470   4.310   1.409   1.878 -0.2811 -0.1503 -0.0510
 6004SOL    HW129471   4.346   1.360   1.952  0.0163  2.9939  1.9171
 6004SOL    HW229472   4.384   1.463   1.851 -1.1581  1.6047  1.0765
 6005SOL     OW29473   2.556   3.931  11.877 -0.0899  0.0954  0.0522
 6005SOL    HW129474   2.602   3.847  11.883 -1.2916 -0.3472  2.9160
 6005SOL    HW229475   2.591   3.976  11.800  0.3981 -1.3248 -0.5647
 6006SOL     OW29476   1.220   1.803   9.760  0.0290 -0.5498 -0.0775
 6006SOL    HW129477   1.247   1.731   9.818 -1.2871 -0.8538  0.1630
 6006SOL    HW229478   1.302   1.841   9.729 -0.7479 -0.9394 -2.5827
 6007SOL     OW29479   2.213   1.837   4.505 -0.7940  0.3916  0.1279
 6007SOL    HW129480   2.252   1.923   4.513  0.2844  0.2372 -3.4565
 6007SOL    HW229481   2.230   1.813   4.413  2.9094  1.5215  0.5155
 6008SOL     OW29482   4.274   4.073   7.958  0.5739  0.5135  0.2909
 6008SOL    HW129483   4.307   3.987   7.984 -1.5060 -0.2745  0.3328
 6008SOL    HW229484   4.353   4.127   7.950  0.3590  1.1115  2.0709
 6009SOL     OW29485   3.053   1.943   2.303 -0.0908  0.2144  0.5309
 6009SOL    HW129486   3.056   1.904   2.216  0.5442 -0.0537  0.6699
 6009SOL    HW229487   2.965   1.979   2.310 -1.2051 -2.3890 -0.2399
 6010SOL     OW29488   4.502   2.176  15.347 -0.3517  0.0591  0.4989
 6010SOL    HW129489   4.528   2.088  15.374  0.5153  0.0059 -0.5330
 6010SOL    HW229490   4.503   2.224  15.430  0.0619  0.7289  0.1062
 6011SOL     OW29491   3.706   3.375  11.124 -0.4047  0.2869  0.4941
 6011SOL    HW129492   3.610   3.373  11.127 -0.4710  1.7234 -0.5457
 6011SOL    HW229493   3.721   3.281  11.114  2.0343  0.7644 -0.1407
 6012SOL     OW29494   3.806   1.510   6.376 -0.3516 -0.0295 -0.0008
 6012SOL    HW129495   3.761   1.486   6.295 -0.7474 -0.0205  0.2136
 6012SOL    HW229496   3.845   1.430   6.412  1.9489  0.6172 -1.0942
 6013SOL     OW29497   3.995   3.853   7.769  0.4817 -0.1672  0.3622
 6013SOL    HW129498   4.018   3.934   7.814  0.3566  0.0619  0.0208
 6013SOL    HW229499   4.079   3.826   7.733  0.4653 -1.2521  1.1469
 6014SOL     OW29500   0.656   1.227   7.999  0.0632  0.5104  0.4513
 6014SOL    HW129501   0.673   1.153   8.057 -0.2573  0.6689  0.7456
 6014SOL    HW229502   0.592   1.278   8.049  0.0379  0.6008  0.3292
 6015SOL     OW29503   0.494   1.902   3.004  0.2316 -0.0073 -0.2451
 6015SOL    HW129504   0.473   1.887   2.911 -0.1100 -2.0795  0.1643
 6015SOL    HW229505   0.434   1.836   3.039  1.5203 -1.5772 -0.9765
 6016SOL     OW29506   2.845   0.932  14.915  0.0594 -0.3334  0.3575
 6016SOL    HW129507   2.935   0.936  14.881 -0.3027 -2.0147 -0.7656
 6016SOL    HW229508   2.822   1.020  14.885 -0.6424 -0.5719  0.2116
 6017SOL     OW29509   0.860   1.544   8.052 -0.0632 -0.1888  0.6027
 6017SOL    HW129510   0.887   1.620   8.103  1.2729  1.3585 -2.3493
 6017SOL    HW229511   0.766   1.562   8.049 -0.6769 -3.7104 -2.6308
 6018SOL     OW29512   3.358   0.330   2.554 -0.5748  0.5928  0.3631
 6018SOL    HW129513   3.267   0.328   2.523 -1.7935  1.9717  3.8881
 6018SOL    HW229514   3.360   0.421   2.581 -0.2253  0.8234 -0.4194
 6019SOL     OW29515   0.890   1.334   7.885 -0.0563  0.1695  0.2230
 6019SOL    HW129516   0.905   1.411   7.940  3.4190  1.1252 -2.0786
 6019SOL    HW229517   0.813   1.297   7.927  0.9332 -2.3308 -0.1307
 6020SOL     OW29518   2.462   4.237   8.403  0.3754  0.1097  0.4200
 6020SOL    HW129519   2.455   4.320   8.452 -2.2131  0.3136 -0.2919
 6020SOL    HW229520   2.556   4.222   8.414  0.6890  1.1878 -0.8204
 6021SOL     OW29521   1.096   2.220   5.377  0.0360 -0.2392  0.6206
 6021SOL    HW129522   1.175   2.262   5.411 -1.6914  3.5483  0.0088
 6021SOL    HW229523   1.098   2.236   5.283 -1.1348 -2.5146  0.2198
 6022SOL     OW29524   0.141   1.652  12.248  0.2168 -0.3939 -0.1707
 6022SOL    HW129525   0.075   1.645  12.317 -0.3924  1.1346 -0.6092
 6022SOL    HW229526   0.214   1.699  12.288 -0.0708  1.4996 -1.8699
 6023SOL     OW29527   0.198   2.370  12.113 -0.2863 -0.1613  0.1435
 6023SOL    HW129528   0.231   2.365  12.203  1.6687 -0.3334 -0.5726
 6023SOL    HW229529   0.119   2.423  12.112 -0.6108 -0.6357  1.0840
 6024SOL     OW29530   2.564   4.146   5.720  0.2733 -0.0339 -0.1021
 6024SOL    HW129531   2.485   4.126   5.770  1.1061 -1.0357  0.7982
 6024SOL    HW229532   2.576   4.072   5.660 -0.3573 -0.7778  0.6868
 6025SOL     OW29533   0.032   2.910   7.100 -0.3244  0.5697 -0.1538
 6025SOL    HW129534   0.096   2.961   7.151 -1.7257  2.3859 -0.1993
 6025SOL    HW229535   0.026   2.833   7.157  0.2223 -0.8285 -1.9937
 6026SOL     OW29536   3.021   4.445   4.862  0.4209  1.0622 -0.6965
 6026SOL    HW129537   3.102   4.492   4.880  0.0124  1.7579 -0.7001
 6026SOL    HW229538   2.954   4.493   4.911 -0.0028 -2.0367  1.7801
 6027SOL     OW29539   2.347   0.796   7.021  0.0416 -0.2787 -0.0918
 6027SOL    HW129540   2.405   0.872   7.011  0.5553 -0.7845 -0.9494
 6027SOL    HW229541   2.412   0.726   7.014  2.7771  2.2416 -0.5244
 6028SOL     OW29542   0.665   1.911  17.667 -0.5579 -0.1695 -0.2716
 6028SOL    HW129543   0.590   1.862  17.634  0.0360 -0.5538 -1.0720
 6028SOL    HW229544   0.713   1.841   0.018  0.4609 -0.7921 -2.3335
 6029SOL     OW29545   4.359   1.005   4.887 -0.0895  0.6694  0.4861
 6029SOL    HW129546   4.312   0.992   4.805 -2.7173  1.0673  1.9289
 6029SOL    HW229547   4.334   0.929   4.939  3.4855 -2.2979 -2.1089
 6030SOL     OW29548   4.651   3.804  13.380 -0.0923 -0.0363  0.4153
 6030SOL    HW129549   4.717   3.860  13.338 -0.3169  0.7120  1.0748
 6030SOL    HW229550   4.716   3.757  13.433  0.0403 -0.4713 -0.1338
 6031SOL     OW29551   3.667   3.542  10.226  0.2638  0.1629  0.0750
 6031SOL    HW129552   3.651   3.494  10.308 -0.7497  1.9849  0.9415
 6031SOL    HW229553   3.679   3.468  10.167  0.8219  1.8569 -1.9317
 6032SOL     OW29554   0.432   4.182   4.931 -0.2524  0.4497  0.1935
 6032SOL    HW129555   0.438   4.232   5.013  0.0316 -0.9872  1.0421
 6032SOL    HW229556   0.392   4.240   4.866 -0.1275 -1.4943 -1.6132
 6033SOL     OW29557   2.485   0.713  13.319  0.0244 -0.1718  0.0096
 6033SOL    HW129558   2.422   0.720  13.391  0.8905  0.6570  0.6941
 6033SOL    HW229559   2.490   0.618  13.310 -0.1741 -0.3669  1.9978
 6034SOL     OW29560   0.850   1.833  13.776  0.3728  0.2681  0.1417
 6034SOL    HW129561   0.853   1.892  13.700  2.9183 -0.6629 -0.4809
 6034SOL    HW229562   0.942   1.809  13.777  0.4740  0.5048 -2.7842
 6035SOL     OW29563   3.712   3.110   6.138  0.3277  0.1549 -0.4523
 6035SOL    HW129564   3.677   3.117   6.226  1.4582  0.7093 -0.0445
 6035SOL    HW229565   3.805   3.089   6.147  0.4198 -0.0850 -1.9096
 6036SOL     OW29566   2.961   4.430  12.681 -0.0395 -0.8427 -0.4308
 6036SOL    HW129567   2.997   4.420  12.593 -0.1656 -1.1204 -0.4526
 6036SOL    HW229568   2.868   4.432  12.657 -0.1769  2.0773  0.3816
 6037SOL     OW29569   4.256   2.061   7.205  0.0872  0.1377  1.0093
 6037SOL    HW129570   4.304   2.106   7.275 -0.6099 -1.4579  2.5261
 6037SOL    HW229571   4.165   2.068   7.233  0.2278  1.2528  1.1857
 6038SOL     OW29572   2.057   1.401   7.285  0.1044  0.4167 -0.2250
 6038SOL    HW129573   2.091   1.489   7.295  0.2174  0.5397 -1.6483
 6038SOL    HW229574   1.980   1.417   7.229 -0.4270  0.8261  0.6200
 6039SOL     OW29575   0.433   0.460   6.149  0.2010 -0.1942  0.8644
 6039SOL    HW129576   0.488   0.517   6.094 -2.5351  1.0988 -0.5357
 6039SOL    HW229577   0.425   0.378   6.101 -0.7147 -0.3015  1.2216
 6040SOL     OW29578   0.965   1.301  11.810  0.2586 -0.7573 -0.2192
 6040SOL    HW129579   0.915   1.230  11.852  0.7820 -2.0387 -1.7770
 6040SOL    HW229580   1.051   1.260  11.804  0.5327 -0.3958  1.1767
 6041SOL     OW29581   2.672   2.076   3.452 -0.0797  0.2756  0.1069
 6041SOL    HW129582   2.604   2.018   3.418  2.0788 -1.5009 -1.1740
 6041SOL    HW229583   2.626   2.112   3.528 -0.0641 -2.1098  1.2553
 6042SOL     OW29584   0.085   0.485   8.003 -0.0157 -0.4528  0.0363
 6042SOL    HW129585   0.166   0.490   8.053 -1.0826 -0.9968  1.8025
 6042SOL    HW229586   0.116   0.551   7.940  1.6928 -1.9420 -0.6945
 6043SOL     OW29587   2.399   4.185   2.623  0.1709  0.6129  0.1095
 6043SOL    HW129588   2.316   4.159   2.663  0.3211  3.7297  2.4564
 6043SOL    HW229589   2.368   4.238   2.550 -1.1522  0.6037  0.6684
 6044SOL     OW29590   0.938   0.466  14.906  0.2456 -0.0809 -0.3375
 6044SOL    HW129591   1.027   0.483  14.937 -0.1696 -0.2340  0.9162
 6044SOL    HW229592   0.946   0.469  14.810  1.1035 -1.0871 -0.3064
 6045SOL     OW29593   3.601   3.108  10.695 -0.1531  0.2520  0.0325
 6045SOL    HW129594   3.598   3.203  10.707 -2.4933  0.1424  0.4026
 6045SOL    HW229595   3.677   3.098  10.637 -1.2707  1.9815 -1.7229
 6046SOL     OW29596   2.054   3.003   0.410 -0.1097  0.8351 -0.6432
 6046SOL    HW129597   2.127   3.003   0.472 -1.0064  1.3397  0.4229
 6046SOL    HW229598   2.090   3.057   0.340  0.5010  2.4636  0.9065
 6047SOL     OW29599   0.716   2.505   2.543  0.6213 -0.4938 -0.1324
 6047SOL    HW129600   0.703   2.450   2.620 -2.0889 -0.7602 -0.8152
 6047SOL    HW229601   0.799   2.553   2.550  1.3443 -1.8468  0.5595
 6048SOL     OW29602   4.086   1.229   1.191 -0.3192  0.0404 -0.2806
 6048SOL    HW129603   4.075   1.232   1.286 -3.1546  0.9407 -0.6384
 6048SOL    HW229604   4.001   1.247   1.152 -0.4744 -1.8453 -0.8078
 6049SOL     OW29605   3.242   4.092   6.115  0.0593  0.1916 -0.1063
 6049SOL    HW129606   3.252   4.011   6.066  0.0342 -1.6863  2.9970
 6049SOL    HW229607   3.152   4.091   6.146 -0.2724 -1.6471 -1.1588
 6050SOL     OW29608   2.807   0.005   7.957 -0.5181  0.0944  0.0152
 6050SOL    HW129609   2.876   4.663   7.974 -1.9595 -1.6402 -0.7672
 6050SOL    HW229610   2.746   4.672   7.909 -0.2417 -0.2005  0.0052
 6051SOL     OW29611   2.928   1.655  12.398 -0.3241 -0.4501  0.5275
 6051SOL    HW129612   3.022   1.660  12.384 -0.4174  0.4916  0.2827
 6051SOL    HW229613   2.918   1.567  12.435  0.8461 -0.6476  0.3665
 6052SOL     OW29614   3.239   3.992   3.626 -0.0057 -0.3863 -0.1870
 6052SOL    HW129615   3.301   4.035   3.685  2.2122 -0.7493 -2.2480
 6052SOL    HW229616   3.286   3.915   3.594 -0.9920 -0.2333 -2.0186
 6053SOL     OW29617   3.776   2.689   1.288 -0.7792 -0.4693  0.3046
 6053SOL    HW129618   3.792   2.772   1.334 -1.0580 -0.8890  1.1553
 6053SOL    HW229619   3.764   2.714   1.196 -0.5288  1.7475  0.8799
 6054SOL     OW29620   2.183   0.472   8.990  0.2497  0.7492 -0.1254
 6054SOL    HW129621   2.102   0.480   8.939  0.1395 -2.3977 -0.4693
 6054SOL    HW229622   2.233   0.545   8.954 -0.7763  1.8767  0.7469
 6055SOL     OW29623   2.443   4.546  13.157 -0.4752 -0.3808  0.7675
 6055SOL    HW129624   2.482   4.496  13.229 -0.5556  0.7383  1.5763
 6055SOL    HW229625   2.400   4.478  13.104 -0.8715  0.6057 -0.1770
 6056SOL     OW29626   3.064   1.980   2.879  0.4019  0.0033  0.4915
 6056SOL    HW129627   2.975   1.969   2.911  0.7279  3.1072  2.4017
 6056SOL    HW229628   3.040   1.981   2.786  0.2821 -2.0031  0.5015
 6057SOL     OW29629   0.446   4.718  14.009 -0.0168  0.1735  0.0072
 6057SOL    HW129630   0.512   4.691  13.945  0.1835  3.8043 -1.2970
 6057SOL    HW229631   0.374   0.027  13.955  0.7495 -0.0787 -1.1472
 6058SOL     OW29632   1.909   4.715  16.487 -0.5668  0.5534  0.1360
 6058SOL    HW129633   1.922   4.634  16.537  0.0155 -0.1138 -1.0900
 6058SOL    HW229634   1.815   4.721  16.472 -0.5849  1.5504  0.6709
 6059SOL     OW29635   4.108   2.700  12.366 -0.1226 -0.3550 -0.0964
 6059SOL    HW129636   4.180   2.678  12.306 -1.4503 -1.0424 -1.4393
 6059SOL    HW229637   4.146   2.648  12.437 -0.2375 -0.2350  0.0531
 6060SOL     OW29638   2.964   3.740   8.375 -0.0889  0.3805  0.2447
 6060SOL    HW129639   2.906   3.766   8.447  0.1669 -1.7425  1.1893
 6060SOL    HW229640   2.978   3.646   8.383 -0.7745  0.2133 -0.5043
 6061SOL     OW29641   0.178   2.887   6.309 -0.3436 -0.3450 -0.3527
 6061SOL    HW129642   0.229   2.828   6.254  0.1725  1.6875 -2.0605
 6061SOL    HW229643   0.241   2.919   6.374  0.5405 -0.6201 -1.0821
 6062SOL     OW29644   4.086   3.768   9.941  0.4119 -0.0484  0.5116
 6062SOL    HW129645   4.174   3.788   9.973  0.9025 -1.8449  0.2860
 6062SOL    HW229646   4.044   3.759  10.026 -1.4658 -1.8981 -0.5937
 6063SOL     OW29647   0.808   0.531   9.841  0.1671  0.0181  1.0076
 6063SOL    HW129648   0.884   0.589   9.832  0.5256 -0.3180  1.8627
 6063SOL    HW229649   0.822   0.473   9.916 -0.2607 -1.2155  0.1389
 6064SOL     OW29650   1.169   0.071   3.593  0.1000 -0.3948 -0.2887
 6064SOL    HW129651   1.104   0.053   3.526  0.7969 -1.6224 -0.6310
 6064SOL    HW229652   1.242   0.091   3.534  1.2308  0.9310  1.5509
 6065SOL     OW29653   2.930   1.634  13.592  0.0760 -0.0437  1.0537
 6065SOL    HW129654   2.943   1.556  13.647  0.1337 -1.4401 -0.9248
 6065SOL    HW229655   3.012   1.683  13.592  2.0985 -3.4030 -0.8633
 6066SOL     OW29656   2.667   4.241  10.515  0.0586 -0.6035 -0.4246
 6066SOL    HW129657   2.759   4.238  10.541  0.4421 -0.4426 -1.7701
 6066SOL    HW229658   2.650   4.148  10.501 -0.0322 -1.0029  2.2847
 6067SOL     OW29659   0.518   0.921  14.583 -0.3273  0.2672  0.0214
 6067SOL    HW129660   0.561   0.904  14.499 -2.1878  1.4594 -1.1629
 6067SOL    HW229661   0.425   0.923  14.562 -0.1457 -0.2921 -0.8252
 6068SOL     OW29662   3.030   4.069   8.324 -0.0108 -0.2396  0.5095
 6068SOL    HW129663   2.956   4.044   8.379 -0.3748 -1.0846 -0.3679
 6068SOL    HW229664   3.107   4.025   8.361 -0.7141  0.7957  3.2325
 6069SOL     OW29665   0.076   1.800  17.081 -0.5689 -0.0910  0.0062
 6069SOL    HW129666   0.134   1.814  17.156 -1.1126 -2.7337  0.9259
 6069SOL    HW229667   4.722   1.840  17.121 -1.5186 -2.0769  0.1921
 6070SOL     OW29668   3.469   3.324   5.106  0.0542  0.4770  0.1031
 6070SOL    HW129669   3.430   3.246   5.146  0.5877 -0.3093 -0.9015
 6070SOL    HW229670   3.511   3.367   5.180 -1.1717 -0.2270  1.2063
 6071SOL     OW29671   1.387   3.942  16.428 -0.1578 -0.0515 -0.7111
 6071SOL    HW129672   1.454   3.874  16.432 -0.0050  0.0049 -2.1415
 6071SOL    HW229673   1.428   3.996  16.360 -0.1290  0.6463 -0.1360
 6072SOL     OW29674   2.317   2.523   3.608 -0.0559  0.1479  0.3299
 6072SOL    HW129675   2.404   2.552   3.580 -0.5328 -1.7721 -3.2349
 6072SOL    HW229676   2.318   2.558   3.697  3.4177  0.6387  0.1247
 6073SOL     OW29677   1.991   3.894   6.185 -0.5143  0.4313  0.0896
 6073SOL    HW129678   2.068   3.898   6.242 -0.7045 -1.1119  0.4542
 6073SOL    HW229679   1.942   3.823   6.226 -2.7734  3.4964  2.7083
 6074SOL     OW29680   0.585   3.407   8.459 -0.0807 -0.6228 -0.0280
 6074SOL    HW129681   0.516   3.455   8.505  0.1131  1.7703 -2.2154
 6074SOL    HW229682   0.543   3.322   8.446 -0.4903 -0.3589 -0.4318
 6075SOL     OW29683   0.095   0.713   2.157  0.2969 -0.0654 -0.1454
 6075SOL    HW129684   0.030   0.651   2.122 -0.6562  1.2454 -0.7044
 6075SOL    HW229685   0.163   0.698   2.093  0.5835  0.3010  0.0760
 6076SOL     OW29686   1.113   3.084  17.267 -0.2398  0.0859  0.1585
 6076SOL    HW129687   1.119   3.073  17.362  1.6073  0.4852  0.0782
 6076SOL    HW229688   1.180   3.145  17.237 -2.0812  1.8123 -0.4700
 6077SOL     OW29689   0.847   0.621   3.035  0.6917  0.2826  0.1528
 6077SOL    HW129690   0.782   0.668   3.087  0.4037 -1.3625  1.2847
 6077SOL    HW229691   0.825   0.646   2.945  1.2273  0.4981  0.0780
 6078SOL     OW29692   3.934   4.524   6.544 -0.5992 -0.3089 -0.6647
 6078SOL    HW129693   3.967   4.442   6.579  1.2698  0.9658  0.5118
 6078SOL    HW229694   3.962   4.585   6.612 -2.7502 -0.4467  0.3381
 6079SOL     OW29695   3.088   1.365   9.758  0.6905 -0.0802  0.1344
 6079SOL    HW129696   3.175   1.377   9.722  0.3537 -0.1351 -0.6961
 6079SOL    HW229697   3.035   1.349   9.680 -1.5821  1.1813  1.3918
 6080SOL     OW29698   0.424   3.339   1.216 -0.2822 -0.0037 -0.2340
 6080SOL    HW129699   0.420   3.243   1.224 -0.4151  0.1411  1.5911
 6080SOL    HW229700   0.356   3.349   1.150 -1.1086 -0.8744  0.4758
 6081SOL     OW29701   4.213   0.332   9.088  0.1035  0.1542 -0.5069
 6081SOL    HW129702   4.256   0.393   9.029 -0.0540  0.1333 -0.6453
 6081SOL    HW229703   4.274   0.323   9.160 -0.0375  2.5723 -0.0947
 6082SOL     OW29704   4.475   1.929   2.946  0.5995 -0.3255 -0.0758
 6082SOL    HW129705   4.535   1.858   2.970  1.6493  0.7527  0.4576
 6082SOL    HW229706   4.527   1.973   2.879  0.9185  1.3970  1.3251
 6083SOL     OW29707   3.879   3.403   1.133 -0.0293 -0.1496 -0.3136
 6083SOL    HW129708   3.913   3.359   1.211  0.9335 -0.3796 -0.8645
 6083SOL    HW229709   3.861   3.333   1.069  2.1147 -0.8968 -0.0884
 6084SOL     OW29710   3.265   2.739  11.966 -0.3579  0.0162  0.0101
 6084SOL    HW129711   3.331   2.700  12.023 -1.0663 -0.2634  0.6277
 6084SOL    HW229712   3.208   2.663  11.958 -0.8710  0.5262 -1.2894
 6085SOL     OW29713   3.915   1.746   4.763 -0.2497  0.1299  0.0312
 6085SOL    HW129714   3.844   1.749   4.828 -0.1154  1.8593  0.0825
 6085SOL    HW229715   3.982   1.713   4.822 -2.2276 -1.7430  1.2317
 6086SOL     OW29716   2.588   1.490   6.138  0.4937 -0.0144  0.3992
 6086SOL    HW129717   2.495   1.472   6.135  0.7275 -1.1258 -0.1533
 6086SOL    HW229718   2.633   1.407   6.123 -2.0918 -1.6912  2.0194
 6087SOL     OW29719   2.032   3.584   7.549  0.0292  0.3647  0.6587
 6087SOL    HW129720   1.951   3.585   7.499  0.0488 -0.0396  0.6201
 6087SOL    HW229721   2.092   3.533   7.495  0.3565  0.9830  0.4363
 6088SOL     OW29722   3.447   1.718  12.248  0.6215 -1.0914 -0.4642
 6088SOL    HW129723   3.486   1.805  12.253 -0.9225 -0.3950 -0.3781
 6088SOL    HW229724   3.431   1.697  12.156 -1.6833  0.2139 -0.3671
 6089SOL     OW29725   0.102   3.411   2.797 -0.1881 -0.7535  0.0832
 6089SOL    HW129726   0.194   3.403   2.772 -0.1775  0.8443 -0.3536
 6089SOL    HW229727   0.091   3.504   2.779  0.7908 -0.6946 -0.1768
 6090SOL     OW29728   0.688   4.638   2.557 -0.6732  0.5157 -0.1976
 6090SOL    HW129729   0.616   4.576   2.567  0.0685 -0.3325 -0.2313
 6090SOL    HW229730   0.639   4.700   2.503 -1.4273  0.9179  0.9410
 6091SOL     OW29731   1.015   1.265   4.821 -0.2301 -0.3523 -0.1403
 6091SOL    HW129732   0.921   1.272   4.806 -0.4335 -0.3526  1.1201
 6091SOL    HW229733   1.049   1.248   4.733 -0.8649  0.4987 -0.5458
 6092SOL     OW29734   2.458   1.727   7.891 -0.2639  0.2145 -0.1011
 6092SOL    HW129735   2.533   1.667   7.896  0.4413  1.3940  3.7500
 6092SOL    HW229736   2.400   1.664   7.850 -1.9273  3.5434 -2.8605
 6093SOL     OW29737   0.051   3.703   2.955 -0.0851 -0.2124  0.4346
 6093SOL    HW129738   4.691   3.656   2.951  0.3875 -1.1620  1.9030
 6093SOL    HW229739   0.028   3.794   2.937 -0.0421 -0.0548  1.2029
 6094SOL     OW29740   4.479   3.194   8.348 -0.2496 -0.5541 -0.3964
 6094SOL    HW129741   4.395   3.227   8.379 -0.1617  1.2675 -2.0727
 6094SOL    HW229742   4.452   3.104   8.364 -2.2766 -0.2369 -2.1288
 6095SOL     OW29743   2.591   0.971   8.388 -0.3544 -0.4574  0.0429
 6095SOL    HW129744   2.536   1.027   8.443 -1.6598 -0.6362 -1.0597
 6095SOL    HW229745   2.679   0.993   8.419  0.3959 -1.1940 -1.5312
 6096SOL     OW29746   4.721   2.369   3.013 -0.4422  0.6130  0.3727
 6096SOL    HW129747   4.673   2.447   3.040 -0.7042  0.7390 -0.4783
 6096SOL    HW229748   4.701   2.367   2.920 -2.8986 -1.6235  0.9305
 6097SOL     OW29749   1.506   4.309   6.991  0.1832  0.5689  0.5548
 6097SOL    HW129750   1.524   4.348   7.077  0.5808  0.7229  0.4027
 6097SOL    HW229751   1.594   4.272   6.981 -0.0734  0.4359 -1.1278
 6098SOL     OW29752   2.405   0.719  10.931 -0.1879 -0.1127 -0.0454
 6098SOL    HW129753   2.473   0.722  10.998 -0.3592 -3.8291  0.2948
 6098SOL    HW229754   2.327   0.748  10.979 -2.1879 -1.3673 -2.4856
 6099SOL     OW29755   2.408   0.966  11.767 -0.2255 -0.1825  0.4197
 6099SOL    HW129756   2.465   0.890  11.756 -1.7485 -1.3396  0.4228
 6099SOL    HW229757   2.429   1.015  11.847 -0.1581  0.0086  0.2827
 6100SOL     OW29758   2.898   3.600  12.995  0.0683  0.2275 -0.2779
 6100SOL    HW129759   2.822   3.658  13.006  1.7110  2.0252  1.7764
 6100SOL    HW229760   2.927   3.619  12.906  1.1562 -1.3978 -0.2727
 6101SOL     OW29761   4.706   0.123   2.322  0.4169 -0.8222  0.5064
 6101SOL    HW129762   4.716   0.061   2.249 -5.0922  1.4337 -2.1422
 6101SOL    HW229763   4.610   0.123   2.323  0.4306  0.0238  1.4023
 6102SOL     OW29764   0.363   1.585   5.167  0.2301 -0.1053 -0.0444
 6102SOL    HW129765   0.280   1.613   5.205  0.4075  1.0955 -0.5173
 6102SOL    HW229766   0.423   1.649   5.206  0.6445  1.0932 -2.6341
 6103SOL     OW29767   2.092   2.470  11.159  0.7830 -0.0360 -0.6791
 6103SOL    HW129768   2.099   2.521  11.240  1.1135  0.3102 -0.9293
 6103SOL    HW229769   2.000   2.481  11.135  0.7942 -1.2984 -1.3076
 6104SOL     OW29770   2.518   1.633  16.141  0.3142 -0.1725 -0.7888
 6104SOL    HW129771   2.483   1.721  16.154 -1.9834 -1.2899  0.7215
 6104SOL    HW229772   2.547   1.600  16.226 -0.7378 -0.5996 -0.5900
 6105SOL     OW29773   4.376   3.491   5.197  0.1595  0.4596 -0.5233
 6105SOL    HW129774   4.408   3.581   5.191 -1.0376  0.9984  1.0977
 6105SOL    HW229775   4.307   3.506   5.131 -3.3683  0.6142  3.2268
 6106SOL     OW29776   0.761   3.318   0.526 -0.2034  0.8578 -0.0242
 6106SOL    HW129777   0.690   3.289   0.469  0.5150  0.2963 -0.6343
 6106SOL    HW229778   0.715   3.301   0.608 -1.0475  2.1770 -0.2268
 6107SOL     OW29779   0.660   0.526  11.849 -0.3309 -0.6346  0.4400
 6107SOL    HW129780   0.569   0.530  11.818 -0.7669 -2.2930  1.5156
 6107SOL    HW229781   0.667   0.433  11.872  0.7916 -0.1692  1.9389
 6108SOL     OW29782   3.389   3.061   5.213 -0.1469 -0.0475 -0.3999
 6108SOL    HW129783   3.313   3.034   5.162 -0.9701  1.7508 -0.1192
 6108SOL    HW229784   3.370   3.016   5.296  0.0554  2.4959  1.0299
 6109SOL     OW29785   4.022   2.713   1.050 -0.9658 -0.4038 -0.0528
 6109SOL    HW129786   4.019   2.790   0.993  0.9601 -0.4413 -0.2217
 6109SOL    HW229787   3.975   2.645   1.002 -2.7532  0.3021  0.6925
 6110SOL     OW29788   4.663   0.951  11.642 -0.4862 -0.2260  0.1636
 6110SOL    HW129789   4.590   0.957  11.704 -0.8121 -1.4878 -0.0819
 6110SOL    HW229790   4.675   0.856  11.634  0.3865 -0.1372  0.4734
 6111SOL     OW29791   1.417   0.823   5.962 -0.3552 -0.0865 -0.5206
 6111SOL    HW129792   1.368   0.741   5.952 -0.1642 -0.2541 -0.1003
 6111SOL    HW229793   1.506   0.788   5.959  0.2902  1.5348  0.0945
 6112SOL     OW29794   1.803   4.352   5.359  0.5389  0.5517 -0.4032
 6112SOL    HW129795   1.833   4.316   5.443 -0.8319  2.5144  0.9200
 6112SOL    HW229796   1.742   4.282   5.335  2.1921 -1.1412  0.3533
 6113SOL     OW29797   3.648   2.161   1.889 -0.3421 -0.3050 -0.1099
 6113SOL    HW129798   3.581   2.156   1.820 -0.7794  0.2655  0.2794
 6113SOL    HW229799   3.609   2.237   1.932 -2.2027  0.2092 -2.6966
 6114SOL     OW29800   0.822   3.259   8.130 -0.0557  0.5105 -0.0555
 6114SOL    HW129801   0.917   3.274   8.122  0.5893 -2.9007  0.9354
 6114SOL    HW229802   0.822   3.187   8.194  0.8178 -0.7880 -1.5114
 6115SOL     OW29803   4.614   4.345  16.695 -0.2939 -0.3030 -0.3909
 6115SOL    HW129804   4.663   4.360  16.776  0.0762 -0.8193 -0.5153
 6115SOL    HW229805   4.633   4.252  16.683  1.0706  0.1587 -1.8500
 6116SOL     OW29806   3.142   3.043   4.191  0.4308 -0.2639 -0.0899
 6116SOL    HW129807   3.076   3.098   4.233  0.0767 -0.2924 -0.6018
 6116SOL    HW229808   3.090   3.015   4.116 -0.8853 -0.5386  0.9240
 6117SOL     OW29809   2.476   3.544   5.766  0.7578  0.8672 -0.0100
 6117SOL    HW129810   2.509   3.522   5.853  1.3172  0.6253 -0.2888
 6117SOL    HW229811   2.558   3.529   5.719  2.3234 -0.0865  3.0213
 6118SOL     OW29812   2.468   1.037   7.108 -0.1614  0.0013  0.0700
 6118SOL    HW129813   2.543   0.985   7.138  1.5735  2.3982 -0.0794
 6118SOL    HW229814   2.413   1.044   7.186  0.9962  0.7933  0.8216
 6119SOL     OW29815   0.356   1.757  17.279 -0.0895  0.0417 -0.0247
 6119SOL    HW129816   0.451   1.768  17.279 -0.3892  2.7059  0.5330
 6119SOL    HW229817   0.323   1.824  17.339  1.8892  1.1763 -0.2063
 6120SOL     OW29818   3.543   0.681   4.200 -0.1654 -0.1091  0.3820
 6120SOL    HW129819   3.487   0.754   4.174  1.2953  0.7540 -0.3109
 6120SOL    HW229820   3.626   0.728   4.197 -1.3369  1.8491 -1.1566
 6121SOL     OW29821   4.122   2.716  17.215  0.4049  0.1113 -0.1729
 6121SOL    HW129822   4.200   2.707  17.271  0.3941  1.7436  0.1234
 6121SOL    HW229823   4.140   2.797  17.168  0.3310  0.9017  1.1608
 6122SOL     OW29824   0.167   3.997  17.664  0.0177  0.3455 -0.9476
 6122SOL    HW129825   0.127   4.045  17.591 -1.4834  0.1486 -0.2541
 6122SOL    HW229826   0.156   3.903  17.651  2.0981  0.1211 -0.9520
 6123SOL     OW29827   4.436   0.739   4.039 -0.3201  0.2441 -0.1463
 6123SOL    HW129828   4.437   0.666   4.101  0.1192 -0.0214 -0.4715
 6123SOL    HW229829   4.529   0.753   4.025 -0.0211  1.1725  2.7845
 6124SOL     OW29830   1.863   0.003   7.803 -0.3772 -0.3855  0.5035
 6124SOL    HW129831   1.841   4.633   7.813  0.8522 -0.4312  2.6408
 6124SOL    HW229832   1.788   0.035   7.753  0.3888  0.8202  0.1209
 6125SOL     OW29833   3.320   4.021   7.843 -0.0544 -0.2365 -0.4705
 6125SOL    HW129834   3.307   3.941   7.895  0.3011  0.4582  0.6835
 6125SOL    HW229835   3.281   3.983   7.764 -1.6261  1.9143 -0.7401
 6126SOL     OW29836   2.896   0.555   2.555 -0.9490 -0.0119 -0.8063
 6126SOL    HW129837   2.826   0.499   2.587 -0.2719 -0.6232 -0.3961
 6126SOL    HW229838   2.868   0.564   2.464 -1.7459 -1.0714 -0.6578
 6127SOL     OW29839   4.495   3.482   3.439  0.0666  0.5244 -0.2957
 6127SOL    HW129840   4.497   3.450   3.529 -1.0898  2.2843  0.3477
 6127SOL    HW229841   4.405   3.455   3.422  0.0331  0.0974  0.5341
 6128SOL     OW29842   1.250   0.966  15.881 -0.0476  0.2562  0.5565
 6128SOL    HW129843   1.286   0.904  15.944  2.0394 -2.2803 -3.0961
 6128SOL    HW229844   1.196   0.906  15.830  1.7490 -2.8485  2.2961
 6129SOL     OW29845   2.014   0.538   5.054 -0.2641  0.9466 -0.2103
 6129SOL    HW129846   2.097   0.493   5.035  0.1203  1.4226  0.3395
 6129SOL    HW229847   1.947   0.490   5.005  0.1388  0.4624 -0.2835
 6130SOL     OW29848   1.747   3.472   7.431  0.1441 -0.3964  0.3172
 6130SOL    HW129849   1.669   3.526   7.442  0.6060  0.4256 -0.3274
 6130SOL    HW229850   1.733   3.389   7.476 -1.0144 -0.3785 -0.0288
 6131SOL     OW29851   3.567   2.793   7.995  0.2196 -0.0219  0.6881
 6131SOL    HW129852   3.647   2.837   8.025 -0.2444 -0.1766  2.1504
 6131SOL    HW229853   3.498   2.845   8.037 -0.9504 -0.5978 -0.5265
 6132SOL     OW29854   2.653   0.831  10.312  0.1029 -0.1433 -0.3669
 6132SOL    HW129855   2.734   0.801  10.272 -1.7530 -2.4961 -2.3979
 6132SOL    HW229856   2.596   0.754  10.323 -0.4096  0.1753 -0.8000
 6133SOL     OW29857   3.719   1.916   3.304  0.0791  0.2647  0.2057
 6133SOL    HW129858   3.657   1.957   3.244  0.4913 -0.3214 -0.6276
 6133SOL    HW229859   3.667   1.916   3.384  0.8482 -0.1496  0.7033
 6134SOL     OW29860   4.293   1.312   7.593  0.0253 -0.3976 -0.3478
 6134SOL    HW129861   4.267   1.365   7.518  0.7412 -0.4353 -0.6270
 6134SOL    HW229862   4.383   1.340   7.611  0.2800 -1.7252  0.4807
 6135SOL     OW29863   0.756   4.702   7.399  0.5693 -0.1301 -0.5542
 6135SOL    HW129864   0.736   0.062   7.442  2.5610 -0.3392  0.7739
 6135SOL    HW229865   0.785   0.009   7.313 -0.4157  0.6693 -0.6160
 6136SOL     OW29866   0.562   4.433   5.610  0.0570 -0.5809  0.2207
 6136SOL    HW129867   0.482   4.431   5.558 -1.0655 -1.3724  1.9564
 6136SOL    HW229868   0.622   4.381   5.556 -0.1142 -2.1670  1.5386
 6137SOL     OW29869   2.357   1.969   4.798 -0.3301 -0.1669 -0.0351
 6137SOL    HW129870   2.270   2.009   4.799  1.5865  4.1233 -2.1851
 6137SOL    HW229871   2.407   2.009   4.870 -1.2855  0.6269  0.1877
 6138SOL     OW29872   3.894   4.063  11.660 -0.3248  0.5117  0.6680
 6138SOL    HW129873   3.800   4.052  11.644 -0.4120 -0.7993  2.1312
 6138SOL    HW229874   3.903   4.157  11.675 -2.3554  1.0814 -1.5852
 6139SOL     OW29875   2.944   1.427   4.051  0.0563 -0.1165 -0.1205
 6139SOL    HW129876   2.907   1.515   4.059 -1.6636 -0.7252 -1.4838
 6139SOL    HW229877   2.982   1.418   4.138 -1.2611  3.4727  0.8506
 6140SOL     OW29878   1.157   4.053   6.093 -0.0446 -0.1346  1.0226
 6140SOL    HW129879   1.215   4.106   6.038 -1.2243  1.1361  1.0092
 6140SOL    HW229880   1.123   4.116   6.156 -0.9589  0.4861 -0.1133
 6141SOL     OW29881   1.484   0.010   4.412 -0.2409  0.1193 -0.3456
 6141SOL    HW129882   1.552   0.067   4.447  1.3531 -2.6196  0.9552
 6141SOL    HW229883   1.509   0.015   4.320 -1.1762 -2.4636 -0.7445
 6142SOL     OW29884   2.742   1.082  13.114 -0.2098  0.2683 -0.0237
 6142SOL    HW129885   2.778   0.995  13.129 -1.6373 -0.5103 -1.0658
 6142SOL    HW229886   2.705   1.077  13.025  1.8903  2.1430 -1.0163
 6143SOL     OW29887   2.352   0.885   3.963  0.5233  0.0758 -0.1070
 6143SOL    HW129888   2.439   0.906   3.928  0.1685  0.6667 -0.6345
 6143SOL    HW229889   2.317   0.972   3.983 -2.3746 -0.4798 -2.7596
 6144SOL     OW29890   0.670   3.390   2.063 -0.2334  0.1005 -0.1410
 6144SOL    HW129891   0.706   3.372   2.149 -1.7200 -0.5934  0.3312
 6144SOL    HW229892   0.597   3.330   2.052  0.1824 -0.0914 -1.8832
 6145SOL     OW29893   0.339   2.514   3.571  0.2167 -0.3326  0.4377
 6145SOL    HW129894   0.423   2.556   3.550 -0.1010 -1.2389 -2.6366
 6145SOL    HW229895   0.355   2.426   3.538  1.2299 -0.4769  1.2921
 6146SOL     OW29896   2.806   4.157  13.135  0.2013 -0.5353  0.2077
 6146SOL    HW129897   2.838   4.068  13.150 -1.5968 -1.4480 -1.3166
 6146SOL    HW229898   2.893   4.195  13.123  0.6976 -1.6877  0.2055
 6147SOL     OW29899   1.665   3.272  12.373 -0.0264 -0.5365  0.2259
 6147SOL    HW129900   1.733   3.246  12.434 -0.7743 -0.6211  1.0186
 6147SOL    HW229901   1.608   3.314  12.437 -1.1188  0.1933 -1.2137
 6148SOL     OW29902   4.270   3.988  15.040  0.0845 -0.4096  0.0037
 6148SOL    HW129903   4.215   3.918  15.074 -1.8176 -0.5608 -3.3904
 6148SOL    HW229904   4.217   4.067  15.052 -1.5190 -1.7879  1.8753
 6149SOL     OW29905   1.797   3.516   2.292 -0.3662  0.9582 -0.1547
 6149SOL    HW129906   1.871   3.458   2.306 -1.7836 -0.5629  0.9573
 6149SOL    HW229907   1.773   3.504   2.200  0.2410  0.4959 -0.2530
 6150SOL     OW29908   2.225   0.534  16.637 -0.1962  0.2263  0.2805
 6150SOL    HW129909   2.222   0.594  16.712  0.7219  0.1669  0.3590
 6150SOL    HW229910   2.196   0.452  16.678 -1.3467 -0.2420 -1.5019
 6151SOL     OW29911   2.411   2.260  13.329 -0.4310 -0.0587 -0.2135
 6151SOL    HW129912   2.354   2.319  13.377 -0.4573  0.2158 -0.5811
 6151SOL    HW229913   2.389   2.290  13.241 -0.4798  0.2023 -0.1126
 6152SOL     OW29914   1.516   1.105   7.662 -0.4369 -0.5391 -0.2351
 6152SOL    HW129915   1.458   1.035   7.692 -2.2329  1.1137  0.1125
 6152SOL    HW229916   1.511   1.162   7.739  1.4059  0.0668 -0.5475
 6153SOL     OW29917   3.809   1.134  13.480  0.4576 -0.1504  0.3603
 6153SOL    HW129918   3.717   1.118  13.499  0.6492 -1.2923  0.2940
 6153SOL    HW229919   3.826   1.072  13.409  0.1988  0.6812 -0.4227
 6154SOL     OW29920   1.199   4.701  16.448  0.1898 -0.5704 -0.3820
 6154SOL    HW129921   1.176   4.616  16.411  1.3745 -0.7825 -0.6396
 6154SOL    HW229922   1.254   4.676  16.522 -2.9033 -1.9869  1.4358
 6155SOL     OW29923   1.001   3.188   0.479 -0.5490 -0.3604 -0.6223
 6155SOL    HW129924   0.977   3.140   0.400  0.7028 -0.4920 -0.9148
 6155SOL    HW229925   0.927   3.249   0.487 -0.0970  0.3010 -1.5641
 6156SOL     OW29926   0.906   0.688   7.735  0.6529  0.0647 -0.4092
 6156SOL    HW129927   0.936   0.720   7.649  2.7474  1.8367  0.9734
 6156SOL    HW229928   0.896   0.773   7.775  1.3716 -0.8504  1.7119
 6157SOL     OW29929   3.005   1.454  17.086  0.2397 -0.1652  0.0880
 6157SOL    HW129930   2.946   1.396  17.135  0.0157 -0.0407 -0.0360
 6157SOL    HW229931   2.975   1.543  17.103 -1.1468 -0.7825  0.8484
 6158SOL     OW29932   1.371   4.128   7.351  0.1688 -1.1927  0.0624
 6158SOL    HW129933   1.282   4.163   7.348  0.3025 -0.8046  0.7488
 6158SOL    HW229934   1.357   4.062   7.419  0.1939 -1.2526  0.0099
 6159SOL     OW29935   1.618   1.465   4.801 -0.2353 -0.0399 -0.4199
 6159SOL    HW129936   1.585   1.415   4.726 -2.8377  0.1307  0.5999
 6159SOL    HW229937   1.613   1.550   4.757 -0.1405  0.5066  0.6213
 6160SOL     OW29938   2.534   0.553  16.816  0.6158 -0.6589 -0.1880
 6160SOL    HW129939   2.620   0.523  16.844  0.1185  0.7785  2.8505
 6160SOL    HW229940   2.550   0.557  16.721  2.0417  0.0307  0.0779
 6161SOL     OW29941   2.764   2.427   5.173 -0.2879  0.0282  0.0886
 6161SOL    HW129942   2.744   2.349   5.225  2.7801 -0.7527  0.1133
 6161SOL    HW229943   2.718   2.400   5.093  0.3430 -1.3300  0.1851
 6162SOL     OW29944   4.316   2.124   5.485  0.1930  0.3374  0.5652
 6162SOL    HW129945   4.344   2.051   5.430  0.4021  0.7017  0.1916
 6162SOL    HW229946   4.361   2.106   5.567  2.3016 -3.1393 -1.3314
 6163SOL     OW29947   2.620   4.398   7.031  0.1490 -0.3671 -0.1795
 6163SOL    HW129948   2.697   4.341   7.032  1.0873  0.8926  0.2962
 6163SOL    HW229949   2.557   4.355   7.089 -2.9996  1.7596 -2.0363
 6164SOL     OW29950   4.414   2.744  17.675 -0.3124 -0.0466 -0.0525
 6164SOL    HW129951   4.473   2.763   0.055 -0.1732 -0.3614 -0.0809
 6164SOL    HW229952   4.431   2.651  17.660 -1.3299 -0.1688 -0.4284
 6165SOL     OW29953   0.295   3.268  11.935  0.4641 -0.3007 -0.5185
 6165SOL    HW129954   0.253   3.241  11.854 -2.6033 -2.0499  1.6676
 6165SOL    HW229955   0.381   3.283  11.895  0.9977 -1.7434  0.0699
 6166SOL     OW29956   0.969   0.479  14.634 -0.5842 -0.0262  0.0492
 6166SOL    HW129957   0.937   0.518  14.553 -1.7746 -0.7966  0.1402
 6166SOL    HW229958   1.059   0.512  14.638 -0.6557  0.0640  1.0923
 6167SOL     OW29959   3.301   4.272   6.591 -0.3354  0.9749 -0.1889
 6167SOL    HW129960   3.382   4.311   6.622  0.3561 -0.4092 -0.2360
 6167SOL    HW229961   3.316   4.244   6.500 -2.3762  0.4290 -0.3653
 6168SOL     OW29962   2.991   3.722   9.020 -0.4288 -0.2832 -0.1878
 6168SOL    HW129963   2.896   3.732   9.031 -0.4420 -0.6465  0.0240
 6168SOL    HW229964   3.022   3.746   9.107 -2.0671  1.8194 -0.1821
 6169SOL     OW29965   0.207   4.350  14.954 -0.1431 -0.3864  0.2102
 6169SOL    HW129966   0.156   4.347  14.873 -1.6657  0.3054  1.1424
 6169SOL    HW229967   0.147   4.402  15.008 -0.3844 -1.4185  0.9237
 6170SOL     OW29968   2.458   3.835   7.192 -0.0240 -0.0704 -0.2484
 6170SOL    HW129969   2.516   3.884   7.251  1.0609 -2.2818  0.5149
 6170SOL    HW229970   2.377   3.873   7.224 -0.9480 -2.1467 -0.1588
 6171SOL     OW29971   4.530   0.855   2.514  0.8047 -0.2592  0.4207
 6171SOL    HW129972   4.532   0.778   2.458  2.2413  0.6619 -0.7995
 6171SOL    HW229973   4.558   0.920   2.450 -1.6932  0.9024  0.5135
 6172SOL     OW29974   4.472   4.568  13.531  0.0066  0.4305 -0.3681
 6172SOL    HW129975   4.462   4.507  13.457 -1.1337  0.0615  0.0998
 6172SOL    HW229976   4.403   4.548  13.594  0.8162 -1.6050 -0.1232
 6173SOL     OW29977   1.842   2.635  13.229 -0.0323 -0.6315  0.3872
 6173SOL    HW129978   1.811   2.715  13.187  0.3459 -0.8688 -0.3467
 6173SOL    HW229979   1.799   2.581  13.163 -2.1825  0.1749  1.1369
 6174SOL     OW29980   3.298   3.072  10.733  0.4935  0.0498 -0.1166
 6174SOL    HW129981   3.247   3.110  10.805 -0.5108 -2.0775  0.3121
 6174SOL    HW229982   3.367   3.031  10.786  0.1057 -0.1176  0.2554
 6175SOL     OW29983   3.625   2.333   6.031 -0.4666 -0.1888 -0.0997
 6175SOL    HW129984   3.603   2.255   6.083  1.9222  0.5308  1.9932
 6175SOL    HW229985   3.561   2.393   6.069 -0.6338 -0.1991 -0.3639
 6176SOL     OW29986   2.557   1.257   0.229  0.0578  0.2630 -0.1599
 6176SOL    HW129987   2.505   1.195   0.178 -2.5283  2.1241  0.1888
 6176SOL    HW229988   2.633   1.205   0.254  1.4939  2.6804  0.5271
 6177SOL     OW29989   0.393   1.381   3.467  0.0477 -0.2999 -0.0891
 6177SOL    HW129990   0.466   1.384   3.404  0.7081 -0.8364  0.6532
 6177SOL    HW229991   0.385   1.475   3.486 -2.2173 -0.4437 -0.3959
 6178SOL     OW29992   2.399   2.778  12.304  0.0734  0.3210  0.4840
 6178SOL    HW129993   2.470   2.737  12.256  0.1328  1.0387 -0.0296
 6178SOL    HW229994   2.398   2.870  12.279  1.1597  0.0736 -0.4433
 6179SOL     OW29995   4.181   0.309   8.649  0.1347  0.5572  0.2058
 6179SOL    HW129996   4.227   0.368   8.708 -1.0521 -0.0452  1.7269
 6179SOL    HW229997   4.213   0.222   8.673 -0.3321  0.8146  1.7197
 6180SOL     OW29998   2.991   1.215   2.223  0.3145 -0.0892  0.2374
 6180SOL    HW129999   3.054   1.166   2.275  1.1427  1.0185  0.2694
 6180SOL    HW230000   2.970   1.282   2.288  0.9880 -0.3548  0.7305
 6181SOL     OW30001   2.388   4.358   5.584 -0.3181  0.1088 -0.3232
 6181SOL    HW130002   2.443   4.309   5.645 -3.6348 -4.9712 -1.3330
 6181SOL    HW230003   2.448   4.432   5.592  0.7188 -1.0171  2.4840
 6182SOL     OW30004   3.147   0.989   3.844 -0.0610  0.2610  0.2616
 6182SOL    HW130005   3.186   1.071   3.815 -0.9227  0.1990 -1.0608
 6182SOL    HW230006   3.201   0.924   3.799  1.4335  2.1063 -0.5829
 6183SOL     OW30007   0.089   3.098   5.752  0.1075 -0.0978 -0.1145
 6183SOL    HW130008   0.150   3.096   5.826  0.7728 -2.1042 -0.7165
 6183SOL    HW230009   0.132   3.067   5.673  1.1325  0.1194  0.3621
 6184SOL     OW30010   4.625   0.860   8.410 -0.3358  0.3256 -0.1489
 6184SOL    HW130011   4.662   0.886   8.326  0.6446  1.2790  0.5811
 6184SOL    HW230012   4.650   0.769   8.394 -1.0570  0.7228 -3.5341
 6185SOL     OW30013   1.838   4.131   3.836  0.2046 -0.6993 -0.5970
 6185SOL    HW130014   1.787   4.099   3.762 -0.9640  0.2639 -0.2180
 6185SOL    HW230015   1.927   4.138   3.799  0.6274  2.9040  1.0410
 6186SOL     OW30016   1.520   2.384   5.082 -0.0794 -0.4186 -0.2674
 6186SOL    HW130017   1.430   2.407   5.108 -0.2522 -1.0798 -0.2975
 6186SOL    HW230018   1.556   2.368   5.169 -0.8747 -1.3993 -0.1157
 6187SOL     OW30019   4.175   0.695   5.227 -0.3513  0.1086  0.0652
 6187SOL    HW130020   4.100   0.637   5.240 -2.7927  2.6423 -2.6280
 6187SOL    HW230021   4.215   0.667   5.309 -0.3733  0.8847  0.3401
 6188SOL     OW30022   3.619   2.344   8.407  0.0717 -0.2720  0.3024
 6188SOL    HW130023   3.665   2.264   8.378 -1.1470 -0.7560 -0.2816
 6188SOL    HW230024   3.627   2.329   8.502 -0.7432 -0.3825  0.3500
 6189SOL     OW30025   0.235   2.847   1.013  0.0200  0.2167 -0.9997
 6189SOL    HW130026   0.245   2.861   1.107 -0.2454 -0.3443 -0.8872
 6189SOL    HW230027   0.263   2.757   0.996 -0.0448  0.4835 -2.5890
 6190SOL     OW30028   3.869   1.647  11.037 -0.4114 -0.8113  0.5709
 6190SOL    HW130029   3.826   1.713  10.982 -2.5134 -2.2089  0.5425
 6190SOL    HW230030   3.813   1.572  11.015  0.9609 -1.9311  0.9510
 6191SOL     OW30031   3.883   0.656  16.249 -0.0457  0.2979  0.6132
 6191SOL    HW130032   3.866   0.720  16.181  0.4629 -1.2120 -0.9190
 6191SOL    HW230033   3.799   0.657  16.296 -0.9605  3.3336 -1.1191
 6192SOL     OW30034   0.587   2.169   0.292 -0.3743  0.3727  0.0510
 6192SOL    HW130035   0.527   2.110   0.338  0.6302 -0.0585  0.8030
 6192SOL    HW230036   0.668   2.120   0.308 -0.9102 -1.0972 -1.7293
 6193SOL     OW30037   3.709   4.005   8.162 -0.2094 -0.0430  0.2381
 6193SOL    HW130038   3.648   4.058   8.111  1.1294  0.2447 -1.0786
 6193SOL    HW230039   3.793   4.043   8.137  0.9025 -3.3371 -1.0879
 6194SOL     OW30040   3.206   4.419   5.068  0.4335  0.1344  0.1491
 6194SOL    HW130041   3.150   4.342   5.078  1.2833 -0.2968  1.7105
 6194SOL    HW230042   3.261   4.395   4.993  0.9743 -0.3771  0.7036
 6195SOL     OW30043   2.958   1.939   6.711  0.2232  0.4219  0.0393
 6195SOL    HW130044   2.980   1.969   6.799  0.6760  1.6237 -0.4803
 6195SOL    HW230045   2.887   1.878   6.731  0.9831 -0.1964  0.8365
 6196SOL     OW30046   4.187   0.881   0.878 -0.0149  0.6023 -0.4003
 6196SOL    HW130047   4.275   0.844   0.869  0.9726  2.9819 -0.3337
 6196SOL    HW230048   4.213   0.971   0.896  1.5654  0.3009 -1.1518
 6197SOL     OW30049   1.619   1.674   7.352 -0.0688  0.3111  0.3219
 6197SOL    HW130050   1.679   1.698   7.281 -1.1201  3.0724  0.3571
 6197SOL    HW230051   1.592   1.762   7.379  0.4401 -0.5754  3.8316
 6198SOL     OW30052   1.868   2.854   4.031 -0.2900 -0.3758 -0.1142
 6198SOL    HW130053   1.867   2.920   4.100  0.2671  0.9723 -1.3931
 6198SOL    HW230054   1.810   2.791   4.073 -1.2790  0.3190 -0.4328
 6199SOL     OW30055   3.327   1.528   6.928  0.3387  0.1988  0.5802
 6199SOL    HW130056   3.247   1.568   6.895 -0.0663 -1.2443 -0.1816
 6199SOL    HW230057   3.289   1.489   7.007 -0.9769 -2.4273 -1.3429
 6200SOL     OW30058   0.802   0.914   4.268 -0.1591 -0.1255  0.0289
 6200SOL    HW130059   0.888   0.881   4.243  0.4016  0.8744  0.6746
 6200SOL    HW230060   0.788   0.878   4.356  1.8521 -1.3952 -0.1722
 6201SOL     OW30061   2.961   3.019   3.284  0.7645 -0.5112 -0.3570
 6201SOL    HW130062   2.971   3.021   3.188 -1.9082  0.0188 -0.6032
 6201SOL    HW230063   2.963   2.924   3.291  0.7382 -0.6715 -2.3548
 6202SOL     OW30064   2.707   1.980   9.377 -0.3999 -0.1037  0.3242
 6202SOL    HW130065   2.728   1.914   9.311  2.0933  0.5526  0.4686
 6202SOL    HW230066   2.731   2.057   9.325 -2.4870  0.3673  0.0714
 6203SOL     OW30067   4.557   3.504   5.698 -0.0759 -0.1975 -0.4060
 6203SOL    HW130068   4.577   3.533   5.787  2.8149 -1.4413 -0.6539
 6203SOL    HW230069   4.464   3.528   5.696 -0.5277 -1.8743  0.6460
 6204SOL     OW30070   4.457   3.986   7.067 -0.2147 -0.9219 -0.0727
 6204SOL    HW130071   4.434   3.991   6.974 -1.6077  3.0778  0.4982
 6204SOL    HW230072   4.524   3.917   7.068 -3.0970 -3.7473  0.1348
 6205SOL     OW30073   2.742   0.321   7.428  0.4341 -0.6747 -0.2213
 6205SOL    HW130074   2.727   0.240   7.380 -4.1552  0.1449 -0.1299
 6205SOL    HW230075   2.738   0.287   7.517 -2.7529 -1.5761 -0.7214
 6206SOL     OW30076   4.499   2.024   5.682 -0.1803 -0.1230 -0.4648
 6206SOL    HW130077   4.560   2.063   5.744  0.8483 -1.1923 -0.8090
 6206SOL    HW230078   4.563   1.963   5.645 -3.1322 -2.4325 -1.7917
 6207SOL     OW30079   2.048   0.580   9.516 -0.1748  0.5753 -0.4396
 6207SOL    HW130080   2.071   0.590   9.608  2.2763  0.6308 -1.0767
 6207SOL    HW230081   2.119   0.538   9.467 -0.3494  0.7977 -0.8907
 6208SOL     OW30082   4.659   2.562   4.227  0.0109 -0.3470 -0.5185
 6208SOL    HW130083   4.600   2.548   4.301  0.0730  1.6741 -0.0897
 6208SOL    HW230084   0.015   2.519   4.259 -0.9123 -0.3195  1.8106
 6209SOL     OW30085   1.485   1.891   4.846 -0.5247  0.2300  1.1359
 6209SOL    HW130086   1.412   1.831   4.830  0.5572 -0.6688 -0.4513
 6209SOL    HW230087   1.436   1.959   4.891  0.3113  2.0088 -0.6559
 6210SOL     OW30088   3.688   4.322   6.963  0.0756  0.0015 -0.2615
 6210SOL    HW130089   3.657   4.326   7.053  1.5736  0.5191  0.2355
 6210SOL    HW230090   3.780   4.348   6.971 -0.1417  0.9676 -0.9134
 6211SOL     OW30091   0.913   3.871   3.442 -0.1229 -0.2623  0.3188
 6211SOL    HW130092   0.994   3.867   3.390 -0.6955 -0.8854 -0.5178
 6211SOL    HW230093   0.872   3.788   3.418  1.4836 -0.6114 -1.2763
 6212SOL     OW30094   3.495   1.517   5.593 -0.0752 -0.0550  0.1782
 6212SOL    HW130095   3.530   1.591   5.642  0.4517 -0.8902  1.0643
 6212SOL    HW230096   3.483   1.452   5.663  1.3932 -1.1185 -0.5450
 6213SOL     OW30097   3.930   0.470   3.627 -0.6228  0.4385 -0.0655
 6213SOL    HW130098   3.978   0.388   3.618  2.0110  1.8654  0.8342
 6213SOL    HW230099   3.935   0.489   3.533  1.4514 -1.0714 -0.2575
 6214SOL     OW30100   2.149   0.927   2.332  0.1324 -0.1211  0.7043
 6214SOL    HW130101   2.193   1.012   2.332  0.0529 -0.1008  3.4471
 6214SOL    HW230102   2.215   0.887   2.389  0.6966 -1.5076 -0.9061
 6215SOL     OW30103   3.341   3.597   6.042  0.3991 -0.9343  0.2447
 6215SOL    HW130104   3.362   3.591   5.949 -0.3808  0.3041 -0.0144
 6215SOL    HW230105   3.428   3.606   6.080 -0.3582  2.1764  1.1819
 6216SOL     OW30106   0.446   4.012  11.606 -0.1806  0.0730  0.6467
 6216SOL    HW130107   0.410   4.069  11.538  1.7479  0.7467  0.1897
 6216SOL    HW230108   0.479   4.069  11.675 -2.9083  0.8310  1.3177
 6217SOL     OW30109   1.535   2.005   9.669 -0.1197  0.2490 -0.4753
 6217SOL    HW130110   1.566   1.989   9.580  1.2517 -3.0788  0.5854
 6217SOL    HW230111   1.495   2.092   9.667 -1.6145 -0.4199  0.7199
 6218SOL     OW30112   0.158   4.155   2.265  0.2455  0.4551 -0.6584
 6218SOL    HW130113   0.181   4.116   2.181 -0.4256 -0.7749 -0.2773
 6218SOL    HW230114   0.209   4.085   2.306 -0.1253 -0.1115 -1.1559
 6219SOL     OW30115   2.812   4.473   2.870  0.0212  0.0260 -0.0287
 6219SOL    HW130116   2.800   4.471   2.775  1.4952  1.5322 -0.2349
 6219SOL    HW230117   2.772   4.551   2.907 -2.1927 -1.4806  0.7488
 6220SOL     OW30118   3.946   2.862   5.265 -0.3536  0.2737 -0.2478
 6220SOL    HW130119   3.929   2.846   5.358 -0.6348  1.5756 -0.0758
 6220SOL    HW230120   3.942   2.958   5.264  1.9952  0.3425 -2.5003
 6221SOL     OW30121   2.400   1.998  16.548 -0.0948  0.0783  0.7686
 6221SOL    HW130122   2.383   1.971  16.639  0.7972 -0.5389  0.7431
 6221SOL    HW230123   2.372   1.917  16.507  0.2208  0.5059 -0.2798
 6222SOL     OW30124   1.222   0.977   5.621 -0.2773  0.1527  0.0081
 6222SOL    HW130125   1.150   0.937   5.571  1.2494  1.3132 -3.0908
 6222SOL    HW230126   1.177   1.002   5.702  1.3940 -1.4734  1.4289
 6223SOL     OW30127   3.062   3.318  11.973  0.0876  0.2968 -0.1378
 6223SOL    HW130128   3.052   3.232  12.013  1.9454  0.9171  1.6690
 6223SOL    HW230129   3.088   3.288  11.886 -0.4142  0.9691 -0.5240
 6224SOL     OW30130   2.128   0.093   2.364 -0.1925 -0.6675  0.0893
 6224SOL    HW130131   2.103   0.021   2.306  0.6074 -0.5350 -0.4036
 6224SOL    HW230132   2.122   0.169   2.307  2.3754 -0.2834  0.3434
 6225SOL     OW30133   3.466   2.893   5.954 -0.3770  0.1035  0.1322
 6225SOL    HW130134   3.489   2.973   5.907 -1.5130  0.5956  0.4202
 6225SOL    HW230135   3.532   2.896   6.023  0.0570 -0.0334 -0.2749
 6226SOL     OW30136   2.739   2.176   4.190  0.1712  0.1718  0.6797
 6226SOL    HW130137   2.672   2.237   4.160  0.9047 -0.1101 -1.4929
 6226SOL    HW230138   2.788   2.235   4.248 -1.8492  1.4332  1.1108
 6227SOL     OW30139   0.365   3.577  12.641  0.5781  0.3508  0.0256
 6227SOL    HW130140   0.310   3.604  12.568  0.0811  2.2805  1.0940
 6227SOL    HW230141   0.392   3.491  12.611 -2.1802  0.5311 -2.9444
 6228SOL     OW30142   0.691   3.023   4.387  0.6456 -0.0438  0.2592
 6228SOL    HW130143   0.714   2.932   4.404  0.0718 -0.0116  1.2507
 6228SOL    HW230144   0.610   3.014   4.336 -0.8830 -1.0146  2.8199
 6229SOL     OW30145   3.673   0.529  15.373 -0.0669 -0.5647  0.0818
 6229SOL    HW130146   3.709   0.443  15.353  2.3940  0.7604 -1.2891
 6229SOL    HW230147   3.613   0.547  15.301 -0.1476 -1.7608 -0.1399
 6230SOL     OW30148   0.079   4.120   4.742  0.5643  0.0156  0.3690
 6230SOL    HW130149   0.133   4.190   4.777  2.2373 -1.2479  0.2981
 6230SOL    HW230150   0.004   4.170   4.708  0.8310  0.2162  0.0785
 6231SOL     OW30151   2.915   1.945   6.284  0.0203  0.0609 -0.3903
 6231SOL    HW130152   2.888   2.021   6.337  2.1748  0.4716  0.1269
 6231SOL    HW230153   2.831   1.905   6.262 -0.8205  1.7552 -0.3156
 6232SOL     OW30154   3.065   3.346   5.213  0.4775 -0.2327  0.0923
 6232SOL    HW130155   3.069   3.251   5.220  0.8156 -0.0785  1.8311
 6232SOL    HW230156   3.078   3.359   5.119 -1.2102 -0.9688 -0.2495
 6233SOL     OW30157   3.833   1.072   8.689 -0.3070  0.2891  0.3018
 6233SOL    HW130158   3.927   1.054   8.683 -0.2496  1.4955 -2.5588
 6233SOL    HW230159   3.823   1.158   8.729  1.8474  0.2558  0.9357
 6234SOL     OW30160   1.280   1.722   4.802 -0.1354  0.2579  0.0705
 6234SOL    HW130161   1.321   1.664   4.737  1.7253  0.0318  1.4459
 6234SOL    HW230162   1.196   1.744   4.761 -0.5223  0.1485  0.7985
 6235SOL     OW30163   1.157   1.305   7.827  0.3876 -0.0807  0.3769
 6235SOL    HW130164   1.069   1.291   7.860 -0.9910  0.3205 -3.1588
 6235SOL    HW230165   1.205   1.319   7.908  0.6283 -1.2535  0.4452
 6236SOL     OW30166   0.878   4.449   4.423 -0.0245  0.7761 -0.1592
 6236SOL    HW130167   0.884   4.543   4.404 -0.6891  1.1279  1.3830
 6236SOL    HW230168   0.863   4.439   4.517 -0.7006 -1.0604 -0.4765
 6237SOL     OW30169   1.210   4.478   2.843 -0.4973 -0.3071 -0.0154
 6237SOL    HW130170   1.138   4.430   2.801  0.7514 -1.3830 -0.9353
 6237SOL    HW230171   1.191   4.566   2.811  1.6278 -0.3367 -1.3552
 6238SOL     OW30172   0.706   2.049  10.512  0.1973  0.0062  0.1500
 6238SOL    HW130173   0.764   1.995  10.458  0.3895  0.4835 -0.1190
 6238SOL    HW230174   0.712   2.012  10.600  0.7573 -1.2996 -0.4255
 6239SOL     OW30175   2.621   4.317   5.051 -0.4698 -0.1830  0.7194
 6239SOL    HW130176   2.682   4.363   5.109 -2.1240  0.5485  1.8822
 6239SOL    HW230177   2.636   4.368   4.971 -1.2645  0.5859  1.0584
 6240SOL     OW30178   3.044   0.008   8.781  0.0815  0.0686 -0.1200
 6240SOL    HW130179   3.107   0.072   8.815  0.4431 -0.2683 -0.1653
 6240SOL    HW230180   3.094   4.659   8.742 -1.0585 -0.1304 -1.2109
 6241SOL     OW30181   3.610   2.858  13.446  0.2168  0.0242  0.4293
 6241SOL    HW130182   3.605   2.939  13.396  1.9873 -0.8889 -1.2192
 6241SOL    HW230183   3.678   2.879  13.509  1.2953  0.8933 -1.0155
 6242SOL     OW30184   0.538   0.638   2.580 -0.0120  0.3473 -0.1661
 6242SOL    HW130185   0.465   0.680   2.535  1.1742  1.6652 -0.8390
 6242SOL    HW230186   0.539   0.672   2.670 -0.8695  1.5533 -0.6016
 6243SOL     OW30187   2.222   2.057  16.134  0.4757  0.1929 -0.3415
 6243SOL    HW130188   2.163   2.049  16.209  0.6379 -2.3624 -0.4639
 6243SOL    HW230189   2.193   2.134  16.086 -1.6733  0.0584  0.7136
 6244SOL     OW30190   3.363   1.207   3.846 -0.1167 -0.1442  0.1578
 6244SOL    HW130191   3.366   1.197   3.751  0.9411 -1.7295  0.3477
 6244SOL    HW230192   3.414   1.284   3.870  0.3004  0.3128 -2.1774
 6245SOL     OW30193   0.396   3.033  15.675 -0.1023 -0.0230  0.2518
 6245SOL    HW130194   0.327   2.968  15.664  0.3587 -0.6247  0.9005
 6245SOL    HW230195   0.471   2.984  15.709 -2.2408 -1.8591  2.3532
 6246SOL     OW30196   0.815   2.377   1.118 -0.5262 -0.8297  0.1970
 6246SOL    HW130197   0.849   2.322   1.189  1.2866 -0.1276 -0.1423
 6246SOL    HW230198   0.867   2.457   1.125  0.8025 -1.6477 -0.2407
 6247SOL     OW30199   0.704   2.588   5.859  0.2505  0.4819  0.2952
 6247SOL    HW130200   0.742   2.544   5.783  1.5623  4.4207 -1.3371
 6247SOL    HW230201   0.621   2.612   5.818 -1.6421 -3.1476  1.9996
 6248SOL     OW30202   2.143   1.027   9.210 -0.4756  0.1841 -0.0777
 6248SOL    HW130203   2.073   1.042   9.274  0.6015 -1.8771  1.5982
 6248SOL    HW230204   2.118   1.102   9.157 -1.9152 -1.2076 -1.3685
 6249SOL     OW30205   4.649   2.716  11.570  0.2463 -0.3168  0.6382
 6249SOL    HW130206   0.003   2.678  11.612  0.2977 -1.2482 -0.2853
 6249SOL    HW230207   4.691   2.777  11.509  1.3120 -1.1031  0.5998
 6250SOL     OW30208   0.398   3.902   8.198  0.0700  0.0308  0.2905
 6250SOL    HW130209   0.478   3.874   8.242  0.2024  0.5624  0.3972
 6250SOL    HW230210   0.439   3.957   8.131 -0.6702  1.0088  0.6457
 6251SOL     OW30211   4.406   4.588   4.785  0.2788  0.2676 -0.3776
 6251SOL    HW130212   4.339   4.603   4.852  0.9179  0.8435  0.1420
 6251SOL    HW230213   4.373   4.520   4.728  1.4630 -1.5139  1.0679
 6252SOL     OW30214   0.413   3.277   7.428 -0.0909 -0.4975  0.2004
 6252SOL    HW130215   0.457   3.330   7.493 -1.2854 -1.4108  1.7426
 6252SOL    HW230216   0.459   3.302   7.348  0.6260 -1.1028  0.4318
 6253SOL     OW30217   3.746   2.990   7.699  0.6996  0.5052 -0.4361
 6253SOL    HW130218   3.766   3.075   7.737 -0.2506 -0.2920  1.8503
 6253SOL    HW230219   3.769   2.998   7.606 -1.8006  1.7039 -0.9444
 6254SOL     OW30220   4.561   4.072   5.167  0.5636 -0.2803  0.0600
 6254SOL    HW130221   4.566   4.059   5.262 -1.0875  0.8774  0.2924
 6254SOL    HW230222   4.655   4.065   5.152  0.2730 -1.1284 -1.3309
 6255SOL     OW30223   1.842   3.666   6.250  0.1473 -0.1229 -0.2316
 6255SOL    HW130224   1.870   3.596   6.191  1.1922  0.5084 -0.4862
 6255SOL    HW230225   1.833   3.623   6.335  0.6639  2.0244  0.8986
 6256SOL     OW30226   4.680   0.580   4.747 -0.2184  0.9991 -0.2190
 6256SOL    HW130227   4.681   0.569   4.652 -0.0636 -1.9296  0.1194
 6256SOL    HW230228   4.636   0.665   4.745 -0.7573  0.7640  1.5337
 6257SOL     OW30229   3.612   1.657   9.340  0.1957 -0.2513  0.3986
 6257SOL    HW130230   3.672   1.682   9.270  0.0325 -0.2894  0.2442
 6257SOL    HW230231   3.623   1.727   9.404  3.8304 -0.6151  0.1628
 6258SOL     OW30232   0.644   1.771   7.119 -0.2807  0.1908  0.4845
 6258SOL    HW130233   0.680   1.682   7.118  0.3240  0.5216 -5.1394
 6258SOL    HW230234   0.715   1.810   7.170 -0.2172  1.3062 -0.4712
 6259SOL     OW30235   2.174   4.490   3.502 -0.2825 -0.2760 -0.3796
 6259SOL    HW130236   2.246   4.427   3.492  1.4670  1.9995 -1.9270
 6259SOL    HW230237   2.230   4.567   3.504  2.1222 -2.0015 -0.9568
 6260SOL     OW30238   2.822   2.633   7.116 -0.0622  0.0332 -0.3134
 6260SOL    HW130239   2.776   2.715   7.097 -0.0427  0.0793 -0.1597
 6260SOL    HW230240   2.751   2.584   7.157  1.1551 -1.7067 -0.2677
 6261SOL     OW30241   3.863   2.332   6.976  0.0340  0.1110  0.0307
 6261SOL    HW130242   3.806   2.314   7.051 -1.4907 -0.6419 -1.3331
 6261SOL    HW230243   3.794   2.357   6.915 -0.8319 -0.9612  0.5903
 6262SOL     OW30244   1.137   3.739   6.111 -0.3030  0.2884  0.2096
 6262SOL    HW130245   1.175   3.818   6.072  2.5762 -1.7330 -1.0524
 6262SOL    HW230246   1.144   3.667   6.049 -2.4359 -1.6819  2.2602
 6263SOL     OW30247   4.326   2.622  17.387  0.2731 -0.2074  0.1522
 6263SOL    HW130248   4.370   2.595  17.307  2.7437 -1.3905  1.9284
 6263SOL    HW230249   4.289   2.539  17.417 -2.3235  0.7983 -0.1939
 6264SOL     OW30250   2.816   0.930  10.750 -0.3884  0.0311  0.1879
 6264SOL    HW130251   2.835   0.836  10.747 -0.4615 -0.0282  1.7540
 6264SOL    HW230252   2.781   0.938  10.661  1.4402  0.6052 -0.4700
 6265SOL     OW30253   1.826   3.799   1.158 -0.1142 -0.6035  0.2682
 6265SOL    HW130254   1.733   3.820   1.151 -0.1497 -0.3614  1.4277
 6265SOL    HW230255   1.821   3.706   1.137 -1.4299 -0.0706 -1.7566
 6266SOL     OW30256   0.633   1.499   8.746  0.0954 -0.2917 -0.0845
 6266SOL    HW130257   0.698   1.431   8.764 -1.5882 -1.3339  2.1724
 6266SOL    HW230258   0.686   1.548   8.683 -0.9645 -0.4024 -1.0669
 6267SOL     OW30259   0.624   3.309   7.849 -0.0377  0.6710 -0.1043
 6267SOL    HW130260   0.615   3.367   7.774 -1.4259  1.0171  0.3353
 6267SOL    HW230261   0.552   3.247   7.838 -0.9477  1.7876 -0.5177
 6268SOL     OW30262   0.770   0.091   1.210 -0.8878 -0.3109  0.0226
 6268SOL    HW130263   0.710   0.060   1.278 -1.3604  0.6385  0.0276
 6268SOL    HW230264   0.761   0.185   1.225  0.9077 -0.2985  0.9816
 6269SOL     OW30265   2.422   3.746  12.070  0.0391  0.5573 -0.1041
 6269SOL    HW130266   2.494   3.804  12.048  0.0652  0.4407 -0.3258
 6269SOL    HW230267   2.385   3.742  11.982 -3.4448 -0.9521  1.4188
 6270SOL     OW30268   4.014   3.736   6.465  0.3335 -0.4712 -0.1496
 6270SOL    HW130269   3.935   3.688   6.492  1.0158 -2.5281 -1.8569
 6270SOL    HW230270   3.987   3.816   6.511 -1.4225 -2.2479  1.9346
 6271SOL     OW30271   3.137   3.858   5.713  0.2489  0.0950 -0.8090
 6271SOL    HW130272   3.118   3.931   5.654  0.7030 -0.1149 -1.2209
 6271SOL    HW230273   3.046   3.832   5.724  0.0004  0.1201 -2.7308
 6272SOL     OW30274   4.587   1.300  13.033 -0.1979 -0.0126 -0.4036
 6272SOL    HW130275   4.676   1.308  12.997  0.2020  2.1221  1.0314
 6272SOL    HW230276   4.616   1.303  13.124 -0.2952  0.4951 -0.3917
 6273SOL     OW30277   4.114   4.499  17.333 -0.6106 -0.1661 -0.4893
 6273SOL    HW130278   4.051   4.519  17.402  0.1189 -2.2341  0.7964
 6273SOL    HW230279   4.061   4.433  17.288 -1.0611 -1.6815  2.2688
 6274SOL     OW30280   3.465   3.017  10.980 -0.0348 -0.1344 -0.3055
 6274SOL    HW130281   3.534   3.081  10.999 -0.6659  0.6033 -0.4975
 6274SOL    HW230282   3.418   3.003  11.062  0.9765 -2.6464 -0.1663
 6275SOL     OW30283   4.116   4.010  14.777 -0.2988 -0.1833 -0.3187
 6275SOL    HW130284   4.142   4.027  14.868 -0.7488  1.3668 -0.4827
 6275SOL    HW230285   4.174   3.935  14.763 -0.2757  0.0858 -1.6547
 6276SOL     OW30286   4.056   1.103   3.618 -0.2939  0.1257  0.3135
 6276SOL    HW130287   4.128   1.082   3.678 -0.6493 -0.8589  0.3939
 6276SOL    HW230288   4.009   1.174   3.663  1.8293  2.5751 -1.3405
 6277SOL     OW30289   0.710   3.653   2.973  0.1568 -0.2717  0.1939
 6277SOL    HW130290   0.668   3.654   3.059 -2.7831  3.5359 -1.2939
 6277SOL    HW230291   0.677   3.573   2.931 -1.9615  0.4736  0.4614
 6278SOL     OW30292   1.821   0.069   3.634 -0.0630 -0.0246 -0.1585
 6278SOL    HW130293   1.896   0.126   3.644  0.8281 -0.8846 -1.8855
 6278SOL    HW230294   1.872   4.711   3.635  1.8312  1.2062  1.7760
 6279SOL     OW30295   1.015   2.304   7.028 -0.4955 -0.1908  0.2661
 6279SOL    HW130296   0.929   2.346   7.024 -0.2380  0.2257 -0.9088
 6279SOL    HW230297   1.056   2.330   6.946 -0.9940  1.5833  0.5843
 6280SOL     OW30298   1.678   3.574   3.568  0.2317  0.0078  0.3299
 6280SOL    HW130299   1.655   3.667   3.575  1.2498  0.3510 -0.8976
 6280SOL    HW230300   1.596   3.544   3.606 -1.1374  0.2795 -2.4244
 6281SOL     OW30301   0.681   0.200  13.524  0.8398  0.1487 -0.1055
 6281SOL    HW130302   0.737   0.240  13.457  0.4154  0.0723 -0.5109
 6281SOL    HW230303   0.732   0.127  13.559 -0.5963  0.0356  1.7136
 6282SOL     OW30304   3.073   0.901   2.446 -0.6818 -0.2660 -0.5164
 6282SOL    HW130305   3.142   0.902   2.380  1.3314 -1.8176  1.5572
 6282SOL    HW230306   3.044   0.992   2.454 -0.0042 -0.1185  0.2789
 6283SOL     OW30307   0.894   0.010  11.512  0.2875 -1.1643  0.5694
 6283SOL    HW130308   0.981   4.696  11.523  0.5828 -0.3914  0.8400
 6283SOL    HW230309   0.902   0.104  11.526  2.4580 -1.2352 -0.1907
 6284SOL     OW30310   3.063   0.811   4.505  0.0379 -0.0308  0.2091
 6284SOL    HW130311   3.096   0.852   4.425  1.3802  0.7667  1.1649
 6284SOL    HW230312   3.128   0.837   4.570 -0.7171 -0.7215  1.2556
 6285SOL     OW30313   1.398   2.850  11.943 -0.4244  0.1356  0.3409
 6285SOL    HW130314   1.470   2.792  11.919 -0.0256 -0.6094  3.2704
 6285SOL    HW230315   1.438   2.936  11.930  0.9680 -0.3269  1.4786
 6286SOL     OW30316   2.624   4.505  12.950  0.0164 -0.3212  0.6924
 6286SOL    HW130317   2.576   4.549  13.019 -1.6740 -1.7412  0.4073
 6286SOL    HW230318   2.620   4.411  12.967 -0.4419 -0.4678 -0.1968
 6287SOL     OW30319   2.546   4.386   3.775 -0.2420  0.3253  0.2070
 6287SOL    HW130320   2.516   4.318   3.715 -0.3855  1.0774 -0.5833
 6287SOL    HW230321   2.635   4.351   3.783 -0.9307 -1.8909 -2.0177
 6288SOL     OW30322   3.880   4.006  11.966  0.2358  0.4996 -0.1951
 6288SOL    HW130323   3.863   3.912  11.966  1.5461  0.2572  3.1000
 6288SOL    HW230324   3.974   4.015  11.980 -0.0431  0.0292  1.9669
 6289SOL     OW30325   2.024   4.142   7.176  0.1773  0.2840  0.2085
 6289SOL    HW130326   2.055   4.231   7.195 -1.3601  0.7078  0.7068
 6289SOL    HW230327   1.933   4.154   7.150 -0.0098 -1.9184 -0.1565
 6290SOL     OW30328   2.270   0.680   8.841 -0.0437  0.2707 -0.0031
 6290SOL    HW130329   2.224   0.745   8.789  1.0551 -0.1353 -1.4820
 6290SOL    HW230330   2.332   0.660   8.770  0.5352  2.3690 -0.0797
 6291SOL     OW30331   0.389   1.900   8.797 -0.2812 -0.8850 -0.0664
 6291SOL    HW130332   0.433   1.977   8.834  0.9522 -1.5339 -0.1795
 6291SOL    HW230333   0.430   1.831   8.849  1.0295  1.1195  1.5959
 6292SOL     OW30334   1.979   2.163   6.852 -0.7466 -0.0750  0.2028
 6292SOL    HW130335   1.912   2.166   6.783 -1.3014 -2.2586  0.6363
 6292SOL    HW230336   1.916   2.151   6.923 -3.2887  2.0823 -1.7084
 6293SOL     OW30337   2.684   3.164  10.661  0.6275  0.2730 -0.2821
 6293SOL    HW130338   2.757   3.199  10.609 -0.5212  0.5696 -1.7031
 6293SOL    HW230339   2.712   3.073  10.655  0.7506  0.4216 -2.0061
 6294SOL     OW30340   1.568   4.622   5.771 -0.2237  0.2152 -0.0016
 6294SOL    HW130341   1.481   4.619   5.731  0.0737 -0.5279 -0.5905
 6294SOL    HW230342   1.558   4.681   5.846 -2.4873 -0.3331  0.1513
 6295SOL     OW30343   4.268   1.609   6.333 -0.1843 -0.0192  0.4592
 6295SOL    HW130344   4.303   1.586   6.419  1.3427 -0.7331 -0.3553
 6295SOL    HW230345   4.284   1.532   6.279  0.4247  2.0622 -2.3537
 6296SOL     OW30346   0.730   2.840   3.404  0.2718  0.2725 -0.1572
 6296SOL    HW130347   0.811   2.804   3.440  0.6651  0.6745 -0.6296
 6296SOL    HW230348   0.667   2.793   3.458 -0.7226  1.4318 -0.2888
 6297SOL     OW30349   4.600   4.347   8.366  0.3303 -0.2565 -0.4141
 6297SOL    HW130350   4.529   4.410   8.356 -0.0211 -0.4519  0.7428
 6297SOL    HW230351   4.579   4.277   8.304  1.7627  0.1070 -1.2927
 6298SOL     OW30352   3.227   3.926   8.522 -0.3696 -0.2584 -0.4524
 6298SOL    HW130353   3.211   3.835   8.547 -1.1875 -0.8962 -3.3731
 6298SOL    HW230354   3.272   3.967   8.596  0.2162 -0.8557 -0.4804
 6299SOL     OW30355   1.105   2.443   9.120  0.1167  0.2314  0.0936
 6299SOL    HW130356   1.013   2.441   9.147 -0.2841  0.5974 -1.2460
 6299SOL    HW230357   1.127   2.350   9.118  2.4693  0.7972 -1.0307
 6300SOL     OW30358   1.790   2.570   7.409 -0.6557 -0.3553 -0.8824
 6300SOL    HW130359   1.760   2.598   7.496 -1.8360 -0.1771 -1.3510
 6300SOL    HW230360   1.807   2.651   7.361 -1.9462 -0.1698 -1.0297
 6301SOL     OW30361   4.079   1.221   8.096 -0.5214  0.0417 -0.0238
 6301SOL    HW130362   4.015   1.292   8.098  0.6611  1.1072  0.1435
 6301SOL    HW230363   4.117   1.226   8.009  0.7411 -1.0278  0.4569
 6302SOL     OW30364   2.029   1.887  17.079 -0.1931  0.5470 -0.3609
 6302SOL    HW130365   1.977   1.816  17.042 -0.6138  0.3005  0.6845
 6302SOL    HW230366   2.116   1.877  17.042 -0.4054  1.8498 -1.2021
 6303SOL     OW30367   0.284   2.777   9.870 -0.6100  0.0465  0.0975
 6303SOL    HW130368   0.316   2.830   9.943  1.7650 -2.6422  0.9932
 6303SOL    HW230369   0.190   2.776   9.890 -0.3764 -0.3330  1.1514
 6304SOL     OW30370   0.322   2.701   8.160  0.1478  0.2234 -0.3909
 6304SOL    HW130371   0.361   2.616   8.138 -2.2882 -1.2000  0.8034
 6304SOL    HW230372   0.230   2.676   8.168  1.1389 -2.8986  1.2306
 6305SOL     OW30373   2.328   2.527   8.811  0.0484 -0.6669  0.0945
 6305SOL    HW130374   2.330   2.471   8.734  0.4899 -0.3249 -0.1456
 6305SOL    HW230375   2.234   2.523   8.827 -0.2860  1.9611 -1.2625
 6306SOL     OW30376   4.338   0.791   7.392  0.3383 -0.5182  0.2638
 6306SOL    HW130377   4.414   0.820   7.341 -0.3716 -1.0940 -1.1262
 6306SOL    HW230378   4.350   0.700   7.365  2.0133 -1.0089  2.6591
 6307SOL     OW30379   2.060   2.525   8.895  0.0696 -0.4786  0.0224
 6307SOL    HW130380   1.997   2.592   8.870  2.0813  1.0838 -0.8550
 6307SOL    HW230381   2.055   2.526   8.991 -1.6432 -0.9378 -0.0629
 6308SOL     OW30382   2.048   4.222   5.187 -0.3782 -0.0815  0.2870
 6308SOL    HW130383   2.030   4.306   5.229  0.3770 -0.2536  0.9618
 6308SOL    HW230384   1.981   4.172   5.233 -0.4653  1.6366  2.0233
 6309SOL     OW30385   1.793   0.867   3.593  0.6409  0.4322 -0.0903
 6309SOL    HW130386   1.839   0.785   3.577 -0.7606 -0.2682 -0.4988
 6309SOL    HW230387   1.758   0.867   3.683  0.4656  0.8337 -0.1550
 6310SOL     OW30388   4.232   4.259   0.962  0.3399 -0.0040 -0.6204
 6310SOL    HW130389   4.234   4.194   1.032 -2.7861  0.9689  0.4245
 6310SOL    HW230390   4.255   4.206   0.887  0.1986 -0.5701 -0.2642
 6311SOL     OW30391   0.128   1.351  12.938 -0.1452 -0.0943  0.5055
 6311SOL    HW130392   0.182   1.405  12.881 -0.8160  0.7151  0.6309
 6311SOL    HW230393   0.095   1.418  12.998 -1.0436  0.2868 -0.4176
 6312SOL     OW30394   1.856   3.315  17.158 -0.2184  0.5135 -0.6210
 6312SOL    HW130395   1.829   3.385  17.099 -0.0232  0.1400 -1.1456
 6312SOL    HW230396   1.865   3.240  17.100  0.1506  0.7758 -0.9008
 6313SOL     OW30397   2.865   1.829   9.212  0.2749 -0.7168 -0.6812
 6313SOL    HW130398   2.960   1.822   9.218  0.0203 -2.5859  1.3954
 6313SOL    HW230399   2.843   1.746   9.170  0.2366 -0.5674 -0.9576
 6314SOL     OW30400   3.266   0.323   4.625  0.0719 -0.4526  0.1842
 6314SOL    HW130401   3.316   0.251   4.662 -2.1659 -2.4738 -0.7223
 6314SOL    HW230402   3.335   0.368   4.575 -1.4977  0.7063 -0.9636
 6315SOL     OW30403   3.122   3.027   6.868  0.0785  0.4156 -0.0926
 6315SOL    HW130404   3.168   2.995   6.790 -0.8159  0.9782 -0.8595
 6315SOL    HW230405   3.082   3.101   6.821  0.3541  0.9447  0.5099
 6316SOL     OW30406   1.874   3.325   5.055  0.2787 -0.1037 -0.0067
 6316SOL    HW130407   1.958   3.302   5.017  0.8338 -1.6391  2.1415
 6316SOL    HW230408   1.892   3.260   5.123  1.6785 -0.8571 -1.0955
 6317SOL     OW30409   0.164   3.678   2.320 -0.2250  0.0169 -0.2585
 6317SOL    HW130410   0.101   3.608   2.333 -1.2825  0.3342 -3.8591
 6317SOL    HW230411   0.185   3.676   2.227  0.9426 -0.4566  0.0086
 6318SOL     OW30412   3.625   4.056  14.726 -0.2290 -0.0363  0.0165
 6318SOL    HW130413   3.652   4.141  14.691 -0.4373 -0.3522 -0.9249
 6318SOL    HW230414   3.712   4.024  14.747 -0.4657  1.0801  2.7665
 6319SOL     OW30415   1.562   4.646   9.907 -0.2156 -0.3162  0.2181
 6319SOL    HW130416   1.473   4.677   9.920 -0.1288  1.1564 -2.6771
 6319SOL    HW230417   1.595   4.659   9.996 -0.4970 -1.2149  0.4557
 6320SOL     OW30418   0.057   4.191   5.331 -0.1227 -0.0912  0.1295
 6320SOL    HW130419   0.011   4.112   5.360 -1.5033  0.1253 -1.5027
 6320SOL    HW230420   0.024   4.254   5.395  2.3757  1.2179  0.1399
 6321SOL     OW30421   0.126   3.149   2.884  0.0423  0.2175  0.1089
 6321SOL    HW130422   0.050   3.091   2.886 -0.6622  1.1741  0.4520
 6321SOL    HW230423   0.104   3.211   2.815 -2.1464 -2.6710 -1.7939
 6322SOL     OW30424   3.598   2.631   3.586 -0.4906 -0.7811 -0.9039
 6322SOL    HW130425   3.669   2.638   3.522  0.4048 -2.4859 -0.0944
 6322SOL    HW230426   3.520   2.656   3.535  0.1933 -2.2490 -2.6803
 6323SOL     OW30427   4.386   0.586   8.568  0.7800 -0.0145 -0.7344
 6323SOL    HW130428   4.327   0.573   8.642  0.9647 -0.5507 -0.6855
 6323SOL    HW230429   4.392   0.682   8.569  2.4973 -0.1156 -1.5798
 6324SOL     OW30430   4.044   1.284  17.493 -0.2403  0.1242  0.1437
 6324SOL    HW130431   4.109   1.344  17.455  0.6641 -1.5771 -1.0034
 6324SOL    HW230432   4.030   1.241  17.409 -0.0349  1.4916 -0.5920
 6325SOL     OW30433   2.385   1.494   1.043 -0.1787 -0.3856 -0.9493
 6325SOL    HW130434   2.368   1.541   1.125 -1.4269 -0.7844 -0.9764
 6325SOL    HW230435   2.413   1.409   1.077  0.3507 -0.3084 -1.2050
 6326SOL     OW30436   2.803   1.744   2.689  0.0879 -0.0551  0.4190
 6326SOL    HW130437   2.865   1.671   2.687 -0.2440 -0.3627  1.4488
 6326SOL    HW230438   2.761   1.752   2.603 -0.4522  1.0863  0.7947
 6327SOL     OW30439   3.550   0.073  15.446 -0.1606  0.4587  0.3545
 6327SOL    HW130440   3.536   0.036  15.534 -0.2091  2.1790  1.0620
 6327SOL    HW230441   3.630   0.122  15.461  0.5863 -0.7817  0.4247
 6328SOL     OW30442   3.883   3.065   2.416 -0.0122 -0.4427 -0.1899
 6328SOL    HW130443   3.948   3.119   2.460 -0.0823  0.3931 -1.1083
 6328SOL    HW230444   3.814   3.127   2.392 -0.2088  0.5640  2.9302
 6329SOL     OW30445   1.526   1.451  15.821 -0.3556  0.0615  0.3364
 6329SOL    HW130446   1.493   1.397  15.893  3.0851 -0.9753  1.0943
 6329SOL    HW230447   1.590   1.508  15.863 -1.7421  0.9391  1.2668
 6330SOL     OW30448   2.206   0.625   3.001 -0.9728  0.2334 -0.0628
 6330SOL    HW130449   2.119   0.585   2.997 -0.9486  0.1407  0.2621
 6330SOL    HW230450   2.227   0.600   3.092  1.0456  2.7990  0.1714
 6331SOL     OW30451   1.626   0.372   6.369  0.0168  0.0320  0.0257
 6331SOL    HW130452   1.554   0.433   6.353  2.3068  2.6647 -0.3902
 6331SOL    HW230453   1.585   0.292   6.336  0.1150  0.4309 -1.0455
 6332SOL     OW30454   4.412   4.722  11.991  0.1025 -0.4638 -0.4269
 6332SOL    HW130455   4.349   0.023  11.924  1.8531  1.2317 -1.4608
 6332SOL    HW230456   4.369   0.044  12.063 -1.3630  0.0032 -1.6100
 6333SOL     OW30457   3.982   3.228   0.730 -0.3476  0.1383  0.2028
 6333SOL    HW130458   3.951   3.296   0.671  0.0670 -0.0182 -0.1959
 6333SOL    HW230459   4.012   3.280   0.805  1.4519  0.6425 -0.8541
 6334SOL     OW30460   4.657   3.337   0.550 -0.0471 -0.2803  0.3773
 6334SOL    HW130461   4.656   3.432   0.539 -1.1089 -0.3696 -0.3260
 6334SOL    HW230462   4.634   3.320   0.642  1.6910  0.3615  0.9178
 6335SOL     OW30463   3.536   1.187   9.452  0.0898  0.4408  0.2384
 6335SOL    HW130464   3.504   1.173   9.363  1.0073 -0.4916  0.0405
 6335SOL    HW230465   3.530   1.103   9.498  0.0545 -0.2488 -1.0142
 6336SOL     OW30466   1.614   1.040  15.727  0.4331 -0.5198 -0.0031
 6336SOL    HW130467   1.658   1.066  15.647  1.9163  0.1546  1.0331
 6336SOL    HW230468   1.689   1.054  15.785  0.6768 -4.4258  0.6636
 6337SOL     OW30469   3.882   3.000   3.540  0.0644  0.0545  0.1925
 6337SOL    HW130470   3.945   3.072   3.549 -0.5897  0.6527 -0.0874
 6337SOL    HW230471   3.943   2.929   3.563  0.3974 -0.1461 -1.3099
 6338SOL     OW30472   1.343   1.393   5.295  0.4447 -0.5647  0.6906
 6338SOL    HW130473   1.397   1.440   5.230  1.4551 -1.5726  0.8034
 6338SOL    HW230474   1.359   1.300   5.279  1.4099 -0.2900  0.0622
 6339SOL     OW30475   3.464   0.357   0.628 -0.3707 -0.4955 -0.4184
 6339SOL    HW130476   3.430   0.284   0.680 -1.7182 -1.0894 -2.1612
 6339SOL    HW230477   3.523   0.402   0.689 -0.3629 -0.4581 -0.4537
 6340SOL     OW30478   4.222   2.873   2.667  0.6440  0.3761 -0.9580
 6340SOL    HW130479   4.238   2.966   2.684 -1.0390  0.8409 -1.8599
 6340SOL    HW230480   4.160   2.872   2.594 -3.4889 -2.4666  2.6123
 6341SOL     OW30481   2.149   0.859   6.598 -0.5749  0.6275  1.0731
 6341SOL    HW130482   2.160   0.947   6.563  0.4584  0.3334  0.6534
 6341SOL    HW230483   2.067   0.862   6.649 -0.7699  1.5962  0.6994
 6342SOL     OW30484   4.530   0.188  15.217 -0.1960  0.1896  0.0647
 6342SOL    HW130485   4.565   0.277  15.210  0.8451 -0.1912  0.4345
 6342SOL    HW230486   4.468   0.185  15.144 -0.0289  2.7406 -0.2043
 6343SOL     OW30487   2.530   4.667   1.344  0.4484  0.5189  0.1843
 6343SOL    HW130488   2.555   4.582   1.306 -1.3240  1.4279 -2.9501
 6343SOL    HW230489   2.591   4.670   1.418  0.8430  2.7541 -0.2483
 6344SOL     OW30490   3.270   1.100   9.768  0.0635  0.2657 -0.2474
 6344SOL    HW130491   3.345   1.060   9.811 -1.6817 -1.5947  1.0567
 6344SOL    HW230492   3.210   1.084   9.840 -0.6049  0.9706 -0.6444
 6345SOL     OW30493   0.313   4.092   7.577 -0.1690 -0.1725 -0.1231
 6345SOL    HW130494   0.399   4.069   7.541 -0.3394  0.4232 -0.9020
 6345SOL    HW230495   0.297   4.183   7.555  1.5759  0.1145 -0.1987
 6346SOL     OW30496   2.990   3.985  15.964 -0.0541  0.1505  0.3372
 6346SOL    HW130497   2.929   4.057  15.982  0.5559  1.3807 -2.4693
 6346SOL    HW230498   3.062   4.045  15.942  1.7409 -1.5352  1.6525
 6347SOL     OW30499   1.102   1.935   5.093 -0.3927  0.0527  0.0062
 6347SOL    HW130500   1.125   1.852   5.134  1.9542  0.3662 -0.6804
 6347SOL    HW230501   1.023   1.916   5.043 -0.8290 -1.1455  1.1693
 6348SOL     OW30502   1.775   3.310  15.858  0.6149  0.4141  0.3284
 6348SOL    HW130503   1.857   3.268  15.885 -0.8808 -1.2518  2.2908
 6348SOL    HW230504   1.768   3.394  15.904  0.0488  0.4620  0.1548
 6349SOL     OW30505   1.152   2.982  15.318 -0.0561 -0.6891  0.2603
 6349SOL    HW130506   1.069   3.015  15.284  0.6093 -0.2530 -0.9421
 6349SOL    HW230507   1.166   2.894  15.282 -0.8478 -0.4894 -0.5502
 6350SOL     OW30508   3.553   2.417   5.661  0.5975  0.1762  0.4066
 6350SOL    HW130509   3.641   2.439   5.631  1.1730  0.1102  2.0579
 6350SOL    HW230510   3.552   2.465   5.743 -0.1200 -0.0639  0.5446
 6351SOL     OW30511   1.674   0.557   2.666 -0.0776  0.6428 -0.5971
 6351SOL    HW130512   1.602   0.590   2.719  0.1135  1.1479 -0.6559
 6351SOL    HW230513   1.720   0.641   2.660  0.2397  0.6125  1.3501
 6352SOL     OW30514   2.292   0.744   2.532 -0.7302  0.2547 -0.1900
 6352SOL    HW130515   2.280   0.760   2.626 -0.0275  1.6946 -0.3527
 6352SOL    HW230516   2.385   0.721   2.537 -0.7519 -0.0305 -1.1524
 6353SOL     OW30517   1.127   3.453   4.023 -0.5304 -0.3225 -0.0730
 6353SOL    HW130518   1.120   3.451   4.118  0.9794  3.2028  0.1101
 6353SOL    HW230519   1.038   3.423   4.002 -1.9416  1.7030  2.9527
 6354SOL     OW30520   4.497   1.133   5.819 -0.1226 -0.3721 -0.3253
 6354SOL    HW130521   4.423   1.193   5.817 -0.4559 -0.8141 -1.3440
 6354SOL    HW230522   4.467   1.070   5.754  1.9455  0.0945 -1.7266
 6355SOL     OW30523   3.874   0.867   6.195  0.4259  0.1864  0.4476
 6355SOL    HW130524   3.829   0.792   6.158  2.2939 -0.1351 -1.2005
 6355SOL    HW230525   3.832   0.939   6.148  2.6480  0.3235 -1.3126
 6356SOL     OW30526   3.052   3.046   7.190 -0.8297  0.1260 -0.3051
 6356SOL    HW130527   3.122   2.983   7.171  0.2630  0.7574  1.5988
 6356SOL    HW230528   3.020   3.008   7.272  0.3805 -0.3701 -0.0548
 6357SOL     OW30529   4.577   2.896   6.674 -0.1527 -0.7082  0.1897
 6357SOL    HW130530   4.496   2.861   6.711 -0.5553 -0.2876 -0.3123
 6357SOL    HW230531   4.604   2.826   6.614  1.2517 -1.0527  1.1850
 6358SOL     OW30532   1.891   3.653   4.070  0.0710  0.4607 -0.2766
 6358SOL    HW130533   1.881   3.748   4.063 -2.5583  0.0446 -1.9490
 6358SOL    HW230534   1.905   3.633   3.977 -0.2153 -1.2456  0.0362
 6359SOL     OW30535   2.330   0.187   7.680  0.0505 -0.3364  0.3089
 6359SOL    HW130536   2.318   0.246   7.754  0.0059  0.6433 -0.4780
 6359SOL    HW230537   2.254   0.130   7.695  0.6276 -1.4949 -1.1509
 6360SOL     OW30538   2.191   0.597   4.607 -0.1916 -0.3155 -0.0936
 6360SOL    HW130539   2.217   0.618   4.697  1.8765 -0.2526 -0.7047
 6360SOL    HW230540   2.269   0.550   4.576 -0.4568 -2.2615  2.1771
 6361SOL     OW30541   0.712   4.274  12.264 -0.6247 -0.0299  0.2230
 6361SOL    HW130542   0.689   4.339  12.197  0.8797  0.2008 -0.0679
 6361SOL    HW230543   0.807   4.287  12.263 -0.7745  1.0115  0.1052
 6362SOL     OW30544   3.751   3.147   8.363  0.2230  0.0980 -0.4284
 6362SOL    HW130545   3.794   3.079   8.415  0.0502  0.4647  0.1957
 6362SOL    HW230546   3.815   3.218   8.362  0.1527  0.1825  0.7421
 6363SOL     OW30547   2.288   1.311   4.881 -0.3472 -0.3369  0.5416
 6363SOL    HW130548   2.237   1.347   4.954 -1.5264  0.7631 -0.8272
 6363SOL    HW230549   2.276   1.374   4.810  0.1684 -0.9398 -0.0756
 6364SOL     OW30550   0.771   1.921  10.760  0.0909  0.2360  0.1736
 6364SOL    HW130551   0.795   1.952  10.847 -0.4034 -1.2698  0.8456
 6364SOL    HW230552   0.738   1.831  10.767  1.7786 -0.1612  3.0621
 6365SOL     OW30553   2.674   4.287   5.451  0.0809 -0.0617  0.4712
 6365SOL    HW130554   2.651   4.355   5.514 -0.6295  1.5663 -1.5295
 6365SOL    HW230555   2.720   4.340   5.385  0.5151  1.5998  2.1085
 6366SOL     OW30556   3.850   0.443   7.755  0.4135 -0.0278 -0.1722
 6366SOL    HW130557   3.866   0.491   7.674 -0.2123  0.0582 -0.2439
 6366SOL    HW230558   3.777   0.390   7.724  1.2987 -0.9260 -0.6845
 6367SOL     OW30559   0.293   2.863   0.565 -0.1316 -0.1276 -0.3539
 6367SOL    HW130560   0.246   2.787   0.599  0.4735 -0.4808 -0.3007
 6367SOL    HW230561   0.371   2.853   0.620 -1.7494 -1.2834  1.7695
 6368SOL     OW30562   3.032   0.461   7.591  0.1079 -0.6124 -0.7845
 6368SOL    HW130563   3.013   0.370   7.615  1.7527 -0.1593  2.2431
 6368SOL    HW230564   3.041   0.493   7.680 -1.8550  2.5186 -1.7514
 6369SOL     OW30565   0.006   0.232  12.291 -0.0118  0.1105  0.5474
 6369SOL    HW130566   4.692   0.278  12.215 -0.1287 -2.2887 -0.8560
 6369SOL    HW230567   4.662   0.171  12.322 -0.6777  0.2126 -0.6690
 6370SOL     OW30568   0.678   1.520  11.353  0.3320 -0.2753 -0.4657
 6370SOL    HW130569   0.770   1.529  11.380  0.3606 -2.3480  0.1583
 6370SOL    HW230570   0.698   1.497  11.262  2.1262 -0.9697  0.1038
 6371SOL     OW30571   1.396   0.902   3.142 -0.6640 -0.4934  0.1926
 6371SOL    HW130572   1.367   0.822   3.096  3.9786 -1.0928 -1.7025
 6371SOL    HW230573   1.471   0.867   3.190 -2.1651 -0.4347  2.5484
 6372SOL     OW30574   4.037   0.266   7.872  0.3751 -0.2659 -0.6359
 6372SOL    HW130575   4.084   0.309   7.944 -0.1556  0.1991 -0.5637
 6372SOL    HW230576   3.975   0.337   7.851  1.2723  0.9235  0.6823
 6373SOL     OW30577   1.257   0.878   6.466  0.3298 -0.4177  0.2431
 6373SOL    HW130578   1.251   0.826   6.386 -3.0734  0.4063 -0.0415
 6373SOL    HW230579   1.171   0.921   6.472 -0.2371 -1.3789 -1.1400
 6374SOL     OW30580   1.141   3.114   3.959  0.2093  0.6145 -0.2883
 6374SOL    HW130581   1.070   3.138   3.901  0.2667  2.0878  0.2370
 6374SOL    HW230582   1.192   3.060   3.899 -1.7753 -0.6754 -0.8109
 6375SOL     OW30583   1.309   2.435   8.794  0.4102 -0.2908 -0.2743
 6375SOL    HW130584   1.337   2.368   8.857  2.2553 -0.1953 -0.9741
 6375SOL    HW230585   1.380   2.424   8.730 -0.4764 -0.6883 -1.1850
 6376SOL     OW30586   2.084   1.486   4.536  0.0114  0.4079  0.0104
 6376SOL    HW130587   2.095   1.463   4.444  1.3931 -2.2016  0.8314
 6376SOL    HW230588   2.060   1.576   4.516 -1.9488 -0.4660 -1.5147
 6377SOL     OW30589   0.142   3.322   1.776 -0.2271  0.9143  0.4244
 6377SOL    HW130590   0.060   3.276   1.789 -0.6220  1.6547  0.5322
 6377SOL    HW230591   0.144   3.307   1.682 -0.9815  1.5797  0.3091
 6378SOL     OW30592   2.885   0.479  12.241 -0.2033  0.2034 -0.4140
 6378SOL    HW130593   2.909   0.499  12.332  1.7514 -1.7104 -0.5233
 6378SOL    HW230594   2.792   0.462  12.257 -0.2505  2.4628  1.7861
 6379SOL     OW30595   4.504   1.160  12.329 -0.3020  0.2459  0.2746
 6379SOL    HW130596   4.508   1.090  12.265  1.3273 -0.1451  0.8033
 6379SOL    HW230597   4.440   1.116  12.385 -0.3869  1.5185  1.1951
 6380SOL     OW30598   4.236   4.123   5.961 -0.1690  0.2183 -0.3208
 6380SOL    HW130599   4.248   4.029   5.944  1.0512  0.2251  0.4995
 6380SOL    HW230600   4.301   4.159   5.900  1.7081 -3.2640 -0.4277
 6381SOL     OW30601   3.462   0.792   8.822  0.3422  0.7692  0.1252
 6381SOL    HW130602   3.504   0.815   8.905  2.2539  4.1438 -1.7975
 6381SOL    HW230603   3.497   0.862   8.767 -0.1011 -0.0222 -1.1656
 6382SOL     OW30604   2.699   4.040   5.218  0.1231  0.0812  0.0687
 6382SOL    HW130605   2.667   4.108   5.158 -0.1866  0.8957  1.1481
 6382SOL    HW230606   2.777   4.014   5.169  0.0152 -0.8635  0.4084
 6383SOL     OW30607   4.377   2.942   8.374  0.0661 -0.0138 -0.3744
 6383SOL    HW130608   4.467   2.933   8.406  0.6084  1.3610 -1.4933
 6383SOL    HW230609   4.329   2.934   8.456 -0.6732  0.1898 -0.7871
 6384SOL     OW30610   2.049   2.021   4.121  0.2135 -0.6918 -0.0948
 6384SOL    HW130611   2.033   2.090   4.186 -1.3669 -1.4552  0.3251
 6384SOL    HW230612   1.969   1.969   4.129 -1.0878  1.1783 -0.6947
 6385SOL     OW30613   3.284   2.978   5.456 -0.3578  0.0174  0.0257
 6385SOL    HW130614   3.306   3.032   5.532  1.4167 -0.0941 -0.4038
 6385SOL    HW230615   3.207   3.019   5.417 -0.3917 -0.6799 -0.6392
 6386SOL     OW30616   3.349   2.285  12.865  0.6102 -0.1352  0.4996
 6386SOL    HW130617   3.321   2.232  12.790  0.6096  0.5219  0.0318
 6386SOL    HW230618   3.263   2.304  12.903  0.0104 -0.5905 -0.6044
 6387SOL     OW30619   0.418   2.141   3.240  0.6318 -0.5335 -0.0363
 6387SOL    HW130620   0.476   2.065   3.243 -0.2391 -1.1909  0.1172
 6387SOL    HW230621   0.395   2.146   3.147  0.7738  1.2653  0.0238
 6388SOL     OW30622   3.638   0.804  11.937 -0.1919  0.0065  0.5774
 6388SOL    HW130623   3.593   0.755  12.006 -0.5952 -1.0805 -0.4726
 6388SOL    HW230624   3.640   0.738  11.868 -2.4128 -0.2992  0.8044
 6389SOL     OW30625   0.872   1.510   0.305  0.4690 -0.4882 -0.2776
 6389SOL    HW130626   0.960   1.484   0.278  1.2447  0.1586  1.6919
 6389SOL    HW230627   0.858   1.507   0.399  1.1485 -3.2139 -0.2678
 6390SOL     OW30628   1.897   1.886   3.894  0.3074  0.4914  0.2152
 6390SOL    HW130629   1.918   1.797   3.924 -1.7858 -0.3816 -0.8605
 6390SOL    HW230630   1.803   1.870   3.881  0.4868  0.6663 -1.3653
 6391SOL     OW30631   3.450   0.820   6.265 -0.2093  0.3850 -0.0856
 6391SOL    HW130632   3.372   0.855   6.307 -0.3438 -0.5238  0.4252
 6391SOL    HW230633   3.412   0.770   6.193 -1.7890  2.6794 -0.8546
 6392SOL     OW30634   3.338   0.185  11.458 -0.0027  0.0960  0.0460
 6392SOL    HW130635   3.415   0.239  11.442  0.3602 -0.7234 -0.9790
 6392SOL    HW230636   3.303   0.168  11.370 -1.8685 -0.3589  0.8736
 6393SOL     OW30637   1.502   2.603   5.361 -0.2303 -0.2795 -0.3460
 6393SOL    HW130638   1.430   2.621   5.422 -0.2980 -1.1270 -0.1699
 6393SOL    HW230639   1.499   2.507   5.358 -0.7110 -0.2755  0.0140
 6394SOL     OW30640   3.868   0.818   7.763  0.0835  0.2171  0.1344
 6394SOL    HW130641   3.804   0.765   7.810 -1.6175 -0.7883 -3.3230
 6394SOL    HW230642   3.909   0.761   7.699  1.8504  1.3212  0.2852
 6395SOL     OW30643   1.625   2.110  17.138 -0.2299  0.3071 -0.1468
 6395SOL    HW130644   1.599   2.200  17.117  0.5988  0.7557  0.7296
 6395SOL    HW230645   1.558   2.071  17.082 -0.2173  1.4155 -0.9370
 6396SOL     OW30646   4.633   3.169   2.236  0.0182 -0.4462  0.1124
 6396SOL    HW130647   4.609   3.100   2.176 -0.8637  0.5436 -0.6611
 6396SOL    HW230648   4.549   3.211   2.253  1.1463  2.2141 -0.7767
 6397SOL     OW30649   4.197   1.536   7.840 -0.1165 -0.5105 -0.4639
 6397SOL    HW130650   4.225   1.445   7.848  1.1900  0.0186  1.0305
 6397SOL    HW230651   4.123   1.521   7.781 -0.7089  1.8823 -0.3292
 6398SOL     OW30652   4.584   2.294   4.695  0.6131  0.0367 -0.4378
 6398SOL    HW130653   4.587   2.198   4.698 -1.2424 -0.0421 -0.8185
 6398SOL    HW230654   4.497   2.312   4.732  0.6013  0.5924 -0.7537
 6399SOL     OW30655   3.448   1.632   9.104  0.5496 -0.1683  0.1258
 6399SOL    HW130656   3.458   1.716   9.149 -0.2699 -1.3958  2.5838
 6399SOL    HW230657   3.413   1.574   9.171 -2.6759  0.0384 -1.4061
 6400SOL     OW30658   0.497   1.559   3.182 -0.1150  0.2124 -0.2729
 6400SOL    HW130659   0.433   1.628   3.164  1.9317  1.6910 -1.9188
 6400SOL    HW230660   0.564   1.563   3.114  0.4201  1.6181  0.3332
 6401SOL     OW30661   3.469   4.242   1.606  0.3397  0.2464  0.5563
 6401SOL    HW130662   3.527   4.261   1.532 -2.0513  1.6525 -0.9814
 6401SOL    HW230663   3.385   4.264   1.566  0.3911  1.4793  1.1356
 6402SOL     OW30664   4.141   0.829   7.807  0.1543 -0.4680 -0.2302
 6402SOL    HW130665   4.167   0.903   7.863 -1.4756 -0.0195 -0.0652
 6402SOL    HW230666   4.046   0.827   7.818  0.1928  1.1974  0.4830
 6403SOL     OW30667   4.125   1.548   8.938  0.3734 -0.2112 -0.3475
 6403SOL    HW130668   4.065   1.517   9.006  0.6263 -1.1448 -0.5476
 6403SOL    HW230669   4.073   1.524   8.861 -0.1745 -0.2373  0.0346
 6404SOL     OW30670   3.031   2.879  10.723  0.2698  0.0069 -0.2118
 6404SOL    HW130671   3.053   2.968  10.749 -2.7704  1.3780 -2.3259
 6404SOL    HW230672   3.066   2.872  10.635  0.0633  1.7900 -0.4380
 6405SOL     OW30673   3.842   4.049   6.273  0.2847  0.4686 -0.1346
 6405SOL    HW130674   3.820   4.085   6.359 -0.9805  0.8497 -0.6171
 6405SOL    HW230675   3.916   4.104   6.249  0.9895  0.7724  2.7591
 6406SOL     OW30676   1.260   0.682   7.567 -0.2518  0.1070  0.5227
 6406SOL    HW130677   1.293   0.624   7.498 -0.7674  0.8817 -0.3756
 6406SOL    HW230678   1.191   0.731   7.524  1.9873  0.4557 -2.6676
 6407SOL     OW30679   1.692   4.376  13.107  0.0812 -0.1433 -0.2995
 6407SOL    HW130680   1.754   4.366  13.035  0.1704 -4.0883  0.3566
 6407SOL    HW230681   1.743   4.386  13.187 -4.0187  1.5489  2.1090
 6408SOL     OW30682   1.352   0.773  16.081  0.3864  0.5296 -0.3278
 6408SOL    HW130683   1.445   0.784  16.101  0.3295 -0.2861  0.4080
 6408SOL    HW230684   1.323   0.777  16.172 -0.7213  0.6613 -0.6902
 6409SOL     OW30685   3.351   2.517  17.483 -0.1494 -0.2617  0.4954
 6409SOL    HW130686   3.332   2.432  17.521 -0.6580 -0.9290 -1.2493
 6409SOL    HW230687   3.416   2.482  17.422 -0.9026 -3.1799  1.3755
 6410SOL     OW30688   3.675   2.256   6.457  0.2387 -0.0294  0.3171
 6410SOL    HW130689   3.742   2.190   6.438 -1.0152 -0.8048 -1.3819
 6410SOL    HW230690   3.615   2.238   6.385 -0.1059  0.8279  0.3959
 6411SOL     OW30691   1.853   0.821  12.836  0.0957 -0.5814 -0.2804
 6411SOL    HW130692   1.876   0.764  12.763  0.4779  1.8890 -2.1087
 6411SOL    HW230693   1.817   0.759  12.899  0.8419 -0.7499 -0.0191
 6412SOL     OW30694   2.033   1.408   9.397 -0.6063  0.4014  0.2918
 6412SOL    HW130695   1.989   1.450   9.472  0.2794 -0.1176  1.0908
 6412SOL    HW230696   2.006   1.317   9.407  1.3498 -0.3339 -1.2555
 6413SOL     OW30697   4.231   2.946   6.439  0.4172 -0.6797  0.1747
 6413SOL    HW130698   4.246   3.023   6.383  0.0990 -0.7785 -0.0489
 6413SOL    HW230699   4.282   2.881   6.391  2.0265  1.6699 -1.2870
 6414SOL     OW30700   0.965   3.878  15.360  0.1807 -0.7809 -1.1098
 6414SOL    HW130701   0.897   3.861  15.425  1.0616 -1.0378 -0.2533
 6414SOL    HW230702   0.988   3.971  15.362 -0.0217 -0.8255  3.3661
 6415SOL     OW30703   0.445   3.749  11.666 -0.5477 -0.0001 -0.3230
 6415SOL    HW130704   0.431   3.835  11.628 -1.8969  0.1887  0.6092
 6415SOL    HW230705   0.373   3.747  11.729 -2.6791  0.6332 -2.7468
 6416SOL     OW30706   0.572   3.071  16.318  0.3437 -0.3148 -0.3744
 6416SOL    HW130707   0.525   2.994  16.349 -0.2388  0.3965  0.5110
 6416SOL    HW230708   0.647   3.062  16.378 -1.0129 -3.3495  0.8921
 6417SOL     OW30709   1.604   0.508   6.062  0.2992 -0.2342 -0.0882
 6417SOL    HW130710   1.650   0.458   5.994 -2.7619 -1.0789 -1.5474
 6417SOL    HW230711   1.682   0.541   6.105  0.9272 -1.5651 -0.2015
 6418SOL     OW30712   4.142   0.196  16.951 -0.3995  0.4971  0.3769
 6418SOL    HW130713   4.098   0.216  16.868  2.4059 -1.7430 -1.6773
 6418SOL    HW230714   4.112   0.111  16.982 -0.2307  0.3139  0.0475
 6419SOL     OW30715   2.123   4.132   9.330 -0.1068 -0.1596  0.5842
 6419SOL    HW130716   2.067   4.208   9.314  0.9685  0.6611  0.6918
 6419SOL    HW230717   2.212   4.161   9.312  0.1796 -1.2715  0.1641
 6420SOL     OW30718   0.453   0.781  12.314 -0.0548  0.2317 -0.0850
 6420SOL    HW130719   0.394   0.787  12.238 -1.2708 -0.4664  0.8040
 6420SOL    HW230720   0.455   0.874  12.338  1.4209 -0.2370  1.5211
 6421SOL     OW30721   3.999   1.505   4.614  0.6910 -0.5690  0.5064
 6421SOL    HW130722   4.038   1.557   4.686  2.6672 -3.8955  1.8295
 6421SOL    HW230723   4.059   1.521   4.541 -0.7966  0.3737 -0.5026
 6422SOL     OW30724   1.212   3.472   9.716 -0.2449 -0.6379 -0.6948
 6422SOL    HW130725   1.232   3.566   9.709 -0.9397 -0.4253  0.1946
 6422SOL    HW230726   1.301   3.448   9.741 -0.5554 -2.4064 -1.3375
 6423SOL     OW30727   4.128   0.318  12.114 -0.0831 -0.1330  0.0046
 6423SOL    HW130728   4.190   0.247  12.128 -0.1043 -0.0444  0.5574
 6423SOL    HW230729   4.183   0.387  12.077  1.4232 -0.9095  0.8062
 6424SOL     OW30730   4.600   3.517  17.216 -0.5180  0.5231  0.1227
 6424SOL    HW130731   4.694   3.532  17.219 -0.9232  2.9322  0.7137
 6424SOL    HW230732   4.600   3.484  17.126 -0.5409  0.0219  0.3044
 6425SOL     OW30733   3.498   1.429   3.920 -0.6984  0.2011  0.2065
 6425SOL    HW130734   3.549   1.509   3.933  0.0792  0.0290 -1.8112
 6425SOL    HW230735   3.409   1.463   3.930 -0.1569  1.6969 -0.1640
 6426SOL     OW30736   0.186   2.834  15.672  0.2819  0.3485  0.1999
 6426SOL    HW130737   0.113   2.896  15.681 -0.9454 -1.3858  2.0338
 6426SOL    HW230738   0.157   2.791  15.591 -1.8565  1.5757  0.3155
 6427SOL     OW30739   2.139   3.717  17.237  0.1663  0.0679  0.0931
 6427SOL    HW130740   2.140   3.812  17.227  0.4324 -0.4036 -4.3369
 6427SOL    HW230741   2.177   3.714  17.324 -0.0342  1.4745  0.2356
 6428SOL     OW30742   0.163   1.929  11.510  0.1053 -0.1577 -0.7472
 6428SOL    HW130743   0.202   1.926  11.597 -0.8711 -2.5971 -0.4024
 6428SOL    HW230744   0.083   1.963  11.551  0.2436 -1.6549  0.7194
 6429SOL     OW30745   2.453   1.068  17.488 -0.3526 -0.2718  0.5309
 6429SOL    HW130746   2.522   1.116  17.533 -1.0788  1.0145  0.2916
 6429SOL    HW230747   2.384   1.134  17.497  0.7093  0.9608 -0.2981
 6430SOL     OW30748   0.393   0.347   8.535  0.4744 -0.0455 -0.5796
 6430SOL    HW130749   0.456   0.363   8.606  0.9502  0.5582 -1.1382
 6430SOL    HW230750   0.417   0.258   8.510 -2.4454 -0.7899 -0.7658
 6431SOL     OW30751   3.106   2.348   5.679 -0.0199  0.3997  0.3374
 6431SOL    HW130752   3.137   2.263   5.648 -0.6080  0.5085 -0.5454
 6431SOL    HW230753   3.176   2.403   5.643 -1.3387  2.0689  0.3353
 6432SOL     OW30754   0.074   0.503   4.217  0.2560  0.1029 -0.5899
 6432SOL    HW130755   0.161   0.509   4.177  1.8340 -1.5337  2.6462
 6432SOL    HW230756   0.061   0.408   4.215 -0.2806  0.1494  0.9900
 6433SOL     OW30757   0.001   4.526   8.734  0.2336 -0.3285  0.2745
 6433SOL    HW130758   4.650   4.477   8.769  0.2606  0.0406  0.8330
 6433SOL    HW230759   0.053   4.546   8.812  0.1229  2.6357 -0.4087
 6434SOL     OW30760   1.073   2.208   1.719 -0.4766 -0.5406  0.3377
 6434SOL    HW130761   1.015   2.275   1.683 -2.2295 -1.2851  1.7997
 6434SOL    HW230762   1.118   2.250   1.792 -0.3911  0.1499 -0.1072
 6435SOL     OW30763   3.473   1.853  15.339 -0.5016 -0.1664 -0.2605
 6435SOL    HW130764   3.418   1.775  15.327 -2.7578  2.0241 -4.0045
 6435SOL    HW230765   3.532   1.842  15.265 -0.4579  2.8453 -0.6607
 6436SOL     OW30766   4.186   0.728   9.096 -0.0611 -0.1695 -0.0609
 6436SOL    HW130767   4.183   0.766   9.008  4.0243 -1.5571 -0.7978
 6436SOL    HW230768   4.275   0.694   9.101  0.7051  1.9701  0.8236
 6437SOL     OW30769   2.883   4.433  16.336 -0.6525  0.8314  0.4924
 6437SOL    HW130770   2.814   4.496  16.314  0.9072  1.0897 -3.6001
 6437SOL    HW230771   2.875   4.363  16.272  1.5017 -0.1093  1.2440
 6438SOL     OW30772   3.505   1.886  16.805  0.0205  0.1470 -0.2394
 6438SOL    HW130773   3.563   1.914  16.876  1.4925 -0.2966 -1.2583
 6438SOL    HW230774   3.504   1.975  16.772 -2.4907 -0.0983 -0.8275
 6439SOL     OW30775   2.856   4.447   6.647  0.0638  0.4747  0.7025
 6439SOL    HW130776   2.784   4.469   6.706 -0.3167  0.8177  0.1158
 6439SOL    HW230777   2.910   4.526   6.653  0.0687  0.5017  0.3282
 6440SOL     OW30778   0.852   3.762  13.625  0.3373 -0.3705  0.1681
 6440SOL    HW130779   0.870   3.699  13.556  0.1754  0.7488 -0.8981
 6440SOL    HW230780   0.927   3.815  13.651 -0.7737  0.0727  2.4442
 6441SOL     OW30781   4.256   3.478   6.503  0.1272  0.3677  0.1436
 6441SOL    HW130782   4.341   3.520   6.518  0.8198 -1.4823  1.3421
 6441SOL    HW230783   4.197   3.547   6.533  0.1776  0.8498 -0.8548
 6442SOL     OW30784   2.404   2.396   4.346 -0.6977 -0.6732  0.2341
 6442SOL    HW130785   2.453   2.470   4.382 -2.2147 -1.1529  3.3289
 6442SOL    HW230786   2.336   2.392   4.413 -0.5789 -0.3504  0.3733
 6443SOL     OW30787   2.858   1.110   9.658 -0.5395 -0.6251  0.3858
 6443SOL    HW130788   2.909   1.186   9.630  1.1105 -1.7432  0.3494
 6443SOL    HW230789   2.920   1.061   9.712  0.6480  0.0578 -0.3512
 6444SOL     OW30790   2.002   4.457   3.297 -0.5375 -0.5520 -0.0880
 6444SOL    HW130791   2.038   4.472   3.210  2.0081  0.9601  1.2255
 6444SOL    HW230792   2.063   4.490   3.363 -0.7804 -0.2423 -0.0135
 6445SOL     OW30793   2.748   1.004   3.163  0.2883 -0.1499 -0.2331
 6445SOL    HW130794   2.765   1.083   3.113 -0.3849  0.0098 -0.2093
 6445SOL    HW230795   2.807   1.014   3.238 -0.3116 -1.4364  0.4150
 6446SOL     OW30796   1.655   2.637   5.616 -0.6746 -0.4772 -0.1392
 6446SOL    HW130797   1.702   2.565   5.573 -1.3300 -0.9844  0.0034
 6446SOL    HW230798   1.735   2.675   5.654 -1.1229  1.1442 -0.8552
 6447SOL     OW30799   3.229   2.625   2.342  0.3813  0.1168 -0.3204
 6447SOL    HW130800   3.231   2.589   2.430 -1.8546 -0.5146 -0.5360
 6447SOL    HW230801   3.309   2.678   2.342  0.7955 -0.5277  3.0091
 6448SOL     OW30802   0.487   1.976   9.131 -0.5118 -0.2945  0.2479
 6448SOL    HW130803   0.406   1.926   9.141 -0.7780  0.0694 -0.1113
 6448SOL    HW230804   0.461   2.045   9.191 -2.0082 -2.6192  2.3010
 6449SOL     OW30805   0.972   3.306   6.715  0.1164  0.4500  0.7380
 6449SOL    HW130806   1.039   3.255   6.761 -2.0355 -3.7599 -0.7216
 6449SOL    HW230807   0.898   3.245   6.706  0.3166  0.0262  2.0546
 6450SOL     OW30808   0.105   1.572   6.354 -0.1743 -0.2247 -0.4689
 6450SOL    HW130809   0.057   1.645   6.313 -3.3946 -2.7445 -1.1135
 6450SOL    HW230810   0.145   1.544   6.272  1.2701 -0.4909  0.3381
 6451SOL     OW30811   0.436   3.859  12.647  0.3948 -0.1401  0.3927
 6451SOL    HW130812   0.428   3.764  12.641  1.2568 -0.1411 -0.6939
 6451SOL    HW230813   0.459   3.870  12.739 -1.3514  0.3338  0.7670
 6452SOL     OW30814   1.054   2.386  12.951 -0.0348 -0.0518 -0.0788
 6452SOL    HW130815   1.083   2.440  12.878 -0.5986  0.1567 -0.1432
 6452SOL    HW230816   1.108   2.416  13.024 -0.1400 -0.7700  0.3023
 6453SOL     OW30817   0.992   2.010   3.311  0.3892 -0.1760  0.5003
 6453SOL    HW130818   1.040   1.952   3.371  2.6424 -1.8654 -2.8983
 6453SOL    HW230819   0.931   2.040   3.378  1.9258  3.2336  0.3401
 6454SOL     OW30820   4.537   2.047   1.856  0.3606  0.0055  0.0966
 6454SOL    HW130821   4.474   2.072   1.789 -2.0177 -0.9830  1.9421
 6454SOL    HW230822   4.607   2.011   1.803  1.7631  0.3549  1.7178
 6455SOL     OW30823   1.134   3.807   7.615  0.0690 -0.4752  0.0628
 6455SOL    HW130824   1.053   3.761   7.594 -1.3793  2.0649  0.0818
 6455SOL    HW230825   1.173   3.740   7.671  0.1205 -1.0467 -0.6645
 6456SOL     OW30826   2.253   3.979   2.272 -0.2132 -0.2274  0.3044
 6456SOL    HW130827   2.290   3.917   2.210  2.1131 -0.5063  1.9904
 6456SOL    HW230828   2.296   4.061   2.245 -2.1328  0.6354 -0.1811
 6457SOL     OW30829   0.184   0.939   6.550 -0.5194  0.4255  0.4034
 6457SOL    HW130830   0.125   0.885   6.497  0.1881  0.1093 -0.0591
 6457SOL    HW230831   0.177   1.017   6.495 -1.1268 -0.6242 -1.0197
 6458SOL     OW30832   2.699   2.743  16.576  0.0682  0.3063  0.1227
 6458SOL    HW130833   2.754   2.672  16.545  2.9286  2.3247  0.5821
 6458SOL    HW230834   2.649   2.702  16.647  0.9204 -0.8888  0.0137
 6459SOL     OW30835   4.532   3.435   9.211 -0.3585  0.4797  0.5279
 6459SOL    HW130836   4.600   3.483   9.164 -1.5677  1.7514  0.0482
 6459SOL    HW230837   4.582   3.362   9.247 -1.3442 -1.0600 -1.2022
 6460SOL     OW30838   0.659   2.730   0.944 -0.2732 -0.1162  0.6836
 6460SOL    HW130839   0.669   2.824   0.961 -1.1691  0.4551 -1.8783
 6460SOL    HW230840   0.737   2.723   0.889 -1.5261  3.3483 -1.5558
 6461SOL     OW30841   4.282   3.918   6.654  0.1162 -0.5092  0.1579
 6461SOL    HW130842   4.229   3.934   6.732  0.2605  2.5184 -0.3504
 6461SOL    HW230843   4.270   4.007   6.619  0.7165 -1.2280 -1.9147
 6462SOL     OW30844   3.195   0.469   5.163 -0.7712  0.2197 -0.3030
 6462SOL    HW130845   3.151   0.554   5.166 -1.1268 -0.0080  1.3221
 6462SOL    HW230846   3.230   0.472   5.074  1.2281  1.4497  0.5125
 6463SOL     OW30847   4.144   2.411   4.964  0.1834  0.4521 -0.0995
 6463SOL    HW130848   4.088   2.334   4.966 -1.8250  1.9548  1.1887
 6463SOL    HW230849   4.136   2.425   5.059 -0.8439  1.0748 -0.2828
 6464SOL     OW30850   2.525   2.931   8.675  0.0830  0.2391  0.4590
 6464SOL    HW130851   2.461   2.874   8.630  1.9172 -0.5033 -1.2225
 6464SOL    HW230852   2.501   2.931   8.767 -1.0271  0.4513  0.1771
 6465SOL     OW30853   1.093   3.914   6.968  0.0599  0.5884  0.2257
 6465SOL    HW130854   1.049   3.839   7.008  2.6864 -1.2824 -0.3642
 6465SOL    HW230855   1.022   3.968   6.935 -0.0585  0.5442  0.4061
 6466SOL     OW30856   1.040   0.750   4.158  0.4091  0.4050  0.4480
 6466SOL    HW130857   1.092   0.691   4.102 -0.0187  1.0266 -0.5987
 6466SOL    HW230858   1.077   0.726   4.242 -2.4257 -0.5293  1.4336
 6467SOL     OW30859   2.607   1.358   2.762  0.5114 -0.1201  0.6450
 6467SOL    HW130860   2.606   1.266   2.787  2.7234  0.1691  1.7579
 6467SOL    HW230861   2.552   1.355   2.684  0.8388  2.0886  0.3194
 6468SOL     OW30862   3.294   1.966   4.490  0.0987 -0.5775  0.4442
 6468SOL    HW130863   3.327   1.877   4.498  1.2662 -0.1701  0.1799
 6468SOL    HW230864   3.365   2.004   4.438 -0.2467  0.3516  0.6500
 6469SOL     OW30865   2.338   2.571   9.578 -0.4521  0.3848  0.2019
 6469SOL    HW130866   2.327   2.601   9.488  2.8520  1.7895  0.2657
 6469SOL    HW230867   2.431   2.587   9.595 -0.7191  2.5350 -0.4127
 6470SOL     OW30868   3.282   0.788   6.622  0.3728 -0.1070  0.5178
 6470SOL    HW130869   3.223   0.819   6.554 -0.1788  0.7098  1.3574
 6470SOL    HW230870   3.237   0.827   6.697  0.0683 -1.1272  0.8743
 6471SOL     OW30871   1.209   0.206   8.500  0.4303  0.1005 -0.3971
 6471SOL    HW130872   1.157   0.238   8.426  0.7629  3.6057  0.9186
 6471SOL    HW230873   1.294   0.240   8.473  0.4137  0.6403  0.2449
 6472SOL     OW30874   4.084   3.979   5.010  0.5650 -0.2200 -0.4107
 6472SOL    HW130875   4.032   3.943   4.938 -1.1997  0.0769  0.7174
 6472SOL    HW230876   4.036   3.940   5.083  1.2601  0.3912  0.3678
 6473SOL     OW30877   3.939   4.319   8.306 -0.2914  0.4150  0.1647
 6473SOL    HW130878   3.898   4.278   8.230 -1.6451  1.8628  0.1143
 6473SOL    HW230879   3.868   4.327   8.370 -1.0423  3.5439 -1.0820
 6474SOL     OW30880   1.474   2.094   1.851  0.0258  0.5222 -0.1996
 6474SOL    HW130881   1.462   2.138   1.767 -3.9196 -1.1192 -0.4825
 6474SOL    HW230882   1.383   2.087   1.879  0.1844 -0.0989  0.1554
 6475SOL     OW30883   0.121   2.977   2.152 -0.8798  0.1791  0.6812
 6475SOL    HW130884   0.078   3.022   2.224  0.6159  1.9609  0.4564
 6475SOL    HW230885   0.044   2.941   2.109 -0.0653 -1.4696  0.5670
 6476SOL     OW30886   3.309   1.922   0.183  0.8229  0.3023 -0.0750
 6476SOL    HW130887   3.375   1.981   0.148  0.4006  0.4512 -0.6026
 6476SOL    HW230888   3.248   1.984   0.223  0.2566  0.1910 -0.7815
 6477SOL     OW30889   4.557   3.981   2.953  0.1793  0.5117 -0.6094
 6477SOL    HW130890   4.462   3.973   2.953  0.2809 -0.5928  2.1939
 6477SOL    HW230891   4.563   4.002   3.046  0.3209 -0.9735 -0.2798
 6478SOL     OW30892   3.599   3.016   6.640 -0.0421  0.2960  0.3896
 6478SOL    HW130893   3.663   3.043   6.705  0.6535  0.1783 -0.2430
 6478SOL    HW230894   3.513   3.006   6.679  0.8755 -1.8755  1.8507
 6479SOL     OW30895   2.483   1.612   5.222  0.7728 -0.6090  0.0715
 6479SOL    HW130896   2.543   1.581   5.154  2.9605  0.2253  1.6035
 6479SOL    HW230897   2.428   1.662   5.162  0.1609  1.0847  2.0442
 6480SOL     OW30898   2.836   0.784   2.358  0.1471 -0.3387 -0.1543
 6480SOL    HW130899   2.860   0.739   2.277 -0.9260 -0.8706 -0.1809
 6480SOL    HW230900   2.920   0.809   2.395 -0.8427 -1.5327  2.8903
 6481SOL     OW30901   3.050   1.760  15.779 -0.9605  1.3328  0.2456
 6481SOL    HW130902   3.071   1.675  15.742 -2.0267  1.5247 -0.7931
 6481SOL    HW230903   2.957   1.775  15.765 -1.4974 -0.3928  2.0854
 6482SOL     OW30904   4.060   2.334  13.599 -0.3240  0.1730  0.5099
 6482SOL    HW130905   4.086   2.367  13.686  2.7474  1.3253 -0.8086
 6482SOL    HW230906   4.009   2.412  13.576 -2.9753 -1.5306  0.7329
 6483SOL     OW30907   3.334   4.242  10.191 -0.3354 -0.1783 -0.2580
 6483SOL    HW130908   3.358   4.157  10.226 -0.7715  0.2267  1.0036
 6483SOL    HW230909   3.241   4.230  10.173  0.2159 -1.6420 -2.0801
 6484SOL     OW30910   0.432   4.176  12.598  0.2753 -0.0668 -0.2812
 6484SOL    HW130911   0.487   4.196  12.674 -1.8235  2.1286  0.6219
 6484SOL    HW230912   0.395   4.097  12.637 -1.2603  1.4003  1.1933
 6485SOL     OW30913   4.652   3.010  10.751  0.3504  0.4408 -0.4924
 6485SOL    HW130914   4.641   2.934  10.809 -2.0962  1.1618 -0.0050
 6485SOL    HW230915   4.564   3.003  10.714  0.3397 -0.3614 -0.3146
 6486SOL     OW30916   0.460   0.144  13.665  0.2487 -0.4175 -0.0833
 6486SOL    HW130917   0.531   0.170  13.606 -0.3412  1.0692 -0.1405
 6486SOL    HW230918   0.511   0.095  13.730  1.7139  0.8297 -0.3036
 6487SOL     OW30919   0.861   1.235  14.768 -0.4016  0.1507  0.3994
 6487SOL    HW130920   0.949   1.197  14.766  0.4378  2.1226  0.0712
 6487SOL    HW230921   0.852   1.262  14.859 -0.3553 -1.3931  0.8734
 6488SOL     OW30922   1.346   4.555   6.864  0.2355  0.0086  0.3723
 6488SOL    HW130923   1.363   4.483   6.804 -2.6029 -1.1514  0.9494
 6488SOL    HW230924   1.428   4.599   6.886 -0.5806  2.0776 -0.6676
 6489SOL     OW30925   3.092   3.992   4.818  0.1200  0.7556  0.1494
 6489SOL    HW130926   3.077   3.975   4.725 -0.3759 -0.7838  0.5022
 6489SOL    HW230927   3.177   3.948   4.830 -0.9582 -1.8806 -1.8116
 6490SOL     OW30928   0.484   0.668  16.245  0.0482  0.7635  0.1568
 6490SOL    HW130929   0.476   0.665  16.150  1.1769 -2.8435  0.1748
 6490SOL    HW230930   0.501   0.578  16.273 -1.4546  0.4375  0.0486
 6491SOL     OW30931   0.816   2.832  14.012 -0.3400  0.8947 -0.8572
 6491SOL    HW130932   0.865   2.826  13.929 -0.4702  0.7405 -0.9240
 6491SOL    HW230933   0.740   2.886  13.990  0.5548  0.6455 -4.5648
 6492SOL     OW30934   3.647   0.672  16.395 -0.1603  0.4151 -0.1747
 6492SOL    HW130935   3.616   0.760  16.372  0.1262  0.7904  0.8781
 6492SOL    HW230936   3.584   0.639  16.459  2.3483  1.4254  2.7805
 6493SOL     OW30937   4.466   1.841   1.553 -0.0578 -0.0315 -0.4626
 6493SOL    HW130938   4.400   1.813   1.489 -1.1418 -1.2716  1.1757
 6493SOL    HW230939   4.421   1.903   1.611  1.2196  1.0372 -0.6152
 6494SOL     OW30940   1.665   4.402   2.497  0.5846 -0.4535 -0.0280
 6494SOL    HW130941   1.738   4.359   2.541 -0.6142 -0.9224  1.5472
 6494SOL    HW230942   1.591   4.361   2.542  1.8634 -3.1791 -0.4438
 6495SOL     OW30943   3.469   1.116   4.793  0.4268  0.2573  0.1680
 6495SOL    HW130944   3.538   1.150   4.737  1.8306 -0.9610  1.1444
 6495SOL    HW230945   3.443   1.186   4.853  0.1716  1.0407 -0.8709
 6496SOL     OW30946   1.412   1.852   7.115  0.0627 -0.1607 -0.2947
 6496SOL    HW130947   1.502   1.883   7.121  0.2769 -1.4284  3.0185
 6496SOL    HW230948   1.356   1.925   7.142 -0.5591  0.2593 -2.7406
 6497SOL     OW30949   4.430   1.811  10.538  0.4790 -0.0670 -0.3898
 6497SOL    HW130950   4.445   1.840  10.628  0.1496 -1.5871  0.1552
 6497SOL    HW230951   4.391   1.726  10.557 -1.0439  0.9382  1.0582
 6498SOL     OW30952   4.406   1.527   0.503  0.0860 -0.1032 -0.4698
 6498SOL    HW130953   4.323   1.520   0.550  1.0845  1.1968  1.4768
 6498SOL    HW230954   4.451   1.454   0.547 -0.4092  0.8984  1.7287
 6499SOL     OW30955   2.406   0.897   0.467  0.1224  0.0118 -0.2015
 6499SOL    HW130956   2.335   0.884   0.529  0.7605 -0.7152  0.3711
 6499SOL    HW230957   2.401   0.817   0.415  3.1773 -1.2347  1.4145
 6500SOL     OW30958   1.085   1.726  14.344  0.4821 -0.5892  0.0170
 6500SOL    HW130959   1.057   1.765  14.261 -0.4743 -2.0017 -0.3328
 6500SOL    HW230960   1.169   1.687  14.318  0.3984 -0.0782 -1.0317
 6501SOL     OW30961   3.572   1.724   5.760  0.4046 -0.4297 -0.0227
 6501SOL    HW130962   3.537   1.811   5.741 -0.3817 -0.6488  0.4066
 6501SOL    HW230963   3.626   1.739   5.837 -0.7891 -0.1496  0.7678
 6502SOL     OW30964   4.539   3.148   5.845  0.3284  0.4187 -0.2227
 6502SOL    HW130965   4.615   3.089   5.840  0.4957  0.6368 -0.2216
 6502SOL    HW230966   4.557   3.194   5.763 -2.5815 -0.2651 -1.2325
 6503SOL     OW30967   0.218   0.898   8.264  0.1675 -0.8428 -0.5966
 6503SOL    HW130968   0.141   0.947   8.233  1.1900  0.9884 -0.2141
 6503SOL    HW230969   0.163   0.820   8.277 -0.0736 -0.4892  0.4622
 6504SOL     OW30970   2.842   1.260   7.383 -0.4110 -0.4092 -0.2452
 6504SOL    HW130971   2.767   1.271   7.442  0.8511  0.4008  1.1945
 6504SOL    HW230972   2.891   1.342   7.394 -0.3787 -0.2194 -1.8625
 6505SOL     OW30973   3.976   1.926   7.952 -0.0115 -0.2197  0.1854
 6505SOL    HW130974   4.033   1.993   7.915 -2.4682  0.9484 -1.4606
 6505SOL    HW230975   4.029   1.899   8.027  0.7899 -0.6389 -0.5390
 6506SOL     OW30976   1.516   0.649   3.485 -0.2815 -0.0409 -0.3638
 6506SOL    HW130977   1.562   0.632   3.567 -1.7680 -2.0182  0.0625
 6506SOL    HW230978   1.431   0.611   3.507  1.0127 -2.8977 -0.2953
 6507SOL     OW30979   0.865   1.073  14.536 -0.4501  0.0267 -0.1668
 6507SOL    HW130980   0.901   1.142  14.592  0.2884 -0.2379 -0.3186
 6507SOL    HW230981   0.882   0.996  14.591  0.3236 -0.5076 -1.1561
 6508SOL     OW30982   1.481   2.709  13.303  0.2094 -0.6487  0.2544
 6508SOL    HW130983   1.397   2.694  13.348 -0.2593 -3.9906 -1.6621
 6508SOL    HW230984   1.477   2.804  13.299 -2.9952 -0.8552 -1.6630
 6509SOL     OW30985   2.433   3.722   8.294 -0.4356  0.3235  0.5128
 6509SOL    HW130986   2.430   3.690   8.204 -3.7447  3.1157 -0.3679
 6509SOL    HW230987   2.455   3.642   8.341  1.5769  0.3521 -0.3692
 6510SOL     OW30988   2.991   0.527   4.545  0.0714 -0.4590 -0.5221
 6510SOL    HW130989   3.016   0.619   4.555 -0.5851 -0.2743 -0.6365
 6510SOL    HW230990   2.974   0.507   4.637  0.2203  0.3232 -0.3214
 6511SOL     OW30991   1.765   2.847   1.984 -0.3192 -0.2679 -0.5402
 6511SOL    HW130992   1.767   2.939   1.958  1.4879 -0.1261  0.0434
 6511SOL    HW230993   1.726   2.803   1.909  2.0500 -0.5923 -1.6082
 6512SOL     OW30994   3.997   1.676   5.894  0.2106 -0.6262  0.1942
 6512SOL    HW130995   4.071   1.738   5.889 -1.5914  1.4802 -0.1843
 6512SOL    HW230996   3.933   1.739   5.926  0.3194 -0.7571  0.6589
 6513SOL     OW30997   0.663   1.137   7.716  0.2547 -0.1065 -0.5934
 6513SOL    HW130998   0.666   1.142   7.811 -1.1265  2.3082 -0.6671
 6513SOL    HW230999   0.617   1.054   7.702 -0.5560  0.1663  0.4808
 6514SOL     OW31000   3.530   2.665  17.657 -0.4959  0.3817  0.0406
 6514SOL    HW131001   3.611   2.666  17.607 -0.1766  0.4734  0.5641
 6514SOL    HW231002   3.466   2.612  17.608 -0.7626  2.1858 -1.5893
 6515SOL     OW31003   3.876   0.519   3.361  0.7058  0.0060  0.4244
 6515SOL    HW131004   3.804   0.518   3.298 -0.2910 -0.1847  1.5641
 6515SOL    HW231005   3.887   0.611   3.385  0.1263  0.3360 -0.5820
 6516SOL     OW31006   3.819   4.213   4.640  0.1584 -0.9025 -0.6226
 6516SOL    HW131007   3.889   4.197   4.703  1.2270 -2.1917 -2.1597
 6516SOL    HW231008   3.756   4.142   4.656 -0.4969  0.2929  2.0660
 6517SOL     OW31009   0.740   4.679  12.841  0.0004  0.4019  0.1742
 6517SOL    HW131010   0.738   0.051  12.854 -2.4004  0.2919  0.6784
 6517SOL    HW231011   0.691   4.647  12.917 -0.9986  0.0286 -0.6208
 6518SOL     OW31012   0.999   1.682   0.778 -0.6651  0.0792  0.0755
 6518SOL    HW131013   1.057   1.735   0.723 -1.7103 -2.2975 -3.3229
 6518SOL    HW231014   0.957   1.752   0.828 -3.2441 -1.9032  0.6521
 6519SOL     OW31015   1.002   3.294   3.507 -0.0699 -0.3401  0.2165
 6519SOL    HW131016   1.080   3.282   3.453  0.6849  0.8043  1.0586
 6519SOL    HW231017   0.933   3.264   3.448 -0.4321  1.0355 -0.0534
 6520SOL     OW31018   2.616   0.030  11.553  0.7653 -0.5118 -0.0845
 6520SOL    HW131019   2.634   0.116  11.514 -0.7103  0.2113  0.8311
 6520SOL    HW231020   2.566   4.718  11.479 -1.1263 -1.4494  1.6339
 6521SOL     OW31021   0.441   3.112   5.792 -0.3363  0.1921 -0.4061
 6521SOL    HW131022   0.412   3.150   5.875  0.2015  1.7916 -0.9403
 6521SOL    HW231023   0.384   3.036   5.784 -0.2087  0.1457 -0.8709
 6522SOL     OW31024   0.060   2.728   2.486  0.1540 -0.0411  0.2363
 6522SOL    HW131025   0.051   2.765   2.398 -3.0346 -1.5654 -0.0578
 6522SOL    HW231026   0.154   2.740   2.499  0.2463 -2.7039  2.1051
 6523SOL     OW31027   4.411   2.402   7.721 -0.4795 -0.3624  0.4077
 6523SOL    HW131028   4.380   2.488   7.750  3.5190  0.7078  1.4876
 6523SOL    HW231029   4.377   2.401   7.631 -0.0484  2.6325  0.2157
 6524SOL     OW31030   2.693   0.662  15.426 -0.3091 -0.0549 -0.4057
 6524SOL    HW131031   2.671   0.755  15.425 -2.3739 -0.5336 -0.0339
 6524SOL    HW231032   2.777   0.660  15.380  1.2060  0.0894  2.3836
 6525SOL     OW31033   3.439   0.331   5.496 -0.2791 -0.3525  0.1412
 6525SOL    HW131034   3.525   0.296   5.473 -0.1232  0.3612 -0.3858
 6525SOL    HW231035   3.397   0.246   5.504 -0.7161 -0.2654 -1.2015
 6526SOL     OW31036   0.886   2.919   0.552 -0.8731  0.3062  0.4437
 6526SOL    HW131037   0.918   2.840   0.509  1.4831  0.4915  1.8075
 6526SOL    HW231038   0.967   2.969   0.565 -0.4437 -0.7375  1.8239
 6527SOL     OW31039   0.175   4.069   3.596 -0.1657  0.6819 -0.1884
 6527SOL    HW131040   0.152   4.126   3.522 -0.2449  2.1857  0.9870
 6527SOL    HW231041   0.270   4.070   3.601 -0.2880  3.2866  1.7811
 6528SOL     OW31042   0.626   3.913  12.437 -0.6282  0.8777 -0.0818
 6528SOL    HW131043   0.580   3.915  12.521 -1.4298 -1.7046 -0.4841
 6528SOL    HW231044   0.569   3.964  12.381 -0.4253 -0.6437 -1.6658
 6529SOL     OW31045   4.273   2.576  14.492  0.0829  0.5008 -0.0787
 6529SOL    HW131046   4.240   2.530  14.570 -2.0197  0.6028 -0.8901
 6529SOL    HW231047   4.326   2.505  14.457 -0.7564 -0.9220  1.5342
 6530SOL     OW31048   4.616   1.791   5.052 -0.1775  0.0192 -0.7250
 6530SOL    HW131049   4.682   1.739   5.006 -1.5417 -1.1463 -1.4042
 6530SOL    HW231050   4.590   1.723   5.115  0.5648  0.6145  0.2101
 6531SOL     OW31051   2.793   1.258   8.337  0.9556 -0.2889  0.1522
 6531SOL    HW131052   2.884   1.283   8.320  0.4782  2.4525  1.7280
 6531SOL    HW231053   2.793   1.171   8.296  0.2097  0.0760 -0.6111
 6532SOL     OW31054   2.910   2.062  11.572  0.5249  0.3578 -0.2607
 6532SOL    HW131055   2.821   2.054  11.606  0.1958 -1.7946 -1.6519
 6532SOL    HW231056   2.895   2.130  11.507 -0.3147 -0.0661 -0.4967
 6533SOL     OW31057   2.056   0.036   3.279  0.4518  0.2773  0.6908
 6533SOL    HW131058   1.972   0.003   3.313  1.6994 -1.1077  2.4371
 6533SOL    HW231059   2.069   4.700   3.204  0.8356  1.0330  0.1760
 6534SOL     OW31060   0.368   4.407   8.426  0.0064  0.6683 -0.4033
 6534SOL    HW131061   0.275   4.428   8.425  0.0114  0.6976  0.5785
 6534SOL    HW231062   0.382   4.464   8.501 -2.5047  0.5123  0.1831
 6535SOL     OW31063   3.238   0.315   6.751  0.0278  0.2408  0.0486
 6535SOL    HW131064   3.252   0.305   6.657 -0.8741 -1.2789  0.0812
 6535SOL    HW231065   3.262   0.407   6.765 -1.7672  1.2005 -3.2247
 6536SOL     OW31066   1.437   2.703  14.026  0.2445  0.0242 -0.3617
 6536SOL    HW131067   1.349   2.668  14.013  1.1739 -3.1909  2.0014
 6536SOL    HW231068   1.482   2.637  13.972 -0.7417 -0.7787 -0.2061
 6537SOL     OW31069   2.020   2.567   2.666  0.1841 -0.0126 -0.3382
 6537SOL    HW131070   2.040   2.635   2.601  1.1113  0.6287  0.6201
 6537SOL    HW231071   2.032   2.614   2.748  0.5136  1.1369 -1.0418
 6538SOL     OW31072   2.934   0.383  10.842  0.4318 -0.4382  0.0827
 6538SOL    HW131073   2.906   0.295  10.819  1.2941 -1.0177  1.2589
 6538SOL    HW231074   3.024   0.368  10.872  0.6495  1.7418  0.5223
 6539SOL     OW31075   1.162   0.711   4.424 -0.3833  0.0503  0.0552
 6539SOL    HW131076   1.210   0.774   4.477 -0.7798  0.5210 -0.1391
 6539SOL    HW231077   1.225   0.640   4.411 -0.1146  0.5463 -1.3773
 6540SOL     OW31078   2.032   1.149   5.983  0.2519 -0.2537 -0.4441
 6540SOL    HW131079   1.996   1.233   6.013  0.4804 -1.0240  2.0152
 6540SOL    HW231080   2.039   1.161   5.888  0.1219  0.2682 -0.3918
 6541SOL     OW31081   4.500   3.880  17.123 -0.4760 -0.4990 -0.0275
 6541SOL    HW131082   4.420   3.831  17.106 -2.2290  1.7687  1.6756
 6541SOL    HW231083   4.502   3.916  17.034  2.2881  0.0514  0.2375
 6542SOL     OW31084   3.494   1.195   2.276 -0.4477  0.4325  0.3157
 6542SOL    HW131085   3.545   1.256   2.223  0.5236  0.5238  1.3594
 6542SOL    HW231086   3.530   1.196   2.365 -0.5961 -3.8642  0.4308
 6543SOL     OW31087   1.740   0.061   1.757  0.0388  0.2546  0.1796
 6543SOL    HW131088   1.672   0.041   1.692  0.5740 -0.1501 -0.2616
 6543SOL    HW231089   1.822   0.028   1.720 -0.6203  0.0096 -1.0612
 6544SOL     OW31090   0.415   3.378   1.837  0.1887  0.4998 -0.2138
 6544SOL    HW131091   0.329   3.384   1.795  0.6437 -0.5594 -1.3169
 6544SOL    HW231092   0.440   3.465   1.866 -0.4836  0.6282 -0.0223
 6545SOL     OW31093   4.064   0.931   2.663 -0.2256  0.5635 -0.6612
 6545SOL    HW131094   4.082   1.016   2.702 -1.4922  0.3846  0.3327
 6545SOL    HW231095   4.010   0.891   2.732  2.6318 -0.1882  1.1178
 6546SOL     OW31096   0.302   4.477   3.776  0.8041 -0.6033  0.0194
 6546SOL    HW131097   0.365   4.525   3.830 -0.3730  1.6954 -0.6540
 6546SOL    HW231098   0.238   4.450   3.842 -1.9829  0.2281 -2.3368
 6547SOL     OW31099   2.018   2.031  10.767  0.4236 -0.9759 -0.1427
 6547SOL    HW131100   1.956   2.103  10.759  0.8334 -0.6488 -0.4045
 6547SOL    HW231101   2.098   2.071  10.732  1.4540 -2.1127  0.9246
 6548SOL     OW31102   3.120   1.948  11.122 -0.7593 -0.4977  0.8997
 6548SOL    HW131103   3.033   1.920  11.150 -0.5083 -1.0921  1.0898
 6548SOL    HW231104   3.104   2.010  11.051  3.4832 -0.5627 -0.1070
 6549SOL     OW31105   1.879   4.256   2.541  0.1544  0.2584  0.0277
 6549SOL    HW131106   1.927   4.277   2.621  0.7854  2.1816 -0.8688
 6549SOL    HW231107   1.928   4.185   2.499  0.2564 -0.3079  1.0854
 6550SOL     OW31108   3.586   1.137  11.582  0.1879  0.0826 -0.0884
 6550SOL    HW131109   3.536   1.081  11.524 -0.4023  1.3824 -0.8490
 6550SOL    HW231110   3.600   1.074  11.652 -1.0887 -1.4968 -1.2879
 6551SOL     OW31111   2.666   0.956   8.121 -0.4553  0.1367 -0.1206
 6551SOL    HW131112   2.614   1.023   8.076  0.6108  1.4000  0.5190
 6551SOL    HW231113   2.634   0.968   8.211  0.1796  1.2793 -0.0524
 6552SOL     OW31114   2.241   4.061   6.980 -0.7281 -0.5608 -0.4425
 6552SOL    HW131115   2.266   4.011   7.058 -0.4441  1.1551  0.5601
 6552SOL    HW231116   2.308   4.028   6.920 -0.5331  0.7511 -0.9475
 6553SOL     OW31117   0.442   1.702   9.926 -0.5799  0.0513 -0.0853
 6553SOL    HW131118   0.409   1.644   9.995 -2.0674  1.5117  0.4156
 6553SOL    HW231119   0.399   1.781   9.958 -2.9517 -1.5211  0.6347
 6554SOL     OW31120   3.878   2.443   1.428 -0.4030 -0.1913 -0.2479
 6554SOL    HW131121   3.874   2.355   1.465  0.3921  0.4491  1.3663
 6554SOL    HW231122   3.819   2.443   1.353 -0.5053 -1.8840 -0.1640
 6555SOL     OW31123   0.300   2.467  12.960  0.0876 -0.2797  0.1131
 6555SOL    HW131124   0.249   2.471  12.879 -0.0006  1.9377  0.2980
 6555SOL    HW231125   0.390   2.468  12.928  1.0536  2.3403  2.9025
 6556SOL     OW31126   3.288   4.330   7.787  0.3073 -0.0483  0.4106
 6556SOL    HW131127   3.284   4.235   7.781 -1.4949  0.1088 -0.8165
 6556SOL    HW231128   3.226   4.367   7.724  0.1405  1.5059  1.4840
 6557SOL     OW31129   4.179   1.969   8.914 -0.4704  0.2514  0.0947
 6557SOL    HW131130   4.177   1.953   9.009 -2.3662 -0.4017 -0.0637
 6557SOL    HW231131   4.161   2.062   8.903 -2.9074 -0.3052 -0.5552
 6558SOL     OW31132   1.242   3.047  12.412 -0.5918 -0.3557 -0.2737
 6558SOL    HW131133   1.265   3.093  12.332  0.5822  0.9959  0.8317
 6558SOL    HW231134   1.200   3.113  12.466 -1.4208 -0.8358 -0.3283
 6559SOL     OW31135   0.544   2.980   9.061 -0.0467  0.2254 -0.5580
 6559SOL    HW131136   0.547   3.058   9.117  2.8385 -0.0642 -0.3325
 6559SOL    HW231137   0.456   2.948   9.080  0.3717  0.0064  1.0114
 6560SOL     OW31138   1.040   0.007  12.020  0.2376  0.4743  0.1065
 6560SOL    HW131139   1.085   0.065  11.959 -0.0904  1.9068  1.2140
 6560SOL    HW231140   0.962   4.705  11.971 -0.4203  1.4659  0.6366
 6561SOL     OW31141   2.916   4.639   3.807  0.2142  0.1684 -0.3387
 6561SOL    HW131142   2.860   4.692   3.751 -1.8099 -0.4709  1.0656
 6561SOL    HW231143   2.865   4.641   3.888  0.1457 -0.7137 -0.3636
 6562SOL     OW31144   2.793   1.491   7.170 -0.2580  0.2567 -0.4856
 6562SOL    HW131145   2.817   1.555   7.103  1.6648 -2.0401 -1.9758
 6562SOL    HW231146   2.871   1.492   7.225 -0.7321  1.4490  0.1748
 6563SOL     OW31147   2.739   1.055   7.634 -0.2472  0.0111 -0.4929
 6563SOL    HW131148   2.702   1.074   7.720 -1.3674  0.0721 -0.9892
 6563SOL    HW231149   2.833   1.065   7.650 -0.6235 -0.0888  1.7559
 6564SOL     OW31150   3.535   1.026   1.834 -0.4559 -0.0213 -0.4177
 6564SOL    HW131151   3.610   1.008   1.776  0.1505 -1.1001  0.6918
 6564SOL    HW231152   3.527   1.120   1.821 -0.0500  0.5340  3.2535
 6565SOL     OW31153   3.518   1.155   4.228  0.6341 -0.2655  0.4891
 6565SOL    HW131154   3.595   1.174   4.283  1.0454 -0.1178 -0.1402
 6565SOL    HW231155   3.547   1.197   4.147  0.2202 -1.3454 -0.2120
 6566SOL     OW31156   2.033   0.581   4.108 -0.4652  0.1107  0.9004
 6566SOL    HW131157   2.014   0.543   4.194 -0.2815  1.4368  1.5310
 6566SOL    HW231158   2.038   0.502   4.054  0.3355 -0.2200  1.4642
 6567SOL     OW31159   4.582   1.572   3.451  0.4737  0.2443  0.5227
 6567SOL    HW131160   4.540   1.505   3.396 -3.4765  2.5046  0.7273
 6567SOL    HW231161   4.544   1.652   3.414  0.4337  0.5553  1.2518
 6568SOL     OW31162   0.489   0.717   0.696  0.3617  0.0995  0.1925
 6568SOL    HW131163   0.533   0.799   0.717 -2.3577  1.5009  0.4196
 6568SOL    HW231164   0.400   0.752   0.694  0.2988 -0.1448 -1.0757
 6569SOL     OW31165   2.193   4.294   0.300 -0.0040 -0.8478 -0.1350
 6569SOL    HW131166   2.127   4.306   0.368  0.5083  2.9644 -0.3171
 6569SOL    HW231167   2.233   4.381   0.307  2.4427 -1.9372 -0.9289
 6570SOL     OW31168   1.693   1.284   6.999  0.1493 -0.2804  0.5351
 6570SOL    HW131169   1.786   1.292   6.975  0.6029 -2.2028  1.7033
 6570SOL    HW231170   1.690   1.189   6.996  0.7898 -0.2565 -1.3497
 6571SOL     OW31171   4.393   1.191   8.219  0.3760 -0.5172 -0.3802
 6571SOL    HW131172   4.319   1.226   8.169  0.8559  0.9268 -0.0986
 6571SOL    HW231173   4.443   1.267   8.250 -1.7381  0.9892 -0.6370
 6572SOL     OW31174   0.956   2.751   3.555  0.4494  0.3066 -0.3669
 6572SOL    HW131175   1.022   2.817   3.580  1.0432  0.4414 -2.3032
 6572SOL    HW231176   0.920   2.718   3.637  0.8405  0.9772  0.0787
 6573SOL     OW31177   1.645   0.955   2.005  0.5454 -0.1141  0.5193
 6573SOL    HW131178   1.666   0.872   1.962 -2.2473 -1.8263  2.4544
 6573SOL    HW231179   1.719   0.961   2.066  0.0871 -2.3415  1.2865
 6574SOL     OW31180   4.120   3.872  11.986 -0.0036  0.4918  0.3260
 6574SOL    HW131181   4.169   3.863  12.068 -0.3839  1.1345  0.6208
 6574SOL    HW231182   4.058   3.798  11.985  3.4324 -2.3605 -1.0553
 6575SOL     OW31183   2.790   3.043  14.506  0.2378 -0.2091  0.0828
 6575SOL    HW131184   2.715   2.983  14.510 -0.1964  0.3445  0.2383
 6575SOL    HW231185   2.831   3.020  14.590 -2.9010  1.3971  2.0993
 6576SOL     OW31186   1.275   3.262  16.413 -0.3222 -0.2194 -0.2156
 6576SOL    HW131187   1.296   3.262  16.320 -0.6188  0.5372 -0.2814
 6576SOL    HW231188   1.277   3.357  16.426  0.1170 -0.3701  0.7945
 6577SOL     OW31189   2.339   2.107   7.988  0.6882  0.2253  0.1293
 6577SOL    HW131190   2.268   2.168   8.010  0.2114 -0.2328 -0.1350
 6577SOL    HW231191   2.378   2.136   7.905  0.8177 -0.6528 -0.1158
 6578SOL     OW31192   4.076   4.288   6.635  0.4972  0.1331 -0.3632
 6578SOL    HW131193   4.138   4.251   6.572  1.4542  2.4931 -0.7823
 6578SOL    HW231194   4.115   4.270   6.720 -0.1554  2.5930  0.4412
 6579SOL     OW31195   3.970   0.027   7.443 -0.2334 -0.2006  0.5703
 6579SOL    HW131196   4.049   0.038   7.496 -1.0547 -0.0078  1.7568
 6579SOL    HW231197   3.912   0.019   7.518 -1.0745  0.5550  0.0009
 6580SOL     OW31198   0.464   0.459   0.615 -0.2086 -0.0009 -0.3400
 6580SOL    HW131199   0.487   0.550   0.634 -3.1927  1.0696 -1.8838
 6580SOL    HW231200   0.545   0.408   0.605  0.6708  1.4793 -0.7748
 6581SOL     OW31201   0.601   1.607  12.818 -0.1383 -0.0679  0.5470
 6581SOL    HW131202   0.629   1.682  12.766 -1.0703  0.5066  0.8816
 6581SOL    HW231203   0.516   1.634  12.851 -0.0934 -0.5316  1.0428
 6582SOL     OW31204   1.111   2.798   8.698 -0.2554  0.6352  0.4262
 6582SOL    HW131205   1.019   2.803   8.671 -0.4804  0.1631  1.1043
 6582SOL    HW231206   1.109   2.751   8.781  0.6206  2.6969  1.6055
 6583SOL     OW31207   2.524   3.115  10.466 -0.1734 -0.0263 -0.0886
 6583SOL    HW131208   2.597   3.131  10.526 -2.2289  2.1583  1.8534
 6583SOL    HW231209   2.530   3.020  10.471  1.1452  0.1216  1.1579
 6584SOL     OW31210   2.418   1.689   6.630 -0.2344 -0.0763  0.3145
 6584SOL    HW131211   2.350   1.645   6.681  0.9377 -0.9955  1.0940
 6584SOL    HW231212   2.401   1.776   6.665 -1.6581 -0.4195  0.4742
 6585SOL     OW31213   0.856   1.754   0.181  0.3364  0.0376  0.2995
 6585SOL    HW131214   0.918   1.730   0.113 -1.5129 -2.4742 -0.5158
 6585SOL    HW231215   0.858   1.679   0.241  1.0983 -1.0248 -1.0636
 6586SOL     OW31216   0.815   3.278   0.196 -1.1459 -0.4484  0.3455
 6586SOL    HW131217   0.801   3.194   0.239  0.4058 -1.3406 -0.8583
 6586SOL    HW231218   0.726   3.305   0.174 -1.1381 -0.2698  0.5237
 6587SOL     OW31219   0.424   3.127   8.197  0.1433  0.1231 -0.7149
 6587SOL    HW131220   0.420   3.078   8.116  1.1803  1.6955 -1.7222
 6587SOL    HW231221   0.486   3.072   8.246  2.3220  2.1039 -1.2387
 6588SOL     OW31222   3.967   3.631   5.466  1.3434 -0.4234 -0.3810
 6588SOL    HW131223   3.971   3.719   5.502  0.9545 -0.2676 -0.7251
 6588SOL    HW231224   4.030   3.594   5.528  1.6628  3.4455  1.5754
 6589SOL     OW31225   4.697   0.298   6.691 -0.2212  0.0659  0.4024
 6589SOL    HW131226   4.630   0.232   6.675 -0.6430  0.4211  0.6729
 6589SOL    HW231227   0.036   0.281   6.620 -1.0394  1.0915 -0.5480
 6590SOL     OW31228   0.263   3.563   0.613  0.6351  0.1608 -0.3241
 6590SOL    HW131229   0.251   3.490   0.552 -0.0026  0.0738 -0.0956
 6590SOL    HW231230   0.216   3.525   0.687  1.6256  0.2226  0.3391
 6591SOL     OW31231   0.245   0.051   1.607 -0.0308 -0.4409 -0.0718
 6591SOL    HW131232   0.228   0.019   1.696  0.7938 -3.1514 -0.8717
 6591SOL    HW231233   0.213   4.701   1.554 -0.3305 -1.0158  0.9069
 6592SOL     OW31234   4.401   2.671   2.587  0.3376  0.0064  1.1630
 6592SOL    HW131235   4.347   2.744   2.616  0.3456  0.7346 -0.6150
 6592SOL    HW231236   4.477   2.725   2.567 -0.2377 -0.5116 -2.6025
 6593SOL     OW31237   2.481   1.335   6.823  0.1431 -0.0783 -0.0791
 6593SOL    HW131238   2.466   1.240   6.817  2.2828 -0.4549  0.4261
 6593SOL    HW231239   2.534   1.331   6.903  0.7668  2.0613 -0.3963
 6594SOL     OW31240   4.642   0.030   1.495  0.0826  0.1234  0.1867
 6594SOL    HW131241   4.570   4.699   1.462  1.8494 -0.7934 -2.2153
 6594SOL    HW231242   4.708   4.692   1.529  1.7329  2.3220  0.9465
 6595SOL     OW31243   3.304   4.338  16.232 -0.5448  0.0570  0.4863
 6595SOL    HW131244   3.359   4.409  16.265 -1.7475 -0.1578  2.9423
 6595SOL    HW231245   3.333   4.331  16.141 -2.1183 -0.0934 -0.0004
 6596SOL     OW31246   4.023   0.476   1.850 -0.2458  0.0925 -0.0576
 6596SOL    HW131247   3.978   0.557   1.829 -1.9884 -0.5085  1.3593
 6596SOL    HW231248   3.958   0.409   1.829 -0.6659  0.5431 -0.1722
 6597SOL     OW31249   3.987   0.509   5.393  0.6328  0.5185  1.0293
 6597SOL    HW131250   3.900   0.524   5.430  0.5713  0.7481  0.7973
 6597SOL    HW231251   4.003   0.416   5.411  2.9161  0.5513 -0.8134
 6598SOL     OW31252   2.931   1.368   6.886  0.4253 -0.4209  0.0539
 6598SOL    HW131253   3.019   1.354   6.852  1.0098 -0.7176  1.7012
 6598SOL    HW231254   2.881   1.367   6.804  0.7365 -0.2756 -0.1352
 6599SOL     OW31255   0.269   1.886   3.708  0.1034 -0.4096  0.0958
 6599SOL    HW131256   0.248   1.843   3.624  2.4238  1.7175 -1.5521
 6599SOL    HW231257   0.316   1.818   3.756  0.8069  0.2861  0.3721
 6600SOL     OW31258   3.848   3.939   5.126  0.1016 -0.8501  0.0985
 6600SOL    HW131259   3.839   4.005   5.194 -2.0675 -0.5174 -0.5110
 6600SOL    HW231260   3.790   3.975   5.060 -0.7309 -0.8040  0.8563
 6601SOL     OW31261   4.690   3.397   6.604  0.3330 -0.2042 -0.3962
 6601SOL    HW131262   4.624   3.466   6.611  2.0161  1.2690  0.8034
 6601SOL    HW231263   4.647   3.316   6.634  1.0678 -1.1346 -1.8831
 6602SOL     OW31264   0.190   3.719  14.901  0.2075  0.1894 -0.2249
 6602SOL    HW131265   0.273   3.754  14.932  1.2481 -1.8415 -0.7027
 6602SOL    HW231266   0.132   3.792  14.921  0.1958 -0.0232  0.5032
 6603SOL     OW31267   1.268   2.062   7.232 -0.1285 -0.6981  0.0781
 6603SOL    HW131268   1.285   2.054   7.326  1.9966 -1.1701 -0.3524
 6603SOL    HW231269   1.319   2.142   7.218 -1.3804 -0.8707 -5.5077
 6604SOL     OW31270   0.912   2.664   0.462 -0.2801  0.1202  0.1990
 6604SOL    HW131271   0.817   2.660   0.452  0.0156 -0.0100 -2.5718
 6604SOL    HW231272   0.944   2.587   0.510 -1.7422  0.8015  2.2292
 6605SOL     OW31273   1.271   4.502  10.161  0.1328  0.7380  0.3174
 6605SOL    HW131274   1.323   4.448  10.102 -2.1084 -1.3376  0.2111
 6605SOL    HW231275   1.236   4.439  10.224  0.9097  0.2202  0.2308
 6606SOL     OW31276   2.237   1.623   7.706  0.4462 -0.3884 -0.2866
 6606SOL    HW131277   2.153   1.634   7.752  0.5904 -0.7937  0.0830
 6606SOL    HW231278   2.208   1.662   7.624 -1.9517 -0.3651  0.5447
 6607SOL     OW31279   4.401   3.385   0.767  0.5746  0.5577  0.5791
 6607SOL    HW131280   4.398   3.440   0.845  1.9553  2.8264 -0.9586
 6607SOL    HW231281   4.459   3.315   0.797 -0.0422  0.3224  1.2246
 6608SOL     OW31282   0.357   1.428   2.897 -0.2499  0.3006  0.4646
 6608SOL    HW131283   0.429   1.447   2.958  0.2773 -0.7139  0.1699
 6608SOL    HW231284   0.385   1.338   2.876 -1.6783 -0.7547  3.0535
 6609SOL     OW31285   4.519   2.793   4.241  0.3455  0.2431 -0.3684
 6609SOL    HW131286   4.588   2.728   4.232 -0.1769 -0.6594  2.1825
 6609SOL    HW231287   4.507   2.777   4.334 -0.4273 -2.9382 -1.0261
 6610SOL     OW31288   3.109   3.613   1.619 -0.4695 -0.2702 -0.1775
 6610SOL    HW131289   3.175   3.644   1.681 -2.3766  0.4149  1.4893
 6610SOL    HW231290   3.102   3.519   1.636  1.2621 -0.0830  1.5061
 6611SOL     OW31291   2.755   0.038   5.718  0.0226  0.1612  0.1409
 6611SOL    HW131292   2.687   0.065   5.656  0.6988 -0.1587 -0.7338
 6611SOL    HW231293   2.798   0.122   5.735 -1.8365  1.9483 -3.9965
 6612SOL     OW31294   3.153   1.384   3.640  0.1057 -0.5077 -0.2783
 6612SOL    HW131295   3.071   1.362   3.685  0.2449  1.4329  0.9007
 6612SOL    HW231296   3.160   1.298   3.598 -1.7284 -0.7215 -0.1638
 6613SOL     OW31297   4.653   3.851   7.566  0.9065  0.1049 -0.5589
 6613SOL    HW131298   4.635   3.934   7.610 -1.2463  0.1161 -1.4421
 6613SOL    HW231299   0.003   3.875   7.509  1.0956 -1.9963 -1.1840
 6614SOL     OW31300   0.001   0.204   5.053  0.2238  0.0295 -0.5595
 6614SOL    HW131301   4.717   0.289   5.097  1.1972 -0.4849  0.6070
 6614SOL    HW231302   4.719   0.240   4.965  3.8744 -2.4287 -1.7587
 6615SOL     OW31303   4.412   3.721   1.783 -0.3287  0.5342  0.5820
 6615SOL    HW131304   4.476   3.653   1.764 -0.8988 -0.5429  2.4725
 6615SOL    HW231305   4.458   3.802   1.762 -0.3267  1.0254  2.4422
 6616SOL     OW31306   0.436   0.065   7.089 -0.0269  0.2376 -0.3160
 6616SOL    HW131307   0.426   0.158   7.108 -3.0974 -0.1936  0.2101
 6616SOL    HW231308   0.392   0.024   7.163 -1.3124  2.3689  0.1182
 6617SOL     OW31309   2.209   3.324  14.083  0.2682  0.0089 -0.1426
 6617SOL    HW131310   2.293   3.297  14.120 -1.0405 -2.4502  0.9900
 6617SOL    HW231311   2.212   3.420  14.083  1.3790 -0.0287  0.9921
 6618SOL     OW31312   1.424   0.604   8.068 -0.0005 -0.4413 -0.1125
 6618SOL    HW131313   1.479   0.650   8.005 -3.0500  2.5300 -0.6022
 6618SOL    HW231314   1.382   0.670   8.124  1.0400  1.9260 -2.1175
 6619SOL     OW31315   0.008   3.845   3.613  0.7932 -0.5257 -0.8707
 6619SOL    HW131316   0.073   3.915   3.606  0.1670 -0.1692 -3.0405
 6619SOL    HW231317   4.665   3.892   3.663  1.3026 -0.9857  0.2398
 6620SOL     OW31318   2.140   2.306   4.717  0.0115  0.3925 -0.0267
 6620SOL    HW131319   2.085   2.384   4.717  0.6675  0.8636 -1.8897
 6620SOL    HW231320   2.075   2.236   4.721 -1.5605  1.8677  0.5088
 6621SOL     OW31321   2.150   0.160   7.414 -0.1661  0.1614  0.2532
 6621SOL    HW131322   2.138   0.174   7.320  2.7860  0.6494 -0.0426
 6621SOL    HW231323   2.190   0.242   7.444  0.5054 -1.1800  3.0127
 6622SOL     OW31324   1.996   0.812   5.133 -0.0949 -0.2195 -0.5020
 6622SOL    HW131325   1.995   0.718   5.113 -0.3483  0.2241 -2.5095
 6622SOL    HW231326   2.035   0.808   5.221  3.1656  4.5785 -1.7583
 6623SOL     OW31327   1.965   2.272   8.589  0.0503 -0.2890 -0.0307
 6623SOL    HW131328   1.974   2.188   8.634  0.5707  0.0350  0.4803
 6623SOL    HW231329   1.960   2.253   8.495 -0.1368  0.0601 -0.0908
 6624SOL     OW31330   0.437   2.098  15.686  0.4727 -0.3586 -0.2491
 6624SOL    HW131331   0.481   2.129  15.765 -1.9389  3.0938 -0.2480
 6624SOL    HW231332   0.487   2.142  15.617 -0.2823  0.9112  0.0033
 6625SOL     OW31333   0.638   4.500   5.092 -0.3228  0.0871  0.4412
 6625SOL    HW131334   0.670   4.585   5.123 -4.1503  1.8038 -0.2730
 6625SOL    HW231335   0.715   4.448   5.114  0.6714  1.6035  0.5569
 6626SOL     OW31336   2.048   2.824   7.121  0.8444 -0.4440  0.6696
 6626SOL    HW131337   2.052   2.740   7.074  1.0365 -1.4434  2.4499
 6626SOL    HW231338   1.955   2.845   7.125  0.9408  0.1132 -0.0210
 6627SOL     OW31339   3.825   0.858  16.074 -0.2413 -0.5597  0.3769
 6627SOL    HW131340   3.730   0.862  16.066  0.0587  0.9476 -2.7966
 6627SOL    HW231341   3.846   0.832  15.984  1.6218  0.6440  0.4483
 6628SOL     OW31342   0.820   2.022  12.118  0.1575  0.2784 -0.1483
 6628SOL    HW131343   0.773   2.066  12.048 -0.7549 -1.7537 -0.8220
 6628SOL    HW231344   0.866   1.951  12.072 -0.3082  0.4675 -0.8933
 6629SOL     OW31345   3.746   1.824   7.872  0.0252 -0.0292  0.9676
 6629SOL    HW131346   3.834   1.861   7.877 -0.5950  0.7370  5.8049
 6629SOL    HW231347   3.733   1.797   7.963  0.2731  0.6736  1.2109
 6630SOL     OW31348   1.894   2.633  12.396 -0.0324  0.3301 -0.4925
 6630SOL    HW131349   1.812   2.652  12.440  0.8692  2.8407  0.1182
 6630SOL    HW231350   1.897   2.541  12.421  1.0711  0.9455  1.6106
 6631SOL     OW31351   0.836   1.387  17.686 -0.2657 -0.3057  0.0775
 6631SOL    HW131352   0.842   1.430  17.601 -1.0457  0.0578  0.2029
 6631SOL    HW231353   0.869   1.458   0.048 -0.7670 -0.1169  0.1395
 6632SOL     OW31354   0.856   2.006   4.956 -0.0815  0.3847  0.3933
 6632SOL    HW131355   0.822   2.048   4.877 -0.7467  1.0598  1.0366
 6632SOL    HW231356   0.785   1.945   4.974  1.6469 -1.8776 -0.3758
 6633SOL     OW31357   2.737   1.340   9.801 -0.0859  0.7505 -0.1174
 6633SOL    HW131358   2.798   1.403   9.762  0.1014  1.8579  1.9409
 6633SOL    HW231359   2.785   1.260   9.822 -0.2362 -0.1211 -3.0571
 6634SOL     OW31360   2.876   0.572  13.093  0.1028  0.1219  0.3031
 6634SOL    HW131361   2.851   0.522  13.171  1.3281 -0.0998  0.5481
 6634SOL    HW231362   2.967   0.548  13.076  0.2045  0.7134  0.0248
 6635SOL     OW31363   1.012   0.529  17.637 -0.1978  0.4313 -0.1434
 6635SOL    HW131364   0.975   0.453  17.682  1.4600  0.0043  0.4813
 6635SOL    HW231365   0.990   0.523  17.544  3.2819 -1.9748 -0.8031
 6636SOL     OW31366   2.755   3.146   8.888 -0.2014  0.1276  0.1295
 6636SOL    HW131367   2.722   3.236   8.889 -1.5261 -0.3711  2.5106
 6636SOL    HW231368   2.786   3.144   8.797 -0.1508 -2.0509  0.1935
 6637SOL     OW31369   0.227   1.787   6.938  0.2402 -0.3100 -0.2436
 6637SOL    HW131370   0.133   1.795   6.956  0.5965  1.5521  0.7803
 6637SOL    HW231371   0.266   1.801   7.024 -0.8914  2.1257 -0.1229
 6638SOL     OW31372   0.164   2.639   4.730  0.0499 -0.1484  0.2075
 6638SOL    HW131373   0.188   2.720   4.775  3.1667 -0.9260 -0.0680
 6638SOL    HW231374   0.106   2.594   4.791  0.3913 -0.6651  0.1529
 6639SOL     OW31375   4.225   3.694   3.068  0.1687  0.2071 -0.1893
 6639SOL    HW131376   4.222   3.714   3.161 -0.9028  1.1706 -0.4265
 6639SOL    HW231377   4.228   3.783   3.031  3.1974  0.6544  1.1171
 6640SOL     OW31378   3.009   3.213   6.707 -0.1721 -0.3326  0.0025
 6640SOL    HW131379   3.061   3.239   6.631 -2.6307 -1.8038 -2.1650
 6640SOL    HW231380   3.016   3.289   6.765  2.1055  0.6803 -1.5884
 6641SOL     OW31381   0.480   2.682   2.920 -0.2076  0.6834 -0.8426
 6641SOL    HW131382   0.576   2.682   2.925 -0.2741 -1.0442  0.4348
 6641SOL    HW231383   0.460   2.774   2.903  0.0274  0.5165 -2.0372
 6642SOL     OW31384   1.621   2.585   6.167  0.0009 -0.4574  0.1032
 6642SOL    HW131385   1.683   2.614   6.235  2.8531 -1.9815 -1.8213
 6642SOL    HW231386   1.630   2.651   6.098  0.3478  1.1126  1.6445
 6643SOL     OW31387   2.286   3.745   7.031  0.2525 -0.8238  0.2206
 6643SOL    HW131388   2.341   3.800   7.087 -1.2595  1.3194 -0.4342
 6643SOL    HW231389   2.233   3.699   7.097 -0.8475  0.2784  0.0848
 6644SOL     OW31390   2.043   2.640  13.448  0.5132 -0.3553  0.6272
 6644SOL    HW131391   2.056   2.726  13.409 -2.3805 -0.6680 -0.9858
 6644SOL    HW231392   1.952   2.634  13.419  1.4733 -4.2609 -1.5751
 6645SOL     OW31393   1.647   3.972  14.980 -0.1539  0.4582  0.0729
 6645SOL    HW131394   1.605   3.904  15.032  1.1782 -0.1327  0.3865
 6645SOL    HW231395   1.570   4.012  14.940 -0.5701  0.1313  0.5586
 6646SOL     OW31396   1.345   0.451  17.057  0.0916  0.1651  0.5133
 6646SOL    HW131397   1.405   0.489  17.120 -2.7576  1.3569  2.5146
 6646SOL    HW231398   1.314   0.521  16.999  0.0965 -0.0819  0.2141
 6647SOL     OW31399   2.750   2.024   8.997 -0.3980 -0.4793  0.3765
 6647SOL    HW131400   2.813   1.976   8.943 -1.6381 -0.2410 -1.2933
 6647SOL    HW231401   2.702   1.949   9.033 -0.9176 -0.0473  0.5833
 6648SOL     OW31402   0.974   2.693   9.300 -0.1060  0.1295 -0.2057
 6648SOL    HW131403   1.027   2.624   9.259  0.6896 -1.0644  2.8649
 6648SOL    HW231404   0.887   2.679   9.263  0.1300  0.2530 -0.8132
 6649SOL     OW31405   0.145   3.590   1.173  0.0182  0.5829  0.8791
 6649SOL    HW131406   0.056   3.618   1.196 -0.5662 -0.5489  0.0160
 6649SOL    HW231407   0.161   3.646   1.097  0.0688 -1.2822 -0.4819
 6650SOL     OW31408   1.254   0.234   6.618 -0.5212  0.3111 -0.0208
 6650SOL    HW131409   1.296   0.320   6.607  1.3830 -0.6295 -0.0521
 6650SOL    HW231410   1.246   0.206   6.527  0.9734  1.8039 -0.6326
 6651SOL     OW31411   2.328   0.250  11.568 -0.4577  0.2827 -0.0298
 6651SOL    HW131412   2.373   0.218  11.490  0.3829  2.5630 -0.4720
 6651SOL    HW231413   2.399   0.299  11.610 -0.9871  1.4267 -0.4739
 6652SOL     OW31414   2.394   3.890   3.122 -0.1684 -0.2483 -0.2913
 6652SOL    HW131415   2.407   3.899   3.028 -1.1872 -3.8759 -0.7397
 6652SOL    HW231416   2.313   3.839   3.129 -1.4050  1.5740 -1.2397
 6653SOL     OW31417   1.803   1.348  16.054 -0.4423  0.3109  0.6795
 6653SOL    HW131418   1.861   1.333  15.980  0.6059  0.8767  1.3724
 6653SOL    HW231419   1.763   1.428  16.020 -0.7614  0.5727  1.6595
 6654SOL     OW31420   2.741   0.712   8.802  0.1382 -0.1365  0.3176
 6654SOL    HW131421   2.830   0.677   8.804 -0.6219 -2.0354  1.2177
 6654SOL    HW231422   2.683   0.640   8.777 -2.5623  1.3021  2.5041
 6655SOL     OW31423   4.583   3.915   1.004 -0.4904  0.5295 -0.1476
 6655SOL    HW131424   4.518   3.864   1.053  0.3968  0.4208  0.9015
 6655SOL    HW231425   4.566   3.887   0.914 -0.3390  0.9396 -0.3025
 6656SOL     OW31426   2.784   2.471  16.517 -0.7408  0.5496  0.0806
 6656SOL    HW131427   2.863   2.467  16.464 -1.2612 -1.5752 -0.5144
 6656SOL    HW231428   2.802   2.406  16.585 -0.1051  2.4946  1.7944
 6657SOL     OW31429   3.532   3.850  17.535  0.2045 -0.0175 -0.1476
 6657SOL    HW131430   3.442   3.838  17.506 -0.1596  0.4883  0.7461
 6657SOL    HW231431   3.578   3.895  17.464 -1.3947  2.2912  0.2835
 6658SOL     OW31432   0.473   4.109   3.862  0.7244 -0.0707  0.0445
 6658SOL    HW131433   0.464   4.013   3.860 -0.4358  0.0042  1.7942
 6658SOL    HW231434   0.405   4.129   3.798  0.1456  0.4260  0.8210
 6659SOL     OW31435   2.892   3.887  13.138  0.5823 -0.5661 -0.6178
 6659SOL    HW131436   2.977   3.861  13.102 -0.4099 -1.5186 -2.2385
 6659SOL    HW231437   2.825   3.839  13.090 -0.8598 -0.7464  1.5669
 6660SOL     OW31438   3.343   3.444   2.004  0.4030  0.0656 -0.4431
 6660SOL    HW131439   3.369   3.526   2.045 -1.9811  0.1562  0.8993
 6660SOL    HW231440   3.427   3.407   1.976  0.5641  0.3675 -0.3520
 6661SOL     OW31441   0.192   3.942  16.371  0.1472 -0.3042  0.0096
 6661SOL    HW131442   0.144   4.003  16.426 -1.3121  0.8595 -2.5469
 6661SOL    HW231443   0.129   3.920  16.303 -0.9701  4.9714 -0.6366
 6662SOL     OW31444   4.621   2.159  11.189  0.3860 -0.4215  0.3209
 6662SOL    HW131445   4.624   2.253  11.169 -0.1692 -0.9755 -2.4792
 6662SOL    HW231446   4.708   2.146  11.226 -1.1582 -1.2427  3.6766
 6663SOL     OW31447   4.435   4.437   8.739  0.3689  0.4557  0.0348
 6663SOL    HW131448   4.350   4.430   8.783  0.8620 -2.0221  0.5890
 6663SOL    HW231449   4.450   4.344   8.722 -0.0504  0.5267 -0.7319
 6664SOL     OW31450   0.534   1.926  11.537 -0.3641 -0.4177  0.1021
 6664SOL    HW131451   0.468   1.956  11.599 -0.7509 -0.1077 -0.4577
 6664SOL    HW231452   0.565   2.012  11.508  1.3142 -0.8242  0.6915
 6665SOL     OW31453   0.629   2.836   6.885  0.1707 -0.1347 -0.0240
 6665SOL    HW131454   0.713   2.883   6.885 -0.2050  0.5616  1.8825
 6665SOL    HW231455   0.574   2.913   6.873  2.2563  1.3268 -0.3292
 6666SOL     OW31456   4.288   1.876   8.711 -0.1815  0.4522  0.1006
 6666SOL    HW131457   4.245   1.919   8.785 -1.0838  1.3717 -0.9402
 6666SOL    HW231458   4.225   1.890   8.640 -1.2097 -0.1298  0.8956
 6667SOL     OW31459   3.212   0.452   5.452  0.1268 -0.0745  0.3190
 6667SOL    HW131460   3.211   0.463   5.357  1.5357  1.8168  0.5145
 6667SOL    HW231461   3.296   0.406   5.457 -1.0153 -2.1230  0.3365
 6668SOL     OW31462   0.584   3.844   2.757  0.1073  0.0585 -0.0649
 6668SOL    HW131463   0.533   3.844   2.676  0.2776  2.2465 -0.1639
 6668SOL    HW231464   0.566   3.756   2.791 -0.3610  0.1542 -0.0683
 6669SOL     OW31465   2.474   4.313   7.821 -0.2744  0.4895 -0.2394
 6669SOL    HW131466   2.510   4.256   7.889 -0.7122 -0.1387 -0.5411
 6669SOL    HW231467   2.500   4.398   7.858  0.0943  0.4817 -0.4883
 6670SOL     OW31468   4.416   4.179   8.734 -0.0073  0.4427  0.6315
 6670SOL    HW131469   4.331   4.154   8.699 -0.8698  0.5619  2.6667
 6670SOL    HW231470   4.477   4.109   8.712  0.0517  1.4843 -2.5452
 6671SOL     OW31471   3.347   1.303  12.186 -0.0459 -0.2588 -0.0148
 6671SOL    HW131472   3.266   1.287  12.138  0.9111  0.2679 -1.8378
 6671SOL    HW231473   3.316   1.310  12.276 -0.1726 -1.1683  0.0087
 6672SOL     OW31474   3.659   0.613   4.753  0.1758 -0.4611  0.0954
 6672SOL    HW131475   3.586   0.665   4.720  0.2417  0.1087  0.8446
 6672SOL    HW231476   3.628   0.557   4.824  2.4013 -0.3713  1.1594
 6673SOL     OW31477   3.337   3.675   4.162 -0.1406 -0.0230  0.0962
 6673SOL    HW131478   3.419   3.674   4.211  0.6666 -4.3605 -1.3648
 6673SOL    HW231479   3.365   3.606   4.103  1.6419  0.5253  0.2837
 6674SOL     OW31480   4.389   2.968  11.877  0.5515  0.1548  0.0941
 6674SOL    HW131481   4.375   2.874  11.875  1.0962  0.0363  1.9708
 6674SOL    HW231482   4.483   2.955  11.860  1.1205  1.9568  1.7611
 6675SOL     OW31483   4.199   2.212   1.904 -0.0193  0.0406 -0.0576
 6675SOL    HW131484   4.233   2.279   1.964 -0.5455  0.9961 -0.8239
 6675SOL    HW231485   4.210   2.133   1.957 -0.5940 -0.2614 -0.3854
 6676SOL     OW31486   4.188   4.693   3.333  0.5096 -0.4555 -0.2371
 6676SOL    HW131487   4.276   4.691   3.293  0.3667  2.7251 -0.7054
 6676SOL    HW231488   4.145   0.034   3.277  1.6409  0.1942 -0.3825
 6677SOL     OW31489   0.070   4.585  16.859  0.4325  0.4720  0.1545
 6677SOL    HW131490   0.057   4.677  16.838  0.2557  0.0807 -1.4925
 6677SOL    HW231491   4.701   4.564  16.876  0.8972 -1.7079  0.0222
 6678SOL     OW31492   2.937   4.097   0.316  0.1102  0.3133 -0.4791
 6678SOL    HW131493   2.910   4.103   0.407 -0.2979 -1.2260 -0.5052
 6678SOL    HW231494   2.917   4.005   0.299 -3.0185  1.0951 -0.9879
 6679SOL     OW31495   0.031   2.072   4.571  0.1856 -0.0671 -0.2286
 6679SOL    HW131496   4.714   2.018   4.639 -0.0963  3.0094  2.0813
 6679SOL    HW231497   4.705   2.034   4.498  1.0043 -0.2105 -0.7035
 6680SOL     OW31498   3.509   0.191   9.478  0.1446 -0.0747  0.0336
 6680SOL    HW131499   3.493   0.237   9.396  1.3002 -2.3449 -1.4849
 6680SOL    HW231500   3.424   0.153   9.500  1.0370 -1.3404  1.3241
 6681SOL     OW31501   1.500   3.630   8.564  0.0601 -0.1239 -0.1608
 6681SOL    HW131502   1.501   3.535   8.548  1.0117  0.0157 -0.9853
 6681SOL    HW231503   1.487   3.636   8.658 -3.7756  0.1467 -0.7283
 6682SOL     OW31504   1.768   4.110   1.958 -0.2839 -0.4253 -0.4793
 6682SOL    HW131505   1.771   4.166   1.880  0.8809 -0.3905 -0.4076
 6682SOL    HW231506   1.743   4.028   1.914  1.3902 -0.6812 -0.9511
 6683SOL     OW31507   4.481   4.301   2.670  0.1069  0.1212  0.2131
 6683SOL    HW131508   4.436   4.235   2.723 -2.2275 -0.5186 -2.5763
 6683SOL    HW231509   4.486   4.253   2.588  1.0265 -1.7202  1.3477
 6684SOL     OW31510   0.804   0.466   4.875 -0.4775  0.2650 -0.5230
 6684SOL    HW131511   0.817   0.446   4.782 -1.0825 -1.6046 -0.2115
 6684SOL    HW231512   0.879   0.426   4.918 -0.2964  0.3545 -0.7558
 6685SOL     OW31513   0.079   0.408   9.794  0.6819 -1.0428 -0.3651
 6685SOL    HW131514   0.033   0.331   9.829  2.1883 -1.1063  1.5185
 6685SOL    HW231515   0.155   0.376   9.747  0.9844 -0.0537 -0.5461
 6686SOL     OW31516   2.337   4.406   6.134  0.1372 -0.4105  0.2156
 6686SOL    HW131517   2.429   4.412   6.161 -0.3132 -0.0547  1.6116
 6686SOL    HW231518   2.300   4.334   6.185 -0.3921 -0.7624 -0.6527
 6687SOL     OW31519   3.782   2.760   6.777  0.6489  0.4945  0.0317
 6687SOL    HW131520   3.818   2.845   6.752  1.3701  0.0488 -0.4687
 6687SOL    HW231521   3.820   2.756   6.865 -0.0307 -0.9517  0.2581
 6688SOL     OW31522   1.523   1.431   7.167 -0.4668 -0.2505 -0.0658
 6688SOL    HW131523   1.603   1.400   7.127  0.9848  0.2896  2.3939
 6688SOL    HW231524   1.468   1.365   7.125 -0.3932 -0.2758 -0.1202
 6689SOL     OW31525   4.069   1.225   5.231 -0.2325  0.0531 -0.5010
 6689SOL    HW131526   4.106   1.142   5.201 -0.5195  0.0387 -0.8097
 6689SOL    HW231527   4.070   1.201   5.324  3.0939  0.8844 -0.3229
 6690SOL     OW31528   2.913   0.473   4.049 -0.1624  0.0546 -0.9866
 6690SOL    HW131529   2.830   0.507   4.081  0.4922 -0.4636  1.2792
 6690SOL    HW231530   2.953   0.466   4.136  0.3269 -0.3260 -1.2400
 6691SOL     OW31531   0.695   2.456   6.093  0.3885  0.5666  0.0414
 6691SOL    HW131532   0.689   2.521   6.023  1.7032  0.4709 -0.1560
 6691SOL    HW231533   0.625   2.494   6.147  0.7620 -0.8961  1.5602
 6692SOL     OW31534   4.335   0.645   6.298 -0.2317 -0.5370  0.2878
 6692SOL    HW131535   4.416   0.619   6.255 -0.4384  0.7900 -0.9141
 6692SOL    HW231536   4.283   0.679   6.225  1.0571  0.7783 -0.0022
 6693SOL     OW31537   0.834   4.093  14.981 -0.3646  0.1015 -0.0491
 6693SOL    HW131538   0.825   4.045  14.899  0.6109 -1.3087  0.6629
 6693SOL    HW231539   0.812   4.180  14.948  1.1281  1.4194  2.3627
 6694SOL     OW31540   3.987   0.547  16.743  0.1181  0.1264 -0.2310
 6694SOL    HW131541   3.927   0.479  16.771  2.8338 -1.3576  1.9995
 6694SOL    HW231542   3.939   0.627  16.763 -0.4229 -0.6498  1.4665
 6695SOL     OW31543   1.454   1.956   5.516 -0.2089  0.1356 -0.2424
 6695SOL    HW131544   1.410   1.936   5.433  0.7276 -0.9880 -0.4699
 6695SOL    HW231545   1.404   1.909   5.583  0.0773  0.8077  0.4435
 6696SOL     OW31546   2.136   0.288   5.008 -0.1023 -0.3203  0.0386
 6696SOL    HW131547   2.086   0.219   4.965 -1.7168  1.2482 -0.5998
 6696SOL    HW231548   2.227   0.274   4.983 -0.3410 -1.3077 -0.2591
 6697SOL     OW31549   3.787   1.651   2.237  0.0751 -0.4437  0.0930
 6697SOL    HW131550   3.813   1.606   2.317  1.1473 -0.7218 -0.4212
 6697SOL    HW231551   3.859   1.712   2.220 -1.1636  0.5400 -1.7311
 6698SOL     OW31552   4.374   0.872   5.461 -0.4171  0.8895 -0.1067
 6698SOL    HW131553   4.314   0.808   5.499  1.6547 -0.4773  0.8918
 6698SOL    HW231554   4.389   0.833   5.375  0.3990  0.1870  0.3518
 6699SOL     OW31555   0.807   0.359  13.334  0.5728 -0.0311 -0.7854
 6699SOL    HW131556   0.839   0.357  13.244  1.3305 -1.2375 -0.4877
 6699SOL    HW231557   0.835   0.449  13.349  1.5236 -0.7032  1.5681
 6700SOL     OW31558   3.426   4.459   2.530  0.6096  0.4504  0.0146
 6700SOL    HW131559   3.397   4.502   2.449 -0.0982 -1.0935 -0.5637
 6700SOL    HW231560   3.382   4.505   2.600 -1.5284 -0.1689 -0.9254
 6701SOL     OW31561   1.321   0.078  16.745  0.4988 -0.8485  0.4274
 6701SOL    HW131562   1.270   0.006  16.783  0.0291 -0.7964 -0.1025
 6701SOL    HW231563   1.359   0.114  16.825  0.7845  1.1299 -0.6136
 6702SOL     OW31564   1.811   1.405   1.853  0.6664  0.0037 -0.1178
 6702SOL    HW131565   1.772   1.402   1.766  2.3711  0.3442 -0.8841
 6702SOL    HW231566   1.855   1.489   1.864  1.3189 -0.3286 -0.2286
 6703SOL     OW31567   1.934   1.083   2.458 -0.3627  0.3949  0.7473
 6703SOL    HW131568   1.997   1.040   2.400 -0.7001  1.6251 -0.5371
 6703SOL    HW231569   1.852   1.033   2.459  0.0297 -0.2831 -2.3294
 6704SOL     OW31570   2.484   0.162   3.996 -0.0978  0.2512 -0.5326
 6704SOL    HW131571   2.431   0.225   4.044  0.9001 -0.0192  0.9383
 6704SOL    HW231572   2.552   0.217   3.956  0.5302  0.2879  0.5903
 6705SOL     OW31573   0.106   1.018   8.577 -0.6158  0.0943 -0.1492
 6705SOL    HW131574   0.188   0.974   8.553 -0.4027  1.1802 -1.4036
 6705SOL    HW231575   0.044   0.955   8.541 -0.7573  0.5103 -0.6379
 6706SOL     OW31576   0.854   1.508   8.399 -0.2432  0.3642 -0.3204
 6706SOL    HW131577   0.802   1.576   8.441  1.0416  1.3813 -0.3702
 6706SOL    HW231578   0.942   1.547   8.401  0.1021 -0.3712 -1.0650
 6707SOL     OW31579   0.560   2.635   4.164  0.0597 -1.0433 -0.3669
 6707SOL    HW131580   0.628   2.667   4.105 -1.6664 -0.3555 -2.0154
 6707SOL    HW231581   0.603   2.575   4.224 -1.6863 -1.2075  0.7255
 6708SOL     OW31582   0.905   0.749  14.986 -0.3112  0.3930  0.0170
 6708SOL    HW131583   0.924   0.662  14.952  0.7822  1.2880 -1.6907
 6708SOL    HW231584   0.948   0.740  15.072  0.4174 -1.4558 -0.5531
 6709SOL     OW31585   2.174   3.120   2.397  0.0359 -0.6453 -0.0461
 6709SOL    HW131586   2.250   3.063   2.412  2.3524  1.9889 -1.7529
 6709SOL    HW231587   2.141   3.075   2.319  0.6190 -1.1480 -0.0051
 6710SOL     OW31588   0.542   0.982   9.116  0.0361  0.3654  0.1442
 6710SOL    HW131589   0.578   0.950   9.198 -1.8036  2.3385  1.7231
 6710SOL    HW231590   0.451   0.996   9.144  0.2618  1.3313  0.3981
 6711SOL     OW31591   0.916   3.480   7.940  0.3613  0.1706  0.2884
 6711SOL    HW131592   1.000   3.502   7.981  1.1254 -0.7485 -0.7836
 6711SOL    HW231593   0.880   3.560   7.903 -1.0097 -0.6930 -0.2690
 6712SOL     OW31594   0.583   0.558   5.948  0.1514 -0.4161  0.1221
 6712SOL    HW131595   0.613   0.499   5.877 -0.7459 -0.5376 -0.1548
 6712SOL    HW231596   0.668   0.598   5.968  0.1317 -1.1251  1.5758
 6713SOL     OW31597   0.398   2.389  11.064  0.0039  0.3533  0.4999
 6713SOL    HW131598   0.371   2.351  10.981  1.0168  0.3496  0.1784
 6713SOL    HW231599   0.491   2.366  11.073  0.4742  2.1928  0.3728
 6714SOL     OW31600   1.075   0.249  10.002  0.2950  0.7085 -0.0736
 6714SOL    HW131601   0.993   0.295  10.021 -0.2903 -0.2386 -0.2929
 6714SOL    HW231602   1.128   0.328   9.993 -1.5562  2.1617  1.6593
 6715SOL     OW31603   1.039   1.636   3.704 -0.1291 -0.1524  0.2415
 6715SOL    HW131604   1.115   1.579   3.709  1.1210  1.5541  0.6274
 6715SOL    HW231605   0.961   1.581   3.695  0.1330 -0.7809  1.9656
 6716SOL     OW31606   1.594   3.114   2.747 -0.0257  0.4477 -0.5179
 6716SOL    HW131607   1.505   3.117   2.781  0.3773 -2.5454  0.8336
 6716SOL    HW231608   1.594   3.195   2.696 -2.8598  2.2360  2.3153
 6717SOL     OW31609   1.514   2.206   1.570  0.0161  0.3900 -0.1633
 6717SOL    HW131610   1.467   2.228   1.489 -0.5827 -1.5816 -0.3668
 6717SOL    HW231611   1.604   2.211   1.538  0.7161 -3.9251  1.0829
 6718SOL     OW31612   1.700   1.200   2.168  0.5028  0.4720  0.1017
 6718SOL    HW131613   1.760   1.131   2.139 -1.4678 -1.6214  1.0016
 6718SOL    HW231614   1.749   1.274   2.132  0.0917  1.6391  1.9528
 6719SOL     OW31615   4.173   3.989   0.450 -0.2926  0.0245  0.2440
 6719SOL    HW131616   4.084   3.974   0.481  0.5929 -1.3839  2.1374
 6719SOL    HW231617   4.204   4.061   0.504  2.8233  0.2799 -1.8752
 6720SOL     OW31618   3.384   4.547  10.525 -0.4630 -0.2323  0.9974
 6720SOL    HW131619   3.313   4.494  10.492 -0.9057 -0.7568  2.7829
 6720SOL    HW231620   3.345   4.634  10.532  0.2820  0.1854 -0.0704
 6721SOL     OW31621   4.491   4.311   5.034  0.5379 -0.9661  0.0519
 6721SOL    HW131622   4.546   4.314   4.956 -2.8254 -2.1442 -2.3631
 6721SOL    HW231623   4.523   4.244   5.095 -0.8580 -0.9989  0.7415
 6722SOL     OW31624   3.265   2.768  12.516  0.0960  0.7769 -0.2260
 6722SOL    HW131625   3.298   2.705  12.579 -0.3600  0.7707  0.0075
 6722SOL    HW231626   3.304   2.850  12.544 -0.7594  0.6320  1.3912
 6723SOL     OW31627   2.095   4.233   1.943 -0.7265 -0.5036  0.3523
 6723SOL    HW131628   2.168   4.229   1.881 -0.9605  0.0076  0.0333
 6723SOL    HW231629   2.071   4.141   1.948  0.2026 -0.8246 -1.1375
 6724SOL     OW31630   4.290   3.413   0.495 -0.2883 -0.2300  0.0909
 6724SOL    HW131631   4.337   3.385   0.574  2.6348 -0.4181 -1.6999
 6724SOL    HW231632   4.350   3.476   0.455 -0.8901  0.3099  0.0363
 6725SOL     OW31633   2.804   1.668   0.571 -0.2379  0.2722 -0.0776
 6725SOL    HW131634   2.719   1.680   0.527 -0.3125  1.0163  0.2617
 6725SOL    HW231635   2.814   1.576   0.548  1.9094  0.4124  0.3334
 6726SOL     OW31636   0.548   3.061   2.335 -0.1725  0.5235 -0.0747
 6726SOL    HW131637   0.567   3.120   2.262  0.6188  0.1863 -0.1414
 6726SOL    HW231638   0.595   2.984   2.302  2.2937  1.4510  1.3274
 6727SOL     OW31639   0.066   1.350   4.539  0.2052  0.5062  0.5766
 6727SOL    HW131640   0.023   1.314   4.462 -1.8222  1.5971  1.2033
 6727SOL    HW231641   0.076   1.265   4.582  1.3386  0.2540 -0.1776
 6728SOL     OW31642   0.833   3.941  10.238  0.1670  0.1728  0.4320
 6728SOL    HW131643   0.752   3.945  10.187  0.2777  0.3034  0.2667
 6728SOL    HW231644   0.880   3.868  10.198  1.5072  1.2000  0.1452
 6729SOL     OW31645   4.343   2.710   9.968  0.3495 -0.7854 -0.3630
 6729SOL    HW131646   4.269   2.656   9.943 -0.6284  0.6423 -0.5221
 6729SOL    HW231647   4.409   2.672   9.910  0.1050 -3.0838  0.8722
 6730SOL     OW31648   3.534   2.383   3.691  0.2298  0.8964 -0.0964
 6730SOL    HW131649   3.580   2.359   3.611 -1.7627 -1.2588 -0.5906
 6730SOL    HW231650   3.534   2.478   3.679 -1.4469  1.1856  2.1379
 6731SOL     OW31651   0.685   2.937  15.414  0.2438 -0.3608  0.2615
 6731SOL    HW131652   0.607   2.930  15.360  0.2929 -0.5772  0.2187
 6731SOL    HW231653   0.707   2.845  15.431 -3.3808 -1.0277  1.3083
 6732SOL     OW31654   0.792   2.881   9.780  0.1826  0.2260  0.0247
 6732SOL    HW131655   0.757   2.793   9.766  1.8612 -0.5080  0.3556
 6732SOL    HW231656   0.826   2.890   9.691 -0.2478 -2.8281 -0.4542
 6733SOL     OW31657   3.770   3.792   4.430 -0.1961 -0.3244  0.4881
 6733SOL    HW131658   3.702   3.737   4.390 -0.7497  0.5711  0.1904
 6733SOL    HW231659   3.847   3.735   4.435 -1.0331 -1.5980 -1.2183
 6734SOL     OW31660   0.561   3.704   3.188 -0.2554 -0.2703  0.0026
 6734SOL    HW131661   0.552   3.791   3.228 -0.5841 -0.4275  0.2682
 6734SOL    HW231662   0.490   3.697   3.125  2.3095 -0.5481 -2.8671
 6735SOL     OW31663   1.009   2.986   0.279  0.4891  0.4866  0.5289
 6735SOL    HW131664   1.077   2.939   0.327  1.4818  1.8705  0.5101
 6735SOL    HW231665   1.028   2.954   0.190 -0.9842 -0.2840  0.4905
 6736SOL     OW31666   1.216   2.905   6.077  0.5784  0.2811  0.3015
 6736SOL    HW131667   1.265   2.951   6.009  0.5163 -0.2819 -0.1239
 6736SOL    HW231668   1.281   2.891   6.146  0.5815  0.9994  0.4407
 6737SOL     OW31669   3.081   4.253  16.713 -0.5588 -0.5233 -0.0077
 6737SOL    HW131670   2.986   4.240  16.713 -0.5137 -0.8486  0.4692
 6737SOL    HW231671   3.091   4.290  16.625  0.7252  0.9185  0.7458
 6738SOL     OW31672   0.295   0.061   8.119  0.0521  0.2504  0.0138
 6738SOL    HW131673   0.224   0.085   8.179  0.0659  1.7070 -0.5370
 6738SOL    HW231674   0.301   4.689   8.125  0.6530  0.3189  0.4852
 6739SOL     OW31675   3.494   4.560   8.916 -0.2063 -0.0184  0.5635
 6739SOL    HW131676   3.470   4.613   8.992 -0.7089  2.0425 -1.0350
 6739SOL    HW231677   3.520   4.630   8.856  2.2394 -1.4751 -0.0884
 6740SOL     OW31678   4.227   1.889  16.200 -0.2190  0.0848  0.1865
 6740SOL    HW131679   4.254   1.962  16.144 -1.2530 -2.1090 -3.1202
 6740SOL    HW231680   4.289   1.897  16.273  1.0639 -0.5735 -0.8454
 6741SOL     OW31681   3.310   0.634  14.431  0.3063  0.0631  0.3362
 6741SOL    HW131682   3.305   0.639  14.336 -2.4019  0.3572  0.4990
 6741SOL    HW231683   3.357   0.714  14.451  1.4468 -0.2155 -1.2094
 6742SOL     OW31684   1.031   1.412  12.614  0.0589  0.0126  0.0616
 6742SOL    HW131685   0.951   1.447  12.654 -1.1401 -1.7429 -0.7992
 6742SOL    HW231686   1.084   1.407  12.694  1.2198 -2.3472 -0.8447
 6743SOL     OW31687   3.337   0.714   1.806 -0.1032  0.6755 -0.4938
 6743SOL    HW131688   3.432   0.709   1.812 -0.1497  0.2838 -0.1032
 6743SOL    HW231689   3.323   0.759   1.723  0.9814  1.2444 -0.3636
 6744SOL     OW31690   2.476   4.512   9.236  0.0118 -0.3396  0.6513
 6744SOL    HW131691   2.534   4.556   9.298  0.4762 -0.9690  0.6595
 6744SOL    HW231692   2.389   4.531   9.272 -0.9599 -0.0148 -1.8177
 6745SOL     OW31693   2.579   2.493   7.177  0.0043  0.0512 -0.0415
 6745SOL    HW131694   2.608   2.410   7.214  1.1640  0.4600 -0.0209
 6745SOL    HW231695   2.528   2.531   7.249 -0.9854 -0.2466 -0.5790
 6746SOL     OW31696   3.113   0.979   5.345 -0.5089 -0.2418  0.0232
 6746SOL    HW131697   3.188   1.001   5.401 -2.4757  0.1151  2.4953
 6746SOL    HW231698   3.043   1.032   5.384 -1.3713  0.2101 -2.1741
 6747SOL     OW31699   2.979   2.774   1.959 -0.0258  0.1217 -0.3557
 6747SOL    HW131700   2.990   2.723   2.039  0.4456 -1.9959 -1.7649
 6747SOL    HW231701   2.890   2.805   1.976 -0.2948 -1.2303  0.7768
 6748SOL     OW31702   1.104   1.660   5.151 -0.0307  0.0269  0.2353
 6748SOL    HW131703   1.156   1.640   5.228  1.6947  0.5354 -0.8009
 6748SOL    HW231704   1.161   1.620   5.086  0.6415  1.4201 -0.0463
 6749SOL     OW31705   2.072   3.133  16.130  0.2436  0.0888 -0.1926
 6749SOL    HW131706   2.083   3.206  16.069  2.5074  1.8057  2.2646
 6749SOL    HW231707   1.994   3.085  16.102  1.1144 -2.5202  1.8337
 6750SOL     OW31708   4.624   4.171   7.435  0.3613 -0.1469  0.2604
 6750SOL    HW131709   4.637   4.265   7.450 -0.1781 -0.2127  1.1193
 6750SOL    HW231710   4.677   4.136   7.507 -2.3912  1.1744  2.9009
 6751SOL     OW31711   1.275   3.423   6.758  0.0767  0.5260 -0.6153
 6751SOL    HW131712   1.198   3.428   6.702  0.5334 -0.1015 -1.2908
 6751SOL    HW231713   1.300   3.331   6.756  0.9873  0.7102  1.9825
 6752SOL     OW31714   1.782   2.135  11.767 -0.3220  0.1814  0.1867
 6752SOL    HW131715   1.708   2.076  11.757  0.9591 -1.3199 -0.4714
 6752SOL    HW231716   1.838   2.124  11.690  0.0202 -0.7954  0.5799
 6753SOL     OW31717   0.699   4.493   3.708 -0.9488 -0.1482  0.0003
 6753SOL    HW131718   0.674   4.403   3.727 -1.0080  0.1427  1.3017
 6753SOL    HW231719   0.650   4.532   3.780  1.6047  0.9923  1.1313
 6754SOL     OW31720   3.671   0.245   9.101 -0.2841 -0.2624  0.1863
 6754SOL    HW131721   3.757   0.229   9.139  0.2994  0.8258 -0.6726
 6754SOL    HW231722   3.683   0.220   9.009  1.6406 -1.6648  0.8059
 6755SOL     OW31723   2.035   4.654   2.169 -0.7691  0.3499  0.7443
 6755SOL    HW131724   1.969   4.682   2.106 -0.5441 -1.4052 -0.2435
 6755SOL    HW231725   1.998   4.574   2.205 -1.8941  0.2886 -0.5802
 6756SOL     OW31726   3.560   0.947   2.659  0.1266  0.2795 -0.5196
 6756SOL    HW131727   3.528   0.958   2.748  0.7507 -1.9993 -0.0025
 6756SOL    HW231728   3.482   0.971   2.610  0.3725  2.5631  0.2170
 6757SOL     OW31729   2.578   2.738   7.635 -0.0375 -0.3114  0.0009
 6757SOL    HW131730   2.660   2.757   7.681  0.5505 -0.5101 -0.9639
 6757SOL    HW231731   2.603   2.762   7.546 -0.2764 -0.3202 -0.0694
 6758SOL     OW31732   2.722   2.465   2.174  0.1193  0.0152  0.6896
 6758SOL    HW131733   2.801   2.410   2.180 -0.0828 -0.3968 -0.5642
 6758SOL    HW231734   2.662   2.394   2.197  0.0499 -0.4431 -0.9413
 6759SOL     OW31735   1.372   0.713   5.599  0.2400 -0.7280 -0.2852
 6759SOL    HW131736   1.362   0.806   5.578 -4.2214 -0.5943  2.4530
 6759SOL    HW231737   1.287   0.692   5.638 -0.1356  0.4150 -0.4904
 6760SOL     OW31738   4.369   1.385  16.946  0.1635  0.2662 -0.1472
 6760SOL    HW131739   4.440   1.449  16.956  0.9290 -0.5425 -0.4057
 6760SOL    HW231740   4.423   1.306  16.952 -1.7506 -0.9015  1.5995
 6761SOL     OW31741   1.666   0.810  16.009  0.1156  0.5442 -0.5963
 6761SOL    HW131742   1.686   0.896  16.047  1.7502 -0.4649  0.8708
 6761SOL    HW231743   1.732   0.803  15.940  2.1869 -0.0870  1.4563
 6762SOL     OW31744   1.068   0.581   5.712 -0.5212 -0.5041 -0.0401
 6762SOL    HW131745   1.035   0.531   5.786 -1.1711 -2.4015 -1.6287
 6762SOL    HW231746   1.115   0.512   5.666 -0.4327  0.5713 -1.5666
 6763SOL     OW31747   0.481   1.724   6.346 -0.0089 -0.5386 -0.0856
 6763SOL    HW131748   0.449   1.641   6.310 -2.7456  0.8101 -0.7213
 6763SOL    HW231749   0.438   1.792   6.294 -1.0982 -1.9105 -0.9842
 6764SOL     OW31750   2.620   0.294  14.082  0.1319  0.4947  0.2119
 6764SOL    HW131751   2.713   0.314  14.084  0.0794  0.7850 -0.1748
 6764SOL    HW231752   2.608   0.273  13.989  1.1003 -1.1568  0.4621
 6765SOL     OW31753   3.019   2.228   3.736  0.3662  0.3004  0.0322
 6765SOL    HW131754   3.016   2.192   3.825 -1.2633 -1.1739 -0.6017
 6765SOL    HW231755   3.106   2.266   3.724 -0.0964  1.2258 -0.4033
 6766SOL     OW31756   1.945   0.875  15.343 -0.6592 -0.1392  0.5438
 6766SOL    HW131757   1.949   0.875  15.439  1.0048  0.9092  0.4767
 6766SOL    HW231758   1.951   0.782  15.323  0.5315  0.0513  0.0071
 6767SOL     OW31759   0.661   0.055   3.524  0.7827  0.3950  0.3603
 6767SOL    HW131760   0.711   0.006   3.589 -1.2207  0.3927  1.8967
 6767SOL    HW231761   0.615   0.110   3.588  1.5904 -0.9642  2.1017
 6768SOL     OW31762   1.517   1.967  11.355 -0.2083 -0.0935  0.1116
 6768SOL    HW131763   1.508   2.051  11.399 -0.5698 -0.0767  0.0037
 6768SOL    HW231764   1.543   2.011  11.274 -1.9595  1.0673  0.1865
 6769SOL     OW31765   4.124   2.426   2.999 -0.5908 -0.2405 -0.2442
 6769SOL    HW131766   4.202   2.429   3.055 -2.4998  0.9875  2.3393
 6769SOL    HW231767   4.150   2.422   2.907  0.9803  0.7264  0.1600
 6770SOL     OW31768   1.203   0.727   6.712 -0.0478  0.6095 -0.0132
 6770SOL    HW131769   1.162   0.651   6.671 -3.7697  2.4461  0.3130
 6770SOL    HW231770   1.242   0.762   6.632  1.0911 -0.2591  0.1782
 6771SOL     OW31771   3.973   1.462   9.141 -0.4501  0.1940  0.4930
 6771SOL    HW131772   3.903   1.396   9.133  0.1591 -0.2317 -1.2809
 6771SOL    HW231773   4.020   1.437   9.220  0.7543  0.5306 -0.1292
 6772SOL     OW31774   0.666   0.791   3.162  0.1066 -0.3497 -0.3439
 6772SOL    HW131775   0.660   0.818   3.254  0.2124 -0.4917 -0.2962
 6772SOL    HW231776   0.573   0.769   3.162  0.1689 -0.6169 -1.1509
 6773SOL     OW31777   0.260   4.444   5.776 -0.4265  0.0567  0.1956
 6773SOL    HW131778   0.180   4.391   5.772 -0.4669  0.2398 -1.1415
 6773SOL    HW231779   0.338   4.389   5.786  0.8822  1.8927  0.0210
 6774SOL     OW31780   3.271   1.351   7.138 -0.3262  0.0674  0.0511
 6774SOL    HW131781   3.280   1.386   7.227  0.2300 -3.1005  1.2373
 6774SOL    HW231782   3.195   1.293   7.140 -0.7212  0.6413  2.0166
 6775SOL     OW31783   0.477   1.158   5.007 -0.1809 -0.2046 -0.0873
 6775SOL    HW131784   0.485   1.101   5.083  1.7200 -0.8032 -0.7218
 6775SOL    HW231785   0.500   1.246   5.036 -0.2875 -0.6010  1.1656
 6776SOL     OW31786   0.952   1.942  11.600  0.0871 -0.7875 -0.1346
 6776SOL    HW131787   0.898   2.007  11.645 -0.3826 -1.1020 -0.2421
 6776SOL    HW231788   0.887   1.875  11.619 -0.6306 -0.2598 -0.7316
 6777SOL     OW31789   3.280   1.744  13.312 -0.0545 -0.2065  0.4143
 6777SOL    HW131790   3.306   1.674  13.253  2.8392 -0.4322  1.9378
 6777SOL    HW231791   3.218   1.787  13.253  2.9763  3.0347 -0.4238
 6778SOL     OW31792   1.849   0.608   6.421  0.6855 -0.1017 -0.7274
 6778SOL    HW131793   1.759   0.638   6.406  0.4697 -0.6532 -0.5195
 6778SOL    HW231794   1.843   0.537   6.484 -2.4940 -0.5965 -1.5704
 6779SOL     OW31795   1.321   2.557   0.375 -0.3489 -1.0010 -0.1642
 6779SOL    HW131796   1.374   2.493   0.424  0.5922 -0.0673  0.0359
 6779SOL    HW231797   1.377   2.569   0.298  1.3498 -2.1337  0.8941
 6780SOL     OW31798   1.062   3.243   1.191  0.4178  0.3691  0.4755
 6780SOL    HW131799   1.039   3.152   1.172  1.0874 -0.0192  1.5146
 6780SOL    HW231800   1.100   3.275   1.110  0.6831  2.2252  1.3254
 6781SOL     OW31801   2.324   4.263   9.212 -0.2794  0.3889  0.5677
 6781SOL    HW131802   2.399   4.321   9.223  0.9950 -0.6271 -2.5738
 6781SOL    HW231803   2.363   4.210   9.142 -0.3154 -0.1679  0.9688
 6782SOL     OW31804   0.684   2.093   2.779 -0.2530  0.2859  0.1348
 6782SOL    HW131805   0.601   2.139   2.792 -0.6565 -0.3980 -0.0119
 6782SOL    HW231806   0.744   2.164   2.760  0.1076 -0.3185 -0.9806
 6783SOL     OW31807   4.278   1.439   1.231 -0.2152 -0.3214  0.0993
 6783SOL    HW131808   4.204   1.378   1.230 -0.4283  0.0119 -4.4210
 6783SOL    HW231809   4.301   1.457   1.140 -1.3730 -1.2254 -0.3693
 6784SOL     OW31810   0.924   2.420   7.462  0.0195  0.2029 -0.0986
 6784SOL    HW131811   0.861   2.449   7.528  0.3791 -1.6277  1.0461
 6784SOL    HW231812   0.923   2.493   7.400  1.2524  0.2553 -0.0581
 6785SOL     OW31813   0.632   3.589   5.741 -0.4926  0.5575  0.1965
 6785SOL    HW131814   0.577   3.513   5.721  1.2911 -0.2022 -1.8493
 6785SOL    HW231815   0.671   3.557   5.822 -1.6519 -1.7696 -0.1511
 6786SOL     OW31816   3.823   0.813  12.338  0.2606  0.5803  0.6097
 6786SOL    HW131817   3.886   0.838  12.270  0.6819  0.5269  0.9764
 6786SOL    HW231818   3.774   0.895  12.340  2.3867  1.8798 -0.0664
 6787SOL     OW31819   3.635   3.572   3.883 -0.6978 -0.0630 -0.0760
 6787SOL    HW131820   3.597   3.534   3.963 -0.4647 -2.9597 -1.3309
 6787SOL    HW231821   3.567   3.557   3.817 -0.5989 -3.0658  0.4723
 6788SOL     OW31822   3.645   3.222   1.710  0.1056  0.0172 -0.4243
 6788SOL    HW131823   3.729   3.195   1.674  0.4878  1.1804 -0.3987
 6788SOL    HW231824   3.649   3.306   1.757 -0.2990 -1.1543  1.6867
 6789SOL     OW31825   1.998   2.924   3.226  0.0224  0.1397  0.6532
 6789SOL    HW131826   2.071   2.954   3.172  0.3642 -1.2353  0.3319
 6789SOL    HW231827   2.029   2.838   3.254 -1.9063 -0.6328  0.4682
 6790SOL     OW31828   3.886   0.633   5.032 -0.2026 -0.0103  0.1129
 6790SOL    HW131829   3.891   0.543   5.065 -0.1825 -0.3125 -0.7149
 6790SOL    HW231830   3.797   0.654   5.059 -0.6948  0.1902 -1.6484
 6791SOL     OW31831   3.903   3.943  10.198  0.0332 -0.1762  0.1611
 6791SOL    HW131832   3.822   3.907  10.234  0.8698 -1.1069  1.1195
 6791SOL    HW231833   3.964   3.924  10.269  1.0121  0.3959 -0.5164
 6792SOL     OW31834   4.409   2.128   1.618 -0.5729  0.3067 -0.3133
 6792SOL    HW131835   4.361   2.130   1.535 -1.9695 -1.7523  0.4273
 6792SOL    HW231836   4.471   2.199   1.603  0.1239 -0.2555 -0.0975
 6793SOL     OW31837   2.111   3.158   6.785  0.2127 -0.4200  0.1417
 6793SOL    HW131838   2.176   3.165   6.855  1.4874 -1.7585 -0.9083
 6793SOL    HW231839   2.157   3.115   6.712  1.7255  0.8494  0.3466
 6794SOL     OW31840   4.321   0.133  12.211  0.3436 -0.0067 -0.7080
 6794SOL    HW131841   4.272   0.111  12.290 -1.6400  0.3462 -1.8368
 6794SOL    HW231842   4.406   0.132  12.254 -0.1139 -0.6108  0.1992
 6795SOL     OW31843   4.225   2.284   4.198  0.1287 -0.0505  0.0904
 6795SOL    HW131844   4.265   2.313   4.116  2.0298 -0.1394  0.9921
 6795SOL    HW231845   4.303   2.299   4.250  0.6777 -1.1103 -0.4486
 6796SOL     OW31846   3.897   0.783   7.166 -0.4169 -0.2058  0.0070
 6796SOL    HW131847   3.948   0.787   7.247  0.3525 -0.7232 -0.4548
 6796SOL    HW231848   3.879   0.874   7.140  1.2075  0.5653  1.5836
 6797SOL     OW31849   4.278   1.322   8.666  0.5707 -0.0895 -0.1050
 6797SOL    HW131850   4.251   1.295   8.754  0.7801 -1.7606 -0.5519
 6797SOL    HW231851   4.291   1.416   8.680 -0.9923  0.0825  0.1612
 6798SOL     OW31852   0.195   1.536   3.694 -0.4178  0.2238 -0.0745
 6798SOL    HW131853   0.178   1.531   3.600 -1.1799 -0.0149  0.0703
 6798SOL    HW231854   0.107   1.528   3.731  0.5198  0.5201  2.2500
 6799SOL     OW31855   3.930   3.076   1.686 -0.4103 -0.0623  0.4671
 6799SOL    HW131856   4.012   3.106   1.725 -0.2738  1.9033 -1.3579
 6799SOL    HW231857   3.891   3.044   1.768  0.7133 -0.2834  0.9207
 6800SOL     OW31858   2.927   0.209   1.974  0.6865 -0.7590  0.2201
 6800SOL    HW131859   2.920   0.178   2.064 -1.6625  0.1183  0.3442
 6800SOL    HW231860   2.912   0.131   1.921 -4.9853  2.4718 -2.8978
 6801SOL     OW31861   0.835   2.927   2.561 -0.0215  0.3917 -0.2302
 6801SOL    HW131862   0.838   2.841   2.602 -1.3900  0.0998 -0.7248
 6801SOL    HW231863   0.900   2.914   2.492 -0.6393 -1.1254 -0.5373
 6802SOL     OW31864   2.523   0.910   6.280 -0.4423  0.5621  0.0718
 6802SOL    HW131865   2.431   0.914   6.254 -0.9894 -2.8046  1.4530
 6802SOL    HW231866   2.517   0.877   6.370 -0.4676 -1.3937 -0.6509
 6803SOL     OW31867   3.209   0.837   6.943  0.3861  0.2422 -0.3080
 6803SOL    HW131868   3.114   0.824   6.945  0.7002 -2.3930 -1.4677
 6803SOL    HW231869   3.201   0.925   6.978  2.1671 -0.2895  1.4282
 6804SOL     OW31870   4.000   4.558   9.009  0.2331 -0.5100 -0.2209
 6804SOL    HW131871   3.947   4.494   8.962  1.4265 -1.2429 -0.5542
 6804SOL    HW231872   4.017   4.509   9.089  1.1174  0.5211  0.2218
 6805SOL     OW31873   2.281   3.484  17.212  0.7082  0.1079 -0.6847
 6805SOL    HW131874   2.282   3.574  17.179  1.2281  0.3892  0.0958
 6805SOL    HW231875   2.205   3.489  17.269  0.1288 -0.7652 -1.3920
 6806SOL     OW31876   4.263   2.173   2.755 -0.1384  0.6322 -0.2913
 6806SOL    HW131877   4.175   2.197   2.726  0.1707  0.3430 -1.4423
 6806SOL    HW231878   4.293   2.264   2.766  1.2235  0.3696 -1.8416
 6807SOL     OW31879   2.874   1.340  13.133 -0.0637 -0.4544 -0.5223
 6807SOL    HW131880   2.891   1.401  13.205 -1.6033  1.5816 -1.9006
 6807SOL    HW231881   2.837   1.263  13.176 -1.1061 -0.4052 -1.3421
 6808SOL     OW31882   0.139   2.726  17.644 -0.4018  0.1091  0.5370
 6808SOL    HW131883   0.048   2.728  17.672 -1.3805  0.0153 -2.6003
 6808SOL    HW231884   0.129   2.703  17.552  1.3606  1.6570 -0.0383
 6809SOL     OW31885   2.032   3.769  11.881 -0.3642 -0.1276  0.3152
 6809SOL    HW131886   2.123   3.755  11.856 -0.4206  0.4538 -0.2155
 6809SOL    HW231887   2.040   3.844  11.940  2.3091 -1.3892  1.5697
 6810SOL     OW31888   0.981   2.876   7.425 -0.2649  0.7660 -0.0542
 6810SOL    HW131889   0.984   2.870   7.329 -0.2689 -0.6556  0.0256
 6810SOL    HW231890   1.017   2.962   7.445  0.6367  0.1057  1.1692
 6811SOL     OW31891   1.045   1.322  17.018  0.7684 -0.7192 -0.1610
 6811SOL    HW131892   1.115   1.332  17.083  0.6300 -0.0752 -0.1108
 6811SOL    HW231893   1.044   1.227  17.004  0.6427 -0.5084 -1.5034
 6812SOL     OW31894   2.739   0.139   9.078 -0.2057 -0.0799  0.4100
 6812SOL    HW131895   2.765   0.062   9.027  1.0804 -1.2842  2.9002
 6812SOL    HW231896   2.643   0.137   9.077 -0.1814 -1.5751  0.6433
 6813SOL     OW31897   3.931   0.195  13.589  0.0933  0.4680 -0.2656
 6813SOL    HW131898   3.883   0.156  13.662  1.0396 -0.2928 -0.0330
 6813SOL    HW231899   4.020   0.162  13.604  0.8936  1.9339 -1.7316
 6814SOL     OW31900   2.297   3.186   8.579  0.3603  0.0786 -0.5386
 6814SOL    HW131901   2.346   3.113   8.616  0.3149 -0.0866 -0.8033
 6814SOL    HW231902   2.287   3.142   8.494 -1.8704  0.0922 -0.2776
 6815SOL     OW31903   2.759   2.791   8.377 -0.0984  0.4503  0.2370
 6815SOL    HW131904   2.664   2.791   8.364  0.0738 -2.0747 -1.0886
 6815SOL    HW231905   2.783   2.728   8.308 -0.9469  0.5364 -0.1346
 6816SOL     OW31906   1.329   1.660   8.437 -0.1766  0.9437  0.2390
 6816SOL    HW131907   1.292   1.602   8.503  1.6351 -0.9151 -0.3604
 6816SOL    HW231908   1.417   1.640   8.470  0.2471  0.5810 -1.0886
 6817SOL     OW31909   3.018   0.743  10.521 -0.1898  0.1982 -0.4243
 6817SOL    HW131910   2.973   0.713  10.600  1.5417  1.1442  0.9157
 6817SOL    HW231911   3.000   0.837  10.519 -0.7478  0.0889 -0.5193
 6818SOL     OW31912   0.247   1.570   4.542 -0.4068 -0.2998 -0.5558
 6818SOL    HW131913   0.330   1.563   4.588  0.6866  2.8820 -2.0099
 6818SOL    HW231914   0.217   1.480   4.528 -3.2346  0.6012 -0.1865
 6819SOL     OW31915   2.736   4.630  11.758 -0.0918 -0.2903 -0.1241
 6819SOL    HW131916   2.684   4.664  11.685  0.3591  0.2965 -0.1770
 6819SOL    HW231917   2.810   4.691  11.754 -0.8086  0.4463 -2.4183
 6820SOL     OW31918   4.696   0.560  17.315  0.1998 -0.3576  0.2854
 6820SOL    HW131919   4.604   0.572  17.340 -0.5142 -2.8349 -1.0717
 6820SOL    HW231920   0.015   0.610  17.384 -1.1184  0.5549  0.4380
 6821SOL     OW31921   2.144   0.893   4.556  0.0533 -0.4945 -0.0412
 6821SOL    HW131922   2.233   0.901   4.520 -0.4648  1.0083 -1.0061
 6821SOL    HW231923   2.150   0.906   4.650  1.9143  2.4702 -0.5663
 6822SOL     OW31924   2.228   1.721  11.347 -0.1338  0.0983 -0.5522
 6822SOL    HW131925   2.252   1.804  11.306 -1.1212  0.4958 -0.3316
 6822SOL    HW231926   2.134   1.727  11.330 -0.1463  0.0786 -0.4865
 6823SOL     OW31927   3.937   2.770  12.040 -0.2104 -0.1109  0.2086
 6823SOL    HW131928   4.020   2.818  12.043 -0.8858  1.0646 -0.0473
 6823SOL    HW231929   3.877   2.840  12.012  0.7124 -0.7491 -3.3032
 6824SOL     OW31930   1.139   3.711   2.056  0.2455  0.1123 -0.1514
 6824SOL    HW131931   1.206   3.697   1.989  2.9900 -0.3474  2.6884
 6824SOL    HW231932   1.077   3.639   2.045  0.4993 -0.3946  1.6929
 6825SOL     OW31933   1.078   3.313  13.343  0.4219  0.5045 -0.6499
 6825SOL    HW131934   1.009   3.372  13.312 -2.0004 -2.1870 -0.3245
 6825SOL    HW231935   1.116   3.365  13.413 -2.6542  0.4744  1.0657
 6826SOL     OW31936   3.194   0.199   9.647 -0.0922 -0.7333  0.2511
 6826SOL    HW131937   3.264   0.252   9.685  0.4728 -0.6546 -0.8911
 6826SOL    HW231938   3.153   0.253   9.580  1.1522  0.2204  0.2464
 6827SOL     OW31939   4.150   1.757   0.128  0.0449  0.0477 -0.0837
 6827SOL    HW131940   4.228   1.771   0.181 -0.6231  1.6323  0.4554
 6827SOL    HW231941   4.134   1.665   0.149  1.4569 -0.4880 -1.2480
 6828SOL     OW31942   4.011   2.323   5.497  0.2169 -0.9278  0.0385
 6828SOL    HW131943   3.973   2.244   5.460 -0.0851 -1.9486  2.5237
 6828SOL    HW231944   4.021   2.295   5.588 -2.2865  1.7620  1.1355
 6829SOL     OW31945   2.602   0.555  10.105 -0.1565 -0.2089 -0.1929
 6829SOL    HW131946   2.553   0.502  10.042  0.8532 -0.3474 -0.8586
 6829SOL    HW231947   2.682   0.503  10.113 -0.9679 -0.9631  2.7753
 6830SOL     OW31948   0.199   2.369   2.116  0.0123 -0.1043  0.3297
 6830SOL    HW131949   0.104   2.380   2.113 -0.1901 -2.1392 -1.2012
 6830SOL    HW231950   0.197   2.294   2.175  2.5239  0.4110  1.0839
 6831SOL     OW31951   3.838   4.152   6.525  0.1417 -0.1041  0.2685
 6831SOL    HW131952   3.898   4.222   6.552 -1.7382  0.5560  2.7876
 6831SOL    HW231953   3.778   4.145   6.599 -1.6631 -1.1198 -1.3195
 6832SOL     OW31954   4.333   2.732  12.215 -0.1145  0.5204 -0.4104
 6832SOL    HW131955   4.293   2.818  12.209 -1.0035  0.1640  0.4598
 6832SOL    HW231956   4.386   2.736  12.295 -1.1182 -2.6964  0.4091
 6833SOL     OW31957   4.719   0.239  13.206 -0.0885 -0.0504  0.1498
 6833SOL    HW131958   0.064   0.277  13.263  1.5345 -2.4864 -0.1479
 6833SOL    HW231959   0.030   0.284  13.128 -1.9853  0.5984 -0.2803
 6834SOL     OW31960   4.638   0.850  14.461 -0.0579 -0.3151  0.2144
 6834SOL    HW131961   4.692   0.926  14.439  0.7594 -0.8264  0.4564
 6834SOL    HW231962   4.617   0.832  14.370  1.6892 -0.2307 -0.2058
 6835SOL     OW31963   0.979   2.452  17.473  0.3260 -0.0537 -0.5409
 6835SOL    HW131964   0.897   2.423  17.432  1.8939 -2.8809 -1.7196
 6835SOL    HW231965   0.961   2.544  17.491  0.4570 -0.8055  3.2925
 6836SOL     OW31966   4.588   0.427  11.944  0.4006 -0.3533 -0.6612
 6836SOL    HW131967   4.625   0.340  11.933  2.0342  0.4209 -1.3405
 6836SOL    HW231968   4.567   0.415  12.037  0.0850  1.3558 -0.4954
 6837SOL     OW31969   4.658   3.003  17.466 -0.5637  0.3623 -0.2137
 6837SOL    HW131970   4.667   3.076  17.404  2.1602  0.9082  0.8258
 6837SOL    HW231971   4.602   3.033  17.538  0.7174 -1.3089  1.4521
 6838SOL     OW31972   3.544   4.672   4.573  0.5139  0.5099  0.7236
 6838SOL    HW131973   3.527   4.643   4.483  0.3525  0.5599  0.7390
 6838SOL    HW231974   3.636   4.695   4.584  1.4769 -2.0997 -1.7165
 6839SOL     OW31975   1.752   2.689   0.584  0.1447  0.8226 -0.4809
 6839SOL    HW131976   1.681   2.693   0.647  0.1585  0.4241 -0.4374
 6839SOL    HW231977   1.825   2.717   0.640  0.4328  1.5706 -1.2311
 6840SOL     OW31978   0.919   3.615   9.615  0.5426 -0.6819 -0.0570
 6840SOL    HW131979   0.854   3.549   9.591 -0.4807 -0.0525  0.9408
 6840SOL    HW231980   0.965   3.574   9.688  1.1894  0.6833  0.3054
 6841SOL     OW31981   2.342   0.797   7.923 -0.3042 -0.0154 -0.3461
 6841SOL    HW131982   2.356   0.891   7.926  0.0325 -0.0887  0.3974
 6841SOL    HW231983   2.417   0.769   7.870  0.8987  0.0102  1.3307
 6842SOL     OW31984   2.380   3.944   2.859 -0.1310 -0.5528  0.0361
 6842SOL    HW131985   2.383   3.880   2.788 -1.0433  0.8860 -1.2663
 6842SOL    HW231986   2.323   4.004   2.812 -0.7925 -1.6553 -0.5736
 6843SOL     OW31987   2.013   4.031   2.435  0.2917 -0.1622  0.2618
 6843SOL    HW131988   1.971   4.010   2.352  1.5183  1.0163 -0.6575
 6843SOL    HW231989   2.106   4.038   2.415  0.0710 -1.8116 -1.3382
 6844SOL     OW31990   2.905   1.536   8.093  0.1135  0.4925 -0.4924
 6844SOL    HW131991   2.881   1.577   8.176  1.4422 -0.3783  0.3178
 6844SOL    HW231992   2.999   1.550   8.091  0.1014  0.4164 -1.7553
 6845SOL     OW31993   0.086   3.953   5.127  0.0742  0.3910 -0.0704
 6845SOL    HW131994   0.117   3.867   5.096 -1.1580  0.2136 -0.7800
 6845SOL    HW231995   0.106   3.948   5.221 -2.1784  0.1091  0.3845
 6846SOL     OW31996   3.919   0.277   5.713 -0.4076  0.4572 -0.1233
 6846SOL    HW131997   3.975   0.346   5.750 -0.2780  0.4418 -0.2912
 6846SOL    HW231998   3.956   0.260   5.627  1.2852 -0.3839  0.7753
 6847SOL     OW31999   2.408   1.636   6.324 -0.2752  0.1912 -0.1626
 6847SOL    HW132000   2.407   1.540   6.323 -0.8906  0.2078 -1.0483
 6847SOL    HW232001   2.476   1.654   6.389  0.7843 -1.7069 -0.7496
 6848SOL     OW32002   0.124   0.642   6.530  0.2505  0.3853  1.1819
 6848SOL    HW132003   0.130   0.572   6.464  0.5674  2.6210 -1.1553
 6848SOL    HW232004   0.030   0.641   6.547  0.2239  0.6142  1.0495
 6849SOL     OW32005   0.335   3.515   0.187 -0.2021 -0.1017 -0.5607
 6849SOL    HW132006   0.323   3.608   0.207 -2.0656 -0.7909  1.4513
 6849SOL    HW232007   0.280   3.470   0.251 -1.9856  1.0926 -1.2345
 6850SOL     OW32008   4.504   0.832   7.187  0.5669 -0.2912  0.0161
 6850SOL    HW132009   4.487   0.794   7.101 -3.2578  2.0834 -0.2780
 6850SOL    HW232010   4.570   0.899   7.167  1.3427 -2.0423 -3.1251
 6851SOL     OW32011   2.353   3.949   8.753  0.3508  0.4396  0.0011
 6851SOL    HW132012   2.266   3.990   8.751 -0.2335 -0.8542 -1.3377
 6851SOL    HW232013   2.408   4.026   8.739  0.2856  0.9159  2.5208
 6852SOL     OW32014   3.492   2.361   7.014  0.1979 -0.7138  0.0369
 6852SOL    HW132015   3.557   2.339   7.082  0.0232  0.6753  0.6486
 6852SOL    HW232016   3.537   2.343   6.932 -0.5890 -0.9106 -0.3437
 6853SOL     OW32017   3.462   4.089  14.392  0.1395  0.4188  0.4148
 6853SOL    HW132018   3.557   4.084  14.403  0.3023  0.3369 -1.1151
 6853SOL    HW232019   3.446   4.182  14.378 -0.6722 -0.1631 -2.4898
 6854SOL     OW32020   3.703   3.196  14.086 -0.0904 -0.1503  0.0345
 6854SOL    HW132021   3.784   3.158  14.122  0.7385 -0.0168 -1.6900
 6854SOL    HW232022   3.630   3.167  14.141 -0.9631  0.3326 -0.8768
 6855SOL     OW32023   2.009   3.219   3.253  0.3334 -0.3391  0.7928
 6855SOL    HW132024   1.964   3.136   3.238 -0.3727  0.5217 -1.9158
 6855SOL    HW232025   2.092   3.179   3.277 -0.7613 -1.1054  3.2656
 6856SOL     OW32026   3.457   1.029   6.936 -0.4764 -0.0870  0.0851
 6856SOL    HW132027   3.522   0.977   6.889 -0.5886 -1.1677  1.1460
 6856SOL    HW232028   3.390   0.966   6.963 -1.2508  0.2897 -0.9315
 6857SOL     OW32029   4.374   2.459  13.936 -0.0457  0.4195  0.4566
 6857SOL    HW132030   4.414   2.539  13.901 -1.0135  0.7243  0.0534
 6857SOL    HW232031   4.282   2.483  13.922 -0.0570 -0.4904 -1.0707
 6858SOL     OW32032   0.411   3.833   5.742  0.3396 -0.0268  0.1825
 6858SOL    HW132033   0.495   3.860   5.779  1.9574 -2.0557 -1.9562
 6858SOL    HW232034   0.366   3.917   5.740  2.3695  1.0882  1.3563
 6859SOL     OW32035   4.483   1.025   8.840  0.6296 -0.3084  0.2043
 6859SOL    HW132036   4.457   1.088   8.772  1.8339  0.4831  0.4759
 6859SOL    HW232037   4.415   0.959   8.826  0.4760  0.0627 -0.8493
 6860SOL     OW32038   1.510   1.012   8.069 -0.6590  0.1691  0.0263
 6860SOL    HW132039   1.527   0.943   8.005 -1.2282  1.1964 -1.2440
 6860SOL    HW232040   1.496   1.080   8.002 -2.6932 -0.0181  0.2442
 6861SOL     OW32041   0.112   3.802  12.687  0.4034  0.3567  0.2942
 6861SOL    HW132042   0.168   3.730  12.716  0.2389  0.2979  0.4686
 6861SOL    HW232043   0.152   3.880  12.726  0.6392  0.4687 -0.1712
 6862SOL     OW32044   0.871   1.673  15.985  0.7595 -0.2315 -0.5737
 6862SOL    HW132045   0.916   1.654  15.902 -1.1146  0.6232 -1.7831
 6862SOL    HW232046   0.834   1.760  15.976  0.9046 -0.3080 -1.9174
 6863SOL     OW32047   1.271   2.345   8.053  0.1698 -0.0944  0.1916
 6863SOL    HW132048   1.353   2.301   8.029  0.8966  1.4629 -0.1572
 6863SOL    HW232049   1.288   2.360   8.146 -0.8723  0.5116  0.2772
 6864SOL     OW32050   0.978   0.687   8.009  0.2131  0.3395  0.7383
 6864SOL    HW132051   0.979   0.640   7.925  0.4226  0.6670  0.5562
 6864SOL    HW232052   1.031   0.765   7.992 -0.7971  0.5381 -1.5429
 6865SOL     OW32053   3.584   2.115   2.326  1.1248  0.0938  0.3457
 6865SOL    HW132054   3.602   2.064   2.248  1.1078 -1.3770  1.2904
 6865SOL    HW232055   3.554   2.038   2.376  0.0499  0.8093  0.8111
 6866SOL     OW32056   2.523   2.577  17.277  0.3322 -0.0154 -0.0687
 6866SOL    HW132057   2.587   2.527  17.226 -0.0884  0.5695 -1.1710
 6866SOL    HW232058   2.469   2.617  17.209  1.4119  0.5357 -0.5978
 6867SOL     OW32059   4.629   0.051   3.879 -0.2128  0.1153 -0.1980
 6867SOL    HW132060   4.551   0.025   3.927 -0.9365 -0.1946 -1.5340
 6867SOL    HW232061   4.630   4.713   3.805 -2.5960  1.0969 -1.0322
 6868SOL     OW32062   1.959   3.542   4.315  0.1995  0.0889 -0.0544
 6868SOL    HW132063   1.969   3.559   4.221  1.2416  1.3701  0.2960
 6868SOL    HW232064   2.053   3.533   4.329 -0.3533 -2.8700  1.7422
 6869SOL     OW32065   2.999   1.833   4.187  0.2264  0.0876 -0.2147
 6869SOL    HW132066   3.084   1.877   4.187 -1.0790  2.5782  0.5695
 6869SOL    HW232067   3.017   1.755   4.240 -1.7911 -1.9386 -2.5490
 6870SOL     OW32068   3.114   3.584   8.034 -0.1118 -0.3443  0.0475
 6870SOL    HW132069   3.194   3.565   8.083  0.5835  0.0373 -0.9421
 6870SOL    HW232070   3.100   3.675   8.060  3.2758  0.7727 -2.0900
 6871SOL     OW32071   3.685   1.354  11.241 -0.2531 -0.3128  0.6084
 6871SOL    HW132072   3.718   1.265  11.225 -0.2936  0.0901 -1.6026
 6871SOL    HW232073   3.683   1.386  11.151  2.2047 -2.8211 -0.3492
 6872SOL     OW32074   4.624   2.905   2.934  0.2651 -0.4272 -0.4523
 6872SOL    HW132075   4.679   2.847   2.986 -2.1104 -0.8955  1.5307
 6872SOL    HW232076   4.603   2.861   2.852 -1.4069 -0.4043 -0.0418
 6873SOL     OW32077   3.582   3.353   1.135  0.0413 -0.1483 -0.1221
 6873SOL    HW132078   3.502   3.305   1.156  0.6513 -0.2675  1.9885
 6873SOL    HW232079   3.617   3.368   1.223 -1.0025 -0.0318  0.2731
 6874SOL     OW32080   4.272   3.838  15.677 -0.3429 -0.1695 -0.1752
 6874SOL    HW132081   4.323   3.853  15.598 -0.8481  0.3590 -0.4005
 6874SOL    HW232082   4.281   3.743  15.671 -1.1118 -0.1172 -1.9655
 6875SOL     OW32083   3.102   1.139   9.199  0.3886  0.2805 -0.0967
 6875SOL    HW132084   3.072   1.204   9.262 -1.2114  0.1019 -0.6762
 6875SOL    HW232085   3.027   1.083   9.218  0.6670 -0.3708 -0.9087
 6876SOL     OW32086   1.330   2.091   1.309 -0.4572  0.2057 -0.0889
 6876SOL    HW132087   1.327   2.039   1.389 -1.1223 -0.7978 -0.7658
 6876SOL    HW232088   1.244   2.132   1.310 -0.8233 -0.5585 -0.5349
 6877SOL     OW32089   0.002   1.938   1.635 -0.5231 -0.1715  0.1318
 6877SOL    HW132090   0.035   1.858   1.675 -1.4742 -0.4506  0.3724
 6877SOL    HW232091   4.644   1.912   1.590 -0.0310 -1.4028 -0.0399
 6878SOL     OW32092   3.252   3.257   7.183 -0.2484  0.0199 -0.1930
 6878SOL    HW132093   3.204   3.178   7.159 -0.4913  0.2268 -0.3839
 6878SOL    HW232094   3.177   3.312   7.159 -0.9044 -1.4496 -1.5557
 6879SOL     OW32095   4.470   2.482  17.177 -0.3256  0.2787 -0.2028
 6879SOL    HW132096   4.561   2.487  17.150  0.2583 -2.3406  1.3191
 6879SOL    HW232097   4.465   2.387  17.188 -1.9874  0.3074 -0.5905
 6880SOL     OW32098   3.966   3.027  17.387  0.4499  0.2370  0.9294
 6880SOL    HW132099   4.052   3.003  17.351  0.8004  0.3670  1.6873
 6880SOL    HW232100   3.950   3.108  17.338  1.3186  1.2340  2.2857
 6881SOL     OW32101   4.447   3.624   9.387 -0.5121 -0.3520 -0.0987
 6881SOL    HW132102   4.459   3.558   9.318 -0.0281  1.2575 -1.5638
 6881SOL    HW232103   4.415   3.562   9.452  0.4106  2.2246  2.7972
 6882SOL     OW32104   1.672   4.639   0.281  0.6869  0.8373  0.0287
 6882SOL    HW132105   1.758   4.624   0.242  1.1012  0.5839  1.0339
 6882SOL    HW232106   1.678   4.723   0.327  1.6083 -1.2586  3.7766
 6883SOL     OW32107   3.708   1.784   0.016  0.1501 -0.0579  0.2571
 6883SOL    HW132108   3.653   1.801   0.093  1.7434 -1.3182  1.6531
 6883SOL    HW232109   3.767   1.717   0.049 -1.6626 -1.4756  0.6426
 6884SOL     OW32110   2.070   4.536   4.637 -0.2090  0.0566 -0.2970
 6884SOL    HW132111   2.050   4.452   4.596  2.5453 -0.6824 -0.0723
 6884SOL    HW232112   1.991   4.550   4.690  0.2265  0.0609  0.3428
 6885SOL     OW32113   3.480   4.114   2.834  0.0417 -0.3644  0.1342
 6885SOL    HW132114   3.429   4.160   2.767  0.4744 -0.7582 -0.4714
 6885SOL    HW232115   3.406   4.060   2.862  0.2117 -0.6468  0.0493
 6886SOL     OW32116   0.307   4.217  16.319  0.3287 -0.2178 -0.4078
 6886SOL    HW132117   0.320   4.182  16.407 -0.6732  0.5788  0.0493
 6886SOL    HW232118   0.218   4.251  16.322  0.8849  1.0765  1.3601
 6887SOL     OW32119   3.170   0.074  10.529 -0.6337  0.2744  1.0514
 6887SOL    HW132120   3.146   0.005  10.591 -0.7898 -1.4382 -0.9049
 6887SOL    HW232121   3.103   0.056  10.463  0.1777  3.3378 -0.6276
 6888SOL     OW32122   0.811   2.646   6.993 -0.1473 -0.0046  0.1465
 6888SOL    HW132123   0.876   2.665   6.925 -1.7820  1.2983 -1.0621
 6888SOL    HW232124   0.739   2.692   6.951  1.2949  1.6407 -0.5502
 6889SOL     OW32125   3.140   4.269  15.984 -0.4059  0.1627 -0.2206
 6889SOL    HW132126   3.231   4.298  15.989 -0.2782 -0.2356 -0.2402
 6889SOL    HW232127   3.100   4.348  16.019 -2.0576 -0.9898  0.4756
 6890SOL     OW32128   3.785   0.161   5.941 -0.1986 -0.2434  0.4452
 6890SOL    HW132129   3.834   0.200   5.869  0.4332  0.7349  1.4199
 6890SOL    HW232130   3.758   0.244   5.979 -0.8030 -0.4011  0.3578
 6891SOL     OW32131   1.298   1.721   2.424  0.3425 -0.3853 -0.2118
 6891SOL    HW132132   1.218   1.713   2.475 -0.0314 -0.2958 -0.7856
 6891SOL    HW232133   1.271   1.762   2.342  3.6715 -0.1646 -1.2063
 6892SOL     OW32134   1.499   1.484  14.126 -0.1880  0.2967  0.5662
 6892SOL    HW132135   1.576   1.471  14.069  0.3892 -2.5216  1.9705
 6892SOL    HW232136   1.442   1.410  14.107 -1.9979  2.3921 -2.1785
 6893SOL     OW32137   1.457   1.523   3.593 -0.3863  0.0143  0.5391
 6893SOL    HW132138   1.378   1.483   3.629 -0.8038  0.6169  0.3020
 6893SOL    HW232139   1.522   1.521   3.663  0.8959 -0.9970 -0.6724
 6894SOL     OW32140   3.156   3.026  12.635  0.8553  0.3074  0.1664
 6894SOL    HW132141   3.119   3.114  12.646  1.0958 -0.1760  4.6611
 6894SOL    HW232142   3.096   2.972  12.685 -0.8302  2.7389  0.7995
 6895SOL     OW32143   1.343   4.689  11.078  0.2760  0.1439 -0.1334
 6895SOL    HW132144   1.312   0.056  11.072  3.5038  1.2091 -1.0943
 6895SOL    HW232145   1.285   4.640  11.136 -0.7555  0.4799 -0.8705
 6896SOL     OW32146   4.323   2.689   7.039  0.0945  0.4391  0.4390
 6896SOL    HW132147   4.344   2.780   7.055 -1.9335  0.8432  0.9022
 6896SOL    HW232148   4.411   2.657   7.021  0.1327  1.5271 -1.2697
 6897SOL     OW32149   3.723   1.079  12.427 -0.8190 -0.0729  0.4983
 6897SOL    HW132150   3.727   1.170  12.397 -0.3985 -0.4916 -0.7006
 6897SOL    HW232151   3.636   1.069  12.466 -0.6403 -2.3598  0.2740
 6898SOL     OW32152   1.509   4.012   7.161 -0.0559  0.2410 -0.8285
 6898SOL    HW132153   1.453   4.053   7.226  1.4282  1.6137 -0.4207
 6898SOL    HW232154   1.460   3.935   7.131 -1.4060  0.4460  0.8366
 6899SOL     OW32155   1.897   3.962   5.775  0.1695 -0.7834 -0.2945
 6899SOL    HW132156   1.903   3.929   5.685 -2.8057 -1.1557 -0.3761
 6899SOL    HW232157   1.804   3.983   5.785  0.2772 -1.3835  1.8120
 6900SOL     OW32158   4.052   2.856   2.431 -0.0490  0.5864 -0.7611
 6900SOL    HW132159   4.019   2.767   2.447  0.8683  0.4854  0.5968
 6900SOL    HW232160   3.969   2.898   2.451 -2.2956 -3.0149 -2.5738
 6901SOL     OW32161   3.295   0.472   5.782 -0.6685 -0.4634  0.1575
 6901SOL    HW132162   3.288   0.567   5.771  2.0363 -0.3567 -0.8361
 6901SOL    HW232163   3.340   0.443   5.702 -0.2112 -1.4102  0.7529
 6902SOL     OW32164   3.009   4.186  16.217  0.0626 -0.1125  0.0613
 6902SOL    HW132165   3.033   4.133  16.292  1.5564  3.1454  1.8929
 6902SOL    HW232166   3.087   4.178  16.162 -0.2092  0.3266 -0.3899
 6903SOL     OW32167   1.823   2.048  11.348  0.1322 -0.3190  0.2157
 6903SOL    HW132168   1.820   1.978  11.282 -1.5996 -1.2607  1.3033
 6903SOL    HW232169   1.802   1.994  11.424 -0.2831 -0.9002 -0.3173
 6904SOL     OW32170   2.191   1.899  13.353 -0.2325 -0.1616  0.3994
 6904SOL    HW132171   2.147   1.864  13.430  0.3698  0.0134  0.8227
 6904SOL    HW232172   2.241   1.822  13.327 -2.2651 -1.0658 -0.8086
 6905SOL     OW32173   0.017   3.427  15.634  0.2020 -0.4095  0.0344
 6905SOL    HW132174   0.020   3.495  15.701  1.0687  0.2283 -0.6468
 6905SOL    HW232175   0.055   3.472  15.558 -1.0813 -0.0060 -0.3705
 6906SOL     OW32176   2.367   0.504   8.528  0.0980 -0.3774  0.4250
 6906SOL    HW132177   2.295   0.549   8.571 -1.7263 -1.6998 -1.2335
 6906SOL    HW232178   2.366   0.560   8.450 -2.0092 -1.5292 -0.3828
 6907SOL     OW32179   4.111   1.976   6.150  0.0516 -0.1636  0.3714
 6907SOL    HW132180   4.057   2.051   6.173 -0.0013 -0.2500  0.5327
 6907SOL    HW232181   4.123   1.942   6.239 -1.4808  0.2972  0.7474
 6908SOL     OW32182   0.780   0.304   6.363  0.2885 -0.2502 -0.2773
 6908SOL    HW132183   0.763   0.390   6.325 -1.1671 -0.3714  0.1021
 6908SOL    HW232184   0.747   0.315   6.452 -0.8174 -1.2851 -0.5667
 6909SOL     OW32185   2.273   0.443   9.296  0.1927  0.5513  0.1838
 6909SOL    HW132186   2.264   0.472   9.205 -0.1771 -0.2184 -0.0234
 6909SOL    HW232187   2.312   0.515   9.346 -1.3363  1.1730  0.4689
 6910SOL     OW32188   2.971   0.406   9.120  0.4650 -0.1909 -0.8560
 6910SOL    HW132189   2.949   0.499   9.117  1.3187 -0.0146 -1.9254
 6910SOL    HW232190   2.897   0.376   9.067 -2.1135  2.3656  1.3279
 6911SOL     OW32191   0.636   2.289   2.205  0.5187 -0.6315 -0.1023
 6911SOL    HW132192   0.549   2.329   2.197  0.9789  0.1356 -1.3085
 6911SOL    HW232193   0.618   2.255   2.293  1.4539 -3.1052 -0.8693
 6912SOL     OW32194   1.739   0.121   8.137 -0.7307 -0.0279 -0.0266
 6912SOL    HW132195   1.714   0.193   8.195  1.5524  1.3416 -0.7383
 6912SOL    HW232196   1.744   0.177   8.059  1.3081 -0.0224  0.1153
 6913SOL     OW32197   2.823   3.321   2.193  0.8293  0.1084 -0.4470
 6913SOL    HW132198   2.824   3.256   2.123 -0.5925 -2.0720  1.5801
 6913SOL    HW232199   2.881   3.276   2.254 -0.4549 -1.1501 -0.1424
 6914SOL     OW32200   1.601   3.875   4.744  0.0372 -0.0160 -0.0283
 6914SOL    HW132201   1.581   3.920   4.661 -1.5157  1.2516  1.0142
 6914SOL    HW232202   1.621   3.794   4.697  0.4941  0.5141 -0.7643
 6915SOL     OW32203   2.520   4.559   8.217 -0.1823 -0.3065  0.0481
 6915SOL    HW132204   2.605   4.528   8.187 -1.2863 -1.0675 -2.3090
 6915SOL    HW232205   2.544   4.652   8.222  1.7242 -0.7814 -0.4207
 6916SOL     OW32206   1.390   0.476   4.364 -0.5621 -0.9574  0.0403
 6916SOL    HW132207   1.319   0.423   4.327  0.2711  0.2894 -3.4142
 6916SOL    HW232208   1.410   0.425   4.442  1.4111 -2.6145 -1.5529
 6917SOL     OW32209   2.593   3.312   9.217 -0.2849  0.0919 -0.2643
 6917SOL    HW132210   2.567   3.266   9.296  0.9929 -1.8440 -0.9593
 6917SOL    HW232211   2.653   3.375   9.257  1.0755  0.1117 -2.2991
 6918SOL     OW32212   4.196   1.998  15.374 -0.0935  0.0298 -0.4751
 6918SOL    HW132213   4.172   2.091  15.374 -1.1674 -0.2584  0.5844
 6918SOL    HW232214   4.143   1.959  15.444 -0.8506  2.8534  0.5139
 6919SOL     OW32215   0.956   4.175   2.870 -0.1946  0.3235 -0.4453
 6919SOL    HW132216   0.954   4.109   2.939 -2.2502  0.1116 -0.7283
 6919SOL    HW232217   0.907   4.252   2.898  1.5238  1.4327 -0.4658
 6920SOL     OW32218   1.465   0.212  13.863 -0.1501  0.3611 -0.1217
 6920SOL    HW132219   1.455   0.305  13.884  0.0500  0.9620 -2.7333
 6920SOL    HW232220   1.472   0.174  13.951 -0.0678  1.2966  0.2751
 6921SOL     OW32221   2.795   2.862  10.252 -0.1549 -0.4388 -0.4017
 6921SOL    HW132222   2.782   2.871  10.158 -0.2040  0.3407 -0.3222
 6921SOL    HW232223   2.724   2.804  10.281 -0.0527 -0.4343 -0.1455
 6922SOL     OW32224   2.998   1.221  17.664 -0.6565 -0.4577  0.5208
 6922SOL    HW132225   2.930   1.154  17.657  1.1052 -2.2561  0.6488
 6922SOL    HW232226   2.960   1.295   0.018 -0.7654  0.5435 -1.1190
 6923SOL     OW32227   2.349   1.489  11.284  0.1918  0.4078 -0.6941
 6923SOL    HW132228   2.321   1.579  11.295 -0.5519  0.4250 -2.7920
 6923SOL    HW232229   2.265   1.448  11.266 -0.2452  1.1147 -0.2225
 6924SOL     OW32230   3.643   0.432   2.761  0.9182 -0.0804  0.3933
 6924SOL    HW132231   3.587   0.358   2.739  1.1540 -0.1586  0.0621
 6924SOL    HW232232   3.656   0.414   2.854  0.9152 -0.2543  0.3613
 6925SOL     OW32233   1.388   4.179   5.097  0.0608 -0.5817  0.2095
 6925SOL    HW132234   1.458   4.229   5.054  1.0437  1.4454  4.1240
 6925SOL    HW232235   1.430   4.094   5.105 -0.7873 -0.9988  0.1956
 6926SOL     OW32236   2.391   3.827   7.665 -0.0418  0.0886 -0.2792
 6926SOL    HW132237   2.424   3.865   7.584  0.2247  0.0802 -0.1741
 6926SOL    HW232238   2.384   3.735   7.641  0.8105  0.5166 -2.1707
 6927SOL     OW32239   1.092   4.696   2.615  0.6552 -0.0333  0.1415
 6927SOL    HW132240   1.119   0.035   2.547 -1.3868  2.8880  1.9835
 6927SOL    HW232241   1.051   0.033   2.678 -1.4672 -0.3458 -0.9526
 6928SOL     OW32242   0.513   0.871   1.020  0.1174 -0.1208 -0.2045
 6928SOL    HW132243   0.497   0.920   1.101  1.6635 -1.3947  0.8779
 6928SOL    HW232244   0.430   0.831   0.996 -0.0451 -1.3816  2.4640
 6929SOL     OW32245   0.196   3.749   4.683  0.0718  0.2725 -0.0926
 6929SOL    HW132246   0.177   3.799   4.604 -0.8280  0.4867  0.2638
 6929SOL    HW232247   0.228   3.821   4.737 -1.8088  0.3628  0.9014
 6930SOL     OW32248   0.341   1.127   7.644 -0.2844 -0.4895 -0.0502
 6930SOL    HW132249   0.309   1.205   7.689 -0.9726 -1.7039  1.5605
 6930SOL    HW232250   0.283   1.136   7.569  1.7541 -0.3931 -1.6155
 6931SOL     OW32251   2.212   3.736   5.518  0.5122  0.2376 -0.3229
 6931SOL    HW132252   2.179   3.823   5.493  0.2494 -0.2563 -1.6666
 6931SOL    HW232253   2.275   3.753   5.589  0.7372 -0.9962 -0.2241
 6932SOL     OW32254   4.343   4.619  14.443 -0.6152 -0.0925  0.1592
 6932SOL    HW132255   4.357   4.676  14.367  0.7783 -0.9398 -0.2140
 6932SOL    HW232256   4.249   4.633  14.453 -1.4283 -3.1781 -3.5113
 6933SOL     OW32257   0.855   3.877   3.837  0.0781 -0.3920  0.4588
 6933SOL    HW132258   0.869   3.964   3.873  0.4951 -0.1324 -0.3370
 6933SOL    HW232259   0.922   3.834   3.890 -1.5427 -1.5956  1.5433
 6934SOL     OW32260   0.356   1.712   8.588 -0.0707  0.3858 -0.3014
 6934SOL    HW132261   0.358   1.652   8.662 -0.1907  0.3021 -0.3669
 6934SOL    HW232262   0.392   1.793   8.625 -1.6022  0.9069  0.0490
 6935SOL     OW32263   0.440   2.334   5.409 -0.3554 -0.2596 -0.1125
 6935SOL    HW132264   0.422   2.320   5.502  0.6435 -1.3906 -0.0870
 6935SOL    HW232265   0.451   2.428   5.398 -0.8114 -0.4436 -2.2589
 6936SOL     OW32266   3.869   0.707  15.304  0.3868 -0.3355  0.0099
 6936SOL    HW132267   3.895   0.773  15.368 -1.5901  1.1687 -0.7715
 6936SOL    HW232268   3.799   0.661  15.349  0.4097 -0.4861 -0.1068
 6937SOL     OW32269   1.261   1.231  16.380  0.3227 -0.3759  0.2206
 6937SOL    HW132270   1.197   1.281  16.433  2.2534  0.8749  1.3626
 6937SOL    HW232271   1.346   1.260  16.411  1.0654  0.2144 -2.4324
 6938SOL     OW32272   0.337   4.607   7.247  0.3057 -0.2261  0.3612
 6938SOL    HW132273   0.393   4.634   7.319  1.6403 -0.9686 -0.4031
 6938SOL    HW232274   0.363   4.516   7.238  0.9631  0.1563 -1.7699
 6939SOL     OW32275   1.255   2.220  11.057 -0.1567 -0.3971  0.8700
 6939SOL    HW132276   1.314   2.292  11.036  1.0723 -1.4011  0.9488
 6939SOL    HW232277   1.245   2.220  11.152 -2.1242  0.3112  0.6750
 6940SOL     OW32278   1.840   0.010   1.997 -0.3598 -0.3643 -0.2109
 6940SOL    HW132279   1.802   0.016   1.910  0.6908  0.3308 -0.6246
 6940SOL    HW232280   1.812   0.098   2.022  0.7325 -0.1562  0.2966
 6941SOL     OW32281   2.668   4.376  11.635 -0.0822 -0.0581  0.2901
 6941SOL    HW132282   2.716   4.441  11.686 -0.0862 -0.2386  0.5227
 6941SOL    HW232283   2.619   4.335  11.705  0.4592  0.9796  1.2780
 6942SOL     OW32284   3.576   2.325   8.683  0.1281  0.0345  0.3924
 6942SOL    HW132285   3.488   2.299   8.712  0.3200  0.4458  1.3601
 6942SOL    HW232286   3.600   2.400   8.738 -0.1884  0.0453  0.5153
 6943SOL     OW32287   0.432   3.812  15.063 -0.6196 -0.2527 -0.0167
 6943SOL    HW132288   0.499   3.816  15.132  0.1676 -1.9252 -0.6866
 6943SOL    HW232289   0.455   3.896  15.023  0.9190 -1.0359 -0.8145
 6944SOL     OW32290   1.500   3.908   5.080 -0.0667  0.0382  0.1785
 6944SOL    HW132291   1.537   3.928   5.166 -1.1995 -0.3557  0.7564
 6944SOL    HW232292   1.560   3.841   5.047  0.8410  0.6126  0.6547
 6945SOL     OW32293   3.349   2.019   5.245 -0.0217  0.0340  0.0014
 6945SOL    HW132294   3.338   2.114   5.253  1.1470  0.1559  0.2256
 6945SOL    HW232295   3.309   2.009   5.159  1.0829 -0.6009 -0.4489
 6946SOL     OW32296   1.249   1.458  17.518 -0.6886  0.2973  0.0319
 6946SOL    HW132297   1.277   1.373  17.554 -1.5250 -0.2161 -0.5415
 6946SOL    HW232298   1.292   1.512  17.585 -0.2033  0.8457 -0.7251
 6947SOL     OW32299   0.464   1.352  14.435 -0.3554  0.9830 -0.3872
 6947SOL    HW132300   0.386   1.334  14.488 -0.5485  1.5134 -0.4876
 6947SOL    HW232301   0.539   1.323  14.487 -1.8475  1.2200  1.9197
 6948SOL     OW32302   3.253   2.447   3.103 -0.1353  0.6468  0.4400
 6948SOL    HW132303   3.340   2.409   3.092 -0.8211 -0.3731 -1.3253
 6948SOL    HW232304   3.192   2.384   3.065  1.6929 -0.3531 -0.8237
 6949SOL     OW32305   3.919   3.978   0.549 -0.1343 -0.0783  0.1377
 6949SOL    HW132306   3.881   4.035   0.483 -2.1289 -0.8598  0.6096
 6949SOL    HW232307   3.870   3.898   0.529 -1.1473  0.1159  1.8472
 6950SOL     OW32308   0.855   2.767   5.074  0.3290  0.7317 -0.3281
 6950SOL    HW132309   0.839   2.837   5.138 -0.7597 -0.9485  1.2269
 6950SOL    HW232310   0.804   2.699   5.118  3.5696  0.2904  2.6780
 6951SOL     OW32311   0.892   0.244   2.386 -0.2958 -0.1156  0.1157
 6951SOL    HW132312   0.896   0.339   2.376  4.0985 -0.3050  0.3909
 6951SOL    HW232313   0.865   0.233   2.477  5.1829 -3.6568  1.3048
 6952SOL     OW32314   2.108   1.723   0.253 -0.4767  0.6838 -0.0188
 6952SOL    HW132315   2.050   1.798   0.239  1.5048  2.2009  0.0201
 6952SOL    HW232316   2.186   1.763   0.215 -1.5231  0.9364 -1.8855
 6953SOL     OW32317   3.041   3.627  12.765 -0.1918  0.3366  0.0043
 6953SOL    HW132318   3.105   3.563  12.794  0.7864  2.5217  2.5960
 6953SOL    HW232319   3.098   3.655  12.693  1.4930 -1.2643  0.7215
 6954SOL     OW32320   0.838   2.305  12.820 -0.0195 -0.0826 -0.6430
 6954SOL    HW132321   0.840   2.386  12.769  1.1241  0.4278  0.2140
 6954SOL    HW232322   0.926   2.303  12.859 -1.5207  0.1530  2.7010
 6955SOL     OW32323   4.109   4.368   9.164 -0.5462  0.3971 -0.0502
 6955SOL    HW132324   4.175   4.363   9.094 -0.9082  2.1182 -0.5108
 6955SOL    HW232325   4.101   4.277   9.192  0.0924 -0.2232 -1.8735
 6956SOL     OW32326   1.202   0.437   2.726  0.0715  0.0564  0.0840
 6956SOL    HW132327   1.193   0.502   2.796  0.1826 -1.4926  1.5168
 6956SOL    HW232328   1.269   0.466   2.665  1.4503 -2.8913  0.2058
 6957SOL     OW32329   1.717   2.058   2.023 -0.2390  0.8191  0.0367
 6957SOL    HW132330   1.659   2.106   1.964 -1.5721 -0.1589  0.5256
 6957SOL    HW232331   1.658   2.061   2.098  0.5123  0.3104  0.6518
 6958SOL     OW32332   2.059   0.234   2.771  0.1197 -0.3858 -0.1486
 6958SOL    HW132333   1.994   0.268   2.832  0.9768  0.2550  0.4166
 6958SOL    HW232334   2.047   0.286   2.691 -0.9943 -0.6109 -0.1180
 6959SOL     OW32335   0.002   1.345  12.378  0.3419  0.1151 -0.1506
 6959SOL    HW132336   4.657   1.281  12.357  1.7760 -1.4668  0.0361
 6959SOL    HW232337   4.680   1.425  12.351  1.7652  1.8557  2.5965
 6960SOL     OW32338   3.353   3.139   0.188  0.0177  0.4368  0.2526
 6960SOL    HW132339   3.290   3.092   0.134  1.2225  0.6823 -1.3774
 6960SOL    HW232340   3.350   3.092   0.271  0.7382  1.5957  0.9313
 6961SOL     OW32341   1.320   3.782   4.853 -0.4633 -0.4053 -0.3232
 6961SOL    HW132342   1.357   3.707   4.899  2.4967  0.6771 -0.9348
 6961SOL    HW232343   1.406   3.820   4.835 -1.1069  0.9712 -0.5005
 6962SOL     OW32344   1.079   3.017   7.922 -0.4925  0.4782  0.3237
 6962SOL    HW132345   0.997   3.065   7.911 -0.3342  0.2504 -1.8693
 6962SOL    HW232346   1.130   3.047   7.847 -2.0763  0.7109 -0.6626
 6963SOL     OW32347   0.667   4.093  16.878  0.4527  0.0241  0.2432
 6963SOL    HW132348   0.641   4.169  16.827 -1.4255 -0.1792  0.8912
 6963SOL    HW232349   0.723   4.121  16.950 -0.5713 -0.1599  1.1102
 6964SOL     OW32350   1.765   2.134   1.356  0.3477  0.1184 -0.1549
 6964SOL    HW132351   1.679   2.149   1.315  0.8815  0.1986 -1.2458
 6964SOL    HW232352   1.784   2.224   1.385 -3.2677  0.8787 -0.1331
 6965SOL     OW32353   3.222   4.060  11.475 -0.0775  0.0867 -0.0754
 6965SOL    HW132354   3.166   4.054  11.397 -0.1334 -0.6474  0.0210
 6965SOL    HW232355   3.166   4.052  11.552 -0.8867 -1.8308 -0.8402
 6966SOL     OW32356   0.219   3.400   6.703 -1.1102 -0.0271  0.1314
 6966SOL    HW132357   0.126   3.408   6.683 -0.8062  1.1275 -0.8620
 6966SOL    HW232358   0.238   3.491   6.723  0.5787 -0.2178 -0.6032
 6967SOL     OW32359   2.729   3.352   4.488 -0.2643 -0.0562  0.1757
 6967SOL    HW132360   2.685   3.437   4.488  1.0995  0.6442 -0.6607
 6967SOL    HW232361   2.782   3.357   4.567 -2.0320 -3.1864  1.5216
 6968SOL     OW32362   4.002   2.587   7.370 -0.4716 -0.5919 -0.5200
 6968SOL    HW132363   3.988   2.610   7.279 -0.2709 -0.0786 -0.4200
 6968SOL    HW232364   4.007   2.673   7.410 -0.5528 -1.9514  2.4317
 6969SOL     OW32365   4.273   1.171   2.443  0.0748 -0.4905  0.1662
 6969SOL    HW132366   4.268   1.105   2.374 -2.0235  1.2529 -1.3279
 6969SOL    HW232367   4.315   1.128   2.518  0.6388  3.1363  1.9507
 6970SOL     OW32368   0.065   0.911   3.626 -0.8058 -0.2161  0.5965
 6970SOL    HW132369   0.011   0.953   3.693 -1.3529  1.3691 -0.8739
 6970SOL    HW232370   0.019   0.827   3.626 -0.1108 -0.6319  3.9722
 6971SOL     OW32371   3.377   1.775   7.623 -0.7124  0.0857  0.5558
 6971SOL    HW132372   3.418   1.737   7.700 -0.9460 -1.4493 -0.0834
 6971SOL    HW232373   3.285   1.769   7.647 -0.8478 -1.4480 -0.3549
 6972SOL     OW32374   2.394   0.951  15.193 -0.0781 -0.1748  0.1096
 6972SOL    HW132375   2.392   0.866  15.237 -0.5975 -0.9797 -1.4902
 6972SOL    HW232376   2.471   0.946  15.137 -0.0471 -1.1838  0.2570
 6973SOL     OW32377   0.643   1.534   2.969  0.1790 -0.1798  0.7232
 6973SOL    HW132378   0.699   1.465   2.934 -0.7937 -2.2772  3.3722
 6973SOL    HW232379   0.643   1.600   2.899 -1.2225 -2.4130 -1.4025
 6974SOL     OW32380   4.435   2.766   5.174 -0.3056 -0.1695 -0.5453
 6974SOL    HW132381   4.434   2.685   5.122  1.4740 -1.3043  1.1797
 6974SOL    HW232382   4.345   2.771   5.206  0.0042  0.9571  0.1454
 6975SOL     OW32383   3.458   4.183   3.423  0.2309 -0.5514 -0.7052
 6975SOL    HW132384   3.405   4.234   3.485 -1.7262 -1.6555 -1.4710
 6975SOL    HW232385   3.444   4.233   3.342  0.2813  1.1881  0.3569
 6976SOL     OW32386   2.593   3.709   7.957  0.2957 -0.6677 -0.2211
 6976SOL    HW132387   2.652   3.677   8.026 -0.5400 -2.7349 -0.4805
 6976SOL    HW232388   2.589   3.634   7.898 -1.7984 -0.5038 -0.2743
 6977SOL     OW32389   1.668   2.547  10.844  0.3380  0.8878  0.2389
 6977SOL    HW132390   1.712   2.560  10.928 -1.8571 -0.3760  1.5884
 6977SOL    HW232391   1.681   2.630  10.798  0.5409  0.5957 -0.2307
 6978SOL     OW32392   3.342   4.371   9.174 -0.2951 -0.9224  0.6277
 6978SOL    HW132393   3.348   4.463   9.197  0.3633 -0.9143  0.4228
 6978SOL    HW232394   3.432   4.339   9.168  0.1570  0.6833 -1.2183
 6979SOL     OW32395   0.084   2.577   8.179  0.0515  0.2137  0.3932
 6979SOL    HW132396   0.007   2.536   8.139 -1.4018  3.1699  0.2186
 6979SOL    HW232397   0.083   2.520   8.256  0.4974 -0.2763  0.0371
 6980SOL     OW32398   1.821   3.096  14.859  0.0432  0.3270 -0.0108
 6980SOL    HW132399   1.773   3.123  14.780 -0.5998  1.4029  0.7512
 6980SOL    HW232400   1.758   3.046  14.911 -1.1854 -0.2561 -2.0645
 6981SOL     OW32401   4.196   0.585   8.787 -0.4002  0.1944  0.0307
 6981SOL    HW132402   4.209   0.680   8.794  1.7845 -0.0240 -0.8204
 6981SOL    HW232403   4.237   0.550   8.866 -0.2390  0.9259  0.2701
 6982SOL     OW32404   3.324   3.246   4.723 -0.0234  0.1550  0.1415
 6982SOL    HW132405   3.310   3.160   4.764 -1.6174  1.0756  1.5487
 6982SOL    HW232406   3.231   3.263   4.704 -0.0725 -1.0272 -0.6314
 6983SOL     OW32407   1.097   3.777   2.570  0.1283 -0.1624 -0.4790
 6983SOL    HW132408   1.081   3.830   2.492  1.2425 -1.6299 -1.7035
 6983SOL    HW232409   1.096   3.683   2.550 -2.2994 -0.4986  1.1864
 6984SOL     OW32410   1.920   4.501   7.120 -0.0204  0.0314 -0.3906
 6984SOL    HW132411   1.847   4.529   7.176  0.9048 -0.8018  1.2545
 6984SOL    HW232412   1.986   4.468   7.180  2.9950  1.5275 -2.9138
 6985SOL     OW32413   0.369   2.027   0.456 -0.2988 -0.2302  0.8496
 6985SOL    HW132414   0.337   2.108   0.417 -0.9213 -0.6527  0.4728
 6985SOL    HW232415   0.341   1.963   0.391  2.8350 -0.3781 -0.3500
 6986SOL     OW32416   4.324   3.630   4.041 -0.5713  0.0754 -0.2628
 6986SOL    HW132417   4.269   3.708   4.051 -0.5514  0.0477  0.0697
 6986SOL    HW232418   4.340   3.616   4.135 -0.6852 -0.7446 -0.3700
 6987SOL     OW32419   4.369   0.113   4.493 -0.1907 -0.6899 -0.3239
 6987SOL    HW132420   4.288   0.065   4.511  0.1114 -1.0965 -0.0664
 6987SOL    HW232421   4.336   0.203   4.486  3.0735  0.5018 -0.3569
 6988SOL     OW32422   3.555   1.664   6.998 -0.3651  0.3511 -0.4318
 6988SOL    HW132423   3.621   1.598   7.022  0.1074  0.8939 -0.2315
 6988SOL    HW232424   3.482   1.605   6.978 -2.1902  3.4516 -2.8909
 6989SOL     OW32425   0.173   1.508   4.058  0.3827 -0.3107 -0.3695
 6989SOL    HW132426   0.244   1.446   4.039 -1.4241 -2.6984  0.7129
 6989SOL    HW232427   0.100   1.448   4.073 -2.1784  2.8891 -0.0693
 6990SOL     OW32428   2.339   1.458  12.700  0.0046  0.4761  0.5112
 6990SOL    HW132429   2.430   1.431  12.708 -0.8765 -2.7628 -0.6439
 6990SOL    HW232430   2.287   1.380  12.717 -1.3063  2.0753  3.9510
 6991SOL     OW32431   3.059   1.200   1.605 -0.0080  0.2016  0.3990
 6991SOL    HW132432   3.110   1.180   1.683 -0.8692 -0.8063  0.6924
 6991SOL    HW232433   2.972   1.196   1.645 -0.2350  0.6438 -0.0435
 6992SOL     OW32434   2.939   0.656  10.788 -0.2170 -0.0081 -0.1377
 6992SOL    HW132435   2.954   0.562  10.797 -3.2694 -0.5263 -0.6532
 6992SOL    HW232436   2.948   0.686  10.878  0.9508  1.3749 -0.7137
 6993SOL     OW32437   2.744   3.063   3.469  0.0803  0.3794  0.3535
 6993SOL    HW132438   2.813   3.043   3.406 -1.1441  0.3597 -0.9953
 6993SOL    HW232439   2.775   3.023   3.550  1.0264 -0.1733 -0.2785
 6994SOL     OW32440   3.116   4.520   1.032 -0.1596 -0.0025  0.0402
 6994SOL    HW132441   3.090   4.576   1.106 -0.8644  0.1128 -0.2931
 6994SOL    HW232442   3.046   4.457   1.051  0.0655 -0.2416  0.0699
 6995SOL     OW32443   1.090   0.085   1.883 -0.3984  0.4706  0.8302
 6995SOL    HW132444   1.044   0.169   1.888 -1.6949 -0.1996 -0.0848
 6995SOL    HW232445   1.144   0.082   1.962 -0.1854 -0.1271  0.6644
 6996SOL     OW32446   2.685   4.042   1.184 -0.3002 -0.2112 -0.3543
 6996SOL    HW132447   2.679   4.120   1.129 -1.2976  1.4740  2.1616
 6996SOL    HW232448   2.650   4.060   1.271  0.6553  1.0535 -0.2403
 6997SOL     OW32449   1.562   4.666   3.588 -0.5586 -0.6577 -0.7678
 6997SOL    HW132450   1.646   4.702   3.616 -0.8869  0.1730 -0.8351
 6997SOL    HW232451   1.578   4.599   3.522 -0.7129 -2.6302  1.1956
 6998SOL     OW32452   1.118   1.972   5.492  0.0556 -0.3267  0.1475
 6998SOL    HW132453   1.135   2.063   5.470 -2.5279 -0.0973 -0.8031
 6998SOL    HW232454   1.114   1.928   5.407 -1.1763  0.5943 -0.2598
 6999SOL     OW32455   2.238   3.943   9.050  0.3399 -0.0584  0.5060
 6999SOL    HW132456   2.301   3.944   9.122  0.3763 -2.2669  0.5287
 6999SOL    HW232457   2.285   3.991   8.983  0.8661 -0.7568  0.3732
 7000SOL     OW32458   4.481   1.714  11.032  0.6443 -0.4714 -0.5632
 7000SOL    HW132459   4.521   1.718  11.119  1.8505  1.2181 -1.1909
 7000SOL    HW232460   4.441   1.627  11.033 -3.1811  1.3317  2.1059
 7001SOL     OW32461   0.594   3.085  12.720  0.2223  0.3350  0.8868
 7001SOL    HW132462   0.521   3.084  12.658  0.3886 -2.6671  0.7120
 7001SOL    HW232463   0.575   3.155  12.782 -1.1178  0.2645  0.5529
 7002SOL     OW32464   1.104   1.154   0.408 -0.5005 -0.0009 -0.2867
 7002SOL    HW132465   1.010   1.170   0.394 -0.1729  1.9122 -0.2450
 7002SOL    HW232466   1.132   1.245   0.412 -0.0198 -0.1313 -0.6909
 7003SOL     OW32467   0.341   0.449  15.400 -0.0138 -0.4248  0.0663
 7003SOL    HW132468   0.394   0.526  15.381  2.1905 -1.5159  1.8497
 7003SOL    HW232469   0.335   0.412  15.312 -0.4141  0.8467 -0.4519
 7004SOL     OW32470   1.060   0.864  15.536  0.0680 -0.4124  0.1525
 7004SOL    HW132471   1.135   0.917  15.508  0.0431 -0.4992 -0.0767
 7004SOL    HW232472   1.106   0.793  15.580 -1.5618 -1.5990 -0.0711
 7005SOL     OW32473   1.503   3.529   7.945 -0.1738 -0.1705  0.3503
 7005SOL    HW132474   1.565   3.594   7.914  1.0984 -1.9840 -0.8828
 7005SOL    HW232475   1.422   3.548   7.897  0.3592  0.8222 -0.1497
 7006SOL     OW32476   3.423   4.721   5.836  0.9014  0.5674  0.0774
 7006SOL    HW132477   3.475   0.077   5.821  0.1553  1.0945  0.2692
 7006SOL    HW232478   3.426   4.711   5.931  2.6653 -2.0573 -0.2686
 7007SOL     OW32479   0.680   3.015   7.672 -0.1924 -0.0281  0.2194
 7007SOL    HW132480   0.694   2.925   7.643  1.5145 -0.0837  1.2116
 7007SOL    HW232481   0.676   3.058   7.586 -0.2570 -1.7166 -0.6169
 7008SOL     OW32482   3.124   4.372   3.246 -0.3920  0.1568 -0.4003
 7008SOL    HW132483   3.105   4.383   3.153 -2.9168 -2.2181 -0.1796
 7008SOL    HW232484   3.095   4.282   3.263  0.2083 -0.2001 -1.2805
 7009SOL     OW32485   4.328   2.864   0.982  0.3567  0.8836 -0.0110
 7009SOL    HW132486   4.295   2.951   0.959  2.4725  1.7070  0.0438
 7009SOL    HW232487   4.328   2.827   0.894  1.3200  1.5356 -0.2888
 7010SOL     OW32488   0.238   3.519  15.141 -0.0989 -0.3593 -0.0827
 7010SOL    HW132489   0.292   3.590  15.106  0.3533 -0.5239  0.2869
 7010SOL    HW232490   0.200   3.483  15.060 -0.3209  0.8000 -0.4990
 7011SOL     OW32491   1.487   1.494   8.207  0.1524  0.5471 -0.6624
 7011SOL    HW132492   1.428   1.536   8.269  0.7066 -0.8619  0.7998
 7011SOL    HW232493   1.535   1.434   8.264  0.2951 -0.1933 -1.5659
 7012SOL     OW32494   2.677   1.731  11.095 -0.0135  0.6778 -0.4943
 7012SOL    HW132495   2.630   1.747  11.177 -0.2329  0.6438 -0.6139
 7012SOL    HW232496   2.615   1.683  11.040 -0.0239 -0.4130  0.4442
 7013SOL     OW32497   3.337   3.254   4.328  0.1852 -0.0154  0.4790
 7013SOL    HW132498   3.315   3.163   4.307  1.4559 -0.0506 -0.7344
 7013SOL    HW232499   3.275   3.312   4.284  1.3130 -0.0191 -1.1119
 7014SOL     OW32500   2.028   3.879   9.345 -0.0308  0.1530  0.3678
 7014SOL    HW132501   2.055   3.970   9.357  2.0711 -0.7822  2.8305
 7014SOL    HW232502   1.961   3.888   9.278  0.9376  0.5113 -0.5473
 7015SOL     OW32503   4.211   3.292   8.116  0.0852  0.1972 -0.4916
 7015SOL    HW132504   4.233   3.317   8.206 -3.1158  1.8662 -0.1709
 7015SOL    HW232505   4.199   3.197   8.120  2.6214 -0.1918 -2.2141
 7016SOL     OW32506   2.819   0.742  12.159  0.0590  0.4499 -0.0151
 7016SOL    HW132507   2.857   0.656  12.175 -0.9807 -0.3109 -1.5914
 7016SOL    HW232508   2.854   0.757  12.071 -0.5840  1.0730 -0.1700
 7017SOL     OW32509   2.632   3.200   0.695 -0.2705  0.3356  0.2446
 7017SOL    HW132510   2.709   3.196   0.752  0.7449  2.3055 -1.0079
 7017SOL    HW232511   2.641   3.291   0.669 -0.8310  0.1018 -0.7457
 7018SOL     OW32512   2.498   2.120   8.260  0.1931 -0.1518  0.5099
 7018SOL    HW132513   2.526   2.106   8.169 -1.4305 -0.0215 -0.0180
 7018SOL    HW232514   2.449   2.199   8.237  0.3332 -0.3833 -0.5956
 7019SOL     OW32515   1.271   1.876   9.368 -0.2172  0.1819  0.0566
 7019SOL    HW132516   1.177   1.875   9.348 -0.2555 -0.4448  0.2837
 7019SOL    HW232517   1.273   1.800   9.425 -1.1290 -0.1939 -0.4175
 7020SOL     OW32518   0.256   2.246   4.611 -0.3193 -0.4173  0.0362
 7020SOL    HW132519   0.257   2.226   4.704 -0.0804 -0.2560  0.0695
 7020SOL    HW232520   0.182   2.193   4.580 -0.5922  0.3900 -0.6948
 7021SOL     OW32521   3.330   4.269   4.142  0.2443 -0.0810 -0.0895
 7021SOL    HW132522   3.407   4.252   4.087  0.6924  1.0027  0.1882
 7021SOL    HW232523   3.346   4.207   4.212  1.8705  0.9790  0.4925
 7022SOL     OW32524   4.233   1.775  15.179 -0.0757  0.0911 -1.0944
 7022SOL    HW132525   4.208   1.725  15.101 -2.4948  2.1190 -1.5918
 7022SOL    HW232526   4.198   1.722  15.251  0.2550 -0.2444 -1.1781
 7023SOL     OW32527   3.072   2.387  14.168 -0.6832 -0.5664  0.2294
 7023SOL    HW132528   3.005   2.455  14.156 -0.1236  0.3637  2.3776
 7023SOL    HW232529   3.086   2.366  14.076 -3.1558  1.1126 -0.5381
 7024SOL     OW32530   4.222   3.381   5.900  0.3797 -0.2632  0.2506
 7024SOL    HW132531   4.281   3.362   5.972 -0.1081  0.5016  0.8553
 7024SOL    HW232532   4.184   3.294   5.885  0.3337  0.1570 -2.0997
 7025SOL     OW32533   3.863   2.674   2.958 -0.4965 -0.3426  0.6480
 7025SOL    HW132534   3.893   2.655   3.047  1.2509 -1.6868 -0.2138
 7025SOL    HW232535   3.945   2.712   2.925  0.1962 -1.8238  0.6509
 7026SOL     OW32536   1.330   1.845   5.255  0.5675  0.2377  0.3595
 7026SOL    HW132537   1.302   1.793   5.330  1.7331 -1.6323 -0.5014
 7026SOL    HW232538   1.352   1.774   5.195  1.2855 -1.3905  2.5655
 7027SOL     OW32539   1.288   4.434   3.245 -0.8215  0.3409  0.6574
 7027SOL    HW132540   1.221   4.370   3.266 -1.3656  0.3479 -1.0671
 7027SOL    HW232541   1.359   4.405   3.303 -1.5313 -3.2747 -0.2784
 7028SOL     OW32542   0.736   2.514  11.721 -0.1918 -0.4803  0.0189
 7028SOL    HW132543   0.662   2.490  11.667 -0.2789  0.5463 -0.3230
 7028SOL    HW232544   0.699   2.596  11.755 -2.2337 -1.4428  0.0571
 7029SOL     OW32545   1.297   1.634  14.224  0.6423  0.3958  0.0572
 7029SOL    HW132546   1.327   1.709  14.173 -1.2553  2.0536  1.3616
 7029SOL    HW232547   1.370   1.573  14.215 -0.4034 -0.8237 -0.1861
 7030SOL     OW32548   4.456   3.080   3.314  0.6368 -0.1253 -0.1868
 7030SOL    HW132549   4.445   3.082   3.219 -1.2384  1.3803  0.0503
 7030SOL    HW232550   4.547   3.053   3.326  0.8082  0.9855  1.0041
 7031SOL     OW32551   4.533   0.805  14.206  0.1709 -0.1194  0.6045
 7031SOL    HW132552   4.460   0.744  14.201  0.5444 -0.3280 -2.0690
 7031SOL    HW232553   4.497   0.892  14.225 -0.9058 -0.0856 -1.6385
 7032SOL     OW32554   0.205   1.323   8.652 -0.0389 -0.1250 -0.0243
 7032SOL    HW132555   0.210   1.405   8.700  1.1350  0.8339 -1.8010
 7032SOL    HW232556   0.114   1.316   8.623 -0.9210  2.3794  2.1455
 7033SOL     OW32557   4.327   3.417   9.590 -0.7807 -0.4424  0.2347
 7033SOL    HW132558   4.363   3.336   9.552 -3.3748 -0.3824 -2.3259
 7033SOL    HW232559   4.238   3.385   9.602 -0.2412 -2.0239  0.0543
 7034SOL     OW32560   3.941   2.869   5.539 -1.0163  0.0400  0.2736
 7034SOL    HW132561   3.874   2.828   5.593 -0.6919 -0.6483  0.1558
 7034SOL    HW232562   3.925   2.962   5.555  1.2783  0.5603 -0.4949
 7035SOL     OW32563   2.539   3.280   1.737  0.1435  0.2865  0.1046
 7035SOL    HW132564   2.578   3.277   1.650 -0.2853  0.0701 -0.0796
 7035SOL    HW232565   2.565   3.193   1.768 -0.1720 -0.0744 -0.6390
 7036SOL     OW32566   1.296   0.645   6.334 -0.2063 -0.2877  0.3781
 7036SOL    HW132567   1.243   0.579   6.379 -0.1488  0.4997  1.6173
 7036SOL    HW232568   1.237   0.655   6.259 -0.0519 -1.0059  0.1616
 7037SOL     OW32569   4.000   3.717  14.680 -0.1318  0.2707  0.2781
 7037SOL    HW132570   4.095   3.729  14.685  0.1176 -1.5978  0.2722
 7037SOL    HW232571   3.977   3.736  14.771 -0.8369  0.2830  0.0967
 7038SOL     OW32572   2.887   3.206   7.053  0.8982  0.3750 -0.2407
 7038SOL    HW132573   2.944   3.251   6.991 -1.5942  0.4870 -2.4127
 7038SOL    HW232574   2.947   3.144   7.095 -0.9856 -0.2584  1.5051
 7039SOL     OW32575   2.431   0.796   9.031 -0.2733  0.3715  0.1741
 7039SOL    HW132576   2.407   0.886   9.053 -0.0304 -0.1661  2.6157
 7039SOL    HW232577   2.358   0.782   8.971  0.1017  1.1738 -0.4658
 7040SOL     OW32578   2.611   2.728   9.316  0.3250  0.0545 -0.2254
 7040SOL    HW132579   2.670   2.804   9.310  0.3881 -0.0491 -0.8589
 7040SOL    HW232580   2.656   2.670   9.255 -1.8696  0.9547 -2.6583
 7041SOL     OW32581   1.062   4.228   6.286 -0.3344 -0.2126  0.0496
 7041SOL    HW132582   1.006   4.164   6.330  1.4218 -1.6922  0.0818
 7041SOL    HW232583   1.125   4.235   6.358 -0.4105  0.0915  0.0874
 7042SOL     OW32584   3.731   3.558   0.806 -0.1011 -0.4055  0.0018
 7042SOL    HW132585   3.659   3.495   0.802  1.9008 -2.5182 -2.0171
 7042SOL    HW232586   3.715   3.601   0.890  0.2633  1.1280 -0.7020
 7043SOL     OW32587   3.097   4.243   2.775 -0.0319 -0.3461 -0.7336
 7043SOL    HW132588   3.186   4.244   2.739  0.2969  0.1035  0.0966
 7043SOL    HW232589   3.106   4.172   2.838 -0.0531  0.5829  0.3245
 7044SOL     OW32590   4.675   4.643  14.131  0.3080 -0.1644 -0.4584
 7044SOL    HW132591   0.038   4.605  14.153  0.8844 -0.4636 -3.2321
 7044SOL    HW232592   4.705   4.719  14.081  0.4189  1.2615  1.7597
 7045SOL     OW32593   4.546   2.371   6.602 -0.1914 -0.0019 -0.1404
 7045SOL    HW132594   4.637   2.358   6.628 -0.3604  0.8454  0.8587
 7045SOL    HW232595   4.505   2.327   6.676 -0.8064 -0.7157 -0.8985
 7046SOL     OW32596   1.941   1.369   2.825  0.0978 -0.0447  0.3305
 7046SOL    HW132597   2.015   1.314   2.852  0.9491 -0.0476 -2.0107
 7046SOL    HW232598   1.981   1.440   2.775 -0.4142  0.4339  0.6080
 7047SOL     OW32599   1.329   0.958   3.957  0.1411 -0.5699 -0.1229
 7047SOL    HW132600   1.313   0.977   3.864 -0.3727  0.2515  0.1413
 7047SOL    HW232601   1.387   0.882   3.949  0.2258 -0.4905 -0.2824
 7048SOL     OW32602   0.875   3.790   6.229  0.2460 -0.6844  0.1171
 7048SOL    HW132603   0.825   3.758   6.154  1.4542 -1.8901 -0.1665
 7048SOL    HW232604   0.960   3.793   6.185  0.3106 -0.6781  0.2427
 7049SOL     OW32605   1.497   0.265   8.963  0.1246  0.2110  0.3401
 7049SOL    HW132606   1.568   0.213   8.927 -0.2027 -1.1176  1.6009
 7049SOL    HW232607   1.430   0.225   8.908  1.0962 -0.9795  0.0428
 7050SOL     OW32608   2.768   3.438   0.875  0.5756  0.1871  0.1818
 7050SOL    HW132609   2.791   3.523   0.911  2.3528  0.1043 -0.7637
 7050SOL    HW232610   2.739   3.403   0.959  2.5585 -1.5068  0.1446
 7051SOL     OW32611   3.054   3.368  17.655  0.1650  0.4395  0.1892
 7051SOL    HW132612   2.999   3.428   0.013  0.2330  0.2889  0.4390
 7051SOL    HW232613   3.074   3.293   0.017 -1.4951 -0.4956 -0.4763
 7052SOL     OW32614   0.173   4.502   6.460  0.2449 -0.6832 -0.0037
 7052SOL    HW132615   0.193   4.538   6.374  4.0005 -2.7073  0.0114
 7052SOL    HW232616   0.196   4.584   6.505 -0.7760 -1.6484  2.2856
 7053SOL     OW32617   2.170   0.138   5.245  0.1353 -0.2102  0.7037
 7053SOL    HW132618   2.227   0.074   5.201 -0.7367 -0.0545 -0.6622
 7053SOL    HW232619   2.136   0.184   5.168  0.4832 -1.2528 -0.0838
 7054SOL     OW32620   2.644   1.257  14.835  0.4122  0.9870 -0.8294
 7054SOL    HW132621   2.601   1.276  14.752 -0.1239 -0.6543 -0.9299
 7054SOL    HW232622   2.737   1.255  14.811  0.8293  1.6411  0.7187
 7055SOL     OW32623   2.688   1.981  11.684 -0.1556 -0.2778  0.7043
 7055SOL    HW132624   2.662   2.049  11.746 -3.8187 -1.3902  0.4143
 7055SOL    HW232625   2.659   2.019  11.601  0.0627 -0.9719  0.3048
 7056SOL     OW32626   1.425   3.435   2.116 -0.0104  0.0775  0.1830
 7056SOL    HW132627   1.462   3.388   2.191 -1.4258 -2.2027 -0.5417
 7056SOL    HW232628   1.334   3.405   2.125  1.5953 -4.7419  0.5991
 7057SOL     OW32629   0.119   2.265   9.224  0.0325 -0.9283  0.4812
 7057SOL    HW132630   0.083   2.324   9.159 -2.2631 -2.1408  0.6440
 7057SOL    HW232631   0.180   2.219   9.166  0.6486 -2.2325  2.1511
 7058SOL     OW32632   3.061   2.524   6.647  0.1425  0.0246  0.1603
 7058SOL    HW132633   3.046   2.522   6.552 -2.3444  2.1917  0.5009
 7058SOL    HW232634   3.022   2.607   6.675 -1.7113 -1.0150  0.6101
 7059SOL     OW32635   2.308   1.199   2.037 -0.2136 -0.0906  0.6048
 7059SOL    HW132636   2.273   1.119   2.077 -0.2349 -0.0543  0.6586
 7059SOL    HW232637   2.397   1.191   2.071 -0.1697  0.0204  0.5127
 7060SOL     OW32638   1.177   2.840   5.179 -0.1648  0.5456 -0.4641
 7060SOL    HW132639   1.111   2.856   5.246  0.9373 -0.0158  0.7574
 7060SOL    HW232640   1.150   2.912   5.122 -0.2031  1.0569  0.1975
 7061SOL     OW32641   2.237   0.078  12.198  0.2076 -0.2909 -0.1590
 7061SOL    HW132642   2.210   0.151  12.254 -0.8852 -3.4411  3.4051
 7061SOL    HW232643   2.329   0.100  12.183  0.3542  0.0420  1.2227
 7062SOL     OW32644   2.900   1.407   5.391 -0.5221 -0.1250 -0.3305
 7062SOL    HW132645   2.931   1.494   5.364 -1.9049  0.3414 -0.4671
 7062SOL    HW232646   2.831   1.429   5.454 -2.2983 -1.4782 -1.7847
 7063SOL     OW32647   3.903   1.429   8.158  0.4759  0.4041  0.5758
 7063SOL    HW132648   3.808   1.446   8.157  0.5068  0.4103 -1.5046
 7063SOL    HW232649   3.929   1.521   8.168  0.4663  0.5099 -0.4417
 7064SOL     OW32650   4.243   1.262   4.363 -0.1692  0.2467  0.2244
 7064SOL    HW132651   4.280   1.191   4.415  0.8231  0.6714  0.0990
 7064SOL    HW232652   4.294   1.265   4.282 -0.2819  0.4921  0.1623
 7065SOL     OW32653   2.640   1.607   8.290  0.3471 -0.0909 -0.6067
 7065SOL    HW132654   2.640   1.679   8.227 -0.3176 -0.1129 -0.6320
 7065SOL    HW232655   2.552   1.626   8.323  0.5894 -0.9671  0.5452
 7066SOL     OW32656   0.516   3.588  14.918 -0.0595  0.3054  0.0103
 7066SOL    HW132657   0.491   3.672  14.956  3.2508  0.2113  2.3882
 7066SOL    HW232658   0.566   3.604  14.837 -1.8338  1.6810 -0.8125
 7067SOL     OW32659   1.475   1.106   4.828 -0.0430 -0.4499  0.3446
 7067SOL    HW132660   1.555   1.067   4.793  0.0551  0.4799 -0.4913
 7067SOL    HW232661   1.479   1.089   4.922  0.0722 -1.0949  0.2203
 7068SOL     OW32662   0.293   2.713   6.761 -0.1484 -0.0686  0.3354
 7068SOL    HW132663   0.288   2.620   6.784 -0.1149 -0.0293  0.5070
 7068SOL    HW232664   0.248   2.703   6.677 -2.5743  2.4861  1.3586
 7069SOL     OW32665   0.607   2.477   5.069 -0.3430  0.0268 -0.2016
 7069SOL    HW132666   0.665   2.507   5.139  1.6071 -1.0824 -1.3431
 7069SOL    HW232667   0.521   2.503   5.102 -1.5760 -1.8722 -1.8631
 7070SOL     OW32668   4.093   4.381   1.859  0.3856  0.2581 -0.0744
 7070SOL    HW132669   4.081   4.291   1.890  1.7551  0.0866 -0.0423
 7070SOL    HW232670   4.156   4.373   1.787  2.3494 -1.3608  1.8363
 7071SOL     OW32671   4.629   1.811   6.300  0.0311 -0.5702  0.8007
 7071SOL    HW132672   4.572   1.799   6.224 -1.8264  0.4335  2.0234
 7071SOL    HW232673   4.568   1.864   6.352  1.5992  0.6693  1.3813
 7072SOL     OW32674   4.088   1.159   7.507  0.2528 -0.7992  0.2656
 7072SOL    HW132675   4.021   1.160   7.575 -1.2223 -0.2182 -1.2062
 7072SOL    HW232676   4.167   1.168   7.561  0.1593 -0.5800  0.3647
 7073SOL     OW32677   4.611   4.389  13.915 -0.1838  0.5228 -0.4592
 7073SOL    HW132678   4.673   4.316  13.918 -1.0436 -0.2336 -1.2869
 7073SOL    HW232679   4.674   4.459  13.900  0.6738 -0.0434  0.5116
 7074SOL     OW32680   2.410   4.661   9.863 -0.2465 -0.3413  0.0435
 7074SOL    HW132681   2.376   0.024   9.889 -0.0219 -0.0969 -0.4792
 7074SOL    HW232682   2.340   4.607   9.899  0.1235 -0.5245  0.4901
 7075SOL     OW32683   3.469   2.251   7.938 -0.1013  0.1261 -0.0089
 7075SOL    HW132684   3.505   2.176   7.891  1.1235 -0.6183  2.1151
 7075SOL    HW232685   3.538   2.288   7.993 -0.3498 -0.1039  0.4497
 7076SOL     OW32686   4.082   1.688  10.804  0.2478 -0.1587  0.1865
 7076SOL    HW132687   4.117   1.750  10.868  1.8469 -0.8027 -0.0560
 7076SOL    HW232688   4.077   1.613  10.862 -1.1033 -2.7276 -3.2647
 7077SOL     OW32689   4.693   1.477   8.534 -0.4145  0.6931 -0.5858
 7077SOL    HW132690   4.641   1.480   8.614  1.8681  0.5412  0.9234
 7077SOL    HW232691   4.692   1.384   8.514 -1.9957  0.4018  0.9378
 7078SOL     OW32692   2.217   0.323   4.022 -0.9308 -0.2679  0.0089
 7078SOL    HW132693   2.165   0.285   4.093 -0.3214  0.8249  1.0433
 7078SOL    HW232694   2.150   0.334   3.955 -0.2726 -0.6849 -0.7142
 7079SOL     OW32695   3.837   3.856   8.887 -0.0601  0.2686 -0.0447
 7079SOL    HW132696   3.921   3.900   8.897 -0.1266 -0.2517  3.0596
 7079SOL    HW232697   3.778   3.930   8.869  1.6499  1.1746 -1.8729
 7080SOL     OW32698   1.477   1.279  10.720  0.1682  0.0138  0.3048
 7080SOL    HW132699   1.536   1.222  10.670  0.1151  0.0362  0.2168
 7080SOL    HW232700   1.396   1.242  10.686 -1.8466  2.0882  2.8905
 7081SOL     OW32701   3.341   2.309   7.613 -0.0769  0.3736 -0.2230
 7081SOL    HW132702   3.355   2.294   7.706 -0.5761 -1.9369 -0.5053
 7081SOL    HW232703   3.384   2.228   7.586  0.3562  0.8521 -0.9846
 7082SOL     OW32704   3.347   1.100   5.456 -0.0323 -0.3657  0.4785
 7082SOL    HW132705   3.289   1.153   5.510 -1.1400 -2.6073  1.4547
 7082SOL    HW232706   3.420   1.163   5.452  0.8592 -1.5389 -1.7247
 7083SOL     OW32707   1.266   4.182   0.585 -0.5298  0.0899  0.3240
 7083SOL    HW132708   1.189   4.127   0.602 -1.0041  1.1391  1.5928
 7083SOL    HW232709   1.251   4.238   0.661 -0.5859 -0.1284  0.4730
 7084SOL     OW32710   4.523   2.021   6.466  0.3693 -0.3285 -0.3893
 7084SOL    HW132711   4.521   2.095   6.404 -0.4930  1.6600  2.0174
 7084SOL    HW232712   4.431   2.026   6.489  0.8946  0.7945  1.4433
 7085SOL     OW32713   2.165   2.601   5.415 -0.5396 -0.9665 -0.1798
 7085SOL    HW132714   2.164   2.608   5.319  1.0479  0.1963 -0.1059
 7085SOL    HW232715   2.189   2.510   5.432 -0.5811 -0.5506  2.1537
 7086SOL     OW32716   2.734   1.806   2.439  0.8993  0.0519 -0.5329
 7086SOL    HW132717   2.736   1.891   2.394 -2.1530  0.5816  0.3765
 7086SOL    HW232718   2.724   1.750   2.363 -3.2371  0.9666 -0.6454
 7087SOL     OW32719   3.212   1.141   2.966  0.1126  0.2596 -0.6109
 7087SOL    HW132720   3.297   1.099   2.961  0.5474  1.1010 -0.3142
 7087SOL    HW232721   3.181   1.139   2.876 -0.2905  2.6596 -0.5162
 7088SOL     OW32722   3.382   3.153   6.804  0.8356 -0.2220  0.3008
 7088SOL    HW132723   3.304   3.102   6.827 -1.1142  2.2697 -0.8286
 7088SOL    HW232724   3.417   3.179   6.889  1.4082 -0.2909  0.0891
 7089SOL     OW32725   4.600   3.006   1.081  0.5425  0.1520 -0.3679
 7089SOL    HW132726   4.540   2.986   1.010 -1.3672  0.6190  1.1286
 7089SOL    HW232727   4.623   2.918   1.111 -1.6914 -0.4817 -0.5092
 7090SOL     OW32728   0.395   3.527   4.140 -0.1929 -0.1661  1.6797
 7090SOL    HW132729   0.439   3.594   4.088 -2.0748  0.6485  1.1403
 7090SOL    HW232730   0.305   3.560   4.129  0.8946  2.2998  0.2671
 7091SOL     OW32731   0.195   1.366   5.834  0.2305  0.1180 -0.3456
 7091SOL    HW132732   0.144   1.431   5.787  0.5052  1.2889  0.9752
 7091SOL    HW232733   0.127   1.303   5.859  0.6467 -0.2569 -0.1602
 7092SOL     OW32734   4.062   2.839   3.322  0.2641  0.4240  0.0007
 7092SOL    HW132735   4.148   2.798   3.328  0.3888  0.5818 -0.6463
 7092SOL    HW232736   4.081   2.892   3.244 -0.6393 -0.7656 -1.0125
 7093SOL     OW32737   0.651   2.618  12.274 -0.2396 -0.0607 -0.3711
 7093SOL    HW132738   0.556   2.609  12.271 -0.1137 -1.6128  0.1325
 7093SOL    HW232739   0.667   2.567  12.195 -2.3390 -1.7087  0.2542
 7094SOL     OW32740   2.566   0.776  11.138 -0.3959 -0.2773 -0.1634
 7094SOL    HW132741   2.589   0.802  11.227 -0.1749 -1.1539  0.0325
 7094SOL    HW232742   2.596   0.853  11.089 -2.1763  0.5495  0.0594
 7095SOL     OW32743   3.868   0.372   5.116 -0.1189  0.1273  0.0841
 7095SOL    HW132744   3.903   0.325   5.192  0.9771 -2.7365 -2.2157
 7095SOL    HW232745   3.914   0.336   5.040  1.3376 -0.4562  1.2390
 7096SOL     OW32746   2.469   2.669   4.453 -0.1804  0.5219  0.2612
 7096SOL    HW132747   2.378   2.646   4.472 -0.0242 -1.0636 -0.9361
 7096SOL    HW232748   2.465   2.764   4.455 -2.1643  0.4746 -1.4799
 7097SOL     OW32749   2.112   0.823   7.189 -0.1636  0.6061  0.0990
 7097SOL    HW132750   2.150   0.780   7.265  1.5473 -0.8764 -1.6094
 7097SOL    HW232751   2.173   0.792   7.122  2.0215  2.3738  1.2604
 7098SOL     OW32752   1.184   3.799   0.793 -0.2296 -0.1015  0.2390
 7098SOL    HW132753   1.194   3.867   0.859 -2.5984  0.4251  0.0514
 7098SOL    HW232754   1.127   3.841   0.729  0.5167  2.3163  1.1543
 7099SOL     OW32755   2.638   3.461  10.857  0.2208 -0.0316 -1.1083
 7099SOL    HW132756   2.679   3.508  10.785  0.3776  1.7250  0.1225
 7099SOL    HW232757   2.711   3.401  10.871  2.4480  2.4999 -1.9620
 7100SOL     OW32758   2.924   3.788   7.857  0.2354  0.0585  0.2804
 7100SOL    HW132759   2.929   3.743   7.941  0.8774 -1.4420 -0.5414
 7100SOL    HW232760   2.858   3.855   7.876  0.0686  0.6722 -2.3954
 7101SOL     OW32761   2.546   2.418  10.781  0.0032 -0.0740 -0.3784
 7101SOL    HW132762   2.462   2.397  10.822  0.3670  1.7739  1.3327
 7101SOL    HW232763   2.583   2.331  10.792  1.3289  0.4670 -0.5590
 7102SOL     OW32764   1.138   4.047  13.050  0.4556  0.1621 -0.3378
 7102SOL    HW132765   1.220   4.062  13.004  0.6458 -2.8886 -1.0373
 7102SOL    HW232766   1.077   4.102  13.001 -2.0680 -2.6238 -0.3579
 7103SOL     OW32767   4.376   1.432   4.953  0.6041  0.2448 -0.0482
 7103SOL    HW132768   4.471   1.442   4.955  0.8753 -1.9751 -1.4323
 7103SOL    HW232769   4.362   1.359   5.014  1.6021  2.8575  3.2739
 7104SOL     OW32770   0.279   2.952   3.193 -0.5987 -0.3495 -0.1397
 7104SOL    HW132771   0.363   2.918   3.223 -0.3995  0.3295  0.0806
 7104SOL    HW232772   0.314   3.014   3.129  1.0618  0.7012  1.7414
 7105SOL     OW32773   1.026   2.919   2.376 -0.3469 -0.4184  0.1113
 7105SOL    HW132774   1.101   2.978   2.388  1.0921 -1.6670 -2.7855
 7105SOL    HW232775   1.050   2.867   2.300 -0.4062  2.1906 -1.6936
 7106SOL     OW32776   2.382   3.662  16.253 -0.3520  0.9283 -0.3968
 7106SOL    HW132777   2.376   3.756  16.236 -1.1606  0.7828 -0.9132
 7106SOL    HW232778   2.469   3.664  16.293 -0.2189  1.0673 -0.6980
 7107SOL     OW32779   2.409   2.950   4.485 -0.0185  0.1788  0.2827
 7107SOL    HW132780   2.337   2.952   4.423 -1.3044  0.5021  1.7897
 7107SOL    HW232781   2.458   3.032   4.474 -0.3139 -0.0255 -2.4751
 7108SOL     OW32782   2.889   0.601   9.779  0.1665  0.6397  0.0216
 7108SOL    HW132783   2.796   0.588   9.763  0.0465 -1.6728  2.4156
 7108SOL    HW232784   2.917   0.509   9.787 -0.4529  0.2376 -2.4409
 7109SOL     OW32785   4.075   3.825   1.317 -0.0894 -0.1951 -0.1535
 7109SOL    HW132786   4.115   3.801   1.400  1.4060 -0.5721 -0.9895
 7109SOL    HW232787   3.985   3.791   1.316  0.0407 -0.5611  2.7789
 7110SOL     OW32788   1.257   1.058   4.636 -0.4431  0.0225 -0.2132
 7110SOL    HW132789   1.305   1.136   4.664  1.6359 -1.6400  0.8855
 7110SOL    HW232790   1.308   0.987   4.674  2.2974  1.8942 -0.3635
 7111SOL     OW32791   2.501   0.052  12.134 -0.1093  0.3442 -0.2515
 7111SOL    HW132792   2.587   0.094  12.133  0.0519  0.0307  0.5320
 7111SOL    HW232793   2.490   0.036  12.040  0.2405 -1.5428  0.0291
 7112SOL     OW32794   1.693   0.548  11.867  0.3041  0.0064  0.8091
 7112SOL    HW132795   1.720   0.549  11.958  0.9225  0.1386  0.6258
 7112SOL    HW232796   1.752   0.485  11.826  0.0382  0.6389 -0.5550
 7113SOL     OW32797   1.180   4.538   5.225  0.0576  0.0886  0.3908
 7113SOL    HW132798   1.099   4.576   5.258  0.3182  2.0645 -1.2113
 7113SOL    HW232799   1.244   4.559   5.293 -0.0685  2.2862 -0.1548
 7114SOL     OW32800   2.682   1.791   5.630  0.6754  0.1609  0.2380
 7114SOL    HW132801   2.615   1.802   5.563  1.2049  2.6598  0.1026
 7114SOL    HW232802   2.632   1.784   5.711  0.5389  0.6085  0.1934
 7115SOL     OW32803   4.597   2.883   2.643  0.3423  0.0187  0.0593
 7115SOL    HW132804   4.572   2.969   2.609  1.6004  0.7595  1.0228
 7115SOL    HW232805   4.651   2.842   2.575 -0.0442  0.5073 -0.5403
 7116SOL     OW32806   4.556   2.997  11.613 -0.2251 -0.8398  0.1027
 7116SOL    HW132807   4.601   2.998  11.697  1.9306 -1.9638 -1.0383
 7116SOL    HW232808   4.507   2.915  11.620 -1.1909 -0.1411  1.4243
 7117SOL     OW32809   1.541   3.275  11.454 -0.2700 -0.4504 -0.6813
 7117SOL    HW132810   1.537   3.280  11.359 -2.2311  1.3348 -0.4994
 7117SOL    HW232811   1.616   3.216  11.465 -0.1205 -0.4366 -1.6701
 7118SOL     OW32812   1.600   3.208   4.336 -0.5890 -0.3769 -0.2883
 7118SOL    HW132813   1.597   3.268   4.262  3.6001  0.9353  0.6068
 7118SOL    HW232814   1.508   3.186   4.322 -0.6882 -0.6632  0.8056
 7119SOL     OW32815   3.988   2.846   7.455  0.5922 -0.3975  0.1959
 7119SOL    HW132816   4.016   2.858   7.545  3.0726  1.0434 -0.7463
 7119SOL    HW232817   3.905   2.894   7.448  1.3478  0.9198  0.3076
 7120SOL     OW32818   2.307   2.917   0.262  0.2046 -0.2557 -0.2594
 7120SOL    HW132819   2.255   2.996   0.276 -1.2316 -1.0246 -1.1588
 7120SOL    HW232820   2.267   2.888   0.180  0.7511 -0.6879 -0.3703
 7121SOL     OW32821   1.522   1.805   8.780  0.1390 -0.2796 -0.4032
 7121SOL    HW132822   1.537   1.883   8.833  0.2783 -2.5955  2.9445
 7121SOL    HW232823   1.607   1.812   8.737  1.8460  0.0844  3.0707
 7122SOL     OW32824   0.328   3.380  13.088  0.1246 -0.4318 -0.3895
 7122SOL    HW132825   0.377   3.445  13.039  1.4587 -0.4126  0.9498
 7122SOL    HW232826   0.396   3.313  13.098 -0.3701 -1.2605 -2.5444
 7123SOL     OW32827   1.147   2.319  17.619 -0.0687  0.1125 -0.6034
 7123SOL    HW132828   1.154   2.393  17.679 -1.3609  0.0917 -0.4193
 7123SOL    HW232829   1.067   2.339  17.571  0.4597  0.8298 -1.1942
 7124SOL     OW32830   0.352   1.565  10.148 -0.5157  0.0874  0.4705
 7124SOL    HW132831   0.266   1.557  10.190  0.1055  1.5040  2.0312
 7124SOL    HW232832   0.402   1.493  10.187  1.7861  1.0547 -0.7890
 7125SOL     OW32833   4.078   0.603   4.761 -0.3033 -0.3433  0.4041
 7125SOL    HW132834   4.020   0.618   4.836 -3.0166 -3.3159 -1.0934
 7125SOL    HW232835   4.024   0.565   4.691 -2.2456  2.4022  0.4074
 7126SOL     OW32836   2.136   2.229   1.488 -0.0008 -0.4105  0.4511
 7126SOL    HW132837   2.143   2.168   1.415  0.6344 -1.3025  1.2439
 7126SOL    HW232838   2.080   2.182   1.551 -0.9425  0.9147  0.5851
 7127SOL     OW32839   2.685   0.894   1.626 -0.1095  0.3851 -0.4221
 7127SOL    HW132840   2.665   0.981   1.661  0.0532  0.9978 -1.8526
 7127SOL    HW232841   2.723   0.854   1.704 -0.0172  1.8628  0.2986
 7128SOL     OW32842   4.493   3.611   6.591  0.2688 -0.1132  1.1280
 7128SOL    HW132843   4.433   3.652   6.653  0.8243  0.0327  1.5630
 7128SOL    HW232844   4.521   3.696   6.557  0.4744 -1.0846 -1.1655
 7129SOL     OW32845   3.935   3.855  11.453  0.1783  0.5887  0.1326
 7129SOL    HW132846   3.925   3.935  11.505 -0.5874  0.8359 -0.4083
 7129SOL    HW232847   4.023   3.870  11.419  0.1894 -0.2434 -0.1926
 7130SOL     OW32848   1.970   1.302   6.908  0.6143 -0.0528 -0.1961
 7130SOL    HW132849   1.944   1.271   6.821 -2.0348 -0.7945  0.8418
 7130SOL    HW232850   2.044   1.246   6.933 -0.1106 -0.6418  0.6295
 7131SOL     OW32851   0.758   3.644   9.908  0.4562 -0.1723  0.4739
 7131SOL    HW132852   0.722   3.662   9.821  0.0556 -0.8819  0.4904
 7131SOL    HW232853   0.792   3.555   9.893  0.0740 -0.2695  0.1703
 7132SOL     OW32854   4.010   2.188   5.026  0.2032  0.8778  0.3813
 7132SOL    HW132855   4.052   2.111   5.064 -0.5635  0.7417  0.9673
 7132SOL    HW232856   3.950   2.151   4.961 -1.1855 -0.8602  2.6300
 7133SOL     OW32857   1.625   2.326   7.047  0.2293  0.3524  0.4628
 7133SOL    HW132858   1.700   2.270   7.030 -0.5634 -0.9124  1.0628
 7133SOL    HW232859   1.648   2.415   7.020  0.0126  0.3418  0.2401
 7134SOL     OW32860   0.462   3.198   2.057  0.3385  0.2820  0.6177
 7134SOL    HW132861   0.433   3.110   2.036 -2.4962  1.7238 -1.5932
 7134SOL    HW232862   0.422   3.253   1.990  0.6266  1.2063  1.1947
 7135SOL     OW32863   1.764   1.429   2.379 -0.3966 -0.6295  0.3884
 7135SOL    HW132864   1.841   1.434   2.322 -0.1628  1.5159  0.8736
 7135SOL    HW232865   1.803   1.400   2.461  0.7598  1.1853  0.4797
 7136SOL     OW32866   4.098   1.234  16.297  0.4529  0.4473  0.0735
 7136SOL    HW132867   4.139   1.267  16.377 -0.7471 -0.0347  0.8905
 7136SOL    HW232868   4.130   1.288  16.225  0.8898  0.0469 -0.0339
 7137SOL     OW32869   3.309   1.598   4.156  0.6760  0.0245 -0.5591
 7137SOL    HW132870   3.254   1.582   4.079 -0.5121 -0.2738  0.3389
 7137SOL    HW232871   3.243   1.589   4.225  1.0382 -1.3369 -0.4014
 7138SOL     OW32872   4.317   0.981   4.041  0.6481 -0.4062  0.1888
 7138SOL    HW132873   4.376   0.909   4.064  0.8454  0.2354  1.6750
 7138SOL    HW232874   4.232   0.938   4.028  1.4911 -1.3388 -2.2444
 7139SOL     OW32875   4.646   1.216   8.602  0.2091  0.1404 -0.0190
 7139SOL    HW132876   4.573   1.173   8.557  0.4601 -0.1259 -0.1663
 7139SOL    HW232877   4.704   1.140   8.599 -0.4604 -0.4073  0.6312
 7140SOL     OW32878   1.947   0.288   3.248  0.1903  0.2707 -0.3380
 7140SOL    HW132879   1.878   0.225   3.266  0.5687 -0.4536 -1.4401
 7140SOL    HW232880   2.024   0.240   3.279  0.7819  1.0998 -0.4909
 7141SOL     OW32881   2.169   3.517   6.725 -0.2928 -0.1229  0.5192
 7141SOL    HW132882   2.223   3.514   6.646 -1.4024  1.0435 -0.2886
 7141SOL    HW232883   2.113   3.445   6.695 -0.5908 -0.4309  1.8113
 7142SOL     OW32884   1.982   0.067   4.954  0.0258  0.0466  0.2966
 7142SOL    HW132885   1.921   0.028   4.890  0.1801  0.7876 -0.3077
 7142SOL    HW232886   2.032   4.713   4.980  0.5395  0.4039  0.3684
 7143SOL     OW32887   1.364   2.349  16.881  0.1660 -0.0260  0.0345
 7143SOL    HW132888   1.326   2.432  16.852  0.7399 -0.3679 -1.6726
 7143SOL    HW232889   1.375   2.364  16.975 -2.5532 -1.9864  0.6636
 7144SOL     OW32890   3.179   0.913   8.764  1.1693 -0.6305  0.1179
 7144SOL    HW132891   3.199   0.904   8.857  0.1333  0.2536  0.4219
 7144SOL    HW232892   3.139   0.999   8.773  0.6642 -1.0173  1.5371
 7145SOL     OW32893   0.725   1.090   4.620 -0.3702 -0.7751 -0.7194
 7145SOL    HW132894   0.754   1.180   4.639 -2.1786 -0.4206  0.2927
 7145SOL    HW232895   0.803   1.057   4.575 -0.7917  0.1378 -2.1109
 7146SOL     OW32896   4.059   1.231  14.596 -0.1695  0.1673  0.1450
 7146SOL    HW132897   4.088   1.144  14.623 -0.0697 -0.4625 -2.0268
 7146SOL    HW232898   4.148   1.263  14.584  0.0159 -0.4553 -0.1238
 7147SOL     OW32899   3.625   0.336   7.629 -0.7197 -0.7610 -0.3552
 7147SOL    HW132900   3.607   0.387   7.551 -0.4793  1.7411  1.2386
 7147SOL    HW232901   3.583   0.256   7.598 -0.4986 -0.1930 -2.0982
 7148SOL     OW32902   2.794   1.160   0.296 -0.0227 -0.0290  0.1631
 7148SOL    HW132903   2.759   1.091   0.353 -0.7972  0.7619  0.6337
 7148SOL    HW232904   2.888   1.144   0.309  0.3283  2.0681  0.1971
 7149SOL     OW32905   3.549   2.383   0.017 -0.0826 -0.4837  0.0505
 7149SOL    HW132906   3.619   2.402  17.648  0.2630  0.8730  0.8717
 7149SOL    HW232907   3.516   2.465   0.052  2.1942  1.0857 -1.4952
 7150SOL     OW32908   2.681   3.906  13.793  0.0474  0.0796  0.0656
 7150SOL    HW132909   2.680   4.001  13.793 -1.3314  0.0661 -0.6606
 7150SOL    HW232910   2.760   3.886  13.743  2.1289  1.9974  2.6258
 7151SOL     OW32911   1.859   3.920   5.504  0.1135 -0.1817  0.5425
 7151SOL    HW132912   1.863   3.985   5.435 -0.5222  0.1058  0.7786
 7151SOL    HW232913   1.764   3.908   5.509 -0.0042  0.6307  0.1157
 7152SOL     OW32914   2.892   1.707   5.334  0.3795 -0.6109 -0.2314
 7152SOL    HW132915   2.937   1.736   5.414  1.9036  0.1587 -1.3626
 7152SOL    HW232916   2.850   1.789   5.309  1.1351 -0.1416  0.0239
 7153SOL     OW32917   4.166   1.004   5.918  0.0964  0.1248  0.0604
 7153SOL    HW132918   4.210   1.035   5.838  1.3180 -0.0607  0.6566
 7153SOL    HW232919   4.088   1.058   5.924 -0.0846 -0.1930  0.6056
 7154SOL     OW32920   1.452   4.608   5.038 -0.6754 -0.0063  0.3735
 7154SOL    HW132921   1.396   4.552   5.092  0.8276  0.6416  2.5957
 7154SOL    HW232922   1.530   4.609   5.093  1.1065 -1.1377 -2.2044
 7155SOL     OW32923   1.762   3.320   2.953 -0.5959  0.3883 -0.5701
 7155SOL    HW132924   1.775   3.338   2.859  0.5789 -0.3982 -0.5686
 7155SOL    HW232925   1.741   3.227   2.953  1.1582 -0.0023  0.2211
 7156SOL     OW32926   1.637   2.964   8.010  0.4496  0.0405  0.0428
 7156SOL    HW132927   1.692   3.000   8.080  1.3986  0.2362 -0.7944
 7156SOL    HW232928   1.569   2.923   8.063 -0.1376  0.5353 -0.3264
 7157SOL     OW32929   3.095   1.764   5.083 -0.1608 -0.5490  0.5425
 7157SOL    HW132930   3.049   1.841   5.115  1.4843 -0.2089  2.0774
 7157SOL    HW232931   3.024   1.701   5.099 -1.2405  0.8476  1.2835
 7158SOL     OW32932   2.272   3.190   4.239 -0.3789 -0.5358  0.0184
 7158SOL    HW132933   2.201   3.240   4.198 -0.9693 -1.0583  0.4071
 7158SOL    HW232934   2.228   3.119   4.285  0.0332 -0.0212  1.2151
 7159SOL     OW32935   1.060   0.783  14.477  0.2474  0.8072 -0.0723
 7159SOL    HW132936   1.017   0.706  14.441 -0.6748  1.2504  0.0727
 7159SOL    HW232937   1.134   0.800  14.418  0.5532 -1.0843 -0.2164
 7160SOL     OW32938   0.848   4.606   4.075  0.4093  0.0875  0.2190
 7160SOL    HW132939   0.897   4.631   3.997 -1.1006  0.8331 -0.4868
 7160SOL    HW232940   0.773   4.661   4.051  1.0763  1.1077  0.4810
 7161SOL     OW32941   4.356   3.881   5.873  0.0722  0.2032 -0.4516
 7161SOL    HW132942   4.423   3.865   5.939 -0.4261  0.9817  0.2526
 7161SOL    HW232943   4.338   3.794   5.838 -1.7722  0.0861  0.7502
 7162SOL     OW32944   1.247   1.470   7.301 -0.3103 -0.0052  0.0198
 7162SOL    HW132945   1.264   1.392   7.249 -1.1078 -2.4094  3.3561
 7162SOL    HW232946   1.166   1.509   7.268 -0.2222  0.7401  0.6829
 7163SOL     OW32947   1.709   1.258   6.450  0.0566 -0.1068 -0.1726
 7163SOL    HW132948   1.619   1.268   6.420 -0.4218 -1.1170  0.9452
 7163SOL    HW232949   1.747   1.205   6.380 -0.2125 -0.0078 -0.3976
 7164SOL     OW32950   2.004   2.791   0.647 -0.3533 -0.3320 -0.3456
 7164SOL    HW132951   2.040   2.866   0.696 -0.6899  0.5581 -1.4690
 7164SOL    HW232952   2.077   2.731   0.661 -0.1521 -0.2189 -0.9323
 7165SOL     OW32953   1.597   0.027  12.934  0.1502 -0.1450 -0.0566
 7165SOL    HW132954   1.692   0.034  12.942  0.1890 -0.5110 -0.2256
 7165SOL    HW232955   1.574   0.120  12.937  1.6888  0.1688  2.2381
 7166SOL     OW32956   3.594   3.995  12.458 -0.2365  0.4558  0.4776
 7166SOL    HW132957   3.540   4.074  12.458  1.6058  1.7322 -1.6230
 7166SOL    HW232958   3.628   4.003  12.368  0.6157 -2.0547  0.5785
 7167SOL     OW32959   3.685   1.212   3.994  0.0903 -0.1909 -0.1827
 7167SOL    HW132960   3.766   1.252   4.027 -0.6019  0.9440  0.1562
 7167SOL    HW232961   3.632   1.290   3.977 -0.1474 -0.3493 -0.1636
 7168SOL     OW32962   3.180   2.851   6.591  0.5783  0.2452 -0.4141
 7168SOL    HW132963   3.103   2.838   6.536  0.4851  2.5990 -0.8307
 7168SOL    HW232964   3.211   2.763   6.615 -0.8451  0.3714  1.8163
 7169SOL     OW32965   0.057   4.676   4.454 -0.0470 -0.5326  0.1635
 7169SOL    HW132966   0.049   0.037   4.500  0.1893  0.5414 -1.7413
 7169SOL    HW232967   4.693   4.643   4.478 -0.3451  1.7157  2.1933
 7170SOL     OW32968   2.631   3.527   3.757 -0.0899 -0.6422  0.2993
 7170SOL    HW132969   2.668   3.582   3.688 -0.0466  0.3804  1.1240
 7170SOL    HW232970   2.591   3.460   3.702  1.4668 -2.9073  1.9610
 7171SOL     OW32971   2.033   1.308  15.136 -0.4311  0.2151 -0.0989
 7171SOL    HW132972   1.995   1.262  15.061 -1.5667 -0.2204  0.7279
 7171SOL    HW232973   2.014   1.242  15.204  0.2384  1.5150  1.3388
 7172SOL     OW32974   2.902   2.065  15.473 -0.2422 -0.1314 -0.5726
 7172SOL    HW132975   2.860   2.024  15.397  1.1989  0.1903 -1.5290
 7172SOL    HW232976   2.825   2.115  15.501 -0.1067  0.1105 -0.6313
 7173SOL     OW32977   2.986   0.568   5.833 -0.0426 -0.7106  0.3459
 7173SOL    HW132978   3.068   0.618   5.835 -0.5911  0.2311 -1.0356
 7173SOL    HW232979   2.964   0.569   5.740  3.4428 -0.2328 -0.4970
 7174SOL     OW32980   2.817   3.719   9.401  0.0084 -0.3251  0.4588
 7174SOL    HW132981   2.843   3.811   9.400 -2.9236  0.5138  1.8011
 7174SOL    HW232982   2.745   3.722   9.464 -0.7785 -2.2864 -0.3212
 7175SOL     OW32983   1.447   2.545  16.619  0.3006 -0.0018 -0.0427
 7175SOL    HW132984   1.385   2.556  16.691 -1.8541 -0.4677 -1.8119
 7175SOL    HW232985   1.379   2.546  16.551  0.9081  0.2384 -0.6508
 7176SOL     OW32986   0.514   2.769  15.246  0.2420 -0.4149  0.2603
 7176SOL    HW132987   0.577   2.751  15.176 -0.2708  1.6815 -0.7392
 7176SOL    HW232988   0.445   2.776  15.180  1.4785  4.3341 -0.5308
 7177SOL     OW32989   0.413   3.248   4.386 -0.1471 -0.0121 -0.2022
 7177SOL    HW132990   0.445   3.231   4.297  0.3558 -0.4495  0.0543
 7177SOL    HW232991   0.489   3.216   4.436 -0.2685 -0.7557 -0.4941
 7178SOL     OW32992   4.569   0.772   6.034 -0.4858  0.1010  0.0147
 7178SOL    HW132993   4.537   0.683   6.023 -0.3308 -0.1698  1.7842
 7178SOL    HW232994   4.605   0.764   6.122  0.6042 -1.6882 -0.5990
 7179SOL     OW32995   0.375   4.369   1.356 -0.2875  0.2429 -0.3002
 7179SOL    HW132996   0.306   4.437   1.354 -0.0387  0.4784 -0.8357
 7179SOL    HW232997   0.407   4.384   1.444 -0.7936 -1.4591  0.1577
 7180SOL     OW32998   4.327   4.338   4.640 -0.1050 -0.1604  0.5241
 7180SOL    HW132999   4.258   4.292   4.687  1.1553 -1.3339  1.2405
 7180SOL    HW233000   4.286   4.353   4.555  0.1620 -0.1206  0.4007
 7181SOL     OW33001   1.198   2.846   9.638 -0.0883 -0.1164  0.5009
 7181SOL    HW133002   1.172   2.922   9.690  0.3208  0.0270  0.4944
 7181SOL    HW233003   1.290   2.863   9.618 -0.4560  2.5998  1.0731
 7182SOL     OW33004   0.107   2.954   8.572  0.2107  0.2993  0.1182
 7182SOL    HW133005   0.021   2.934   8.536  0.6933  0.0395 -0.8845
 7182SOL    HW233006   0.163   2.905   8.512 -0.2934 -0.9914  0.7005
 7183SOL     OW33007   2.101   0.451   0.691 -0.1143 -0.2999 -0.0399
 7183SOL    HW133008   2.045   0.373   0.686  3.1091 -2.6120 -0.3030
 7183SOL    HW233009   2.068   0.501   0.616 -1.5281  0.5516  1.1612
 7184SOL     OW33010   0.886   2.062   5.642 -0.0933 -0.2450  0.1292
 7184SOL    HW133011   0.976   2.081   5.617 -0.2520 -0.3648 -0.5259
 7184SOL    HW233012   0.895   2.087   5.734 -0.9179  0.1230  0.1120
 7185SOL     OW33013   2.726   2.836   7.402 -0.3352 -0.3272 -0.0100
 7185SOL    HW133014   2.720   2.931   7.407 -0.8177 -0.3465 -0.3212
 7185SOL    HW233015   2.670   2.816   7.328  0.4925  0.8220 -0.9372
 7186SOL     OW33016   0.997   2.962   1.147  0.1957  0.2573  0.0391
 7186SOL    HW133017   1.092   2.964   1.158  0.4450  0.9723 -2.0981
 7186SOL    HW233018   0.982   2.892   1.084 -1.3940  0.5026  0.1455
 7187SOL     OW33019   0.344   0.628   5.841  0.2973  0.2246  0.3126
 7187SOL    HW133020   0.419   0.599   5.893 -0.1715 -1.1531  0.2080
 7187SOL    HW233021   0.379   0.650   5.755  1.2132  0.3038  0.7051
 7188SOL     OW33022   0.893   0.898   3.694  0.6315 -0.1102  0.3051
 7188SOL    HW133023   0.928   0.968   3.639  0.9223 -1.3142 -1.0711
 7188SOL    HW233024   0.943   0.914   3.774  0.1158  0.6498  0.4678
 7189SOL     OW33025   2.317   1.269  12.411  0.0289 -0.4771 -0.0037
 7189SOL    HW133026   2.308   1.329  12.337 -0.0707  1.3180  1.4711
 7189SOL    HW233027   2.279   1.313  12.487 -1.6008  1.2067 -1.8021
 7190SOL     OW33028   1.610   1.419  10.389  0.5011 -0.3103  0.0580
 7190SOL    HW133029   1.580   1.329  10.400 -0.0624 -0.0234  0.8183
 7190SOL    HW233030   1.573   1.450  10.306  1.9153  0.1281 -0.4042
 7191SOL     OW33031   0.936   2.055   2.384  0.5993 -0.3950 -0.1018
 7191SOL    HW133032   1.007   2.077   2.445 -0.2234 -1.1450  1.1090
 7191SOL    HW233033   0.897   2.141   2.369 -1.8043 -1.2238  1.4910
 7192SOL     OW33034   3.227   1.997   4.180  0.3873  0.2892 -0.0710
 7192SOL    HW133035   3.258   2.005   4.270  3.0610 -1.7730 -0.8415
 7192SOL    HW233036   3.193   2.085   4.159  0.9556  0.2398 -1.1872
 7193SOL     OW33037   1.483   2.767   5.128  0.0542  0.6617 -0.1060
 7193SOL    HW133038   1.388   2.769   5.121  0.1343  2.4281 -0.8208
 7193SOL    HW233039   1.496   2.708   5.202  1.2304  1.3498  0.2364
 7194SOL     OW33040   4.326   0.122  15.859  0.4485 -0.1648  0.1042
 7194SOL    HW133041   4.306   0.029  15.871  0.1280 -0.1177 -0.0707
 7194SOL    HW233042   4.243   0.160  15.890  0.9712  0.7890  0.3186
 7195SOL     OW33043   1.609   1.077  10.591  0.4505  0.6717 -0.5540
 7195SOL    HW133044   1.629   1.102  10.501  0.3420  0.9646 -0.4947
 7195SOL    HW233045   1.675   1.009  10.607  1.1393  1.3180 -0.6627
 7196SOL     OW33046   3.937   0.076   8.059 -0.1003 -0.3170  0.3380
 7196SOL    HW133047   3.846   0.099   8.042  0.6615  2.3660 -0.0921
 7196SOL    HW233048   3.970   0.143   8.000 -1.9377 -0.7942 -1.2185
 7197SOL     OW33049   1.208   0.802  15.072 -0.3443  0.0768  0.0265
 7197SOL    HW133050   1.146   0.872  15.052 -0.2317 -0.1878 -1.2684
 7197SOL    HW233051   1.247   0.829  15.155 -1.8678  2.4772 -0.0381
 7198SOL     OW33052   3.468   0.706  17.546  0.0649 -0.3921 -0.1594
 7198SOL    HW133053   3.520   0.786  17.546  0.3898 -0.6062 -0.2389
 7198SOL    HW233054   3.401   0.723  17.613  0.4447 -1.3399  0.4591
 7199SOL     OW33055   1.384   3.408   5.558 -0.2786 -0.3289  0.7691
 7199SOL    HW133056   1.331   3.347   5.507 -0.4721  0.6648 -0.2167
 7199SOL    HW233057   1.431   3.356   5.624  1.5722  0.0453 -0.2364
 7200SOL     OW33058   4.354   2.066   4.510 -0.1953 -0.6590 -0.8684
 7200SOL    HW133059   4.271   2.061   4.557  0.5277 -2.7318  0.1779
 7200SOL    HW233060   4.366   1.973   4.493 -0.3739 -0.8911  0.3139
 7201SOL     OW33061   3.339   3.910   4.840  0.0455  0.0387 -0.2653
 7201SOL    HW133062   3.389   3.844   4.793  2.3487  1.4869  0.1399
 7201SOL    HW233063   3.391   3.919   4.920 -2.1907 -2.2610  1.4371
 7202SOL     OW33064   1.600   3.451  14.009 -0.2276 -0.8124 -0.1025
 7202SOL    HW133065   1.592   3.527  13.951 -3.0489 -0.5059  0.6874
 7202SOL    HW233066   1.568   3.375  13.959 -0.1333 -1.0957  0.2677
 7203SOL     OW33067   3.002   4.577   8.099 -0.6277  0.0522  0.0939
 7203SOL    HW133068   3.086   4.620   8.084 -1.7571  2.2376 -0.0683
 7203SOL    HW233069   3.018   4.485   8.080  0.8533  0.1469  0.8506
 7204SOL     OW33070   3.675   4.218   6.002 -0.6918 -0.0045  0.0379
 7204SOL    HW133071   3.632   4.260   6.077 -0.2859  0.0809  0.2240
 7204SOL    HW233072   3.749   4.181   6.052 -0.2551 -0.4006 -0.9043
 7205SOL     OW33073   2.386   3.448   8.228 -0.6691  0.3647 -0.7293
 7205SOL    HW133074   2.420   3.415   8.311  0.7097  0.5058 -1.2379
 7205SOL    HW233075   2.407   3.373   8.172 -0.7306  0.4111 -0.8149
 7206SOL     OW33076   2.391   2.437   6.639 -0.0408 -0.1309 -0.4803
 7206SOL    HW133077   2.301   2.415   6.664  0.3816 -0.2087  0.9621
 7206SOL    HW233078   2.374   2.465   6.549  0.2205 -1.4428 -0.9394
 7207SOL     OW33079   4.233   0.957   7.151 -0.1434 -0.3181 -0.3454
 7207SOL    HW133080   4.298   0.954   7.081 -0.7527  0.8169 -0.9475
 7207SOL    HW233081   4.274   0.894   7.211 -2.3766  0.4707  2.0417
 7208SOL     OW33082   1.441   2.078  16.926  0.7380 -0.8147  0.3255
 7208SOL    HW133083   1.482   2.045  16.846  0.6398  0.6362 -0.3319
 7208SOL    HW233084   1.420   2.165  16.891  0.1673 -0.0678  2.5222
 7209SOL     OW33085   0.834   1.605   7.736 -0.1438 -0.6758  0.2095
 7209SOL    HW133086   0.907   1.664   7.758  0.9158 -0.9296 -2.5528
 7209SOL    HW233087   0.816   1.570   7.823  0.1906 -2.0209 -0.2519
 7210SOL     OW33088   2.128   4.379   2.644  0.1541  0.2610  0.7321
 7210SOL    HW133089   2.056   4.413   2.697  1.2577  2.1299  1.0538
 7210SOL    HW233090   2.204   4.420   2.685  0.6347 -0.6908  0.7810
 7211SOL     OW33091   1.147   3.272  16.110 -0.3008  0.2823 -0.4690
 7211SOL    HW133092   1.241   3.290  16.104 -1.1067  5.3263  1.2725
 7211SOL    HW233093   1.116   3.346  16.057  1.4977  1.7794  0.5906
 7212SOL     OW33094   2.527   2.014  12.717 -0.1519 -0.0967  0.5092
 7212SOL    HW133095   2.463   1.978  12.778  1.4485 -1.2917  1.4753
 7212SOL    HW233096   2.469   2.050  12.650 -0.8323 -3.0541 -0.5118
 7213SOL     OW33097   2.905   0.013   4.453  1.0242  0.1647  0.2042
 7213SOL    HW133098   2.906   0.092   4.399 -1.8092 -0.3931 -0.6467
 7213SOL    HW233099   2.890   0.053   4.539 -2.0054 -0.9462  0.1872
 7214SOL     OW33100   1.154   4.605  11.539 -0.2247  0.0221  0.4568
 7214SOL    HW133101   1.122   4.570  11.457  1.0217  0.5642 -0.2713
 7214SOL    HW233102   1.243   4.637  11.521 -2.0271  3.9431 -1.3523
 7215SOL     OW33103   1.141   0.961   6.105 -0.6323  0.2843  0.3348
 7215SOL    HW133104   1.229   0.998   6.118  0.2266 -1.3037 -0.9044
 7215SOL    HW233105   1.081   1.027   6.139  0.1569  1.4710 -0.5906
 7216SOL     OW33106   2.169   4.208   6.766 -0.0183  0.1666  0.1733
 7216SOL    HW133107   2.212   4.292   6.781  0.9728 -0.6722  2.0484
 7216SOL    HW233108   2.187   4.173   6.853  0.9493  2.6379  0.9605
 7217SOL     OW33109   3.140   3.121  16.166 -0.0557 -0.3700  0.4336
 7217SOL    HW133110   3.049   3.124  16.136  0.5970 -0.1518 -1.5044
 7217SOL    HW233111   3.170   3.045  16.117  0.6250 -0.6248  1.2601
 7218SOL     OW33112   2.831   3.254   6.234  0.2372  0.0417 -0.0237
 7218SOL    HW133113   2.852   3.180   6.177 -0.9314  0.9989 -1.6870
 7218SOL    HW233114   2.825   3.210   6.319 -1.8164 -0.1957 -0.3093
 7219SOL     OW33115   3.783   3.675   5.244  0.0706 -0.3403 -0.7234
 7219SOL    HW133116   3.838   3.667   5.322 -0.3418  1.8054 -0.2304
 7219SOL    HW233117   3.832   3.747   5.206 -0.8250  0.7675  0.2344
 7220SOL     OW33118   0.301   3.499  12.216  0.6145  0.0463  0.2548
 7220SOL    HW133119   0.244   3.570  12.246  0.0924 -0.2869  0.0564
 7220SOL    HW233120   0.354   3.547  12.152 -0.5232  2.1083  0.8767
 7221SOL     OW33121   3.872   0.913   5.795 -0.3215  0.6926 -0.4647
 7221SOL    HW133122   3.888   0.996   5.839 -1.0709  1.2997 -1.3292
 7221SOL    HW233123   3.831   0.944   5.714  0.2430 -0.7322 -1.2954
 7222SOL     OW33124   3.605   3.876  15.022 -0.0275  0.5161 -0.3056
 7222SOL    HW133125   3.548   3.886  14.946  0.7198  1.1444 -0.7831
 7222SOL    HW233126   3.677   3.827  14.982 -1.0717  0.0540 -1.6164
 7223SOL     OW33127   4.606   3.748   4.230 -0.0669  0.0817  0.5446
 7223SOL    HW133128   4.627   3.749   4.136  1.8372 -2.5144  0.9404
 7223SOL    HW233129   4.685   3.713   4.272  1.9733  1.7341 -1.8662
 7224SOL     OW33130   2.649   2.681  10.855  0.1164  0.3786  0.3441
 7224SOL    HW133131   2.622   2.593  10.827  1.5236 -0.4788  1.7085
 7224SOL    HW233132   2.607   2.680  10.941  1.1192  0.3043  0.8282
 7225SOL     OW33133   4.598   3.787   8.198 -0.2236  0.2933 -0.0185
 7225SOL    HW133134   4.677   3.818   8.243 -0.7666  0.0087  1.1558
 7225SOL    HW233135   4.534   3.777   8.269  1.5986  0.1671  1.5934
 7226SOL     OW33136   1.323   1.528   1.932 -0.1953 -0.4766 -0.2486
 7226SOL    HW133137   1.380   1.600   1.958 -0.0644 -1.8250  3.1207
 7226SOL    HW233138   1.377   1.461   1.889  1.1841  0.8176 -0.5130
 7227SOL     OW33139   1.741   2.467   4.076  0.0281 -0.0537 -0.3652
 7227SOL    HW133140   1.654   2.461   4.037 -0.2371 -1.4524  0.4444
 7227SOL    HW233141   1.718   2.513   4.157  1.3271 -1.0059  0.5402
 7228SOL     OW33142   0.366   3.942  12.891 -0.2672  0.2392  0.0770
 7228SOL    HW133143   0.350   3.910  12.980 -3.4347  1.1107 -0.1931
 7228SOL    HW233144   0.319   4.026  12.890  1.2140  1.0882  0.4735
 7229SOL     OW33145   2.042   4.719  16.231  0.0288  0.3843 -0.5663
 7229SOL    HW133146   2.002   4.701  16.316 -1.5572  0.5752 -1.2744
 7229SOL    HW233147   2.127   0.031  16.260  0.0687 -0.1464 -0.0297
 7230SOL     OW33148   1.280   4.071  10.108  0.3208 -0.2467 -0.0807
 7230SOL    HW133149   1.216   4.087  10.178  0.7053 -2.3437  0.7217
 7230SOL    HW233150   1.249   4.123  10.033  1.3485 -1.3114 -1.2262
 7231SOL     OW33151   0.716   3.054   1.708 -0.2317 -0.4003 -0.2869
 7231SOL    HW133152   0.693   3.009   1.789 -1.7232 -2.1104 -1.6797
 7231SOL    HW233153   0.754   3.134   1.744  0.0853 -1.2275  1.2063
 7232SOL     OW33154   0.895   3.457   3.702 -0.1008  0.0007 -0.1657
 7232SOL    HW133155   0.822   3.460   3.641  0.1816 -0.3912 -0.5272
 7232SOL    HW233156   0.956   3.406   3.649 -1.9853 -2.3553 -0.0249
 7233SOL     OW33157   0.860   2.948  14.393 -0.2576  0.1429  0.3205
 7233SOL    HW133158   0.875   3.041  14.410 -2.0158  0.2730  1.1006
 7233SOL    HW233159   0.820   2.919  14.475 -2.7082  0.8937 -0.6156
 7234SOL     OW33160   2.348   2.980   8.390  0.2979  0.0932 -0.1649
 7234SOL    HW133161   2.386   2.894   8.407  0.3628  0.3457  1.0275
 7234SOL    HW233162   2.406   3.030   8.333  0.2758 -2.2692 -2.2118
 7235SOL     OW33163   2.467   2.936   6.721 -0.5202  0.0465  0.3512
 7235SOL    HW133164   2.501   2.849   6.744  0.8776  0.6887  0.7273
 7235SOL    HW233165   2.522   2.955   6.645  2.8480 -0.2075  2.7172
 7236SOL     OW33166   2.986   3.478   4.959 -0.6244 -0.4205  0.0650
 7236SOL    HW133167   3.060   3.506   4.906  0.3068 -1.0452  1.0467
 7236SOL    HW233168   2.991   3.543   5.029 -0.2227  1.0573 -1.3446
 7237SOL     OW33169   2.216   3.969   5.709 -0.2870  0.5368  0.3911
 7237SOL    HW133170   2.281   4.019   5.759  0.3878  1.0171 -0.9616
 7237SOL    HW233171   2.156   3.937   5.776 -0.2030  1.2392  0.8115
 7238SOL     OW33172   0.379   2.559  11.288 -0.3453 -0.0314 -0.5246
 7238SOL    HW133173   0.291   2.542  11.321  0.1443  0.3116  0.9201
 7238SOL    HW233174   0.370   2.501  11.212  1.0683 -0.3339 -0.4717
 7239SOL     OW33175   4.624   1.251   8.929 -0.0625 -0.3696  0.6940
 7239SOL    HW133176   4.590   1.162   8.934 -1.8026  0.1934 -1.2228
 7239SOL    HW233177   4.651   1.265   8.838 -0.1818  0.6123  0.8022
 7240SOL     OW33178   4.635   3.571   8.413  0.4446  0.0393  0.1288
 7240SOL    HW133179   4.636   3.527   8.327 -2.1429 -0.2711  0.2612
 7240SOL    HW233180   4.542   3.594   8.414  0.2921 -0.5958  0.4725
 7241SOL     OW33181   1.551   4.296   6.326 -0.0650  0.1034 -0.1156
 7241SOL    HW133182   1.616   4.273   6.392  0.7701  0.3886 -0.8371
 7241SOL    HW233183   1.497   4.218   6.335 -0.1661  0.2429  0.4679
 7242SOL     OW33184   3.071   2.907   3.700 -0.1926  0.1112 -1.2053
 7242SOL    HW133185   3.149   2.948   3.738 -2.7118  2.4591  1.4131
 7242SOL    HW233186   3.120   2.837   3.656 -2.4203 -2.5004  0.4243
 7243SOL     OW33187   0.199   1.073   8.859 -0.2546 -0.5409  0.0501
 7243SOL    HW133188   0.124   1.015   8.877  1.0808 -2.2645  0.0195
 7243SOL    HW233189   0.187   1.096   8.767  0.6386 -1.4893 -0.3069
 7244SOL     OW33190   4.257   4.512   8.518 -0.5709 -1.0251 -0.1781
 7244SOL    HW133191   4.241   4.434   8.571  1.8494 -1.2934  0.1349
 7244SOL    HW233192   4.172   4.551   8.498 -0.1395  0.2601  0.5343
 7245SOL     OW33193   0.543   4.277   1.886  0.3708  0.2138 -0.2223
 7245SOL    HW133194   0.533   4.372   1.890  1.5600  0.3416 -0.1666
 7245SOL    HW233195   0.508   4.257   1.799  1.2531 -2.0255 -0.0708
 7246SOL     OW33196   0.388   0.834  17.659 -0.1173  0.3905 -0.1875
 7246SOL    HW133197   0.432   0.750  17.649 -0.9457  0.1205 -1.5647
 7246SOL    HW233198   0.446   0.890  17.608  0.5775  1.6620  1.9851
 7247SOL     OW33199   0.390   0.093   4.850  0.2690 -0.2602 -0.2427
 7247SOL    HW133200   0.323   0.076   4.917  1.0015 -1.0173  0.2889
 7247SOL    HW233201   0.461   0.118   4.910 -0.1816 -0.0682  0.2168
 7248SOL     OW33202   0.346   1.674   6.594  0.5912  0.4359  0.5805
 7248SOL    HW133203   0.302   1.731   6.531  1.5290  1.5864  0.9725
 7248SOL    HW233204   0.426   1.650   6.548 -1.0893 -1.6158 -1.2278
 7249SOL     OW33205   3.838   3.409   0.588  0.8469  0.4031  0.1888
 7249SOL    HW133206   3.764   3.349   0.600  0.8446  0.4203  0.2633
 7249SOL    HW233207   3.816   3.482   0.647 -2.0327  0.0406 -0.4169
 7250SOL     OW33208   1.510   2.177   2.871  0.3256 -0.4139 -0.1357
 7250SOL    HW133209   1.439   2.145   2.928  0.0914  0.7654  0.2409
 7250SOL    HW233210   1.451   2.225   2.812  0.7384 -0.2309 -0.3959
 7251SOL     OW33211   2.071   0.972  17.562  0.4003 -0.3651  0.4952
 7251SOL    HW133212   2.085   0.887  17.519 -1.1589  0.2364 -1.1774
 7251SOL    HW233213   2.077   0.950  17.654  1.2632 -0.5228  0.4048
 7252SOL     OW33214   0.940   4.553   3.611 -0.6140  0.0334  0.0050
 7252SOL    HW133215   0.993   4.604   3.672 -0.8478  2.3586 -1.7028
 7252SOL    HW233216   0.856   4.551   3.656 -0.7763 -0.0314 -0.3052
 7253SOL     OW33217   2.786   1.383  17.229  0.2960  0.2832 -1.0781
 7253SOL    HW133218   2.714   1.423  17.277  1.3709  0.4420  0.4348
 7253SOL    HW233219   2.813   1.316  17.293 -1.0407 -0.2883 -1.1247
 7254SOL     OW33220   4.705   2.549   5.807 -0.1275 -0.1346 -0.0297
 7254SOL    HW133221   0.015   2.639   5.816  0.4122 -0.5798  2.4687
 7254SOL    HW233222   4.676   2.561   5.717  0.1953  1.3997  0.0636
 7255SOL     OW33223   2.702   4.667   1.556 -0.2835 -0.0919  0.0651
 7255SOL    HW133224   2.755   4.713   1.621 -2.8034  1.5405  0.9159
 7255SOL    HW233225   2.733   4.578   1.574  0.4855  0.2075  0.2431
 7256SOL     OW33226   4.281   1.131   0.933  0.4091 -0.3446 -0.5459
 7256SOL    HW133227   4.319   1.198   0.875  1.3997  0.9756  1.6369
 7256SOL    HW233228   4.233   1.183   0.998  2.2041 -2.1363  2.2121
 7257SOL     OW33229   0.270   2.918   9.138 -0.4094 -0.6475  0.1423
 7257SOL    HW133230   0.268   2.982   9.209  2.3934  0.8324 -1.1454
 7257SOL    HW233231   0.189   2.870   9.156  0.1905 -1.7501 -0.1065
 7258SOL     OW33232   4.245   1.434   9.325  0.2707 -0.1304 -0.1596
 7258SOL    HW133233   4.206   1.349   9.307  3.1071 -1.1889 -1.3156
 7258SOL    HW233234   4.315   1.439   9.260  0.2923  2.6493  0.0472
 7259SOL     OW33235   4.059   3.031  15.238 -0.4298 -0.8765  0.1623
 7259SOL    HW133236   4.122   3.044  15.309 -0.9113  1.0204  0.2417
 7259SOL    HW233237   4.107   2.966  15.186 -0.2073  0.4461 -1.2951
 7260SOL     OW33238   4.506   1.280   3.056  0.3611  0.7776  0.3325
 7260SOL    HW133239   4.418   1.298   3.089  0.5361  2.8217 -0.3471
 7260SOL    HW233240   4.529   1.202   3.107 -4.3779 -0.1577  1.0511
 7261SOL     OW33241   4.482   4.516   0.570 -1.1701 -0.1706 -0.7622
 7261SOL    HW133242   4.402   4.564   0.550 -0.8092  0.1020 -1.5610
 7261SOL    HW233243   4.442   4.461   0.638  0.3529  0.7156  0.8627
 7262SOL     OW33244   1.147   2.198   9.241 -0.1133 -0.1312 -0.0273
 7262SOL    HW133245   1.168   2.262   9.309 -0.8584  0.6315 -0.5183
 7262SOL    HW233246   1.144   2.114   9.288 -1.4456 -0.6591 -1.0652
 7263SOL     OW33247   0.179   0.015   6.593  0.0174  0.4326  0.4350
 7263SOL    HW133248   0.272   0.005   6.615 -0.2218 -0.8896  0.8044
 7263SOL    HW233249   0.144   0.023   6.681 -0.6239 -1.0627  0.3146
 7264SOL     OW33250   0.932   0.142  13.648  0.0848 -0.3209 -0.1234
 7264SOL    HW133251   0.922   0.049  13.629 -1.6547 -0.2546  0.4947
 7264SOL    HW233252   1.009   0.153  13.705  0.6872 -0.9281 -0.8210
 7265SOL     OW33253   3.926   2.239   6.139  0.0784  0.0549 -0.1208
 7265SOL    HW133254   4.011   2.282   6.149 -0.5766  1.3122  0.0690
 7265SOL    HW233255   3.875   2.268   6.215  2.0568  1.7815  0.5276
 7266SOL     OW33256   4.643   4.175   6.558  0.0659  0.3113  0.0246
 7266SOL    HW133257   4.676   4.214   6.477  1.4235 -0.5589  0.1650
 7266SOL    HW233258   4.708   4.218   6.613 -0.8849  0.7392  0.8049
 7267SOL     OW33259   0.723   3.547   8.267  0.1609  0.8999  0.4676
 7267SOL    HW133260   0.800   3.503   8.302 -2.5542 -3.3315  0.9972
 7267SOL    HW233261   0.655   3.497   8.313 -1.2773  2.1586 -0.2820
 7268SOL     OW33262   4.503   2.847   5.675 -0.3184 -0.0515 -0.3350
 7268SOL    HW133263   4.576   2.795   5.641 -1.1130 -0.6150 -1.1777
 7268SOL    HW233264   4.501   2.907   5.600  0.0793  0.5144  0.1039
 7269SOL     OW33265   1.792   1.649   3.260 -0.1834  0.0881  0.0317
 7269SOL    HW133266   1.844   1.700   3.322  0.1056 -0.7037  0.4521
 7269SOL    HW233267   1.703   1.670   3.288 -0.2325 -0.5626  0.3741
 7270SOL     OW33268   0.081   1.617  15.020 -0.1597 -0.1776  0.5744
 7270SOL    HW133269   0.173   1.643  15.032 -0.2607 -0.3012  1.6112
 7270SOL    HW233270   0.043   1.702  14.997 -3.0300 -1.0653  2.1096
 7271SOL     OW33271   1.982   3.547  15.311  0.2164 -0.0163  0.0926
 7271SOL    HW133272   1.892   3.545  15.277 -0.0803 -0.1726  0.8762
 7271SOL    HW233273   1.964   3.600  15.389 -0.3309 -1.5533  1.0093
 7272SOL     OW33274   4.318   3.739  16.951  0.0556 -0.5033  0.4295
 7272SOL    HW133275   4.310   3.727  16.856  2.6935  2.4029 -0.1612
 7272SOL    HW233276   4.251   3.806  16.960 -0.5701 -1.3289  1.9293
 7273SOL     OW33277   4.698   3.775  15.354 -0.7541 -0.3555 -0.6920
 7273SOL    HW133278   0.061   3.818  15.351 -1.3355  0.7511 -1.1347
 7273SOL    HW233279   4.654   3.858  15.335  0.0215  0.3029  0.4287
 7274SOL     OW33280   0.063   2.899  15.176 -0.1349  0.0488  0.1845
 7274SOL    HW133281   0.079   2.906  15.271 -0.7896 -2.1626  0.4516
 7274SOL    HW233282   0.005   2.824  15.177 -0.9768  0.7138  1.8964
 7275SOL     OW33283   4.298   3.894  10.603  0.3460  0.1070  0.0448
 7275SOL    HW133284   4.355   3.970  10.616 -0.3901  0.8621 -1.0355
 7275SOL    HW233285   4.319   3.844  10.681 -0.2181 -1.5482 -0.8630
 7276SOL     OW33286   1.141   0.999  10.657  0.1462 -0.3175 -0.2427
 7276SOL    HW133287   1.169   1.077  10.609  2.5906 -1.2180 -0.2871
 7276SOL    HW233288   1.092   0.951  10.590 -1.8429  2.3634 -0.7120
 7277SOL     OW33289   3.882   2.107   5.382  0.3517 -0.6345  0.4931
 7277SOL    HW133290   3.816   2.039   5.394 -1.2865  0.4390 -2.6485
 7277SOL    HW233291   3.868   2.123   5.289 -0.1859  1.5053  0.9515
 7278SOL     OW33292   0.523   1.234   6.393 -0.4295 -0.0429 -0.0399
 7278SOL    HW133293   0.440   1.190   6.413 -1.9752  1.8570 -2.2133
 7278SOL    HW233294   0.485   1.320   6.376 -0.1597  0.4437  1.8248
 7279SOL     OW33295   1.877   4.456   9.474  0.6725  0.0062 -0.0787
 7279SOL    HW133296   1.857   4.377   9.425 -0.9806 -0.1542  0.8354
 7279SOL    HW233297   1.895   4.516   9.402  3.1607  1.9514  2.1181
 7280SOL     OW33298   1.297   3.187   4.154 -0.1912  0.3079 -0.3795
 7280SOL    HW133299   1.340   3.264   4.117  1.9499  0.1393  1.8122
 7280SOL    HW233300   1.231   3.176   4.084 -0.4005 -0.9251  0.0069
 7281SOL     OW33301   1.812   1.226   8.073  0.1705 -0.4119 -0.1185
 7281SOL    HW133302   1.871   1.244   8.145  0.6295 -0.2158 -0.5416
 7281SOL    HW233303   1.827   1.132   8.062  0.0437 -0.3689 -0.6962
 7282SOL     OW33304   3.694   2.101   5.160 -0.5604 -0.2194 -0.4677
 7282SOL    HW133305   3.702   2.190   5.126 -0.6345  0.8833  2.4155
 7282SOL    HW233306   3.647   2.059   5.088 -1.0955  2.2827 -1.5686
 7283SOL     OW33307   2.736   1.898   4.286 -0.0366 -0.3231 -0.2410
 7283SOL    HW133308   2.739   1.992   4.267  0.1867 -0.4024 -0.6076
 7283SOL    HW233309   2.831   1.891   4.275  0.0975  0.2013  0.6131
 7284SOL     OW33310   2.886   3.160   8.647 -0.5711  0.6556 -0.2613
 7284SOL    HW133311   2.888   3.097   8.575  1.6476  1.2758 -0.7265
 7284SOL    HW233312   2.963   3.134   8.697 -2.3534 -2.4640  0.9263
 7285SOL     OW33313   2.919   1.331   3.796 -0.2802 -0.6227 -0.7793
 7285SOL    HW133314   2.838   1.282   3.809 -0.6076 -0.2568 -1.4155
 7285SOL    HW233315   2.930   1.363   3.885 -0.3617 -1.6866 -0.3952
 7286SOL     OW33316   2.804   1.169   8.730 -0.5768 -0.3023  0.2570
 7286SOL    HW133317   2.729   1.112   8.745 -1.2529  0.5788  0.1808
 7286SOL    HW233318   2.821   1.147   8.638  0.5530 -1.0612  0.6395
 7287SOL     OW33319   1.927   1.510   0.311  0.5211 -0.8866  0.3180
 7287SOL    HW133320   1.978   1.587   0.285 -1.2178  0.9303  2.2420
 7287SOL    HW233321   1.965   1.485   0.395  1.0127  2.0610  0.9672
 7288SOL     OW33322   0.254   1.204   6.454 -0.4626 -0.0059 -0.3698
 7288SOL    HW133323   0.169   1.248   6.460 -0.7716 -0.4362 -1.4124
 7288SOL    HW233324   0.289   1.226   6.540 -1.5720 -1.6398  0.5054
 7289SOL     OW33325   2.057   3.260   4.072  0.1384 -0.8819 -0.2379
 7289SOL    HW133326   1.982   3.272   4.014 -0.2160 -1.1642  0.1567
 7289SOL    HW233327   2.091   3.348   4.085 -0.1647 -0.8916  0.6030
 7290SOL     OW33328   1.180   2.172   6.734 -0.0839  0.0228  0.1669
 7290SOL    HW133329   1.173   2.183   6.640 -2.6672  2.1825  0.5966
 7290SOL    HW233330   1.274   2.183   6.750 -0.1169 -0.0509  0.4085
 7291SOL     OW33331   2.699   1.482   5.569  0.1200 -0.8034  0.1666
 7291SOL    HW133332   2.713   1.574   5.591  0.4703 -0.8669  0.2195
 7291SOL    HW233333   2.608   1.483   5.542  0.7887  1.6602 -2.0640
 7292SOL     OW33334   1.661   1.225  16.235  0.9321  0.1821  0.1078
 7292SOL    HW133335   1.718   1.279  16.179  0.4006  1.3673  0.7090
 7292SOL    HW233336   1.690   1.135  16.218  0.9450  0.2712 -0.3518
 7293SOL     OW33337   4.251   0.947   1.390 -0.1556  0.1577 -0.0662
 7293SOL    HW133338   4.310   0.960   1.464 -0.8934  0.6808  0.4283
 7293SOL    HW233339   4.282   1.020   1.336 -0.3815 -1.1579 -1.9908
 7294SOL     OW33340   3.602   1.911   6.917 -0.5966  0.3011  1.0216
 7294SOL    HW133341   3.591   1.824   6.956 -2.2908 -0.1765 -0.4571
 7294SOL    HW233342   3.645   1.898   6.832  0.0955 -1.0838  1.5891
 7295SOL     OW33343   3.211   1.495   3.917  0.2975 -0.3914  0.4928
 7295SOL    HW133344   3.155   1.423   3.945  0.4697  0.1680  2.2623
 7295SOL    HW233345   3.185   1.504   3.825  1.8721 -1.4820 -0.0392
 7296SOL     OW33346   3.747   1.082  10.216  0.5897  0.3005  0.4342
 7296SOL    HW133347   3.809   1.155  10.207 -0.6165  1.1906 -0.6730
 7296SOL    HW233348   3.762   1.046  10.303  0.5278  0.9850  0.7324
 7297SOL     OW33349   0.702   4.661   5.680  0.0835 -0.2293 -0.2528
 7297SOL    HW133350   0.633   4.718   5.711  0.7318 -0.2587  1.2271
 7297SOL    HW233351   0.650   4.581   5.671  0.0433 -0.1344 -0.8390
 7298SOL     OW33352   3.566   4.254   9.264  0.6795 -0.3351  0.2938
 7298SOL    HW133353   3.607   4.273   9.348  1.0327 -1.5069  0.3849
 7298SOL    HW233354   3.532   4.166   9.277  0.4993 -0.3302 -0.1223
 7299SOL     OW33355   1.954   2.578  12.136 -0.3711 -0.0952 -0.3947
 7299SOL    HW133356   1.859   2.568  12.133 -0.4977  0.9293  0.5822
 7299SOL    HW233357   1.959   2.604  12.228  4.2818 -0.5681 -0.4784
 7300SOL     OW33358   4.083   1.168   2.775  0.1744 -0.0090  0.5057
 7300SOL    HW133359   3.995   1.152   2.810 -0.2842  0.8499 -0.2703
 7300SOL    HW233360   4.107   1.242   2.830  0.1634 -0.6825  1.4376
 7301SOL     OW33361   3.153   2.531   0.742  0.6256 -0.2412  0.3025
 7301SOL    HW133362   3.179   2.459   0.685  1.1120 -1.8520  2.5755
 7301SOL    HW233363   3.090   2.573   0.683  0.7081  0.9081  1.0281
 7302SOL     OW33364   4.329   4.462   1.115 -0.3324  0.5266  0.4614
 7302SOL    HW133365   4.288   4.398   1.057  0.1396  0.9909 -0.3882
 7302SOL    HW233366   4.379   4.404   1.172  0.9346  1.2699  0.1151
 7303SOL     OW33367   4.007   1.037  12.650  0.0498 -0.3241  0.1633
 7303SOL    HW133368   3.940   1.094  12.614  0.0106 -0.1736  0.4720
 7303SOL    HW233369   4.057   1.104  12.697  1.5265 -0.2224 -1.5373
 7304SOL     OW33370   4.468   0.147   4.751  0.6129  0.6576 -0.4138
 7304SOL    HW133371   4.410   0.160   4.675 -1.7903 -0.6502  1.1917
 7304SOL    HW233372   4.497   0.056   4.749 -2.6270 -0.3769 -2.7218
 7305SOL     OW33373   1.499   3.413  12.535  0.6738 -0.0829 -0.4431
 7305SOL    HW133374   1.507   3.415  12.630 -0.2278 -1.1950 -0.3422
 7305SOL    HW233375   1.416   3.366  12.527 -1.2561  3.3408 -0.4253
 7306SOL     OW33376   0.090   2.569  16.447 -0.5486  0.5240  0.0092
 7306SOL    HW133377   0.097   2.647  16.502 -0.0186 -0.1246  0.8536
 7306SOL    HW233378   0.118   2.501  16.507 -0.2063  3.2083  2.8943
 7307SOL     OW33379   4.333   4.547   2.193 -0.1872  0.3551  0.0509
 7307SOL    HW133380   4.333   4.537   2.098  0.8914 -1.4278  0.2314
 7307SOL    HW233381   4.250   4.508   2.220  0.5309 -0.6336  0.8575
 7308SOL     OW33382   1.827   4.063   5.255 -0.2243  0.1108  0.3206
 7308SOL    HW133383   1.738   4.038   5.279  0.0815 -2.3281 -1.0681
 7308SOL    HW233384   1.827   4.036   5.164  0.4885  0.2122  0.2841
 7309SOL     OW33385   3.633   0.441  13.221  0.3697  0.0666  0.0435
 7309SOL    HW133386   3.605   0.481  13.303 -2.4909  1.1664 -1.4402
 7309SOL    HW233387   3.675   0.360  13.248  0.5891  0.0496 -0.3454
 7310SOL     OW33388   3.984   2.908  10.765  0.2841  0.5028 -0.3809
 7310SOL    HW133389   3.998   2.855  10.843  0.2382  1.7991  0.5059
 7310SOL    HW233390   3.911   2.862  10.725  0.1757 -0.8331  1.3522
 7311SOL     OW33391   3.243   2.768   7.706  0.2087  0.1523 -0.4028
 7311SOL    HW133392   3.173   2.764   7.771  1.0761 -1.3984  0.4366
 7311SOL    HW233393   3.301   2.820   7.762  0.3765 -0.6827  0.2022
 7312SOL     OW33394   4.559   1.759   4.619  0.1833  0.2642 -0.0102
 7312SOL    HW133395   4.520   1.788   4.537  2.0739  1.4667 -0.4809
 7312SOL    HW233396   4.575   1.668   4.594 -0.5861 -0.4165  1.9924
 7313SOL     OW33397   1.300   4.502   6.012  0.2577 -0.0463 -0.0153
 7313SOL    HW133398   1.339   4.415   6.022 -0.7734 -0.4573  0.3432
 7313SOL    HW233399   1.306   4.511   5.916  0.1055 -0.1801 -0.0375
 7314SOL     OW33400   0.400   2.071   8.415 -0.1610  0.1505 -0.2787
 7314SOL    HW133401   0.466   2.011   8.380  0.1933 -0.8498  2.1113
 7314SOL    HW233402   0.318   2.022   8.412  0.7853 -1.6016  3.5833
 7315SOL     OW33403   0.053   0.862   7.088 -0.3885 -0.3540  0.6113
 7315SOL    HW133404   0.053   0.834   6.996  2.7437  0.1073  0.4725
 7315SOL    HW233405   0.052   0.957   7.073  0.8441 -0.7794 -2.2599
 7316SOL     OW33406   3.004   4.667   7.281  0.6942 -0.5897 -0.1670
 7316SOL    HW133407   2.955   4.611   7.340  0.6730 -1.3257 -0.8899
 7316SOL    HW233408   3.071   4.605   7.254  0.9037 -0.0134 -0.9933
 7317SOL     OW33409   3.164   1.993  12.953 -0.1827 -0.4303  0.5297
 7317SOL    HW133410   3.187   1.971  12.862  0.8701  0.4173  0.5844
 7317SOL    HW233411   3.088   2.047  12.935  0.6445  0.5538 -0.0697
 7318SOL     OW33412   0.893   4.526   2.039  0.2731 -0.0221 -0.5849
 7318SOL    HW133413   0.916   4.578   2.116 -0.1753  1.4002 -1.4146
 7318SOL    HW233414   0.837   4.457   2.073  1.6956 -1.8057 -1.8828
 7319SOL     OW33415   4.113   0.551  16.183  0.0570  0.3202 -0.4891
 7319SOL    HW133416   4.083   0.475  16.133  4.0813 -1.9608  0.5305
 7319SOL    HW233417   4.027   0.575  16.218  1.0554  0.7305  1.6948
 7320SOL     OW33418   2.382   0.316  14.196 -0.8836 -0.1466 -0.6140
 7320SOL    HW133419   2.471   0.324  14.162 -1.6432  0.6170 -2.4137
 7320SOL    HW233420   2.350   0.251  14.133 -1.2345 -0.9190  0.3527
 7321SOL     OW33421   2.061   4.178   8.029  0.2155  0.2522  0.1854
 7321SOL    HW133422   2.049   4.273   8.020  0.5592  0.2510 -0.2635
 7321SOL    HW233423   2.125   4.173   8.099 -1.2500  1.5174  1.6156
 7322SOL     OW33424   3.048   4.347  13.118  0.4801 -0.0996  0.4047
 7322SOL    HW133425   3.065   4.300  13.037 -0.6214 -0.0261  0.1262
 7322SOL    HW233426   3.134   4.339  13.159  0.5477  0.2893  0.3383
 7323SOL     OW33427   3.616   3.449   1.837 -0.1506  0.0427  0.4172
 7323SOL    HW133428   3.568   3.532   1.847  0.0012  0.1730  0.0566
 7323SOL    HW233429   3.668   3.441   1.917 -2.1629 -1.2817  1.6023
 7324SOL     OW33430   2.446   3.106   7.885 -0.2418 -0.1019  0.4596
 7324SOL    HW133431   2.515   3.047   7.913 -0.8461 -1.3005 -0.5769
 7324SOL    HW233432   2.415   3.058   7.808  2.2719  0.6868 -1.0436
 7325SOL     OW33433   0.150   4.167   8.108  0.1984  0.1446 -0.3320
 7325SOL    HW133434   0.163   4.259   8.084 -1.0412  1.0100  2.2792
 7325SOL    HW233435   0.149   4.118   8.026 -5.6462 -0.1391 -0.0695
 7326SOL     OW33436   4.498   3.133   2.550 -0.2497 -0.3939  0.2445
 7326SOL    HW133437   4.407   3.113   2.572 -0.2963 -0.9684 -0.4677
 7326SOL    HW233438   4.489   3.228   2.543  2.2704 -0.1209  0.7560
 7327SOL     OW33439   2.703   3.240   9.896  0.6058  0.1151 -0.1329
 7327SOL    HW133440   2.713   3.334   9.913  1.3335  0.4825 -2.6700
 7327SOL    HW233441   2.689   3.208   9.985 -0.4074  0.2670 -0.2461
 7328SOL     OW33442   2.566   1.346   8.219 -0.0521  0.1133 -0.5025
 7328SOL    HW133443   2.596   1.435   8.240 -0.5485  0.3474 -0.7871
 7328SOL    HW233444   2.627   1.292   8.270 -0.6392 -0.2499 -0.1872
 7329SOL     OW33445   3.135   1.853  13.543  0.2265 -0.2905 -0.0604
 7329SOL    HW133446   3.190   1.911  13.595 -0.4479  0.5103 -0.2383
 7329SOL    HW233447   3.208   1.812  13.498  1.1940  0.0084  1.2385
 7330SOL     OW33448   2.958   2.449   3.239 -0.3335 -0.2720  0.0908
 7330SOL    HW133449   2.929   2.400   3.161 -0.1431 -0.3180  0.0484
 7330SOL    HW233450   3.036   2.407   3.274  0.2011  2.2450  1.9259
 7331SOL     OW33451   0.451   1.562  16.837 -0.2120 -0.1400 -0.1031
 7331SOL    HW133452   0.417   1.575  16.925  2.4861  0.9559  0.7800
 7331SOL    HW233453   0.374   1.597  16.792  0.5598  2.3018  0.4534
 7332SOL     OW33454   2.135   2.179   5.626  0.0005  0.3062  0.3331
 7332SOL    HW133455   2.040   2.166   5.618  0.3239 -0.4412 -2.0996
 7332SOL    HW233456   2.148   2.234   5.549 -1.9007  1.0164  0.5077
 7333SOL     OW33457   0.575   3.666  15.707 -0.0535  0.1518 -0.4039
 7333SOL    HW133458   0.567   3.758  15.732 -4.2566 -0.4704  0.4456
 7333SOL    HW233459   0.584   3.626  15.794  0.8554  1.9720  0.3450
 7334SOL     OW33460   3.991   4.582   0.451 -0.4762  0.4080 -0.4579
 7334SOL    HW133461   3.905   4.575   0.411 -1.7467 -0.1217  2.4055
 7334SOL    HW233462   3.980   4.532   0.532  0.1883  0.5734 -0.2621
 7335SOL     OW33463   2.344   1.600   7.155  0.2038 -0.5204  0.0871
 7335SOL    HW133464   2.406   1.573   7.223 -0.5036  0.6846  1.2095
 7335SOL    HW233465   2.289   1.665   7.198  0.2798 -0.3561 -0.0657
 7336SOL     OW33466   2.189   4.484   3.944  0.4631  0.0196 -0.4472
 7336SOL    HW133467   2.095   4.495   3.951  0.2848 -1.4403 -0.7215
 7336SOL    HW233468   2.191   4.394   3.912  0.4408  1.1767 -3.7009
 7337SOL     OW33469   0.603   4.558   4.513 -0.5188  0.6313  0.6370
 7337SOL    HW133470   0.585   4.469   4.484  2.7750  0.2862 -0.2935
 7337SOL    HW233471   0.609   4.537   4.606 -0.4942  1.4228  0.8169
 7338SOL     OW33472   4.083   3.323  17.528  0.4868  0.0652  0.1299
 7338SOL    HW133473   4.103   3.405  17.572 -0.9267  2.0514 -2.9183
 7338SOL    HW233474   4.167   3.284  17.504  0.0683 -0.4614 -0.4712
 7339SOL     OW33475   3.902   3.531   2.328  0.3539 -0.2832  0.9206
 7339SOL    HW133476   3.829   3.531   2.391 -0.6659  3.2276 -0.2199
 7339SOL    HW233477   3.921   3.625   2.318 -2.6231 -0.1697 -3.4709
 7340SOL     OW33478   0.984   2.769   8.293  0.1673  0.5092  0.4077
 7340SOL    HW133479   0.979   2.768   8.198 -1.4285 -1.1412  0.4975
 7340SOL    HW233480   1.049   2.834   8.319 -0.9690  2.5017 -1.7140
 7341SOL     OW33481   2.951   2.466   8.346 -0.1209 -0.2824 -0.4685
 7341SOL    HW133482   2.896   2.430   8.277 -0.0196  2.0091 -1.7379
 7341SOL    HW233483   2.959   2.390   8.403  1.2129  1.0701  1.1440
 7342SOL     OW33484   2.450   0.346   2.408  0.1849 -0.7236 -0.4088
 7342SOL    HW133485   2.366   0.337   2.363  2.0069 -1.3503 -3.6582
 7342SOL    HW233486   2.494   0.419   2.363 -0.3069  0.6154  1.2755
 7343SOL     OW33487   0.235   4.294   7.213  0.1059 -0.0716  0.6158
 7343SOL    HW133488   0.329   4.307   7.223  0.1263 -0.0291  0.3699
 7343SOL    HW233489   0.208   4.273   7.303  1.0501  0.2469  0.9762
 7344SOL     OW33490   0.073   4.396  16.428 -0.2391 -0.3374 -0.4440
 7344SOL    HW133491   0.036   4.378  16.515 -0.3714 -1.3524 -0.7063
 7344SOL    HW233492   0.154   4.442  16.451 -1.1675  1.2922 -0.4277
 7345SOL     OW33493   2.792   0.126  12.794  0.2019 -0.0142  0.4143
 7345SOL    HW133494   2.869   0.137  12.738 -0.5763 -0.7503 -0.8206
 7345SOL    HW233495   2.829   0.065  12.858 -0.6605  0.1801  1.1027
 7346SOL     OW33496   3.183   1.108  16.580  0.2658 -0.1589  0.0464
 7346SOL    HW133497   3.190   1.030  16.636  1.1147  0.7154  1.1662
 7346SOL    HW233498   3.216   1.174  16.640  0.5651  0.7156 -1.0936
 7347SOL     OW33499   2.799   4.712   4.070  0.2760 -0.2749  0.4916
 7347SOL    HW133500   2.839   0.051   4.131  0.4204  1.8592 -1.7673
 7347SOL    HW233501   2.797   4.635   4.128 -1.3339 -0.0390  0.7636
 7348SOL     OW33502   4.078   2.808   7.080  0.0814  0.5512 -0.5795
 7348SOL    HW133503   4.107   2.899   7.072 -2.9013  1.8650  3.4723
 7348SOL    HW233504   4.162   2.763   7.071 -0.3615 -0.3623 -0.1808
 7349SOL     OW33505   3.946   1.846   2.139  0.3603 -0.1488  0.2936
 7349SOL    HW133506   4.033   1.812   2.118  0.5138  0.8285 -0.6664
 7349SOL    HW233507   3.920   1.870   2.050 -1.5734 -0.2291  0.8408
 7350SOL     OW33508   2.415   1.683  12.886 -0.1447 -0.0830  0.1294
 7350SOL    HW133509   2.384   1.621  12.820 -0.8874 -0.8591  1.2171
 7350SOL    HW233510   2.335   1.734  12.898 -1.3259 -1.4172 -2.1450
 7351SOL     OW33511   1.326   1.304  11.629 -0.4015 -0.2884 -0.2856
 7351SOL    HW133512   1.382   1.374  11.662 -0.3898 -0.7522  0.6778
 7351SOL    HW233513   1.392   1.236  11.617  1.4695  1.3781  0.6262
 7352SOL     OW33514   1.583   2.900  11.642  0.3336 -0.5757  0.0918
 7352SOL    HW133515   1.632   2.935  11.717  1.0840  1.5475 -1.3698
 7352SOL    HW233516   1.637   2.923  11.567 -1.1564  0.6333 -0.6040
 7353SOL     OW33517   2.170   3.434   0.909 -0.0499  0.2695 -0.0831
 7353SOL    HW133518   2.159   3.348   0.950 -0.4432  0.1686 -0.3973
 7353SOL    HW233519   2.222   3.406   0.833 -0.4689 -1.4402  0.2497
 7354SOL     OW33520   0.611   2.213  11.529  0.2851 -0.1583  0.0113
 7354SOL    HW133521   0.555   2.279  11.569 -0.9660  0.6445 -3.1013
 7354SOL    HW233522   0.601   2.231  11.436  0.8335 -0.0020 -0.0150
 7355SOL     OW33523   2.004   0.864   8.538 -0.5624  0.2326  0.1097
 7355SOL    HW133524   2.010   0.960   8.535 -0.5365  0.3093  2.2770
 7355SOL    HW233525   1.925   0.850   8.487  0.5501 -0.6707 -1.3689
 7356SOL     OW33526   3.038   4.484   6.256  0.1054  0.2271  0.2736
 7356SOL    HW133527   3.084   4.500   6.338 -0.7582  3.1432  0.1656
 7356SOL    HW233528   2.949   4.502   6.285  0.0293  0.0345  0.1639
 7357SOL     OW33529   2.300   0.462   3.210  0.6661  0.4545  0.0334
 7357SOL    HW133530   2.316   0.439   3.302  0.4034 -1.3328 -0.3722
 7357SOL    HW233531   2.376   0.513   3.181  1.0888  0.1363  0.5787
 7358SOL     OW33532   4.323   0.514  13.979  0.0045 -0.2579 -0.4027
 7358SOL    HW133533   4.332   0.459  14.057  1.5821  2.3264  1.2077
 7358SOL    HW233534   4.324   0.600  14.020 -2.3638  0.8417 -2.6720
 7359SOL     OW33535   4.614   3.210   1.765  0.1148 -0.1886  0.3606
 7359SOL    HW133536   4.534   3.171   1.801  0.1144 -0.2732  0.2683
 7359SOL    HW233537   4.608   3.186   1.672 -1.0093 -1.4941  0.7774
 7360SOL     OW33538   0.132   4.247   6.731 -0.2691  0.2462 -0.6650
 7360SOL    HW133539   0.219   4.285   6.739 -0.7216  1.1825 -0.2519
 7360SOL    HW233540   0.126   4.193   6.809 -0.4487  0.9359 -0.1992
 7361SOL     OW33541   1.276   3.185   0.562 -0.3260  0.0392  0.5733
 7361SOL    HW133542   1.183   3.168   0.552 -0.1526  0.3048 -1.4383
 7361SOL    HW233543   1.287   3.268   0.516  0.9803 -1.1794 -1.3282
 7362SOL     OW33544   4.455   2.900   7.110 -0.1139 -0.5509 -0.4581
 7362SOL    HW133545   4.544   2.899   7.075 -0.3762 -1.6199 -1.1086
 7362SOL    HW233546   4.461   2.976   7.167  0.0495 -1.1287  0.2963
 7363SOL     OW33547   1.655   0.223  17.272  0.0785 -0.5031 -0.5116
 7363SOL    HW133548   1.745   0.195  17.254 -0.7385 -2.9679 -0.7140
 7363SOL    HW233549   1.646   0.264  17.186  0.9244  1.4302  0.3140
 7364SOL     OW33550   3.449   2.748   2.277  0.0518  0.2844 -0.2460
 7364SOL    HW133551   3.425   2.752   2.184 -0.5144 -1.2949 -0.1699
 7364SOL    HW233552   3.483   2.837   2.281 -2.7056  1.2973  0.2240
 7365SOL     OW33553   2.087   0.716  10.077 -1.2221 -0.0648 -0.2774
 7365SOL    HW133554   2.174   0.727  10.041 -1.3660  0.8978 -0.3142
 7365SOL    HW233555   2.109   0.705  10.170  0.2924  0.4232 -0.5826
 7366SOL     OW33556   3.628   2.331   4.177 -0.1234  0.7305  0.2266
 7366SOL    HW133557   3.640   2.423   4.156  0.6009  0.8009  0.9494
 7366SOL    HW233558   3.707   2.315   4.229 -0.4928 -2.9639 -0.3170
 7367SOL     OW33559   4.059   1.038  16.013 -0.0559 -0.3579 -0.6456
 7367SOL    HW133560   4.086   0.946  16.014 -0.5268 -0.4955 -0.5654
 7367SOL    HW233561   3.966   1.027  16.034  0.2876  0.0052  1.0936
 7368SOL     OW33562   4.063   3.565   6.169 -0.3301 -0.1973 -0.0067
 7368SOL    HW133563   4.158   3.576   6.163 -0.3993  0.1274 -0.5668
 7368SOL    HW233564   4.051   3.598   6.258 -0.0485  2.0067 -0.7670
 7369SOL     OW33565   0.938   1.414   4.329  0.0396  0.5381  0.1211
 7369SOL    HW133566   0.926   1.346   4.262 -2.3467  0.2951  0.7934
 7369SOL    HW233567   0.913   1.485   4.269 -0.6178 -0.8344 -1.2409
 7370SOL     OW33568   3.500   1.132  16.610  0.9086 -0.0723 -0.5384
 7370SOL    HW133569   3.547   1.214  16.594 -0.2620  0.7967  0.4546
 7370SOL    HW233570   3.444   1.170  16.678  0.1189 -0.5157 -0.9486
 7371SOL     OW33571   4.371   0.948   3.483 -0.0385  0.0595  0.0034
 7371SOL    HW133572   4.347   0.985   3.568  3.0974  0.3637  0.7366
 7371SOL    HW233573   4.423   0.872   3.506  0.0503  0.2927  0.5673
 7372SOL     OW33574   1.906   3.954   2.788  0.1825  0.5641 -0.3216
 7372SOL    HW133575   1.881   4.045   2.804  2.9924  0.9972  1.5713
 7372SOL    HW233576   1.840   3.920   2.727 -1.6470  2.0264  0.8372
 7373SOL     OW33577   0.625   0.914   8.565  0.0211  0.3098  0.2363
 7373SOL    HW133578   0.650   1.006   8.569  1.2534  0.0115 -0.4998
 7373SOL    HW233579   0.629   0.899   8.659 -1.2901 -0.5062  0.1694
 7374SOL     OW33580   2.829   2.298   4.429 -0.4929  0.0910 -0.4482
 7374SOL    HW133581   2.751   2.323   4.478 -1.6238  3.6884 -4.1093
 7374SOL    HW233582   2.850   2.212   4.467 -0.1465  1.4133  2.3250
 7375SOL     OW33583   1.056   3.162   3.095 -0.2654 -0.4766 -0.1676
 7375SOL    HW133584   1.104   3.197   3.170  0.9190 -2.1327 -0.1444
 7375SOL    HW233585   1.025   3.079   3.130 -0.3559 -0.5153 -0.3390
 7376SOL     OW33586   3.385   0.885   4.145  0.4164  0.4179  0.1524
 7376SOL    HW133587   3.392   0.966   4.196  0.6291  0.7452 -0.3986
 7376SOL    HW233588   3.291   0.863   4.144  0.5127 -0.0640  2.0003
 7377SOL     OW33589   3.502   3.743   6.283 -0.2929  0.2386 -0.3337
 7377SOL    HW133590   3.563   3.721   6.213 -1.5376  0.3006 -1.4455
 7377SOL    HW233591   3.447   3.664   6.284 -1.4357  1.0291 -0.7419
 7378SOL     OW33592   3.279   2.022   3.870 -0.1525 -0.0519  0.0134
 7378SOL    HW133593   3.208   2.047   3.929  2.5367  1.7146  2.5227
 7378SOL    HW233594   3.325   2.104   3.851  1.2334 -0.5093  1.3383
 7379SOL     OW33595   4.170   2.956  12.063  0.1796  0.3508  0.1826
 7379SOL    HW133596   4.251   2.969  12.014 -0.0857  1.7670  0.1175
 7379SOL    HW233597   4.123   3.039  12.057 -0.5966  0.0173  1.6483
 7380SOL     OW33598   4.377   1.161  12.939 -0.2961  0.0117 -0.3158
 7380SOL    HW133599   4.432   1.085  12.955 -0.0354  0.3885  0.5549
 7380SOL    HW233600   4.433   1.219  12.991 -0.5822 -1.0361  1.1536
 7381SOL     OW33601   0.200   0.022   5.034  0.0108  0.2852  0.5966
 7381SOL    HW133602   0.153   4.663   5.022  0.5513  0.2025 -0.9023
 7381SOL    HW233603   0.124   0.080   5.031 -2.4998 -2.9595  2.4662
 7382SOL     OW33604   4.363   4.205   2.117  0.7406 -0.0340  0.4558
 7382SOL    HW133605   4.404   4.285   2.083 -0.1407  0.4902  0.6021
 7382SOL    HW233606   4.300   4.248   2.175  0.3124 -0.6694  0.4699
 7383SOL     OW33607   2.027   1.669   2.503 -0.0749 -0.8079  0.0179
 7383SOL    HW133608   2.081   1.591   2.491  1.1785  0.3777 -2.1613
 7383SOL    HW233609   2.078   1.718   2.567  0.8218  1.2996 -2.3014
 7384SOL     OW33610   2.895   0.351  11.999 -0.0401  0.7095  0.6098
 7384SOL    HW133611   2.841   0.275  12.023  0.0897 -0.5476 -3.0783
 7384SOL    HW233612   2.889   0.414  12.071  0.3601  1.8051 -0.3201
 7385SOL     OW33613   2.518   4.158   3.615  0.1734  0.0609 -0.3190
 7385SOL    HW133614   2.493   4.066   3.619 -0.3743  0.0948 -2.9525
 7385SOL    HW233615   2.604   4.146   3.574 -0.1957 -0.6975 -0.8496
 7386SOL     OW33616   3.617   1.391  16.623 -0.2468  0.9882 -0.1099
 7386SOL    HW133617   3.533   1.437  16.623  0.6871  2.7059  2.1126
 7386SOL    HW233618   3.629   1.408  16.716 -1.1465 -1.7734  0.4896
 7387SOL     OW33619   1.844   1.648  12.673  0.3584  0.1575 -0.1883
 7387SOL    HW133620   1.938   1.669  12.672  0.5156 -0.4205  2.2487
 7387SOL    HW233621   1.846   1.587  12.600 -0.5642  2.7099 -2.3282
 7388SOL     OW33622   1.384   2.491  15.284 -0.0794  0.0881 -0.0945
 7388SOL    HW133623   1.297   2.503  15.321 -0.0585 -1.2256  0.3939
 7388SOL    HW233624   1.400   2.399  15.306 -1.2840  0.0054  0.3946
 7389SOL     OW33625   3.885   3.624   9.808  0.1616 -0.1158 -0.1183
 7389SOL    HW133626   3.924   3.537   9.816  0.9883  0.1597 -1.1442
 7389SOL    HW233627   3.930   3.674   9.876 -2.3013  0.4695  1.0645
 7390SOL     OW33628   3.926   3.128   5.568  0.0158 -0.7134  0.4768
 7390SOL    HW133629   4.018   3.119   5.543 -0.4927 -2.1892 -0.8394
 7390SOL    HW233630   3.936   3.170   5.654  3.4040 -0.0279 -0.2556
 7391SOL     OW33631   4.665   3.222   0.028  0.3462  0.0313  0.1840
 7391SOL    HW133632   4.644   3.130   0.012  0.4911  0.0595 -0.1636
 7391SOL    HW233633   4.608   3.263  17.656  1.1529  2.2177  0.8785
 7392SOL     OW33634   2.662   2.412   6.685  0.7385 -0.3617 -0.5733
 7392SOL    HW133635   2.689   2.321   6.677  1.2114 -0.5213  2.6743
 7392SOL    HW233636   2.570   2.414   6.712  0.8643 -0.5760 -0.1201
 7393SOL     OW33637   2.041   0.586   4.376  0.2212 -0.4624 -0.2931
 7393SOL    HW133638   2.060   0.665   4.324  1.9046 -1.4600 -1.2021
 7393SOL    HW233639   2.100   0.597   4.451 -0.2936 -0.9314  0.1781
 7394SOL     OW33640   2.932   2.741  14.531  0.0601 -0.1399 -0.1404
 7394SOL    HW133641   2.981   2.779  14.604 -1.1202 -0.0266  0.5917
 7394SOL    HW233642   2.842   2.769  14.546  0.0080 -1.0445  1.1931
 7395SOL     OW33643   2.070   2.204   1.094 -0.3742  0.4296  0.0655
 7395SOL    HW133644   2.117   2.156   1.162  0.8802 -1.2145 -1.9609
 7395SOL    HW233645   2.016   2.136   1.055  1.1626  0.2407 -1.7682
 7396SOL     OW33646   1.288   4.022   6.737 -0.7369  0.1399 -0.1258
 7396SOL    HW133647   1.211   3.965   6.741 -0.7774  0.2719  1.0192
 7396SOL    HW233648   1.281   4.048   6.646 -0.0265 -0.3143 -0.3070
 7397SOL     OW33649   4.562   2.573   2.829  0.9407  0.4044 -0.0262
 7397SOL    HW133650   4.637   2.628   2.850  1.8214 -0.1601 -1.7114
 7397SOL    HW233651   4.534   2.596   2.741 -0.1585  0.8233  0.4350
 7398SOL     OW33652   3.337   1.976   6.242  0.2148 -0.3752  0.2429
 7398SOL    HW133653   3.333   1.934   6.328  0.1179  0.5412  0.6980
 7398SOL    HW233654   3.261   1.942   6.195  1.2396 -0.4805 -1.3451
 7399SOL     OW33655   2.634   4.479  11.396  0.7222  0.1909  0.3869
 7399SOL    HW133656   2.634   4.458  11.489 -0.4797 -4.2385 -0.6408
 7399SOL    HW233657   2.575   4.411  11.363  0.4516  0.5918  0.0450
 7400SOL     OW33658   0.385   4.637   5.219 -0.1875  0.0849  0.0059
 7400SOL    HW133659   0.472   4.671   5.198 -0.2436  1.2805  1.7073
 7400SOL    HW233660   0.321   4.681   5.162  2.6123  1.4196 -2.1244
 7401SOL     OW33661   0.054   2.564   6.327  0.4085 -0.3752 -0.6239
 7401SOL    HW133662   0.016   2.563   6.239 -0.6052 -0.9696 -0.1814
 7401SOL    HW233663   0.113   2.490   6.314  1.0509 -0.2353  1.4318
 7402SOL     OW33664   0.131   2.741   5.642  0.3985 -0.3187  0.1007
 7402SOL    HW133665   0.118   2.683   5.567  1.1724  2.1031 -1.8875
 7402SOL    HW233666   0.110   2.827   5.607  1.3884 -1.3105 -2.8666
 7403SOL     OW33667   1.315   4.105   4.712 -0.3985  0.0135  0.4374
 7403SOL    HW133668   1.362   4.157   4.647  0.0830 -2.1264 -0.9287
 7403SOL    HW233669   1.368   4.120   4.790  0.4091 -0.7318  0.0455
 7404SOL     OW33670   3.589   1.907   1.642  0.4599  0.0439 -0.0538
 7404SOL    HW133671   3.659   1.856   1.683 -0.2603 -0.6324  0.3355
 7404SOL    HW233672   3.535   1.829   1.629  0.6130  0.4427 -3.2310
 7405SOL     OW33673   0.966   3.107   2.126  0.3038 -0.4361  0.5480
 7405SOL    HW133674   0.979   3.013   2.137 -0.7396 -0.6878 -0.2883
 7405SOL    HW233675   0.987   3.116   2.033  0.8652  0.3663  0.7506
 7406SOL     OW33676   0.671   0.959   3.398 -0.4471 -0.3216  0.5254
 7406SOL    HW133677   0.642   1.046   3.372 -0.8845 -0.0191  2.0119
 7406SOL    HW233678   0.763   0.976   3.418  0.0039  0.8600 -2.6472
 7407SOL     OW33679   0.818   2.538   2.215  0.4308  0.1155 -0.1017
 7407SOL    HW133680   0.752   2.479   2.179  2.2158 -1.3351 -1.0287
 7407SOL    HW233681   0.761   2.596   2.265  1.5342  0.2888  0.9710
 7408SOL     OW33682   1.116   4.092  10.306  0.3084  0.6559 -0.1218
 7408SOL    HW133683   1.030   4.068  10.271  1.3586 -2.3056 -0.7233
 7408SOL    HW233684   1.112   4.055  10.394  2.4524 -2.9229 -1.5102
 7409SOL     OW33685   0.667   0.490   8.644  0.2346 -0.7180 -0.2535
 7409SOL    HW133686   0.667   0.502   8.549  0.3546 -0.8186 -0.2651
 7409SOL    HW233687   0.725   0.415   8.648 -0.9639 -1.5454  1.7202
 7410SOL     OW33688   2.899   4.279   0.971  0.3794  0.1211 -0.2749
 7410SOL    HW133689   2.885   4.187   0.952 -0.9528  0.0630  0.9633
 7410SOL    HW233690   2.848   4.317   0.900 -2.8365 -2.7673  0.5179
 7411SOL     OW33691   4.685   3.876   0.201 -0.0487  0.2762 -0.2787
 7411SOL    HW133692   0.020   3.899   0.128  3.7921 -1.2131  2.3593
 7411SOL    HW233693   4.635   3.958   0.203 -0.5992 -0.1289  2.3043
 7412SOL     OW33694   2.195   0.761   1.724  0.0785 -0.1564 -0.0654
 7412SOL    HW133695   2.116   0.729   1.681 -0.8039  0.3406  1.1711
 7412SOL    HW233696   2.178   0.849   1.758 -2.5682  0.5179 -3.1923
 7413SOL     OW33697   0.631   4.133   2.939 -0.5042  0.6293 -0.1590
 7413SOL    HW133698   0.605   4.203   2.998 -0.4360  0.9274 -0.4841
 7413SOL    HW233699   0.608   4.164   2.852 -2.9121 -0.6896  0.0040
 7414SOL     OW33700   4.310   4.655   5.236  0.3566  0.1340 -0.5100
 7414SOL    HW133701   4.215   4.669   5.243  0.4892  0.4208  0.6306
 7414SOL    HW233702   4.313   4.631   5.143  0.7646 -1.4378 -0.0899
 7415SOL     OW33703   0.414   0.623  10.787  0.6479 -0.0041  0.0309
 7415SOL    HW133704   0.368   0.705  10.805 -1.4291 -0.7023 -2.1401
 7415SOL    HW233705   0.359   0.593  10.715  0.7710  2.3912 -1.0616
 7416SOL     OW33706   2.300   2.859   6.189 -0.5877 -0.2590  0.7993
 7416SOL    HW133707   2.252   2.819   6.261 -0.7933  2.2485  2.0251
 7416SOL    HW233708   2.316   2.948   6.218 -2.1250 -0.1900  1.4261
 7417SOL     OW33709   3.853   0.088   5.374 -0.0140 -0.5658  0.6216
 7417SOL    HW133710   3.791   0.137   5.428  0.2869  1.2134 -0.6577
 7417SOL    HW233711   3.794   0.041   5.317  0.4022 -1.3089  0.8081
 7418SOL     OW33712   4.333   4.054   0.763  0.4553 -0.1863  0.4868
 7418SOL    HW133713   4.293   3.968   0.777 -0.2603 -0.0324 -0.6047
 7418SOL    HW233714   4.422   4.039   0.732  0.2415 -1.6240  0.5371
 7419SOL     OW33715   4.602   3.682   4.495 -0.3564  0.3043  0.9126
 7419SOL    HW133716   4.562   3.718   4.416  1.3526 -0.8494 -0.4449
 7419SOL    HW233717   4.690   3.718   4.500  0.7745 -1.9653 -3.1811
 7420SOL     OW33718   2.470   3.299  14.195  0.1134  0.3243  0.1997
 7420SOL    HW133719   2.492   3.380  14.150  2.4168  1.3062  3.1407
 7420SOL    HW233720   2.548   3.256  14.160  1.4616  2.2468  0.8473
 7421SOL     OW33721   3.052   1.021   1.972 -0.7730 -0.0081  0.3796
 7421SOL    HW133722   2.992   1.082   1.929 -1.6957 -0.8894  0.4163
 7421SOL    HW233723   3.126   1.001   1.915 -1.0788 -0.5742  0.1884
 7422SOL     OW33724   2.092   3.780   6.828  0.1505  0.4730  0.2160
 7422SOL    HW133725   2.109   3.689   6.802  0.9345  0.3850  1.0438
 7422SOL    HW233726   2.159   3.787   6.895 -0.0326 -0.4651  0.5019
 7423SOL     OW33727   0.991   2.897  17.129  0.3028  0.3371 -0.0062
 7423SOL    HW133728   0.926   2.877  17.197  1.1175 -2.5093 -0.0542
 7423SOL    HW233729   1.055   2.954  17.172  0.1679  1.2686 -1.0592
 7424SOL     OW33730   0.843   1.661  12.988 -0.1503 -0.2893 -0.1068
 7424SOL    HW133731   0.784   1.723  13.030  1.0438 -0.3284  1.6013
 7424SOL    HW233732   0.897   1.640  13.064  1.4546  2.4234 -0.5022
 7425SOL     OW33733   2.361   4.251   1.799  0.4148  0.8074 -0.1106
 7425SOL    HW133734   2.430   4.185   1.798  0.3305  0.7197 -0.1362
 7425SOL    HW233735   2.406   4.336   1.803  0.9293  0.5093  0.3824
 7426SOL     OW33736   2.784   2.253   2.441  0.4893  0.2743  0.1168
 7426SOL    HW133737   2.818   2.340   2.459 -3.7362  2.2068 -1.2811
 7426SOL    HW233738   2.702   2.280   2.398 -2.2854 -1.9457  4.0503
 7427SOL     OW33739   3.532   1.402   6.755 -0.0421 -0.1580  0.2995
 7427SOL    HW133740   3.597   1.470   6.737  1.7566 -1.9527 -0.0698
 7427SOL    HW233741   3.484   1.437   6.830  0.0894 -0.9604  0.7699
 7428SOL     OW33742   2.666   1.237  13.852 -0.2958 -0.0025  0.0443
 7428SOL    HW133743   2.738   1.174  13.854 -0.3083 -0.0427 -0.5945
 7428SOL    HW233744   2.710   1.322  13.844 -0.3123 -0.2719 -3.0466
 7429SOL     OW33745   1.521   2.673  11.767  0.0190  0.1469  0.4486
 7429SOL    HW133746   1.548   2.747  11.713  2.9524 -2.2800 -1.3697
 7429SOL    HW233747   1.431   2.663  11.738  0.5748  2.5741 -2.1303
 7430SOL     OW33748   4.205   1.701   2.067  0.1726 -0.7001  0.0669
 7430SOL    HW133749   4.275   1.668   2.122  1.5819  1.6371 -0.2973
 7430SOL    HW233750   4.139   1.636   2.091 -0.4783  1.3498  3.7945
 7431SOL     OW33751   0.281   0.629   6.878  0.1336  0.1652  0.0882
 7431SOL    HW133752   0.256   0.635   6.970 -1.0398  1.3985 -0.3140
 7431SOL    HW233753   0.261   0.535   6.873 -0.6979  0.3314  0.2547
 7432SOL     OW33754   2.916   2.659  11.794 -0.4822 -0.2632  0.4514
 7432SOL    HW133755   2.915   2.755  11.791 -0.7573 -0.2417  1.3548
 7432SOL    HW233756   2.850   2.634  11.730  1.1992 -1.4269 -0.8597
 7433SOL     OW33757   0.436   0.264   6.803  0.2399  0.2261  0.4164
 7433SOL    HW133758   0.353   0.309   6.818  0.3856  1.3649 -2.1896
 7433SOL    HW233759   0.494   0.293   6.875  2.2354 -1.2724 -0.5905
 7434SOL     OW33760   0.925   3.733  10.081  0.0457  0.4744 -0.4321
 7434SOL    HW133761   0.976   3.654  10.098  0.9510  1.2723  0.5961
 7434SOL    HW233762   0.864   3.699  10.016 -2.5077 -1.0586  2.7816
 7435SOL     OW33763   3.823   0.920   8.940 -0.2744 -0.4507  0.0399
 7435SOL    HW133764   3.792   0.990   8.882 -0.0982 -0.1584  0.3035
 7435SOL    HW233765   3.862   0.859   8.878 -0.5730 -0.6631  0.0583
 7436SOL     OW33766   0.921   3.621  13.415 -0.0291 -0.0236  0.2464
 7436SOL    HW133767   0.935   3.543  13.360 -1.3041 -0.9765  1.2800
 7436SOL    HW233768   0.836   3.653  13.384  0.1641  1.8365  1.6716
 7437SOL     OW33769   1.664   2.623   3.335 -0.3956  0.1416  0.0892
 7437SOL    HW133770   1.586   2.611   3.281  1.7326  0.1607 -2.9933
 7437SOL    HW233771   1.717   2.683   3.283 -2.3413  2.9931  1.3968
 7438SOL     OW33772   4.493   3.410   9.906 -0.3457 -0.1801 -0.0969
 7438SOL    HW133773   4.577   3.382   9.869 -0.2145 -0.1629  0.1913
 7438SOL    HW233774   4.480   3.495   9.863  0.8374  0.4521  0.7906
 7439SOL     OW33775   4.179   1.242  15.876 -0.4430  0.1956  0.1976
 7439SOL    HW133776   4.095   1.246  15.923  0.2873 -0.1562  1.5401
 7439SOL    HW233777   4.180   1.147  15.864 -1.0960  0.1617  0.3950
 7440SOL     OW33778   2.906   2.572   2.908 -0.0211  0.2681 -0.0377
 7440SOL    HW133779   2.913   2.522   2.989 -0.1905  2.0356  1.0714
 7440SOL    HW233780   2.855   2.511   2.855  0.3086 -0.3853  0.3918
 7441SOL     OW33781   3.573   2.174   9.506 -0.2937 -0.8127  0.1173
 7441SOL    HW133782   3.542   2.250   9.555  1.5205 -0.8572  1.3257
 7441SOL    HW233783   3.645   2.221   9.465 -0.4745 -0.9656 -0.3780
 7442SOL     OW33784   4.495   4.548   5.450 -0.2838  0.5652  0.8794
 7442SOL    HW133785   4.407   4.522   5.423 -0.2048  3.1861 -1.8780
 7442SOL    HW233786   4.525   4.588   5.368 -0.7894  0.7638  0.7912
 7443SOL     OW33787   1.260   1.345   3.389 -0.8138  0.1936 -0.0487
 7443SOL    HW133788   1.201   1.420   3.391  0.4831  1.2285 -0.8470
 7443SOL    HW233789   1.227   1.311   3.305 -1.2534  1.4781 -0.3927
 7444SOL     OW33790   1.828   0.045  15.785  0.0091 -0.0030 -0.2617
 7444SOL    HW133791   1.896   0.020  15.847 -0.6945  1.3026  1.0346
 7444SOL    HW233792   1.835   4.704  15.714  0.9352  0.7920 -0.9050
 7445SOL     OW33793   3.061   4.169   0.091  0.0209 -0.0125 -0.3906
 7445SOL    HW133794   3.023   4.090   0.052  0.0795  0.1233 -0.7236
 7445SOL    HW233795   3.029   4.153   0.180 -1.4124  0.8225 -0.7485
 7446SOL     OW33796   1.283   1.066  12.563  0.8850 -0.2510  0.0531
 7446SOL    HW133797   1.306   1.137  12.503 -0.0059 -0.5106 -0.5891
 7446SOL    HW233798   1.361   1.067  12.619 -0.3488 -2.6326  1.8090
 7447SOL     OW33799   0.235   2.439  12.696  0.4234 -0.1352 -0.0621
 7447SOL    HW133800   0.233   2.512  12.634 -2.0144 -0.9350 -0.9311
 7447SOL    HW233801   0.226   2.359  12.644  1.5771 -0.3733  0.1006
 7448SOL     OW33802   0.254   3.004   2.598 -0.1192  0.3369  0.2154
 7448SOL    HW133803   0.192   3.012   2.671 -0.4703 -0.0416 -0.0365
 7448SOL    HW233804   0.198   3.025   2.523  0.3429  0.9088  0.0296
 7449SOL     OW33805   2.983   4.565   5.183  0.2652 -0.4987  0.3923
 7449SOL    HW133806   3.028   4.498   5.132  0.0611 -3.0414  3.5888
 7449SOL    HW233807   3.057   4.626   5.186 -0.2542  0.0703  1.5858
 7450SOL     OW33808   3.800   0.825   8.293 -0.0330 -0.3750  0.1610
 7450SOL    HW133809   3.750   0.746   8.272 -1.1299  0.4914 -0.5177
 7450SOL    HW233810   3.782   0.834   8.387  1.5446 -0.9249  0.5174
 7451SOL     OW33811   0.888   2.396  16.042  0.4249 -0.2120  0.5254
 7451SOL    HW133812   0.975   2.396  16.000 -0.4244 -1.6016 -1.2234
 7451SOL    HW233813   0.879   2.302  16.026 -2.6747  0.2996 -0.6103
 7452SOL     OW33814   1.128   2.120   3.785  0.7182  0.4233 -0.5733
 7452SOL    HW133815   1.117   2.061   3.710 -1.9660  2.0130 -1.4356
 7452SOL    HW233816   1.218   2.092   3.800  1.0915  2.0287  0.1622
 7453SOL     OW33817   4.108   3.311   2.892 -0.3351  0.1720  0.6444
 7453SOL    HW133818   4.171   3.301   2.964  1.4588  1.1047 -0.8049
 7453SOL    HW233819   4.072   3.396   2.919 -0.2636  0.5599 -0.5021
 7454SOL     OW33820   3.464   4.019   9.193  0.0458 -0.1029  0.3170
 7454SOL    HW133821   3.375   4.045   9.173  0.3968  1.1253  0.3728
 7454SOL    HW233822   3.474   3.929   9.160 -0.5869 -0.6478  1.6024
 7455SOL     OW33823   4.206   0.129  12.462 -0.5682  0.3813 -0.0988
 7455SOL    HW133824   4.189   0.222  12.474  0.0205  0.4301  0.3471
 7455SOL    HW233825   4.188   0.104  12.552  3.1911  0.8073  0.7902
 7456SOL     OW33826   2.826   1.610   2.192 -0.0474  0.4774  0.0622
 7456SOL    HW133827   2.844   1.701   2.166  1.8077  0.4865  1.3253
 7456SOL    HW233828   2.875   1.556   2.130  0.6780  0.7037  0.4381
 7457SOL     OW33829   2.804   1.938   7.125 -0.2749  0.2951  0.3522
 7457SOL    HW133830   2.733   2.003   7.127 -0.9134 -0.3914  0.2493
 7457SOL    HW233831   2.812   1.915   7.218 -1.4825  1.1071  0.6617
 7458SOL     OW33832   0.859   2.917  16.025 -0.0306 -0.1254 -0.4675
 7458SOL    HW133833   0.768   2.942  16.043  1.0602  1.2876  2.8750
 7458SOL    HW233834   0.910   2.963  16.091  0.0507  1.1090 -1.3847
 7459SOL     OW33835   4.615   0.873   7.447  0.3122 -0.6310  0.4289
 7459SOL    HW133836   4.657   0.813   7.509 -0.8912 -0.3358  1.5157
 7459SOL    HW233837   4.620   0.820   7.367 -1.0508  1.9980 -1.3682
 7460SOL     OW33838   0.417   0.735   3.140  0.0012  0.0808 -0.5791
 7460SOL    HW133839   0.348   0.670   3.129 -0.2410  0.0521  1.1757
 7460SOL    HW233840   0.367   0.810   3.173  0.7885 -0.1369  1.1215
 7461SOL     OW33841   2.650   4.442   5.659 -0.0133 -0.2906  0.0087
 7461SOL    HW133842   2.656   4.364   5.714 -0.3723 -0.7475 -0.5883
 7461SOL    HW233843   2.737   4.481   5.664  0.3247 -1.1046  0.4814
 7462SOL     OW33844   3.856   4.200   4.367 -0.0352  0.0149  0.1177
 7462SOL    HW133845   3.873   4.287   4.332  1.0535  0.6639  2.2825
 7462SOL    HW233846   3.865   4.214   4.462  1.8461 -3.0179  0.3823
 7463SOL     OW33847   2.602   4.483   4.834 -0.2141 -0.0535 -0.0245
 7463SOL    HW133848   2.608   4.449   4.745 -0.5241  2.1262 -0.8730
 7463SOL    HW233849   2.611   4.577   4.819 -1.1907  0.0716  0.1253
 7464SOL     OW33850   2.327   1.489   4.229 -0.8626 -0.4215 -0.2861
 7464SOL    HW133851   2.402   1.532   4.269  0.8769 -1.0207 -2.8869
 7464SOL    HW233852   2.368   1.473   4.144 -1.1438 -0.5054 -0.4093
 7465SOL     OW33853   0.103   3.708   6.091  0.2912 -0.1537  0.1535
 7465SOL    HW133854   0.119   3.747   6.176 -4.2468  1.7486  0.1299
 7465SOL    HW233855   0.191   3.676   6.071 -0.1204 -1.3447  0.2139
 7466SOL     OW33856   4.292   2.097   6.930  0.2959 -0.0875  0.3106
 7466SOL    HW133857   4.315   2.101   7.023 -0.2176  0.9289  0.4004
 7466SOL    HW233858   4.198   2.090   6.948  0.6600 -0.5467  2.0831
 7467SOL     OW33859   3.148   2.485   7.183  0.2877  0.3114 -0.0677
 7467SOL    HW133860   3.154   2.464   7.276 -1.2422  2.2717  0.4875
 7467SOL    HW233861   3.227   2.537   7.163  0.4318 -0.0433 -0.4158
 7468SOL     OW33862   3.209   2.956   3.393  0.3700  0.0336 -0.1031
 7468SOL    HW133863   3.184   2.867   3.416  1.9978  0.1388  2.0993
 7468SOL    HW233864   3.124   2.999   3.396  1.1052  1.4821 -0.0873
 7469SOL     OW33865   3.034   0.644   7.916  0.5149 -0.3735  0.0110
 7469SOL    HW133866   2.951   0.653   7.868  1.6170  0.7993 -1.6480
 7469SOL    HW233867   3.091   0.700   7.865  0.2026  0.5224  0.6465
 7470SOL     OW33868   2.577   0.072   4.272 -0.4982  0.0013 -0.0494
 7470SOL    HW133869   2.539   0.060   4.184 -1.7370  1.1807  0.3154
 7470SOL    HW233870   2.668   0.044   4.263 -1.0157 -1.7812  0.3465
 7471SOL     OW33871   1.453   2.370  10.918  0.0264 -0.4463  0.7533
 7471SOL    HW133872   1.497   2.381  10.834 -1.9820 -3.2543 -0.6301
 7471SOL    HW233873   1.534   2.385  10.968  0.7294 -0.4089 -0.3893
 7472SOL     OW33874   3.276   0.732   5.738 -0.0326 -0.0849  0.0859
 7472SOL    HW133875   3.222   0.809   5.723 -1.8550 -1.1142  1.3155
 7472SOL    HW233876   3.364   0.770   5.730  0.2390 -0.5882  0.6618
 7473SOL     OW33877   1.617   1.784  10.011  0.1473  0.5577 -0.7293
 7473SOL    HW133878   1.537   1.837  10.014 -0.4863 -0.4604  0.4694
 7473SOL    HW233879   1.664   1.842   9.951  0.8215 -0.6341 -1.3378
 7474SOL     OW33880   4.245   3.162  10.161 -0.3736  0.6575 -1.0556
 7474SOL    HW133881   4.219   3.115  10.240  1.7865 -0.6524 -1.1154
 7474SOL    HW233882   4.314   3.099  10.139 -1.0408 -0.4680  0.0477
 7475SOL     OW33883   3.402   4.234  12.491 -0.5681  0.1496 -0.3724
 7475SOL    HW133884   3.447   4.311  12.524  0.9875 -1.7413  1.8913
 7475SOL    HW233885   3.310   4.260  12.497 -1.1001 -1.6382 -0.8303
 7476SOL     OW33886   0.974   4.682   5.339  0.0816  0.1243  0.2543
 7476SOL    HW133887   0.900   0.010   5.372  1.2558  0.3590  2.6100
 7476SOL    HW233888   0.958   4.604   5.391 -0.1551  0.3177  0.4718
 7477SOL     OW33889   3.225   1.161   4.099  0.6278  0.2007 -0.1970
 7477SOL    HW133890   3.273   1.159   4.016 -0.2269 -0.1013 -0.6836
 7477SOL    HW233891   3.291   1.204   4.154  1.3723 -0.5312 -0.5275
 7478SOL     OW33892   2.925   3.487   2.889 -0.4732 -0.3485  0.0835
 7478SOL    HW133893   2.839   3.494   2.847  1.1540  0.7329 -3.0639
 7478SOL    HW233894   2.895   3.467   2.978 -0.6390 -0.0111  0.1028
 7479SOL     OW33895   4.189   3.005   8.174 -0.2579  0.0316 -0.9875
 7479SOL    HW133896   4.131   2.942   8.218  2.0336 -0.8885  0.7508
 7479SOL    HW233897   4.260   3.013   8.238 -0.4468  0.5922 -0.8489
 7480SOL     OW33898   2.241   2.836   4.849  0.0218 -0.8443  0.4453
 7480SOL    HW133899   2.282   2.916   4.882  1.1791 -0.7606 -1.2042
 7480SOL    HW233900   2.152   2.868   4.863 -0.2397 -1.9332  1.2691
 7481SOL     OW33901   1.398   1.446   2.361 -0.0704 -0.0110 -0.0833
 7481SOL    HW133902   1.379   1.535   2.392  1.4243  0.2085  0.1704
 7481SOL    HW233903   1.313   1.403   2.370  0.3517 -1.1474 -1.5927
 7482SOL     OW33904   0.623   3.700   3.932 -0.2833  0.0677  0.2820
 7482SOL    HW133905   0.679   3.725   3.858  1.7871  1.3772  2.2958
 7482SOL    HW233906   0.587   3.618   3.898  0.4929 -0.2852  0.3251
 7483SOL     OW33907   2.330   2.875   7.667 -0.5514  0.2807  0.2746
 7483SOL    HW133908   2.351   2.917   7.584  1.6698 -3.2284 -0.9705
 7483SOL    HW233909   2.407   2.818   7.672 -1.9969 -1.6444  0.6995
 7484SOL     OW33910   2.462   1.736   5.451  0.1676  0.2121  0.2939
 7484SOL    HW133911   2.369   1.751   5.466 -0.4526 -1.6269 -1.6254
 7484SOL    HW233912   2.478   1.707   5.361  1.0112  3.5407 -0.5963
 7485SOL     OW33913   4.251   0.303   7.680  0.3034 -0.1094  1.1119
 7485SOL    HW133914   4.196   0.268   7.750  0.1687 -2.2393 -0.0623
 7485SOL    HW233915   4.211   0.390   7.673  0.8267  0.0930  0.6806
 7486SOL     OW33916   2.421   4.629  13.817  0.3446  0.6673  0.7817
 7486SOL    HW133917   2.441   4.666  13.903  3.4753  0.0267  0.3440
 7486SOL    HW233918   2.328   4.648  13.803  0.6715  0.4260 -1.8095
 7487SOL     OW33919   1.552   3.225   2.255 -0.0047 -0.2149 -0.4242
 7487SOL    HW133920   1.512   3.161   2.196 -0.1304 -0.1888 -0.3656
 7487SOL    HW233921   1.642   3.208   2.226  0.2773  1.1181 -0.3072
 7488SOL     OW33922   3.096   3.445   5.551 -0.2935  0.6456 -0.1072
 7488SOL    HW133923   3.120   3.461   5.642 -2.0476 -2.2916  0.8993
 7488SOL    HW233924   3.177   3.427   5.504 -0.5925  0.1287 -0.4299
 7489SOL     OW33925   1.016   1.833   9.583  0.0202 -0.0246  0.3648
 7489SOL    HW133926   1.011   1.742   9.555 -0.4867  0.2580 -0.4564
 7489SOL    HW233927   1.085   1.831   9.650 -1.0286  0.3639  1.4472
 7490SOL     OW33928   0.230   0.333   5.305  0.0729 -0.1317 -0.2556
 7490SOL    HW133929   0.160   0.269   5.320 -1.8003  2.2370  1.0949
 7490SOL    HW233930   0.184   0.403   5.260  3.3295  2.0770 -0.1420
 7491SOL     OW33931   1.149   4.269   0.819 -0.7127  0.5312  0.4919
 7491SOL    HW133932   1.084   4.340   0.824 -1.7228 -0.4790  1.6158
 7491SOL    HW233933   1.172   4.246   0.909  0.6317 -1.7820 -0.4399
 7492SOL     OW33934   4.178   0.520   7.010 -1.0253 -0.1957  0.2395
 7492SOL    HW133935   4.262   0.559   7.033 -1.8214  0.9623  1.1966
 7492SOL    HW233936   4.180   0.549   6.918 -2.0591 -0.0923  0.2440
 7493SOL     OW33937   4.626   1.957   4.807 -0.0633 -0.3271 -0.0650
 7493SOL    HW133938   4.585   1.894   4.748 -0.4209  0.0191 -0.1865
 7493SOL    HW233939   4.620   1.913   4.892 -0.4015 -0.9858 -0.4289
 7494SOL     OW33940   0.302   2.419   6.779 -0.2116 -0.5184  0.3254
 7494SOL    HW133941   0.239   2.358   6.740  1.4823 -0.4794 -2.5124
 7494SOL    HW233942   0.271   2.433   6.868 -0.5540  0.0476  0.1169
 7495SOL     OW33943   3.859   4.182   8.036  0.3897  0.1490  0.2192
 7495SOL    HW133944   3.807   4.260   8.016  5.3834  2.8731 -2.0241
 7495SOL    HW233945   3.898   4.160   7.951  0.8036 -0.9589  0.6982
 7496SOL     OW33946   3.259   0.786   7.786 -0.2600  0.2924 -0.8020
 7496SOL    HW133947   3.280   0.821   7.699  2.4352 -1.5478 -0.8996
 7496SOL    HW233948   3.330   0.824   7.839 -0.1154  1.4879 -1.8362
 7497SOL     OW33949   2.156   1.612  10.257 -0.1789  1.3149  0.4978
 7497SOL    HW133950   2.168   1.623  10.163  0.8336  0.5501  0.5390
 7497SOL    HW233951   2.063   1.595  10.271 -0.4060  2.7998  0.8161
 7498SOL     OW33952   3.596   3.053   0.400 -0.5769 -0.5256 -0.1778
 7498SOL    HW133953   3.605   3.031   0.307 -0.7069  3.1604 -1.0503
 7498SOL    HW233954   3.687   3.045   0.430 -0.1044  1.5505 -1.0576
 7499SOL     OW33955   1.886   2.973   6.898 -0.1085  0.2091 -0.0586
 7499SOL    HW133956   1.945   3.048   6.905 -1.1234  1.1431 -1.7019
 7499SOL    HW233957   1.805   3.002   6.941 -0.0517 -0.9010  0.8210
 7500SOL     OW33958   4.172   0.521   3.449  0.3970  0.0390  0.1920
 7500SOL    HW133959   4.128   0.442   3.420  2.0775  0.0852 -2.4635
 7500SOL    HW233960   4.172   0.563   3.363 -0.3951 -2.3719 -0.9669
 7501SOL     OW33961   0.471   0.957   8.232  0.0094 -0.2002 -0.6624
 7501SOL    HW133962   0.514   0.900   8.295  0.8102  2.4348  1.1525
 7501SOL    HW233963   0.378   0.937   8.238  0.1329 -0.7390 -0.5434
 7502SOL     OW33964   4.143   1.425   6.970 -0.3607  0.0490  0.2064
 7502SOL    HW133965   4.182   1.345   7.005 -2.0007 -0.1995  1.5217
 7502SOL    HW233966   4.054   1.388   6.969  0.2087 -1.3727  2.8910
 7503SOL     OW33967   2.994   0.677   2.158 -0.2393  0.6090  0.0704
 7503SOL    HW133968   3.081   0.715   2.150  0.0851  0.1238  1.4065
 7503SOL    HW233969   3.021   0.593   2.122  1.7441  0.6777  1.4288
 7504SOL     OW33970   0.470   2.442   7.803  0.0135  0.0323 -0.3067
 7504SOL    HW133971   0.406   2.428   7.733  0.1926 -0.4507 -0.3742
 7504SOL    HW233972   0.414   2.462   7.878  1.5862  0.5138  0.7195
 7505SOL     OW33973   2.531   3.700   6.117  0.3191  0.2403 -0.2027
 7505SOL    HW133974   2.558   3.705   6.209 -0.8388 -1.3501  0.2046
 7505SOL    HW233975   2.556   3.789   6.090 -0.9187  0.1562 -1.6295
 7506SOL     OW33976   0.787   3.625  15.077 -0.3584  0.5425 -0.2652
 7506SOL    HW133977   0.710   3.632  15.022  0.0512 -1.4834 -1.0835
 7506SOL    HW233978   0.861   3.648  15.020  0.0684 -1.6906 -0.6164
 7507SOL     OW33979   0.491   1.143   4.097  0.3446  0.0606  0.2826
 7507SOL    HW133980   0.435   1.168   4.170 -1.5714 -4.0839  0.1743
 7507SOL    HW233981   0.578   1.138   4.136  0.9557  1.0389 -0.9457
 7508SOL     OW33982   1.629   1.366   8.745  0.1177  0.0882 -0.1157
 7508SOL    HW133983   1.724   1.380   8.744  0.2073 -0.4935  0.1261
 7508SOL    HW233984   1.612   1.424   8.819  3.3374 -0.4117  1.0425
 7509SOL     OW33985   2.806   2.779  11.549 -0.1932 -0.6114  0.3504
 7509SOL    HW133986   2.728   2.829  11.526  0.3613 -0.1771 -0.5638
 7509SOL    HW233987   2.805   2.701  11.493 -2.3729 -0.1728 -0.2176
 7510SOL     OW33988   2.411   2.854   2.652  0.0410 -0.2097 -0.6531
 7510SOL    HW133989   2.379   2.771   2.687 -0.1993  0.3884  0.5383
 7510SOL    HW233990   2.489   2.828   2.604  0.2518  1.8913 -1.4249
 7511SOL     OW33991   0.486   3.912  15.800  0.1276 -0.1359  0.0490
 7511SOL    HW133992   0.447   3.914  15.712  0.9256  2.6095 -0.2313
 7511SOL    HW233993   0.445   3.990  15.837  1.1046  0.4197 -0.0451
 7512SOL     OW33994   0.398   0.893   6.965  0.3936 -0.0252 -0.1922
 7512SOL    HW133995   0.328   0.911   6.903 -0.5299 -1.3469  0.4644
 7512SOL    HW233996   0.433   0.982   6.967 -0.4764  0.2892  0.6789
 7513SOL     OW33997   4.011   3.812   4.646 -0.1442 -0.0848 -0.1405
 7513SOL    HW133998   4.037   3.736   4.595  0.5181 -0.8289  1.3185
 7513SOL    HW233999   4.064   3.881   4.607  0.9410 -1.6175 -1.3794
 7514SOL     OW34000   2.059   1.584   7.061  0.2688 -0.3732 -0.7757
 7514SOL    HW134001   2.021   1.520   7.001  0.2602 -0.6052 -0.5186
 7514SOL    HW234002   2.152   1.562   7.064 -0.3935 -2.8923  1.0925
 7515SOL     OW34003   2.326   0.542   5.248 -0.0916 -0.2134 -0.1017
 7515SOL    HW134004   2.371   0.488   5.313  1.2424  1.4614  0.3867
 7515SOL    HW234005   2.380   0.535   5.169 -0.1374 -1.5345 -0.0179
 7516SOL     OW34006   1.548   4.691   4.809  0.2248  0.1258 -0.0019
 7516SOL    HW134007   1.498   4.639   4.872 -1.3440  1.9412  0.2797
 7516SOL    HW234008   1.523   0.058   4.834 -4.2724 -2.0217  3.1958
 7517SOL     OW34009   0.818   1.152   0.706  0.1277  0.1817 -0.4874
 7517SOL    HW134010   0.819   1.102   0.624 -0.6268  0.1782 -0.4857
 7517SOL    HW234011   0.748   1.120   0.762  0.2196 -0.3676 -0.6885
 7518SOL     OW34012   1.974   1.424   3.835 -0.4064 -0.0872  0.6364
 7518SOL    HW134013   1.917   1.375   3.776  0.7023  0.0410 -0.5181
 7518SOL    HW234014   1.966   1.515   3.807  1.6576  0.1239  0.7394
 7519SOL     OW34015   4.630   3.123   6.866  0.6131 -0.4824  0.2752
 7519SOL    HW134016   4.668   3.053   6.812  0.4749 -1.0829  0.9458
 7519SOL    HW234017   4.537   3.106   6.852  0.6473  0.2422 -0.8376
 7520SOL     OW34018   3.748   4.526   2.724  0.2072  0.4071 -0.6770
 7520SOL    HW134019   3.725   4.604   2.775  3.8741  1.0079  0.0621
 7520SOL    HW234020   3.839   4.541   2.699  0.4107 -3.3194 -2.1410
 7521SOL     OW34021   3.582   3.602   4.291 -0.2418  0.7587 -0.6006
 7521SOL    HW134022   3.574   3.537   4.361 -0.1459  0.3231 -0.9951
 7521SOL    HW234023   3.648   3.560   4.237 -0.6652 -0.9954  0.2133
 7522SOL     OW34024   3.689   0.315  15.801  0.1884 -0.1797  0.3187
 7522SOL    HW134025   3.706   0.378  15.870 -1.2853  0.4027  0.1631
 7522SOL    HW234026   3.601   0.285  15.824  0.2238 -0.8081 -0.3502
 7523SOL     OW34027   2.058   4.646  11.234  0.2367 -0.5151 -0.6670
 7523SOL    HW134028   2.041   4.691  11.317 -1.1093 -1.6140 -0.3442
 7523SOL    HW234029   2.117   4.575  11.259  0.5028 -0.5856 -1.5024
 7524SOL     OW34030   2.517   4.099  10.837 -0.0078  0.2658  0.1677
 7524SOL    HW134031   2.469   4.172  10.875 -1.3838 -0.0528 -0.9532
 7524SOL    HW234032   2.446   4.059  10.786  0.5954  0.5059 -0.8570
 7525SOL     OW34033   3.057   4.331   7.955 -0.2423  0.3395 -0.1111
 7525SOL    HW134034   3.127   4.330   7.890 -1.8486 -1.4222 -1.8081
 7525SOL    HW234035   2.988   4.292   7.901  0.5559 -1.5405  0.2393
 7526SOL     OW34036   3.422   4.070  16.091  0.0427  0.1533 -0.0823
 7526SOL    HW134037   3.497   4.049  16.035  1.5442  0.6245  1.7359
 7526SOL    HW234038   3.387   4.147  16.046  0.0629 -0.2227 -0.7514
 7527SOL     OW34039   3.781   2.562   5.571 -0.0712 -0.0095  0.3857
 7527SOL    HW134040   3.862   2.518   5.547  1.1521  0.3956  3.8121
 7527SOL    HW234041   3.743   2.599   5.490 -3.0349  0.4383  1.9688
 7528SOL     OW34042   0.785   4.038   2.019 -0.0809  0.1177 -0.2441
 7528SOL    HW134043   0.834   4.056   2.099 -1.4118 -0.1833  0.6451
 7528SOL    HW234044   0.835   4.096   1.961  1.0645 -1.6411 -1.0187
 7529SOL     OW34045   3.788   3.022   8.766  0.1494 -0.5228 -0.1880
 7529SOL    HW134046   3.755   3.037   8.854 -0.8062  0.8071 -0.7760
 7529SOL    HW234047   3.720   2.981   8.712 -1.0768  1.1468  0.0850
 7530SOL     OW34048   0.216   3.696  12.419  0.2702 -0.0989  0.2226
 7530SOL    HW134049   0.219   3.780  12.465  0.5348  0.1749 -0.2876
 7530SOL    HW234050   0.159   3.721  12.346  0.4787  0.1533  0.1477
 7531SOL     OW34051   2.202   2.462   2.469  0.1430 -0.1469 -0.3932
 7531SOL    HW134052   2.142   2.479   2.541  0.9467  1.5081 -0.1190
 7531SOL    HW234053   2.172   2.521   2.400  0.8600 -0.2497 -0.8005
 7532SOL     OW34054   0.555   1.869   2.554 -0.0007 -0.1145 -0.1910
 7532SOL    HW134055   0.596   1.822   2.481 -0.5209 -1.7234  0.5422
 7532SOL    HW234056   0.569   1.814   2.631  1.4000  0.1035 -0.2932
 7533SOL     OW34057   3.517   1.248   6.126  0.1886 -0.5988 -0.1114
 7533SOL    HW134058   3.566   1.323   6.094 -0.8216  0.1745  0.1688
 7533SOL    HW234059   3.484   1.281   6.209  1.0666  0.1538 -0.0565
 7534SOL     OW34060   2.854   2.814   8.894  0.2941  0.1875  0.2077
 7534SOL    HW134061   2.809   2.730   8.891 -2.3815  1.6275  0.4502
 7534SOL    HW234062   2.815   2.849   8.814  0.0463 -1.2197 -0.2920
 7535SOL     OW34063   0.408   3.125   4.801 -0.0441 -0.3874  0.1674
 7535SOL    HW134064   0.376   3.084   4.720  0.1416 -0.8595  0.3370
 7535SOL    HW234065   0.496   3.093   4.783 -0.9291 -1.0770 -2.9539
 7536SOL     OW34066   0.565   2.405   7.271 -0.1490  0.4239  0.2326
 7536SOL    HW134067   0.650   2.410   7.227 -0.7789  0.4606 -0.9897
 7536SOL    HW234068   0.558   2.495   7.301 -0.2374  0.5374 -0.1291
 7537SOL     OW34069   0.405   4.096   4.191 -0.1039  0.4001  0.9237
 7537SOL    HW134070   0.342   4.024   4.188  0.9081 -0.4561  0.2987
 7537SOL    HW234071   0.486   4.055   4.162 -0.1495  0.1574  1.1429
 7538SOL     OW34072   2.982   2.337   8.024  0.2369  0.6698 -0.3985
 7538SOL    HW134073   3.074   2.310   8.018  1.2831  3.7400  1.9222
 7538SOL    HW234074   2.975   2.374   7.936 -4.3811 -0.9933 -0.7381
 7539SOL     OW34075   2.158   3.353  10.507  0.3648 -0.0053  0.4591
 7539SOL    HW134076   2.077   3.404  10.514  0.2202 -0.0249 -1.0259
 7539SOL    HW234077   2.121   3.267  10.530 -0.7477  0.3142 -0.1248
 7540SOL     OW34078   0.580   0.349  13.933 -0.0195  0.7560  0.1089
 7540SOL    HW134079   0.632   0.353  13.853  0.5005 -1.2235  0.3553
 7540SOL    HW234080   0.493   0.380  13.908 -0.0117  1.2259  0.6623
 7541SOL     OW34081   4.670   4.426   7.508  0.0218  0.2228  0.1338
 7541SOL    HW134082   4.669   4.497   7.443 -2.6376  0.3330  0.3233
 7541SOL    HW234083   4.610   4.468   7.569 -0.7460 -0.0988 -0.3971
 7542SOL     OW34084   2.750   3.317  16.599  0.1944 -0.1217 -0.0265
 7542SOL    HW134085   2.694   3.248  16.562  1.0906 -0.7221 -0.2573
 7542SOL    HW234086   2.838   3.286  16.577  0.0505 -1.7491  1.7063
 7543SOL     OW34087   3.397   2.453   0.392  0.1663 -0.4517 -0.2502
 7543SOL    HW134088   3.331   2.437   0.325 -1.4494  0.0073  1.2222
 7543SOL    HW234089   3.334   2.448   0.464  0.9959  0.9695  0.5638
 7544SOL     OW34090   0.385   1.555   6.856 -0.3014  0.0452 -0.3712
 7544SOL    HW134091   0.331   1.628   6.886  0.9061  1.3603 -1.4147
 7544SOL    HW234092   0.410   1.581   6.768  0.6798  0.8971  0.1526
 7545SOL     OW34093   0.511   2.942   2.884  0.0135  0.0191  0.0139
 7545SOL    HW134094   0.461   3.006   2.935  3.3386  1.0280  1.9478
 7545SOL    HW234095   0.557   2.998   2.821  0.9652 -0.9574 -0.1462
 7546SOL     OW34096   4.591   0.489   3.815  0.0098  0.3710  0.1774
 7546SOL    HW134097   4.681   0.468   3.842 -0.0283 -0.3179 -0.2132
 7546SOL    HW234098   4.538   0.476   3.894 -0.4169 -1.9898 -0.4771
 7547SOL     OW34099   2.069   0.140  10.246  0.3657 -0.0171 -0.8709
 7547SOL    HW134100   2.115   0.155  10.329 -1.2260 -0.3817  0.0660
 7547SOL    HW234101   2.131   0.195  10.198  1.4316 -0.0340  0.4810
 7548SOL     OW34102   3.395   2.942   3.701  0.6199  0.5729  0.3751
 7548SOL    HW134103   3.463   2.969   3.639  2.0077 -2.5839  0.4867
 7548SOL    HW234104   3.371   2.853   3.674 -2.1630  0.6402  2.7388
 7549SOL     OW34105   1.671   2.267  14.626 -0.1908  0.0674 -0.0465
 7549SOL    HW134106   1.711   2.340  14.577  1.2267 -0.6833 -0.0235
 7549SOL    HW234107   1.624   2.311  14.696  1.1940  2.2661 -0.4788
 7550SOL     OW34108   0.635   0.591   6.547 -0.1418  0.6031  0.7292
 7550SOL    HW134109   0.543   0.607   6.568 -0.5958  0.4198 -1.1443
 7550SOL    HW234110   0.660   0.675   6.585  0.7979  0.0341  1.3561
 7551SOL     OW34111   0.303   0.675   1.991 -0.0608  0.0372  0.0055
 7551SOL    HW134112   0.311   0.736   1.917 -0.3432 -0.3994 -0.3851
 7551SOL    HW234113   0.342   0.599   1.947 -1.7217 -0.8787  0.1094
 7552SOL     OW34114   2.915   0.086  17.498  0.2256 -0.0392 -0.3423
 7552SOL    HW134115   2.942   0.065  17.409 -2.6679 -0.5773 -1.0944
 7552SOL    HW234116   2.822   0.102  17.486  0.2773 -0.3561 -1.1305
 7553SOL     OW34117   0.248   3.946   8.738  0.0939  0.2361 -0.2292
 7553SOL    HW134118   0.295   3.907   8.812 -0.9827 -0.1670  0.2417
 7553SOL    HW234119   0.318   3.942   8.673 -0.5841 -0.6677 -0.8993
 7554SOL     OW34120   0.432   3.923   6.587  0.0443 -0.0829 -0.4962
 7554SOL    HW134121   0.499   3.899   6.523 -1.7830  0.5227 -2.6443
 7554SOL    HW234122   0.363   3.871   6.546  0.9919 -0.9556 -0.9745
 7555SOL     OW34123   3.272   2.761   5.075  0.8202  0.2278 -0.0908
 7555SOL    HW134124   3.198   2.813   5.044 -0.0845 -0.9038  0.1695
 7555SOL    HW234125   3.223   2.726   5.150 -0.9079  1.9932 -0.3674
 7556SOL     OW34126   1.195   2.712   6.552 -0.4408  0.4254 -0.1091
 7556SOL    HW134127   1.283   2.682   6.572 -0.2020  0.5862 -0.9296
 7556SOL    HW234128   1.155   2.630   6.523  1.1334 -1.2598  2.5162
 7557SOL     OW34129   2.333   3.098   9.733  0.3003 -0.4682 -0.2856
 7557SOL    HW134130   2.385   3.040   9.789 -2.4903 -0.2376  2.5457
 7557SOL    HW234131   2.331   3.058   9.646 -1.7590  0.9048 -0.8694
 7558SOL     OW34132   3.632   2.916   2.863 -0.0193 -0.2635  0.4888
 7558SOL    HW134133   3.661   2.997   2.906 -1.1734  0.1055  0.5789
 7558SOL    HW234134   3.689   2.849   2.899  0.2052 -0.6678 -0.6201
 7559SOL     OW34135   1.169   3.490   5.237  0.9232  0.2010 -0.4792
 7559SOL    HW134136   1.211   3.414   5.277 -0.6787 -0.1882  0.4523
 7559SOL    HW234137   1.211   3.567   5.274 -0.5427  0.2708  1.0648
 7560SOL     OW34138   4.385   1.970  13.552 -0.0534 -0.1125  0.0643
 7560SOL    HW134139   4.440   1.907  13.506 -0.5326 -0.4918  0.0231
 7560SOL    HW234140   4.386   2.045  13.493 -0.8541  0.1630  0.4040
 7561SOL     OW34141   3.302   2.198  14.412  0.1515 -0.2818 -0.0141
 7561SOL    HW134142   3.366   2.127  14.423  1.3569  0.4486 -2.4513
 7561SOL    HW234143   3.360   2.269  14.384 -2.9804  1.8523 -1.0109
 7562SOL     OW34144   3.284   2.867   7.131 -0.0517 -0.0798 -0.5177
 7562SOL    HW134145   3.367   2.858   7.084 -1.0587 -1.4244 -2.0491
 7562SOL    HW234146   3.222   2.850   7.060  0.8332 -0.1816 -1.2628
 7563SOL     OW34147   0.672   1.580   4.833  0.1927 -0.3104  0.1310
 7563SOL    HW134148   0.736   1.579   4.904 -0.7632 -0.6491  0.9992
 7563SOL    HW234149   0.734   1.587   4.761 -1.0546 -1.8013 -1.0765
 7564SOL     OW34150   0.723   0.970  17.275  0.1264 -0.0524  0.2649
 7564SOL    HW134151   0.633   0.978  17.242  0.9352 -0.6935 -2.0229
 7564SOL    HW234152   0.770   1.040  17.230 -1.4712  1.3246  0.7006
 7565SOL     OW34153   3.397   4.620   1.052  0.0370 -0.4411 -0.4001
 7565SOL    HW134154   3.378   4.609   1.145 -1.6895  1.1520 -0.5678
 7565SOL    HW234155   3.306   4.622   1.020 -0.5926 -1.3096  1.3156
 7566SOL     OW34156   4.355   0.981   7.605 -0.1919 -0.0161 -0.2379
 7566SOL    HW134157   4.393   0.932   7.533  0.1183 -1.4810  0.9220
 7566SOL    HW234158   4.289   0.919   7.635  1.8455 -0.8419  2.5720
 7567SOL     OW34159   2.384   4.652   1.008  0.3996 -0.2036  0.3695
 7567SOL    HW134160   2.311   4.591   1.021 -1.2679  1.6460 -0.3683
 7567SOL    HW234161   2.417   4.629   1.095 -0.2686  1.3272  1.0253
 7568SOL     OW34162   4.114   4.286   6.902  0.1705  0.0750 -0.1624
 7568SOL    HW134163   4.135   4.300   6.994  0.8780  1.3340 -0.5088
 7568SOL    HW234164   4.038   4.343   6.894  0.5628  0.6309  0.0676
 7569SOL     OW34165   4.438   0.352   2.203  0.2499  0.1134  0.2970
 7569SOL    HW134166   4.464   0.266   2.171  1.0423  1.7869 -3.6272
 7569SOL    HW234167   4.343   0.353   2.190 -0.0722  1.5142  2.7023
 7570SOL     OW34168   1.539   2.213   4.879 -0.0909 -0.2606  0.2321
 7570SOL    HW134169   1.458   2.181   4.919  0.6121  0.1714  1.9949
 7570SOL    HW234170   1.561   2.265   4.955 -0.0239  1.2970 -0.8502
 7571SOL     OW34171   0.968   2.584   3.323 -0.3081 -0.0057  0.1995
 7571SOL    HW134172   0.994   2.499   3.359  0.2776  0.7075  1.4359
 7571SOL    HW234173   0.965   2.642   3.398  0.7576  1.7860 -1.1444
 7572SOL     OW34174   2.210   1.502   5.599  0.1152  0.1560 -0.5367
 7572SOL    HW134175   2.234   1.485   5.690 -1.1325 -2.6404 -0.7215
 7572SOL    HW234176   2.140   1.564   5.615  1.2072  0.8585  1.4219
 7573SOL     OW34177   1.198   3.055  10.796 -0.3812  0.4117  0.1127
 7573SOL    HW134178   1.248   2.983  10.758  0.1346 -0.5515  2.5894
 7573SOL    HW234179   1.163   3.025  10.880 -4.2813 -1.0058 -2.0368
 7574SOL     OW34180   1.823   2.896   2.390  0.0609  0.2963 -0.1351
 7574SOL    HW134181   1.871   2.928   2.466 -1.7844  2.8783 -0.0509
 7574SOL    HW234182   1.813   2.980   2.345  0.6683  1.2326  1.4579
 7575SOL     OW34183   2.195   1.209  17.476  0.0690  0.0694 -0.2246
 7575SOL    HW134184   2.128   1.142  17.484  0.7864 -0.9434 -2.6840
 7575SOL    HW234185   2.193   1.249  17.563 -1.7058 -0.3241 -0.0932
 7576SOL     OW34186   2.606   4.325   6.007  0.8358 -0.3750 -0.1296
 7576SOL    HW134187   2.625   4.416   5.988  0.5185 -0.2840 -0.0158
 7576SOL    HW234188   2.683   4.286   5.967  0.5985 -0.3274 -0.6278
 7577SOL     OW34189   1.689   1.323   3.114  0.2593  0.0437  0.0889
 7577SOL    HW134190   1.650   1.403   3.150 -1.1516 -0.3740 -0.5221
 7577SOL    HW234191   1.612   1.270   3.092 -0.7652 -0.3731  4.6301
 7578SOL     OW34192   3.824   0.727   9.434 -0.3049  0.0122  0.1747
 7578SOL    HW134193   3.919   0.735   9.435 -0.0742 -2.9178  1.6098
 7578SOL    HW234194   3.821   0.697   9.343 -0.1050  3.3061 -0.9105
 7579SOL     OW34195   3.098   0.326   5.856  0.1853 -0.5642 -0.7372
 7579SOL    HW134196   3.049   0.407   5.851 -0.4160 -1.0374 -2.4986
 7579SOL    HW234197   3.186   0.362   5.839  0.9332 -1.4709  1.2576
 7580SOL     OW34198   3.952   3.548   4.103 -0.0187  0.1596 -0.2120
 7580SOL    HW134199   3.909   3.633   4.091  2.2221  1.3884  0.4023
 7580SOL    HW234200   3.930   3.512   4.018 -0.7677  0.5579 -0.1877
 7581SOL     OW34201   3.247   2.335   0.574 -0.3701  0.6261  0.2898
 7581SOL    HW134202   3.159   2.310   0.548 -0.6399  2.6155 -0.7416
 7581SOL    HW234203   3.282   2.266   0.630  0.4091  1.6464  1.0557
 7582SOL     OW34204   3.696   2.159   8.836  0.1098 -0.7911  0.3112
 7582SOL    HW134205   3.759   2.213   8.884 -1.7045  1.2721  0.3969
 7582SOL    HW234206   3.669   2.221   8.768  2.3878 -0.2870 -0.1221
 7583SOL     OW34207   4.097   2.634   4.803  0.9301  0.3208  0.2213
 7583SOL    HW134208   4.097   2.557   4.859 -1.1876  1.7693  2.2109
 7583SOL    HW234209   4.091   2.697   4.875  1.3948 -1.5412  1.8940
 7584SOL     OW34210   0.013   1.088   7.560  0.1498  0.1090 -0.4610
 7584SOL    HW134211   0.032   1.146   7.485 -0.8322  1.4013  0.2867
 7584SOL    HW234212   4.702   1.009   7.518 -3.7262  1.2204  0.6294
 7585SOL     OW34213   4.198   0.366  13.070  0.8286  0.3276 -0.0571
 7585SOL    HW134214   4.288   0.342  13.091  0.0965 -1.3798  1.1504
 7585SOL    HW234215   4.200   0.408  12.984  2.6541  1.8687  0.7359
 7586SOL     OW34216   4.674   0.703  12.956 -0.3531  0.0270  0.0804
 7586SOL    HW134217   4.721   0.620  12.947  0.7746  0.8157 -1.2856
 7586SOL    HW234218   0.020   0.762  12.926  1.0177 -1.4851  0.2228
 7587SOL     OW34219   4.514   1.685  12.299 -0.4341 -0.1201  0.2512
 7587SOL    HW134220   4.464   1.605  12.281 -1.1319 -0.2908  3.0055
 7587SOL    HW234221   4.498   1.737  12.220 -0.1425  0.0057  0.2723
 7588SOL     OW34222   2.753   0.777   1.919 -0.5081  0.1495  0.1520
 7588SOL    HW134223   2.693   0.774   1.994  0.0334 -0.8954  0.5463
 7588SOL    HW234224   2.816   0.710   1.947 -3.3684 -1.5934  2.3995
 7589SOL     OW34225   2.983   2.991   6.390  0.1941  0.0678 -0.1117
 7589SOL    HW134226   2.913   2.944   6.435 -1.6168  1.6096 -1.3398
 7589SOL    HW234227   2.956   2.983   6.299  1.5228  0.0943 -0.5133
 7590SOL     OW34228   0.734   3.687   6.031  0.6462 -0.0528  0.0362
 7590SOL    HW134229   0.649   3.687   6.076  0.7785  2.9659  0.3142
 7590SOL    HW234230   0.752   3.598   6.000 -0.2247  0.5126 -2.0780
 7591SOL     OW34231   3.834   4.052  12.677 -0.5471 -0.2569  0.2014
 7591SOL    HW134232   3.801   4.111  12.745  2.6822  1.8374 -0.0784
 7591SOL    HW234233   3.760   4.057  12.617 -1.1048 -2.9961  0.6665
 7592SOL     OW34234   4.378   0.613  13.621 -0.5991  0.9447 -0.6056
 7592SOL    HW134235   4.399   0.533  13.573  0.6618 -0.8839  2.9940
 7592SOL    HW234236   4.298   0.589  13.667 -0.2459  0.1771 -0.3887
 7593SOL     OW34237   2.779   3.678   8.174 -0.2294 -0.2433  0.3414
 7593SOL    HW134238   2.784   3.596   8.222  2.3527 -0.7080 -0.7417
 7593SOL    HW234239   2.844   3.732   8.219 -0.4031 -0.4494  0.8315
 7594SOL     OW34240   2.498   3.485   4.137 -0.0545  0.3272 -0.1154
 7594SOL    HW134241   2.454   3.527   4.211 -0.7615  1.5658 -1.2597
 7594SOL    HW234242   2.419   3.463   4.088 -1.2243 -2.4047  2.9614
 7595SOL     OW34243   3.897   1.873   0.709 -0.2814 -0.5418 -0.4307
 7595SOL    HW134244   3.839   1.938   0.748  1.0859  1.5501 -1.8471
 7595SOL    HW234245   3.976   1.927   0.698  1.7350 -2.9723  2.1023
 7596SOL     OW34246   1.903   2.694   6.863 -0.1966  0.1252 -0.8178
 7596SOL    HW134247   1.999   2.696   6.867 -0.2012  0.2330 -0.7626
 7596SOL    HW234248   1.888   2.788   6.848  2.9117  0.8901  0.8902
 7597SOL     OW34249   4.342   1.998   3.368 -0.4185  0.7414 -0.0121
 7597SOL    HW134250   4.315   2.087   3.390 -0.6258  0.8565 -0.7366
 7597SOL    HW234251   4.261   1.963   3.329 -0.1740 -0.5016  0.5687
 7598SOL     OW34252   0.657   0.665   7.553 -0.3446 -0.4647 -0.5799
 7598SOL    HW134253   0.733   0.628   7.598  0.3115  0.1007 -1.2256
 7598SOL    HW234254   0.631   0.596   7.491 -2.4746 -0.7548  0.6410
 7599SOL     OW34255   2.148   0.984   3.323  0.1886  0.0629  0.4493
 7599SOL    HW134256   2.215   0.989   3.255 -0.8781 -0.5107 -0.6536
 7599SOL    HW234257   2.075   0.938   3.280  2.1587 -0.3434 -2.4390
 7600SOL     OW34258   4.206   4.588   3.572 -0.5416 -0.3758 -0.2961
 7600SOL    HW134259   4.272   4.651   3.600  0.4079 -1.8487  0.7577
 7600SOL    HW234260   4.172   4.632   3.494  0.5070 -0.8670 -1.0219
 7601SOL     OW34261   0.385   1.639   8.332 -0.0301 -0.0407 -0.1750
 7601SOL    HW134262   0.298   1.660   8.299 -0.5647  1.1388  1.9783
 7601SOL    HW234263   0.371   1.652   8.426 -1.4939 -1.1914 -0.2505
 7602SOL     OW34264   3.525   4.694  15.683  0.3167  0.5702 -0.4985
 7602SOL    HW134265   3.476   4.635  15.741 -0.5235  0.8650 -0.9089
 7602SOL    HW234266   3.610   4.688  15.728  0.0305  0.9381  0.0915
 7603SOL     OW34267   0.342   3.119   0.871 -0.3930  0.7701  0.2855
 7603SOL    HW134268   0.361   3.141   0.780  1.0141  0.0193  0.3887
 7603SOL    HW234269   0.364   3.198   0.920 -0.5193  1.2312 -0.4106
 7604SOL     OW34270   2.812   2.846   7.719  0.2314  0.3872 -0.3518
 7604SOL    HW134271   2.888   2.900   7.700  0.2061  0.6624  0.3459
 7604SOL    HW234272   2.855   2.760   7.711 -2.8339 -1.0129 -1.7106
 7605SOL     OW34273   1.858   0.264   7.940  0.0659  0.5005  0.2194
 7605SOL    HW134274   1.839   0.310   7.859  0.0796 -0.1330 -0.1472
 7605SOL    HW234275   1.877   0.177   7.904  0.2874 -0.1224  1.8147
 7606SOL     OW34276   0.302   1.281   6.122  0.2681  0.0255 -0.5406
 7606SOL    HW134277   0.348   1.345   6.177 -1.8408  0.7671  0.3722
 7606SOL    HW234278   0.229   1.340   6.101  0.3404  0.5292  0.6531
 7607SOL     OW34279   3.977   1.889  10.327  0.4533  0.4148 -0.1269
 7607SOL    HW134280   3.893   1.928  10.353  0.6031  0.8924 -0.3524
 7607SOL    HW234281   4.032   1.938  10.389 -0.4159  0.9724  0.2103
 7608SOL     OW34282   3.637   4.370  14.037  0.2040 -0.3161  0.6174
 7608SOL    HW134283   3.732   4.355  14.035  0.3317  0.9115 -1.9707
 7608SOL    HW234284   3.629   4.443  14.099 -1.6487 -0.0483  0.0515
 7609SOL     OW34285   0.634   3.757   1.604 -0.0868 -0.0978 -0.2520
 7609SOL    HW134286   0.637   3.844   1.563 -0.1035  0.1880  0.3382
 7609SOL    HW234287   0.723   3.744   1.639 -0.9031 -0.3521  1.7341
 7610SOL     OW34288   3.217   4.712  16.909  0.0704  0.0211 -0.0326
 7610SOL    HW134289   3.166   4.666  16.842 -0.0336 -0.1338  0.1539
 7610SOL    HW234290   3.226   0.079  16.878 -0.4093 -0.1890 -0.7873
 7611SOL     OW34291   0.311   2.888   7.347  0.1269 -0.7253 -0.0705
 7611SOL    HW134292   0.319   2.797   7.319 -0.4946 -0.5573 -0.7713
 7611SOL    HW234293   0.265   2.865   7.428  0.0312  0.1603  0.1197
 7612SOL     OW34294   2.026   0.396   2.532  0.2133 -0.0503  0.0658
 7612SOL    HW134295   1.998   0.487   2.535  1.2209  0.2551 -0.0656
 7612SOL    HW234296   2.072   0.389   2.448 -1.6231 -1.2420 -0.8357
 7613SOL     OW34297   3.180   3.899   4.260  0.3925 -0.5628  0.4467
 7613SOL    HW134298   3.240   3.968   4.290 -0.3647  1.0307 -1.6877
 7613SOL    HW234299   3.236   3.838   4.212 -0.7353 -1.2613  0.0178
 7614SOL     OW34300   0.065   2.448   5.158  0.2642  0.9836  0.6414
 7614SOL    HW134301   0.019   2.364   5.162  0.0630  1.0976  0.7101
 7614SOL    HW234302   0.059   2.479   5.068 -1.7024  1.5013  0.9687
 7615SOL     OW34303   4.322   2.644   1.861  0.0649  0.0705  0.7043
 7615SOL    HW134304   4.269   2.619   1.786  0.9590  0.6954 -0.1224
 7615SOL    HW234305   4.357   2.556   1.877  1.3380  0.3330 -0.6839
 7616SOL     OW34306   2.544   1.605   2.156  0.4208 -0.2319  0.0423
 7616SOL    HW134307   2.638   1.614   2.168  0.0077  1.2862  2.1772
 7616SOL    HW234308   2.519   1.656   2.079  2.0050  2.1667  1.1150
 7617SOL     OW34309   4.014   2.423   7.709 -0.0411  0.1525 -0.2355
 7617SOL    HW134310   4.087   2.465   7.664 -1.2964  0.9790 -1.4986
 7617SOL    HW234311   3.995   2.479   7.784 -1.7173  0.5098 -0.9251
 7618SOL     OW34312   2.149   3.750   3.146  0.2039 -0.3862 -0.5654
 7618SOL    HW134313   2.093   3.732   3.221  1.4828 -1.9405 -0.0039
 7618SOL    HW234314   2.083   3.784   3.086 -1.3559 -1.1102  0.7481
 7619SOL     OW34315   3.653   1.247   4.642 -0.0134  0.1435  1.1998
 7619SOL    HW134316   3.614   1.334   4.634  1.9201  0.6583 -2.3485
 7619SOL    HW234317   3.674   1.229   4.550 -3.0709 -0.2650  0.5848
 7620SOL     OW34318   4.395   1.940   7.873 -0.2280 -0.2828 -0.3622
 7620SOL    HW134319   4.307   1.975   7.863 -0.7631 -1.3499  0.6390
 7620SOL    HW234320   4.417   1.939   7.780 -1.5446  2.0280 -0.6728
 7621SOL     OW34321   1.157   2.955   3.580 -0.3174 -0.0040  0.4038
 7621SOL    HW134322   1.219   2.919   3.517  0.1776  1.1860  0.1990
 7621SOL    HW234323   1.206   3.024   3.625  0.8347 -1.7341  1.8098
 7622SOL     OW34324   0.186   3.412   6.340 -0.2150  0.1104  0.3582
 7622SOL    HW134325   0.142   3.368   6.267  0.5601  1.3242 -0.8338
 7622SOL    HW234326   0.154   3.363   6.416  1.0190  0.7481  1.3028
 7623SOL     OW34327   3.879   3.809   4.050 -0.5618  0.2425 -0.1526
 7623SOL    HW134328   3.857   3.892   4.091 -2.6530 -0.9944  1.2078
 7623SOL    HW234329   3.847   3.826   3.961 -2.6018 -0.6646  0.4149
 7624SOL     OW34330   0.631   2.065   7.712  0.0658  0.5070  0.1961
 7624SOL    HW134331   0.713   2.018   7.723 -1.0700 -1.7403 -0.9749
 7624SOL    HW234332   0.632   2.132   7.780 -0.0044  0.6246  0.0821
 7625SOL     OW34333   3.757   0.469   3.950  0.0338  0.6375  0.1946
 7625SOL    HW134334   3.828   0.496   3.892 -0.8728 -2.2286 -2.3071
 7625SOL    HW234335   3.739   0.556   3.985 -0.8289  0.3452  0.4862
 7626SOL     OW34336   0.444   2.430  15.488 -0.0140  0.4207 -0.4724
 7626SOL    HW134337   0.504   2.357  15.502  0.8656  1.1988 -0.2024
 7626SOL    HW234338   0.507   2.502  15.478 -1.1614  1.6963  1.2626
 7627SOL     OW34339   3.400   0.590   6.438  0.5409  1.2481 -0.0661
 7627SOL    HW134340   3.460   0.638   6.381 -0.0823  0.9186 -1.0161
 7627SOL    HW234341   3.369   0.663   6.492  0.8283  0.1605  1.5418
 7628SOL     OW34342   4.103   4.346   3.541  0.2987  0.4388  0.4291
 7628SOL    HW134343   4.132   4.436   3.556 -0.2857  0.7304 -0.1663
 7628SOL    HW234344   4.187   4.304   3.559  0.7600  1.3807  0.4610
 7629SOL     OW34345   0.806   4.312   7.843 -0.2564 -0.0273 -0.2869
 7629SOL    HW134346   0.815   4.306   7.938  0.1434 -2.6786 -0.4919
 7629SOL    HW234347   0.841   4.226   7.823  0.2341  0.0398  0.2807
 7630SOL     OW34348   0.598   2.191  17.412 -0.0001  0.4559  0.1110
 7630SOL    HW134349   0.577   2.168  17.503 -3.0960  1.8556 -0.2678
 7630SOL    HW234350   0.529   2.152  17.360  0.1718  1.1018 -0.6019
 7631SOL     OW34351   3.449   0.598   1.015  0.3638  0.6667  0.1696
 7631SOL    HW134352   3.475   0.507   1.034 -3.3972 -0.2576  0.8453
 7631SOL    HW234353   3.483   0.613   0.927  1.0015  0.7489  0.4320
 7632SOL     OW34354   3.577   1.210   5.427  0.3020 -0.2563  0.4765
 7632SOL    HW134355   3.582   1.192   5.334  0.0799  0.1456  0.3838
 7632SOL    HW234356   3.607   1.301   5.434 -1.4200  0.5044 -1.8340
 7633SOL     OW34357   2.080   3.715   9.010 -0.3885  0.8423 -0.3389
 7633SOL    HW134358   2.126   3.793   9.039 -0.2823  0.0757  1.5459
 7633SOL    HW234359   2.075   3.744   8.919 -1.8331  0.9035 -0.2347
 7634SOL     OW34360   2.033   1.743  11.093  0.3060  0.0897  0.1672
 7634SOL    HW134361   2.038   1.648  11.095 -0.4304  0.0198 -1.3293
 7634SOL    HW234362   1.986   1.753  11.176  2.4037  0.4116  1.3141
 7635SOL     OW34363   4.056   3.235   4.590  0.0089 -0.3489 -0.2407
 7635SOL    HW134364   3.995   3.249   4.518 -1.1772  0.1459  0.8422
 7635SOL    HW234365   3.998   3.246   4.666  0.4358 -0.0517  0.0392
 7636SOL     OW34366   0.463   4.108   3.548 -0.0539  0.0121  0.1892
 7636SOL    HW134367   0.436   4.192   3.509 -1.2853 -0.3223  0.3229
 7636SOL    HW234368   0.436   4.042   3.485  3.0620  0.6187 -1.8236
 7637SOL     OW34369   1.933   0.362   7.418 -0.1120 -0.0399  0.0314
 7637SOL    HW134370   2.022   0.361   7.382 -0.2685 -2.8122 -0.2142
 7637SOL    HW234371   1.930   0.267   7.423  1.1488 -0.0778  0.0074
 7638SOL     OW34372   3.747   2.571   0.980  0.3720  0.7337 -0.6001
 7638SOL    HW134373   3.743   2.534   0.892  1.4851 -0.1432 -0.2747
 7638SOL    HW234374   3.737   2.665   0.962  3.5630  1.0352 -0.7734
 7639SOL     OW34375   4.644   4.119   1.579  0.3130 -0.4612  0.5417
 7639SOL    HW134376   4.567   4.098   1.526  2.0830 -2.2425 -1.3302
 7639SOL    HW234377   4.695   4.163   1.510 -1.6429  1.4325  0.2906
 7640SOL     OW34378   3.473   3.207   3.607 -0.1225 -0.0957  0.0453
 7640SOL    HW134379   3.559   3.248   3.596  0.1530 -0.3397  1.2589
 7640SOL    HW234380   3.459   3.157   3.527 -1.4414  0.8532 -0.3315
 7641SOL     OW34381   2.374   3.489   3.276  0.3059  0.1569  0.2635
 7641SOL    HW134382   2.423   3.411   3.304 -1.9285  0.0244  3.8385
 7641SOL    HW234383   2.290   3.483   3.320  0.4991 -1.8152  0.3800
 7642SOL     OW34384   4.097   2.073   3.974 -0.1236 -0.2441 -0.1637
 7642SOL    HW134385   4.193   2.074   3.973 -0.1077 -1.5310  0.5995
 7642SOL    HW234386   4.071   1.996   4.023  0.5616  1.7226  3.2927
 7643SOL     OW34387   2.480   4.302  12.484  0.1770 -0.8561 -0.1115
 7643SOL    HW134388   2.430   4.243  12.427  0.6586  0.3424 -1.7891
 7643SOL    HW234389   2.424   4.378  12.491 -1.0463 -1.3761 -4.0402
 7644SOL     OW34390   4.453   1.928   6.807  0.3846 -0.0818  0.2776
 7644SOL    HW134391   4.421   1.936   6.717  0.5664  1.3404  0.3433
 7644SOL    HW234392   4.399   1.994   6.851 -1.3001 -0.7800 -0.7206
 7645SOL     OW34393   4.407   0.503   8.972 -0.1464  0.0040 -0.0196
 7645SOL    HW134394   4.470   0.551   9.026  1.2743  0.4689 -2.1081
 7645SOL    HW234395   4.461   0.463   8.904  0.2427 -0.9063  0.8313
 7646SOL     OW34396   0.853   2.098   6.655 -0.1999  0.4188 -0.3739
 7646SOL    HW134397   0.787   2.106   6.725  0.1960  0.8332 -0.0443
 7646SOL    HW234398   0.935   2.102   6.704  0.3448 -2.1029 -1.1054
 7647SOL     OW34399   4.338   0.669   2.709  0.2550  0.2273  0.1315
 7647SOL    HW134400   4.296   0.704   2.631  1.6846  0.9669 -0.3122
 7647SOL    HW234401   4.430   0.658   2.688 -0.0086  1.6593 -1.7452
 7648SOL     OW34402   1.888   4.326   6.240 -1.0503  0.0302 -0.2636
 7648SOL    HW134403   1.886   4.266   6.166 -1.0691  1.5011 -1.4672
 7648SOL    HW234404   1.837   4.280   6.306 -1.5722 -0.5193 -1.0596
 7649SOL     OW34405   1.992   1.848   2.309 -0.6809 -0.1413 -0.2251
 7649SOL    HW134406   1.988   1.788   2.384 -0.7497  0.1723  0.0209
 7649SOL    HW234407   1.914   1.898   2.331 -0.3316  0.2601  0.1148
 7650SOL     OW34408   3.197   2.207   7.082  0.1648  0.1671  0.4122
 7650SOL    HW134409   3.267   2.271   7.069  2.2390 -2.3913 -1.0020
 7650SOL    HW234410   3.189   2.204   7.178  0.6479 -1.0737  0.4101
 7651SOL     OW34411   2.816   3.570   6.634 -0.7405 -0.3241 -0.4239
 7651SOL    HW134412   2.731   3.532   6.655 -0.7011  1.3164  2.8624
 7651SOL    HW234413   2.861   3.583   6.718  0.9267  0.3028 -1.4094
 7652SOL     OW34414   0.792   2.555   4.801  0.2679 -0.2422  0.1335
 7652SOL    HW134415   0.706   2.556   4.842 -0.1080 -0.5646 -0.6432
 7652SOL    HW234416   0.833   2.630   4.843 -2.1902  2.0269 -1.5159
 7653SOL     OW34417   1.356   0.829  12.462  0.0128 -0.0998  0.0376
 7653SOL    HW134418   1.339   0.916  12.498 -1.1853 -0.5112  0.4559
 7653SOL    HW234419   1.406   0.790  12.534  1.0306  0.6836 -0.2301
 7654SOL     OW34420   2.475   0.119   9.137  0.4008 -0.2244 -0.6261
 7654SOL    HW134421   2.512   0.082   9.217  1.6231 -0.1231 -1.1433
 7654SOL    HW234422   2.393   0.070   9.125 -0.2523  0.5999  0.4872
 7655SOL     OW34423   1.370   4.633   5.389  0.6013 -0.5706  0.2586
 7655SOL    HW134424   1.378   4.566   5.457  3.4848  0.5022  0.9815
 7655SOL    HW234425   1.460   4.650   5.363  0.1748  0.0172 -0.8071
 7656SOL     OW34426   1.807   3.125   2.246 -0.2654  0.7400  0.2115
 7656SOL    HW134427   1.868   3.188   2.284 -0.0484  0.8201 -0.2596
 7656SOL    HW234428   1.861   3.120   2.167 -1.8169 -0.1139 -0.8180
 7657SOL     OW34429   4.497   1.865  10.811 -0.7704  0.2475  0.1161
 7657SOL    HW134430   4.493   1.788  10.867  1.7752 -0.8572 -1.2020
 7657SOL    HW234431   4.591   1.881  10.802 -0.3023 -3.1742 -0.7981
 7658SOL     OW34432   2.841   0.428  16.758 -0.1860  0.4783  0.7234
 7658SOL    HW134433   2.853   0.482  16.836 -1.0563  0.1257  1.1042
 7658SOL    HW234434   2.887   0.348  16.783 -0.8970 -0.6088 -1.3860
 7659SOL     OW34435   1.326   1.000   3.446 -0.2893  0.0775  0.1892
 7659SOL    HW134436   1.416   1.025   3.426 -0.9526  0.9838 -1.6838
 7659SOL    HW234437   1.310   0.951   3.365 -0.9773  3.5946 -1.7864
 7660SOL     OW34438   3.600   0.692   8.122  0.0654  0.0762  0.1062
 7660SOL    HW134439   3.579   0.600   8.140 -0.5066  0.5049  1.6326
 7660SOL    HW234440   3.611   0.695   8.027  1.0096 -0.8763  0.1902
 7661SOL     OW34441   1.065   3.239   2.788 -0.1036 -0.1391  0.2822
 7661SOL    HW134442   0.974   3.256   2.764 -0.2137 -0.9213  0.1377
 7661SOL    HW234443   1.064   3.266   2.880 -0.7162 -2.1231  0.8467
 7662SOL     OW34444   0.919   2.983   3.239 -0.0285 -0.0362 -0.2369
 7662SOL    HW134445   0.846   2.958   3.296 -0.0501 -1.0768 -0.7165
 7662SOL    HW234446   0.983   2.913   3.257  0.4669  0.4639 -0.0685
 7663SOL     OW34447   1.813   3.038   5.634 -0.2446 -0.3287  0.1505
 7663SOL    HW134448   1.852   2.979   5.698  0.7097  0.7452  0.5564
 7663SOL    HW234449   1.869   3.115   5.622 -0.7256  0.1550  1.0249
 7664SOL     OW34450   4.257   2.522   5.739  0.1453  0.0548  0.1013
 7664SOL    HW134451   4.296   2.542   5.654 -3.6344  0.8991 -1.4678
 7664SOL    HW234452   4.322   2.463   5.777  1.7894  2.3224  0.7867
 7665SOL     OW34453   0.672   3.376   5.241 -0.2678  0.8550 -0.1878
 7665SOL    HW134454   0.645   3.435   5.170  0.1986  0.8374 -0.3775
 7665SOL    HW234455   0.748   3.334   5.201 -0.6564  0.7265 -0.7891
 7666SOL     OW34456   1.390   2.913   9.264  0.4474 -0.1135 -0.4502
 7666SOL    HW134457   1.437   2.990   9.294  1.9724 -1.0076 -0.5744
 7666SOL    HW234458   1.300   2.947   9.264 -0.3250 -2.1781 -0.5776
 7667SOL     OW34459   3.758   3.412   5.741  0.4239 -0.7464  0.0418
 7667SOL    HW134460   3.738   3.374   5.827  0.2548  2.3741  1.3814
 7667SOL    HW234461   3.843   3.453   5.756 -0.7612  1.4472  0.7771
 7668SOL     OW34462   4.287   3.994   4.032  0.1652  0.3023 -0.0828
 7668SOL    HW134463   4.221   4.002   4.101  0.0146 -0.5935 -0.1195
 7668SOL    HW234464   4.336   3.921   4.072  0.2503 -0.4622 -1.5897
 7669SOL     OW34465   3.610   2.571   2.427  0.7687 -0.0716 -0.4562
 7669SOL    HW134466   3.563   2.622   2.362  0.3615 -1.4717 -1.2630
 7669SOL    HW234467   3.634   2.499   2.368 -0.0325 -0.5099 -0.2465
 7670SOL     OW34468   3.577   0.111   3.486  0.5412  0.4815 -0.1127
 7670SOL    HW134469   3.483   0.105   3.475  0.5513  0.0006  0.0311
 7670SOL    HW234470   3.608   0.041   3.428  2.8585  1.3813  0.0174
 7671SOL     OW34471   0.431   3.470   3.578  0.0800  0.4276 -0.0790
 7671SOL    HW134472   0.457   3.385   3.544 -0.4580  1.2413 -2.4826
 7671SOL    HW234473   0.348   3.467   3.530  1.1540 -1.2735 -1.8236
 7672SOL     OW34474   1.487   0.330   5.500  0.3945  0.0238 -0.0366
 7672SOL    HW134475   1.554   0.275   5.460  1.9758  0.4603  2.0226
 7672SOL    HW234476   1.460   0.276   5.574  1.1029 -1.5176 -0.9009
 7673SOL     OW34477   4.401   0.060   8.245 -0.0679  0.3386 -0.1461
 7673SOL    HW134478   4.415   4.690   8.263  0.2594  0.4935  0.3928
 7673SOL    HW234479   4.313   0.075   8.281  0.0428  1.8192 -0.5233
 7674SOL     OW34480   3.616   0.315  16.156  0.1355  0.4695 -0.7745
 7674SOL    HW134481   3.612   0.385  16.091  1.5322  1.5074  0.2534
 7674SOL    HW234482   3.667   0.354  16.228 -2.3475  2.4067 -0.0826
 7675SOL     OW34483   3.519   1.246   7.040 -0.1065  0.4693  0.2832
 7675SOL    HW134484   3.435   1.291   7.044 -1.3808 -1.9147  0.0458
 7675SOL    HW234485   3.501   1.163   6.997  0.4379 -0.0801  1.1134
 7676SOL     OW34486   3.692   1.528   6.139  0.0141 -0.4359 -0.5628
 7676SOL    HW134487   3.750   1.599   6.111 -1.4204  0.0720 -2.2633
 7676SOL    HW234488   3.623   1.543   6.074  0.0509 -0.9493 -0.7232
 7677SOL     OW34489   1.853   2.705   4.272 -0.8765 -0.1989  0.2042
 7677SOL    HW134490   1.772   2.656   4.286 -0.1624 -1.1345  1.0111
 7677SOL    HW234491   1.906   2.702   4.351 -0.4666  3.5380  0.0921
 7678SOL     OW34492   1.146   0.699   6.101  0.1282  0.8406  1.0329
 7678SOL    HW134493   1.217   0.671   6.043  0.2681  0.7721  1.2351
 7678SOL    HW234494   1.143   0.793   6.082 -1.6468  0.5198 -0.2804
 7679SOL     OW34495   4.066   1.689   9.727  0.2838 -0.2385 -0.3664
 7679SOL    HW134496   4.012   1.640   9.665 -1.1627  1.7699 -0.6869
 7679SOL    HW234497   4.120   1.747   9.673  0.2985 -0.3964 -0.5244
 7680SOL     OW34498   1.653   0.734  15.574  0.0609 -0.0721  0.1648
 7680SOL    HW134499   1.605   0.809  15.540  0.9866 -0.9756 -3.1630
 7680SOL    HW234500   1.623   0.657  15.525 -1.6936  0.4148  0.4766
 7681SOL     OW34501   1.640   0.457   4.187  0.1392  0.2742  0.1041
 7681SOL    HW134502   1.562   0.457   4.241  0.3413  2.1405  0.4142
 7681SOL    HW234503   1.697   0.405   4.244 -0.6609  0.7458  1.3341
 7682SOL     OW34504   2.120   2.387   6.599  0.5097  0.0134  0.0385
 7682SOL    HW134505   2.106   2.293   6.586 -0.2685  0.3120 -1.3516
 7682SOL    HW234506   2.029   2.408   6.621  0.4372 -0.9544  0.6934
 7683SOL     OW34507   1.763   4.330   4.721  0.1070 -0.0983 -0.2392
 7683SOL    HW134508   1.738   4.321   4.629  3.1799 -1.3261 -0.9640
 7683SOL    HW234509   1.827   4.259   4.719  0.9320  0.5797  2.3761
 7684SOL     OW34510   1.523   2.139   9.141  0.6657  0.3550  0.4642
 7684SOL    HW134511   1.493   2.099   9.222  0.7966 -0.6016  0.0459
 7684SOL    HW234512   1.526   2.233   9.160 -2.4368  0.3858  0.6634
 7685SOL     OW34513   0.434   3.841   3.805  0.0702 -0.0009  0.0234
 7685SOL    HW134514   0.475   3.777   3.864 -1.1107 -0.3285  0.4931
 7685SOL    HW234515   0.480   3.834   3.721  0.1819 -1.9283  0.2332
 7686SOL     OW34516   1.154   0.000  14.630 -0.0473  0.1488 -0.2404
 7686SOL    HW134517   1.124   4.719  14.721 -0.8723  2.0808 -0.4306
 7686SOL    HW234518   1.165   0.093  14.608 -0.3272  0.1432 -0.4064
 7687SOL     OW34519   1.689   3.475  12.003  0.5101 -0.0136 -0.0402
 7687SOL    HW134520   1.631   3.405  12.033 -0.2515 -0.5198 -2.6559
 7687SOL    HW234521   1.678   3.540  12.072  1.0944 -0.7400  0.7374
 7688SOL     OW34522   0.145   2.119  11.941  0.4380  0.3969 -0.1013
 7688SOL    HW134523   0.054   2.101  11.917  0.6898 -0.1797 -0.6141
 7688SOL    HW234524   0.141   2.209  11.973 -2.2424  0.5446 -0.8749
 7689SOL     OW34525   1.548   2.148   1.170  0.3988 -0.2936 -0.0068
 7689SOL    HW134526   1.513   2.234   1.147  1.8169 -0.0247 -1.2036
 7689SOL    HW234527   1.480   2.136   1.236  0.8739 -1.8332  0.2048
 7690SOL     OW34528   2.566   2.817   6.286  0.2277 -0.0813  0.5898
 7690SOL    HW134529   2.599   2.727   6.284  0.0140 -0.1271 -0.8059
 7690SOL    HW234530   2.478   2.811   6.248  0.9176  2.8352 -1.4743
 7691SOL     OW34531   4.688   3.979   1.998 -0.6884  0.2483  0.2704
 7691SOL    HW134532   4.650   4.001   1.914 -1.5113  0.4678  0.7000
 7691SOL    HW234533   0.044   4.033   1.994  1.6271 -3.1712 -0.9842
 7692SOL     OW34534   2.810   4.201   2.956  0.2337  0.1930 -0.0783
 7692SOL    HW134535   2.802   4.296   2.958 -0.0563  0.1364  1.2404
 7692SOL    HW234536   2.737   4.174   2.901  0.3082  0.2697 -0.2161
 7693SOL     OW34537   1.734   2.403   2.510  0.3859 -0.0491 -0.0418
 7693SOL    HW134538   1.720   2.495   2.532 -0.9812 -0.2395 -0.0880
 7693SOL    HW234539   1.642   2.379   2.497 -0.2830  2.3960  0.1890
 7694SOL     OW34540   2.287   3.144   4.732  0.4654  1.2477 -0.1831
 7694SOL    HW134541   2.240   3.164   4.651  1.1004  2.5552 -0.2403
 7694SOL    HW234542   2.311   3.052   4.728 -1.0011  0.8047  1.7818
 7695SOL     OW34543   1.302   1.840   9.100 -0.5154  0.3050  0.5637
 7695SOL    HW134544   1.379   1.793   9.133 -1.5297 -1.9274 -0.2502
 7695SOL    HW234545   1.275   1.880   9.182  1.3571  1.3386  0.6893
 7696SOL     OW34546   3.646   1.456   8.936 -0.0474  0.1088 -0.2818
 7696SOL    HW134547   3.623   1.537   8.982  0.5844  1.3656 -2.1728
 7696SOL    HW234548   3.579   1.464   8.868 -1.2706  2.8045  1.2374
 7697SOL     OW34549   1.379   0.550   2.089 -0.2406 -0.0720  0.0310
 7697SOL    HW134550   1.403   0.587   2.004 -0.7491 -0.2556 -0.1907
 7697SOL    HW234551   1.284   0.559   2.094 -0.2047  0.3060  0.0042
 7698SOL     OW34552   0.581   1.243  15.557  0.0379  0.0303  0.5374
 7698SOL    HW134553   0.565   1.205  15.471  0.8064 -3.1783  1.8264
 7698SOL    HW234554   0.539   1.327  15.536 -1.5385 -0.8279  0.2802
 7699SOL     OW34555   4.245   1.025   6.343  0.3411  0.2210 -0.1411
 7699SOL    HW134556   4.248   0.931   6.329 -0.2152  0.1129  0.5185
 7699SOL    HW234557   4.285   1.054   6.261  3.1370 -1.1929  0.7028
 7700SOL     OW34558   4.481   2.408  11.472 -0.2594  0.1783  0.2036
 7700SOL    HW134559   4.569   2.376  11.454 -1.1120 -1.1220 -1.7567
 7700SOL    HW234560   4.474   2.481  11.411  1.9197  0.5038  0.3550
 7701SOL     OW34561   2.369   2.533  17.479 -0.0350 -0.0200 -0.1419
 7701SOL    HW134562   2.440   2.528  17.415  0.8681  1.7522  0.7449
 7701SOL    HW234563   2.298   2.566  17.423 -1.2789 -2.7424 -0.2343
 7702SOL     OW34564   3.605   3.441  14.012  0.2179 -0.0602  0.0996
 7702SOL    HW134565   3.692   3.478  14.026  0.6818 -1.0476 -0.1935
 7702SOL    HW234566   3.618   3.352  14.046 -3.0685  0.0350  1.6843
 7703SOL     OW34567   2.349   1.027   5.061 -0.4355 -0.6762  0.3066
 7703SOL    HW134568   2.423   0.987   5.108 -1.7386 -0.3450  2.6247
 7703SOL    HW234569   2.326   1.102   5.115  0.7951  0.8024 -1.1881
 7704SOL     OW34570   0.241   1.609   1.981  0.3017 -0.1652  0.2011
 7704SOL    HW134571   0.252   1.558   2.062 -1.2788 -2.3429 -0.9774
 7704SOL    HW234572   0.332   1.607   1.951  0.0298  1.2074 -0.7147
 7705SOL     OW34573   4.332   3.520  17.088  0.1003  0.2619  0.2161
 7705SOL    HW134574   4.394   3.540  17.158 -0.2430 -1.5519  1.0413
 7705SOL    HW234575   4.331   3.607  17.048 -1.4225  1.7964  3.6322
 7706SOL     OW34576   0.405   4.155  15.874  0.1740 -0.8281 -0.0525
 7706SOL    HW134577   0.438   4.204  15.950 -1.5770 -0.7759  0.6876
 7706SOL    HW234578   0.386   4.229  15.817  0.6336  0.5477  1.5839
 7707SOL     OW34579   4.148   0.549   7.716  0.0866  0.2054 -0.6107
 7707SOL    HW134580   4.132   0.630   7.764  0.1462  0.0490 -0.3219
 7707SOL    HW234581   4.089   0.567   7.643 -1.5138 -1.3666  0.2954
 7708SOL     OW34582   2.623   0.346   2.105  0.2712 -0.0951  0.3748
 7708SOL    HW134583   2.620   0.359   2.011 -0.1753  1.5537  0.6094
 7708SOL    HW234584   2.678   0.268   2.108 -1.4699 -1.4097 -1.5908
 7709SOL     OW34585   4.656   1.230  14.575  0.1669  0.1740 -0.4454
 7709SOL    HW134586   4.599   1.171  14.625  0.4797  0.6311  0.4501
 7709SOL    HW234587   4.650   1.192  14.488  1.8491 -0.9363 -0.0897
 7710SOL     OW34588   0.714   3.886  15.154 -0.2181 -0.5927 -0.2113
 7710SOL    HW134589   0.766   3.958  15.117 -1.0937 -0.3922 -1.0506
 7710SOL    HW234590   0.769   3.810  15.133  0.8702 -0.6064  2.6130
 7711SOL     OW34591   4.310   1.565   4.048 -0.2688 -0.2469 -0.4876
 7711SOL    HW134592   4.396   1.605   4.035 -0.1215  0.5488  2.9656
 7711SOL    HW234593   4.337   1.473   4.055 -2.5017 -0.8475  0.2391
 7712SOL     OW34594   1.819   0.156  14.763 -0.3026 -0.6161  0.0507
 7712SOL    HW134595   1.874   0.083  14.734 -0.3356 -0.6997  0.2013
 7712SOL    HW234596   1.737   0.113  14.786  0.6490 -1.9046  1.0437
 7713SOL     OW34597   4.150   4.531   5.730  0.3482  0.6923  0.0970
 7713SOL    HW134598   4.101   4.601   5.688  0.0477  1.1091  1.1281
 7713SOL    HW234599   4.075   4.479   5.760  0.4355  0.7623  0.4412
 7714SOL     OW34600   0.311   2.104   6.507 -0.5040 -0.9002  0.3898
 7714SOL    HW134601   0.341   2.089   6.597  0.2332  1.4442  0.5322
 7714SOL    HW234602   0.224   2.065   6.511 -1.7675  1.6494 -1.9146
 7715SOL     OW34603   3.174   0.392   8.602 -0.4739 -0.0038 -0.4473
 7715SOL    HW134604   3.081   0.397   8.623 -0.2090 -1.7824  1.2316
 7715SOL    HW234605   3.210   0.473   8.637 -1.1184 -0.1432  0.5550
 7716SOL     OW34606   0.134   4.571  13.347  0.2217 -0.4293 -0.5925
 7716SOL    HW134607   0.188   4.633  13.396  0.0644 -0.5707 -0.2420
 7716SOL    HW234608   0.160   4.496  13.401 -0.8998  1.1186  2.0927
 7717SOL     OW34609   3.998   0.061   0.728  0.4732 -0.6362 -0.6701
 7717SOL    HW134610   4.002   0.007   0.807 -1.4245  0.4726  0.1885
 7717SOL    HW234611   3.991   4.717   0.659  0.2071 -1.9034  0.5845
 7718SOL     OW34612   3.737   3.097  11.071 -0.4600  0.2198  0.0051
 7718SOL    HW134613   3.821   3.053  11.080 -1.4324 -1.4369  0.8392
 7718SOL    HW234614   3.688   3.035  11.125 -1.3371 -1.5186 -2.8168
 7719SOL     OW34615   2.826   4.471   8.306 -0.1114 -0.9179  0.1048
 7719SOL    HW134616   2.789   4.384   8.321  0.8663 -1.1485  1.1343
 7719SOL    HW234617   2.844   4.469   8.212  0.3162 -1.2926  0.1921
 7720SOL     OW34618   1.401   1.094  14.954 -0.0443  0.5801  0.2239
 7720SOL    HW134619   1.305   1.084  14.955  0.1965 -1.5975  1.3674
 7720SOL    HW234620   1.406   1.185  14.984  1.9103  0.1167  1.2840
 7721SOL     OW34621   3.553   0.408   7.930  0.2237  0.0387 -0.1181
 7721SOL    HW134622   3.525   0.417   7.838 -1.1105  1.1968  0.4020
 7721SOL    HW234623   3.469   0.430   7.969 -0.0843  1.1239 -1.3907
 7722SOL     OW34624   0.724   3.142   6.692 -0.0444  0.2728 -0.7821
 7722SOL    HW134625   0.740   3.131   6.598  2.2467 -2.0014 -0.1092
 7722SOL    HW234626   0.631   3.164   6.690 -0.6443 -2.2377  0.7311
 7723SOL     OW34627   4.028   1.150   9.834  0.4630  0.5607 -0.5346
 7723SOL    HW134628   4.041   1.236   9.874  1.5066 -1.1313  2.7828
 7723SOL    HW234629   4.049   1.097   9.911  0.5496 -1.4101 -1.8986
 7724SOL     OW34630   3.586   0.949   3.943 -0.5697 -0.0308  0.2832
 7724SOL    HW134631   3.497   0.928   3.973 -0.1709 -1.3899  0.5299
 7724SOL    HW234632   3.610   1.037   3.971  0.5870 -0.4792  0.6648
 7725SOL     OW34633   0.344   3.096   8.651  0.1185 -0.1405 -0.5157
 7725SOL    HW134634   0.294   3.016   8.631 -1.6907  1.0883 -0.9096
 7725SOL    HW234635   0.329   3.130   8.563  0.4521  1.9049  0.2301
 7726SOL     OW34636   2.955   3.639   5.416  0.6531  0.7728  0.1932
 7726SOL    HW134637   2.914   3.677   5.493  0.9993  1.6159 -0.0403
 7726SOL    HW234638   3.029   3.592   5.455 -0.3505 -0.6720  0.3631
 7727SOL     OW34639   4.372   2.592   7.307 -0.1189 -0.5642 -0.4045
 7727SOL    HW134640   4.342   2.661   7.249 -2.0382 -0.1227  1.1140
 7727SOL    HW234641   4.463   2.574   7.283 -0.2620  0.8459 -2.0086
 7728SOL     OW34642   3.154   2.598  12.962  0.6062  0.3490 -0.3736
 7728SOL    HW134643   3.214   2.581  13.035  0.0204 -2.1021 -0.4674
 7728SOL    HW234644   3.070   2.582  13.004 -0.7071  3.4938 -1.8273
 7729SOL     OW34645   0.045   1.304   2.213  0.2261  0.1991  0.4902
 7729SOL    HW134646   0.105   1.315   2.287 -1.7890  1.2215  1.9695
 7729SOL    HW234647   4.720   1.387   2.204  3.0137  1.6551 -0.7191
 7730SOL     OW34648   0.245   2.483   6.049  0.1672 -0.4627  0.2571
 7730SOL    HW134649   0.217   2.405   6.097  0.8160  1.2818  3.4908
 7730SOL    HW234650   0.167   2.499   5.997  1.1601  0.6505 -0.8890
 7731SOL     OW34651   4.718   3.836  10.888 -0.3397  0.5027 -0.3500
 7731SOL    HW134652   0.091   3.839  10.889 -0.3175 -0.1830 -0.5733
 7731SOL    HW234653   4.692   3.928  10.885 -0.2066  0.5080 -1.2681
 7732SOL     OW34654   4.381   4.204   1.754 -1.1462  0.0589  0.2269
 7732SOL    HW134655   4.360   4.288   1.714  1.9010  0.8396  0.2928
 7732SOL    HW234656   4.307   4.149   1.729 -0.4635 -1.2758  1.1127
 7733SOL     OW34657   1.773   1.868   6.722  0.1213 -0.2146  1.1780
 7733SOL    HW134658   1.706   1.800   6.727  0.1339 -0.2652  0.6757
 7733SOL    HW234659   1.809   1.859   6.810 -1.1413 -0.9427  1.6215
 7734SOL     OW34660   1.754   2.254  14.326 -0.6439 -0.0649 -0.6315
 7734SOL    HW134661   1.662   2.278  14.329 -0.0629  2.2388 -1.5687
 7734SOL    HW234662   1.787   2.337  14.360 -1.2327 -0.1449  0.1346
 7735SOL     OW34663   2.364   3.525   6.905  0.1923 -0.1558 -0.3072
 7735SOL    HW134664   2.291   3.525   6.843 -1.3813  0.0191  1.5357
 7735SOL    HW234665   2.359   3.611   6.948 -1.1820 -1.1332  1.4760
 7736SOL     OW34666   4.629   2.852   1.398  0.1541 -0.4901 -0.1260
 7736SOL    HW134667   4.565   2.819   1.335 -1.1644  1.7022  0.0699
 7736SOL    HW234668   4.691   2.780   1.400  0.6500 -0.0447  0.4754
 7737SOL     OW34669   1.477   3.636   8.843  0.8669  0.5998  0.0592
 7737SOL    HW134670   1.510   3.642   8.933  0.5392  1.8459  0.0956
 7737SOL    HW234671   1.407   3.701   8.851 -1.4537 -1.9096 -0.1102
 7738SOL     OW34672   1.747   1.111   0.093 -0.5604  0.1297  0.5657
 7738SOL    HW134673   1.806   1.186   0.090  1.7699 -1.6236  2.2476
 7738SOL    HW234674   1.733   1.102   0.187  1.4356  0.7199  0.9151
 7739SOL     OW34675   1.343   0.020   9.449 -0.0792  0.0894 -0.2523
 7739SOL    HW134676   1.437   0.032   9.444 -0.0671 -0.2711 -0.9554
 7739SOL    HW234677   1.332   4.719   9.541  0.9961 -0.4066 -0.2554
 7740SOL     OW34678   2.273   0.088  10.951 -0.5573  0.2047  0.2688
 7740SOL    HW134679   2.329   0.166  10.945 -2.4849  1.6026  0.4687
 7740SOL    HW234680   2.332   0.027  10.907 -3.1333 -0.9094 -1.5827
 7741SOL     OW34681   0.042   3.191   6.247 -0.5997 -0.4486 -0.3638
 7741SOL    HW134682   0.098   3.114   6.237  0.3083 -0.3521  3.8188
 7741SOL    HW234683   0.002   3.175   6.333 -0.3381  0.3254 -0.1012
 7742SOL     OW34684   4.255   4.628   0.465 -0.4459  0.1694 -0.3821
 7742SOL    HW134685   4.168   4.592   0.449 -0.3911  0.3173 -0.9989
 7742SOL    HW234686   4.227   4.719   0.468  0.9173  0.5768 -0.1617
 7743SOL     OW34687   2.621   0.230   0.159 -0.6723 -0.0601  0.3344
 7743SOL    HW134688   2.659   0.298   0.215 -2.1009  1.6508 -0.7674
 7743SOL    HW234689   2.618   0.270   0.072 -0.3508 -1.5134 -0.3480
 7744SOL     OW34690   1.297   1.770  13.588  0.5544  0.3302  0.3782
 7744SOL    HW134691   1.344   1.842  13.546 -1.1241  0.2644 -1.6424
 7744SOL    HW234692   1.216   1.812  13.618 -0.3571 -0.4839 -0.9008
 7745SOL     OW34693   2.702   4.411   7.638 -0.1025  0.1132  0.5334
 7745SOL    HW134694   2.671   4.454   7.717 -0.3794  2.0464 -0.6285
 7745SOL    HW234695   2.743   4.484   7.591  0.0224  1.4977  2.8219
 7746SOL     OW34696   3.934   4.323  11.730 -0.1008 -0.1040 -0.2769
 7746SOL    HW134697   3.878   4.379  11.783  0.0219 -0.4848  0.2613
 7746SOL    HW234698   3.951   4.381  11.656 -0.1573  3.0954  2.2584
 7747SOL     OW34699   3.921   3.258   1.455  0.2632 -0.1108 -0.1297
 7747SOL    HW134700   3.932   3.168   1.488 -0.4989  0.0343  0.5251
 7747SOL    HW234701   3.988   3.308   1.502  0.3419  0.4164 -0.8201
 7748SOL     OW34702   0.223   0.709  15.978  0.5105 -0.7312  0.4668
 7748SOL    HW134703   0.186   0.791  16.010  0.0077 -0.3317 -1.1305
 7748SOL    HW234704   0.137   0.667  15.987  0.5456 -1.0019 -0.3926
 7749SOL     OW34705   4.639   1.050   6.093 -0.2316  0.2414 -0.0193
 7749SOL    HW134706   4.719   1.084   6.053 -0.6840 -0.3819 -1.4452
 7749SOL    HW234707   4.634   0.959   6.065  0.2286  0.9110 -2.2917
 7750SOL     OW34708   3.287   1.262   2.672 -0.2051  0.0097 -0.4515
 7750SOL    HW134709   3.380   1.262   2.694 -0.2107 -1.2771 -0.4015
 7750SOL    HW234710   3.269   1.351   2.701 -1.6076 -0.1942 -0.6968
 7751SOL     OW34711   2.084   3.563   8.436  0.3414  0.1676 -0.1430
 7751SOL    HW134712   1.990   3.550   8.443  0.6932 -2.3434  0.1432
 7751SOL    HW234713   2.108   3.547   8.527  1.7006 -0.2272 -0.5639
 7752SOL     OW34714   3.405   1.387   5.811  0.2019 -0.2550  0.7346
 7752SOL    HW134715   3.310   1.401   5.813  0.1292 -0.8977  1.8705
 7752SOL    HW234716   3.411   1.302   5.856  1.5693 -0.6147 -0.1366
 7753SOL     OW34717   1.943   3.481   6.072 -0.0951  0.7101  0.1543
 7753SOL    HW134718   1.873   3.483   6.006 -0.5469 -2.1051  0.5340
 7753SOL    HW234719   2.021   3.470   6.017  0.8463  0.4041  1.5428
 7754SOL     OW34720   2.673   4.619   5.945  0.4928  0.2324  0.4764
 7754SOL    HW134721   2.757   4.624   5.991 -0.2613 -1.2191  1.9931
 7754SOL    HW234722   2.694   4.684   5.878  1.1423 -1.6379 -1.1574
 7755SOL     OW34723   0.207   3.976   3.176 -0.2568 -0.1455 -0.1036
 7755SOL    HW134724   0.111   3.984   3.174 -0.2969 -0.8781 -1.0695
 7755SOL    HW234725   0.224   3.889   3.211 -2.2198 -0.6594 -0.4394
 7756SOL     OW34726   3.233   2.712   1.850  0.3842 -0.5531  0.2168
 7756SOL    HW134727   3.141   2.725   1.872  1.0360 -1.3815  3.4821
 7756SOL    HW234728   3.281   2.772   1.908  1.3390 -0.1477 -0.9956
 7757SOL     OW34729   0.197   4.049   7.816 -0.4586  0.0297  0.1022
 7757SOL    HW134730   0.238   4.031   7.732 -2.4901 -0.3207 -0.8067
 7757SOL    HW234731   0.242   3.986   7.873  1.4412 -0.0194 -1.4757
 7758SOL     OW34732   3.760   4.632   5.841  0.0364  0.2016  0.6612
 7758SOL    HW134733   3.670   4.600   5.849  0.2403 -0.1185  1.5988
 7758SOL    HW234734   3.758   4.716   5.887 -0.0960  0.3630  0.3611
 7759SOL     OW34735   4.030   1.338   8.529  0.5877  0.3985 -0.0208
 7759SOL    HW134736   4.116   1.304   8.552  0.0404 -1.2502 -0.3785
 7759SOL    HW234737   4.010   1.270   8.464  1.4252  0.7829 -0.6781
 7760SOL     OW34738   3.468   2.133   1.714 -0.4754 -0.2913 -0.5041
 7760SOL    HW134739   3.400   2.113   1.778  0.2093 -2.8499 -0.5737
 7760SOL    HW234740   3.497   2.045   1.691 -2.1979 -0.8594 -0.5357
 7761SOL     OW34741   3.978   4.652  17.531 -0.1136  0.5057  0.1850
 7761SOL    HW134742   4.053   4.661  17.589 -0.5854  1.7629  0.6019
 7761SOL    HW234743   3.910   4.621  17.591  0.5082  0.7488  1.0149
 7762SOL     OW34744   2.558   0.688   2.527  0.4098 -0.2917 -0.0947
 7762SOL    HW134745   2.583   0.662   2.439 -1.1264 -1.4640 -0.1913
 7762SOL    HW234746   2.592   0.617   2.582 -1.5907 -0.6573  0.6833
 7763SOL     OW34747   2.479   0.838   4.648 -0.5281 -0.2704  0.4567
 7763SOL    HW134748   2.456   0.926   4.678 -2.0515  0.2635 -2.2592
 7763SOL    HW234749   2.540   0.849   4.574  0.0690  1.1379  1.1577
 7764SOL     OW34750   1.199   3.302   2.187 -0.6343 -0.2482 -0.2176
 7764SOL    HW134751   1.217   3.294   2.281 -1.7332  1.8198  0.1813
 7764SOL    HW234752   1.121   3.248   2.177 -1.6234  0.9903  0.7105
 7765SOL     OW34753   3.564   0.490   9.222  0.6442 -0.0907 -0.8226
 7765SOL    HW134754   3.605   0.418   9.174 -2.1256 -1.7634 -0.6362
 7765SOL    HW234755   3.599   0.478   9.310 -0.4416 -0.3627 -0.4312
 7766SOL     OW34756   1.420   3.067   4.797  0.1546  0.5922  0.4194
 7766SOL    HW134757   1.436   3.120   4.720 -1.2227  0.8156  0.2859
 7766SOL    HW234758   1.348   3.012   4.765  0.5030 -0.2016  0.9842
 7767SOL     OW34759   0.622   3.826  10.729  0.3696  0.5690 -0.2324
 7767SOL    HW134760   0.632   3.826  10.634  0.0646 -0.6996 -0.2600
 7767SOL    HW234761   0.714   3.834  10.758  1.3015  0.7595 -3.2822
 7768SOL     OW34762   0.835   0.025   2.238  0.2097  0.3350  0.3948
 7768SOL    HW134763   0.867   0.111   2.267  2.3623 -0.9578  1.8894
 7768SOL    HW234764   0.891   4.697   2.296 -0.9727 -0.4310  0.8589
 7769SOL     OW34765   1.949   0.538   8.828 -0.2060 -0.1660 -0.3685
 7769SOL    HW134766   1.873   0.503   8.782 -1.3924  0.9830  0.7118
 7769SOL    HW234767   1.906   0.609   8.876 -0.9157 -1.6562  1.2133
 7770SOL     OW34768   2.385   2.031   7.278 -0.0948  0.5373  0.5434
 7770SOL    HW134769   2.424   1.944   7.282  0.1779  0.6789  1.1347
 7770SOL    HW234770   2.448   2.079   7.224 -2.5003  0.7889 -2.0224
 7771SOL     OW34771   4.473   4.248   1.268  0.0933 -0.2964  0.0556
 7771SOL    HW134772   4.528   4.215   1.196  0.7190  2.2241 -0.6040
 7771SOL    HW234773   4.436   4.168   1.305  1.3183 -0.6867  0.4513
 7772SOL     OW34774   1.261   2.265  11.322  0.3080 -0.2581 -0.4433
 7772SOL    HW134775   1.342   2.273  11.373 -1.2718 -0.6506  2.1354
 7772SOL    HW234776   1.224   2.186  11.362  0.7310  0.8090  2.0718
 7773SOL     OW34777   3.994   0.026   2.885 -0.1672  0.0298 -0.0243
 7773SOL    HW134778   3.948   0.086   2.827 -0.3762  0.9518  1.0903
 7773SOL    HW234779   4.034   4.691   2.821 -1.1238  0.3258 -0.8861
 7774SOL     OW34780   1.765   0.888   2.364  0.0632 -0.5770  0.0917
 7774SOL    HW134781   1.724   0.821   2.309 -0.9194  1.3357 -1.5465
 7774SOL    HW234782   1.799   0.952   2.302  2.1195  1.8384  3.6768
 7775SOL     OW34783   3.128   0.401   2.452 -0.1914 -0.2241 -0.0386
 7775SOL    HW134784   3.173   0.451   2.383 -1.4378  1.1457  0.1358
 7775SOL    HW234785   3.073   0.469   2.491 -1.1916 -0.9411 -0.2074
 7776SOL     OW34786   3.475   2.722  11.350 -0.1046 -0.2829 -0.3862
 7776SOL    HW134787   3.461   2.668  11.428  2.5682 -0.9288 -0.3395
 7776SOL    HW234788   3.459   2.661  11.279 -0.4880 -0.8655  0.1993
 7777SOL     OW34789   3.996   0.084   8.666 -0.1727 -0.6185 -0.3184
 7777SOL    HW134790   3.969   0.022   8.599  0.2510 -0.8575 -0.2742
 7777SOL    HW234791   4.092   0.075   8.667 -0.1136 -0.0073 -0.9736
 7778SOL     OW34792   0.465   4.048   2.433 -0.2496 -0.1745 -0.0607
 7778SOL    HW134793   0.522   3.978   2.403 -0.8158  0.6522 -3.0069
 7778SOL    HW234794   0.386   3.998   2.413 -0.4891  0.8038 -1.5761
 7779SOL     OW34795   0.517   3.240   5.409  0.0677 -0.0599 -0.5283
 7779SOL    HW134796   0.547   3.294   5.336  0.7356  1.0267  0.5627
 7779SOL    HW234797   0.593   3.184   5.428 -0.3518 -0.3433  0.3323
 7780SOL     OW34798   3.827   4.175   2.790 -0.1408  0.1983  0.1666
 7780SOL    HW134799   3.915   4.180   2.752  0.0189 -2.2733  0.1858
 7780SOL    HW234800   3.775   4.233   2.735 -1.7122  0.3712  1.8041
 7781SOL     OW34801   0.254   2.247   4.868 -0.4389  0.2553 -0.4720
 7781SOL    HW134802   0.346   2.258   4.891 -0.4480  0.9410 -0.7437
 7781SOL    HW234803   0.233   2.156   4.885  0.3109  0.3938  1.1268
 7782SOL     OW34804   1.806   4.447  10.643  0.6048  0.2389 -0.4438
 7782SOL    HW134805   1.794   4.358  10.675 -1.3775  0.8942  0.6358
 7782SOL    HW234806   1.896   4.432  10.614  0.7004 -0.0309 -0.0068
 7783SOL     OW34807   1.534   1.562   8.896 -0.4620 -0.2234  0.0724
 7783SOL    HW134808   1.524   1.584   8.989  0.9964  3.1521 -0.5762
 7783SOL    HW234809   1.500   1.637   8.848 -0.2897  1.0681  1.9562
 7784SOL     OW34810   0.429   0.407   0.907 -0.2607  0.0794 -0.0687
 7784SOL    HW134811   0.339   0.376   0.917 -0.5203  0.2687 -1.7761
 7784SOL    HW234812   0.433   0.433   0.815  1.8473 -1.0823 -0.3078
 7785SOL     OW34813   0.149   3.624   5.425  0.1350 -0.1821 -0.3726
 7785SOL    HW134814   0.196   3.593   5.347 -0.3694  1.2770 -1.2479
 7785SOL    HW234815   0.204   3.594   5.497 -0.7446 -0.7278  0.0693
 7786SOL     OW34816   4.105   0.934   8.068 -0.1288 -0.4939 -0.1574
 7786SOL    HW134817   4.105   1.030   8.066  0.2663 -0.5097 -1.3628
 7786SOL    HW234818   4.193   0.916   8.101  0.2517 -2.0842 -2.0629
 7787SOL     OW34819   2.997   3.943   4.541 -0.0429  0.2217 -0.3408
 7787SOL    HW134820   3.020   3.882   4.471 -2.3118 -1.1656  0.1276
 7787SOL    HW234821   2.939   3.996   4.486 -0.4443 -1.2871 -1.3840
 7788SOL     OW34822   0.526   2.027   7.055 -0.4327  0.5993 -0.2131
 7788SOL    HW134823   0.538   2.076   7.136 -1.2709  1.7253 -0.7614
 7788SOL    HW234824   0.563   1.945   7.086  0.6626  0.7201 -1.2202
 7789SOL     OW34825   0.090   4.239  15.302  0.5393 -0.4365 -0.8439
 7789SOL    HW134826   0.064   4.314  15.249  1.0618  0.7247  0.5458
 7789SOL    HW234827   0.126   4.184  15.233  2.4378  0.0796 -0.2414
 7790SOL     OW34828   2.623   4.496   6.783  0.0266  0.2527  0.4044
 7790SOL    HW134829   2.628   4.441   6.861 -0.0022  0.2929  0.4342
 7790SOL    HW234830   2.581   4.439   6.717 -1.4082  1.0639  0.6250
 7791SOL     OW34831   1.704   4.635   7.238  0.8878 -0.1017 -0.6253
 7791SOL    HW134832   1.622   4.587   7.225  0.9534 -0.0483 -1.2402
 7791SOL    HW234833   1.696   4.664   7.328 -1.6283 -0.5810 -0.6923
 7792SOL     OW34834   3.167   1.723  12.652  0.4402  0.1893  0.2262
 7792SOL    HW134835   3.156   1.633  12.681  0.0227 -0.0518 -0.6864
 7792SOL    HW234836   3.165   1.709  12.557 -1.2651  1.4332  0.0681
 7793SOL     OW34837   1.547   3.218  15.972 -0.2724  0.0141 -0.2044
 7793SOL    HW134838   1.616   3.273  15.936  0.6284  0.2749  1.9479
 7793SOL    HW234839   1.576   3.131  15.943 -1.6419  0.0453 -1.7241
 7794SOL     OW34840   1.564   4.710   8.279  0.3025 -0.2169 -0.0716
 7794SOL    HW134841   1.489   4.704   8.220 -0.9058  1.8408  1.2572
 7794SOL    HW234842   1.635   0.015   8.222  1.0575 -1.4267  0.2876
 7795SOL     OW34843   0.831   1.169  15.339  0.5244 -0.1847 -0.3038
 7795SOL    HW134844   0.795   1.081  15.336 -0.6937  0.2785  0.7603
 7795SOL    HW234845   0.790   1.203  15.418 -2.0533 -2.0662 -0.8506
 7796SOL     OW34846   1.744   2.029   4.804 -0.6503 -0.4781 -0.1059
 7796SOL    HW134847   1.665   2.083   4.811 -2.8006 -3.5161 -0.9184
 7796SOL    HW234848   1.759   1.989   4.889  0.7464  1.0381  0.3514
 7797SOL     OW34849   3.036   2.625   4.132 -0.5451 -0.1021  0.0511
 7797SOL    HW134850   3.042   2.574   4.213 -0.4400  0.2041  0.2378
 7797SOL    HW234851   2.956   2.588   4.097 -0.0789  0.3772 -1.5397
 7798SOL     OW34852   4.239   2.994  10.382 -0.0945  0.0980 -0.2983
 7798SOL    HW134853   4.177   2.970  10.451  1.4559 -0.8303  0.7666
 7798SOL    HW234854   4.229   2.912  10.334  0.0372 -1.1043  1.7190
 7799SOL     OW34855   1.417   0.279   2.101 -0.1216 -0.0958  1.2152
 7799SOL    HW134856   1.484   0.263   2.034 -2.9815 -3.0421 -0.9364
 7799SOL    HW234857   1.431   0.372   2.119 -2.9340  0.4349  0.6467
 7800SOL     OW34858   2.245   2.455   4.063 -0.3002  0.1591  0.1937
 7800SOL    HW134859   2.173   2.460   4.000  0.3877 -2.5525 -0.8209
 7800SOL    HW234860   2.224   2.510   4.139 -1.6165 -1.1472  0.7834
 7801SOL     OW34861   4.419   4.596   5.704 -0.4522  0.2657  0.5014
 7801SOL    HW134862   4.463   4.572   5.622  0.3609 -2.4459  1.7302
 7801SOL    HW234863   4.332   4.566   5.680 -0.3445  0.6430 -0.3611
 7802SOL     OW34864   2.339   0.193  14.439 -0.3678  0.0542  0.2236
 7802SOL    HW134865   2.346   0.242  14.357  1.5819 -0.4815  0.0686
 7802SOL    HW234866   2.349   0.100  14.416  0.9195  0.3535 -0.4525
 7803SOL     OW34867   0.781   4.471   2.842  0.1169 -0.1450 -0.4170
 7803SOL    HW134868   0.686   4.488   2.843  0.9211  4.4682 -1.6512
 7803SOL    HW234869   0.796   4.456   2.936 -2.0602 -2.3401 -0.4107
 7804SOL     OW34870   1.172   3.015   0.842 -0.4241 -0.2789 -0.5791
 7804SOL    HW134871   1.077   3.015   0.854 -0.4778 -3.0491 -1.0031
 7804SOL    HW234872   1.192   2.921   0.842  0.7906 -0.0224  0.5009
 7805SOL     OW34873   4.110   0.232  16.677  0.4182 -0.1610  0.1903
 7805SOL    HW134874   4.174   0.166  16.653  1.3086  0.4358  0.9212
 7805SOL    HW234875   4.136   0.306  16.623 -0.5554 -0.1458 -0.2509
 7806SOL     OW34876   0.797   2.583   3.745 -0.1922 -0.1131 -0.0691
 7806SOL    HW134877   0.706   2.605   3.765 -0.4344  0.0832 -1.3984
 7806SOL    HW234878   0.831   2.579   3.834  2.0729 -1.2922 -0.9919
 7807SOL     OW34879   4.259   2.258  11.389  0.7106 -0.0022 -0.0419
 7807SOL    HW134880   4.288   2.222  11.305 -1.7184  2.0981 -1.7656
 7807SOL    HW234881   4.326   2.321  11.416  0.6202  0.4448 -0.8484
 7808SOL     OW34882   4.392   0.107  11.300  0.0001 -0.4129  0.1226
 7808SOL    HW134883   4.396   0.017  11.331  1.2417 -0.0760  0.9324
 7808SOL    HW234884   4.484   0.119  11.278 -0.3690  0.4686 -0.9411
 7809SOL     OW34885   1.480   2.054  14.608  0.4297  0.0545  0.0792
 7809SOL    HW134886   1.473   2.035  14.514 -3.0799  0.8136  0.1905
 7809SOL    HW234887   1.547   2.122  14.617  1.1665 -0.5646 -0.7574
 7810SOL     OW34888   4.635   3.299   7.959 -0.2231  0.7530 -0.1286
 7810SOL    HW134889   4.642   3.319   7.866  0.2791  0.0284 -0.2418
 7810SOL    HW234890   4.540   3.288   7.965 -0.0399 -0.0650  1.1872
 7811SOL     OW34891   3.202   4.703   9.514 -0.4678  0.1340 -0.1146
 7811SOL    HW134892   3.198   0.058   9.570 -0.3213  0.3887 -0.4513
 7811SOL    HW234893   3.175   4.643   9.583  2.7406 -1.9749 -0.7037
 7812SOL     OW34894   3.642   3.762   8.328 -0.9147  0.4292 -0.2082
 7812SOL    HW134895   3.669   3.845   8.287 -0.7254  0.5189  0.0979
 7812SOL    HW234896   3.597   3.784   8.410 -3.0021 -1.3346 -0.8770
 7813SOL     OW34897   1.366   2.729   3.163  0.3025  0.4780 -0.1006
 7813SOL    HW134898   1.352   2.655   3.104 -2.1457  1.3563 -0.6330
 7813SOL    HW234899   1.415   2.783   3.102  0.5100 -1.6247 -1.8100
 7814SOL     OW34900   3.487   1.914   8.350  0.7468  0.0286 -0.1472
 7814SOL    HW134901   3.537   1.931   8.430  0.8981  0.6133 -0.3624
 7814SOL    HW234902   3.431   1.992   8.353 -0.0840 -0.4653 -2.8439
 7815SOL     OW34903   3.580   3.308   8.931 -0.1077  0.0032 -0.8301
 7815SOL    HW134904   3.642   3.368   8.890 -0.0520 -0.1320 -0.9436
 7815SOL    HW234905   3.629   3.226   8.937  0.8177  0.5104 -1.4934
 7816SOL     OW34906   1.237   2.737   0.856  0.1532  0.4354 -0.3699
 7816SOL    HW134907   1.269   2.681   0.785  0.7145 -0.1807  0.3635
 7816SOL    HW234908   1.256   2.682   0.932 -2.6818 -1.3833 -0.9663
 7817SOL     OW34909   0.907   3.837   0.444  0.0111 -0.0659 -0.3712
 7817SOL    HW134910   0.820   3.820   0.478  0.6286  1.2745  1.8421
 7817SOL    HW234911   0.878   3.839   0.352 -0.2799 -3.0542 -0.3378
 7818SOL     OW34912   1.977   1.115   5.219  0.0639 -0.0927  0.0320
 7818SOL    HW134913   2.015   1.053   5.158 -0.0014  0.4520 -0.5590
 7818SOL    HW234914   2.044   1.178   5.247 -0.7990  0.7878  0.1154
 7819SOL     OW34915   3.455   3.171  11.557 -0.5597 -0.7221 -0.2086
 7819SOL    HW134916   3.526   3.175  11.492  0.3419 -1.2138  0.7409
 7819SOL    HW234917   3.378   3.157  11.502 -1.9212  0.7189  1.3447
 7820SOL     OW34918   3.131   1.720   7.754 -0.1062  0.6215  0.6325
 7820SOL    HW134919   3.076   1.769   7.816  0.1803 -1.0629  2.2285
 7820SOL    HW234920   3.101   1.632   7.777  1.3307 -0.5673 -2.0127
 7821SOL     OW34921   4.242   4.575  15.861 -0.2222  0.1949  0.3201
 7821SOL    HW134922   4.278   4.494  15.897  0.3674  0.7070  0.8670
 7821SOL    HW234923   4.157   4.545  15.829 -0.2078 -0.6419  1.0811
 7822SOL     OW34924   2.322   1.231  13.455 -0.6894 -0.1593  0.3345
 7822SOL    HW134925   2.390   1.208  13.518 -0.1990  0.7166  0.1225
 7822SOL    HW234926   2.363   1.197  13.375 -0.6687 -2.8693  1.5266
 7823SOL     OW34927   0.658   4.051   4.756  0.8825  0.3637 -0.1177
 7823SOL    HW134928   0.619   4.017   4.676 -0.9558 -1.3014  1.4700
 7823SOL    HW234929   0.573   4.060   4.798  1.0403 -0.3188  0.3554
 7824SOL     OW34930   3.233   3.486   6.721  0.0476  0.3910  0.1202
 7824SOL    HW134931   3.198   3.457   6.637  1.6270  1.6574 -0.9679
 7824SOL    HW234932   3.238   3.580   6.706  2.8578  0.3408  0.6987
 7825SOL     OW34933   1.217   1.639   5.439  0.4995 -0.8162  0.2005
 7825SOL    HW134934   1.252   1.554   5.412  0.8776 -0.4661 -0.4234
 7825SOL    HW234935   1.146   1.621   5.500  1.2754 -0.6528  1.1359
 7826SOL     OW34936   1.571   3.018  12.350  0.5057 -0.1307 -0.0669
 7826SOL    HW134937   1.520   3.036  12.429  1.3918 -1.2904  0.7701
 7826SOL    HW234938   1.614   3.103  12.352 -0.8236  0.5650 -1.1114
 7827SOL     OW34939   4.149   3.514  12.499  0.2079  0.0994  0.5439
 7827SOL    HW134940   4.189   3.595  12.530 -0.6459  0.8862 -0.3952
 7827SOL    HW234941   4.107   3.551  12.421 -1.2161 -0.4481  1.0450
 7828SOL     OW34942   3.299   2.492   5.535  0.3495  0.3761 -0.4250
 7828SOL    HW134943   3.332   2.540   5.459  0.9968  2.0312  0.9229
 7828SOL    HW234944   3.376   2.474   5.589 -0.8843 -0.6263  1.0081
 7829SOL     OW34945   2.388   4.631  10.759 -0.4486 -0.6700  0.2953
 7829SOL    HW134946   2.294   4.622  10.741 -0.5619 -1.0715  1.0858
 7829SOL    HW234947   2.418   4.542  10.742  0.0926  0.0253 -2.3128
 7830SOL     OW34948   3.944   4.128  13.316 -0.0523  0.4805 -0.0737
 7830SOL    HW134949   3.971   4.040  13.291  3.8133  1.8350 -0.7934
 7830SOL    HW234950   3.912   4.109  13.404 -1.3341  0.7761 -0.4850
 7831SOL     OW34951   1.328   3.028   5.643  0.2618  0.3604  0.9277
 7831SOL    HW134952   1.398   3.009   5.581 -0.4621  1.1999 -0.1502
 7831SOL    HW234953   1.354   2.964   5.708  1.7976 -0.2193 -0.2550
 7832SOL     OW34954   2.994   4.288   1.399 -0.1394  0.2436  0.7266
 7832SOL    HW134955   2.953   4.350   1.338  0.0671 -0.8459 -0.5267
 7832SOL    HW234956   2.926   4.222   1.411  0.9804 -0.9984  0.2043
 7833SOL     OW34957   0.143   2.414   7.279 -0.1479  0.5970 -0.1614
 7833SOL    HW134958   0.200   2.470   7.332 -0.2202  1.6665 -1.2093
 7833SOL    HW234959   0.192   2.332   7.276 -1.5804 -0.1773 -2.1481
 7834SOL     OW34960   4.253   2.540   1.105  0.6733  0.9869 -0.2408
 7834SOL    HW134961   4.159   2.556   1.104  0.6733  0.9688 -0.9790
 7834SOL    HW234962   4.272   2.590   1.025  2.2331 -0.3184 -0.6968
 7835SOL     OW34963   3.991   3.066   1.130 -0.1285  0.2125 -0.2580
 7835SOL    HW134964   3.906   3.070   1.084 -0.8437 -0.8223  0.9701
 7835SOL    HW234965   4.039   3.015   1.065  0.6315  1.7644 -0.9141
 7836SOL     OW34966   4.347   2.453  15.278 -0.2604  0.0675 -0.5967
 7836SOL    HW134967   4.402   2.382  15.312  1.0752  1.0092 -0.7608
 7836SOL    HW234968   4.263   2.407  15.278  0.9157 -2.1015  0.8119
 7837SOL     OW34969   3.508   0.600  15.178  0.2246 -0.2362 -0.2961
 7837SOL    HW134970   3.489   0.692  15.162 -1.2703 -0.4960  0.0168
 7837SOL    HW234971   3.445   0.571  15.112 -2.2348 -1.0920  2.4447
 7838SOL     OW34972   1.649   2.594   6.935  0.7853  0.7613 -0.1683
 7838SOL    HW134973   1.743   2.610   6.924  0.9969  0.2733  0.8910
 7838SOL    HW234974   1.614   2.681   6.958 -1.8408  0.3639 -2.7539
 7839SOL     OW34975   0.847   4.152   3.205 -0.8601 -0.7295  0.1609
 7839SOL    HW134976   0.848   4.061   3.175 -0.6360 -0.5505 -0.3814
 7839SOL    HW234977   0.804   4.139   3.289 -0.3053 -0.8915  0.4186
 7840SOL     OW34978   0.225   3.712   2.044 -0.0739  0.1436 -0.1635
 7840SOL    HW134979   0.296   3.648   2.044 -0.1540  0.0480 -0.8325
 7840SOL    HW234980   0.256   3.784   1.988  2.9607 -1.6539 -0.7827
 7841SOL     OW34981   1.850   3.088   4.165  0.6069 -0.3817 -0.5261
 7841SOL    HW134982   1.770   3.141   4.164 -0.3074 -1.7795 -0.6049
 7841SOL    HW234983   1.914   3.158   4.149  0.9727 -1.0704 -2.1771
 7842SOL     OW34984   1.622   1.895  11.761  0.4107 -0.3199 -0.4787
 7842SOL    HW134985   1.539   1.889  11.715  0.0336  0.1131  0.1432
 7842SOL    HW234986   1.585   1.864  11.843  0.9566 -1.5194 -0.6855
 7843SOL     OW34987   1.569   2.408   7.424 -0.2630  0.1236  0.1769
 7843SOL    HW134988   1.515   2.486   7.415  1.5072  1.4375  0.7912
 7843SOL    HW234989   1.655   2.444   7.400  0.0395 -1.3774 -1.0624
 7844SOL     OW34990   4.431   1.653   7.770 -0.3250  0.1827 -0.4845
 7844SOL    HW134991   4.435   1.729   7.829  1.1093 -1.1946  1.2011
 7844SOL    HW234992   4.379   1.594   7.825 -2.5554  1.5922 -1.0914
 7845SOL     OW34993   3.782   4.126  10.036 -0.0678 -1.0494  0.6627
 7845SOL    HW134994   3.701   4.076  10.041 -1.3691  0.9988 -0.1449
 7845SOL    HW234995   3.845   4.064  10.073 -0.8542 -1.4382  1.3335
 7846SOL     OW34996   3.487   0.245  11.085 -0.5062  0.2131  0.2799
 7846SOL    HW134997   3.397   0.217  11.102 -1.0443  1.7651  0.0450
 7846SOL    HW234998   3.484   0.327  11.135 -1.5336  0.0103  0.5396
 7847SOL     OW34999   0.139   4.509  17.475 -0.3485 -0.3121 -0.3336
 7847SOL    HW135000   0.092   4.591  17.462  1.5350  0.6205 -1.2241
 7847SOL    HW235001   0.092   4.460  17.542 -3.0643  0.3484 -1.7713
 7848SOL     OW35002   1.416   1.608   7.578 -0.3199 -0.2554  0.0805
 7848SOL    HW135003   1.459   1.693   7.587 -0.8253 -0.1182  1.2223
 7848SOL    HW235004   1.396   1.588   7.670  1.9988 -1.3969  0.3409
 7849SOL     OW35005   2.194   1.561   4.830 -0.3798  0.5355  0.0583
 7849SOL    HW135006   2.156   1.518   4.906  0.1909  0.2297  0.1744
 7849SOL    HW235007   2.139   1.537   4.756  0.9912  0.1954 -0.8515
 7850SOL     OW35008   2.581   0.541   3.496  0.3069  0.2833 -0.0741
 7850SOL    HW135009   2.625   0.477   3.552  0.6652 -1.7410 -2.6641
 7850SOL    HW235010   2.576   0.610   3.562  0.3433  0.7166 -0.5263
 7851SOL     OW35011   2.988   3.705   4.258 -0.8475 -0.4358 -0.5145
 7851SOL    HW135012   3.059   3.770   4.255 -1.0008 -0.2670 -0.4984
 7851SOL    HW235013   3.029   3.619   4.253 -0.8409 -0.3876 -1.1977
 7852SOL     OW35014   3.132   1.562  13.017 -0.0166  0.8138 -0.7016
 7852SOL    HW135015   3.063   1.616  13.055 -0.2797 -1.0693  1.5092
 7852SOL    HW235016   3.205   1.611  13.054  1.6800 -0.9815 -1.6148
 7853SOL     OW35017   3.711   3.344  10.070 -0.2338  0.5817 -0.1104
 7853SOL    HW135018   3.747   3.289  10.140 -2.1672 -0.4647  0.0401
 7853SOL    HW235019   3.681   3.278  10.008 -1.2564  2.4854 -1.6305
 7854SOL     OW35020   1.242   1.493  15.687  0.5142 -0.2324 -1.0367
 7854SOL    HW135021   1.322   1.492  15.633  1.3111 -0.6464  0.1475
 7854SOL    HW235022   1.263   1.416  15.741 -0.2292 -0.1960 -0.6948
 7855SOL     OW35023   0.445   4.121   5.298 -0.4256  0.0120  0.2034
 7855SOL    HW135024   0.411   4.158   5.380  1.0182  0.3158  0.6673
 7855SOL    HW235025   0.429   4.188   5.233  1.2808 -0.6163 -0.8570
 7856SOL     OW35026   0.988   0.422   7.732  0.1009  0.0908  0.7398
 7856SOL    HW135027   0.966   0.515   7.738 -1.1565 -0.0010 -2.3883
 7856SOL    HW235028   1.054   0.421   7.800  2.3950 -1.1158 -1.4951
 7857SOL     OW35029   3.912   4.247   1.645 -0.3241  0.1886 -0.2144
 7857SOL    HW135030   3.898   4.339   1.625  0.4059  0.1667 -0.8466
 7857SOL    HW235031   3.848   4.227   1.713 -0.6422  1.3565 -0.1683
 7858SOL     OW35032   0.721   3.313  14.259  0.3203 -0.0655 -0.1593
 7858SOL    HW135033   0.803   3.268  14.240  0.2998 -0.4217  0.5855
 7858SOL    HW235034   0.667   3.257  14.315  1.4161 -1.6824 -0.7270
 7859SOL     OW35035   2.039   0.429   8.044 -0.0694  0.4337  0.7056
 7859SOL    HW135036   1.985   0.352   8.029  0.7262 -0.4173  2.1730
 7859SOL    HW235037   1.992   0.473   8.114 -0.6737  3.1997 -1.4419
 7860SOL     OW35038   1.472   2.634   7.821  0.0076 -0.2665 -0.1868
 7860SOL    HW135039   1.405   2.567   7.816 -0.3639  0.2462 -2.2728
 7860SOL    HW235040   1.457   2.676   7.906 -0.7524 -0.4262 -0.2425
 7861SOL     OW35041   2.527   2.592   5.884  0.8251 -0.0685  0.4776
 7861SOL    HW135042   2.591   2.560   5.821 -0.8858 -3.6633  0.5287
 7861SOL    HW235043   2.446   2.554   5.847  0.9781  0.2558 -0.1912
 7862SOL     OW35044   0.044   1.759   8.827 -0.4036 -0.1518 -0.6506
 7862SOL    HW135045   0.111   1.783   8.762  0.6693 -2.5885 -0.4527
 7862SOL    HW235046   4.691   1.816   8.816 -0.4758  0.2792  2.1852
 7863SOL     OW35047   3.963   3.247   7.014  0.1579 -0.0426 -0.0279
 7863SOL    HW135048   4.018   3.325   7.021  1.0692 -0.7607  0.8309
 7863SOL    HW235049   3.887   3.279   6.966 -1.6467 -3.0488  0.8539
 7864SOL     OW35050   0.441   2.691   1.672 -0.1506  0.5575  0.0374
 7864SOL    HW135051   0.346   2.681   1.674 -0.0624 -0.5663 -1.4087
 7864SOL    HW235052   0.455   2.709   1.765 -0.1635 -0.8048  0.3138
 7865SOL     OW35053   0.811   2.208   8.039 -0.3379  0.4038 -0.1345
 7865SOL    HW135054   0.730   2.182   7.996 -0.6553  1.2868 -0.0790
 7865SOL    HW235055   0.796   2.153   8.116  0.3908  1.6304  0.8831
 7866SOL     OW35056   3.664   2.014   0.815  0.0145  0.3738  0.5355
 7866SOL    HW135057   3.616   1.995   0.896 -1.0702  3.2787  0.5786
 7866SOL    HW235058   3.593   2.046   0.759 -0.7208 -2.9700 -0.4221
 7867SOL     OW35059   3.965   4.145  17.444  0.1978 -0.0048 -0.0158
 7867SOL    HW135060   3.893   4.208  17.442  0.0477 -0.1880 -0.2993
 7867SOL    HW235061   4.015   4.172  17.367 -0.5924 -2.0594 -1.2480
 7868SOL     OW35062   2.658   2.466  15.966  0.0599 -0.1961 -0.3096
 7868SOL    HW135063   2.565   2.454  15.946  0.0728 -0.1486 -0.3994
 7868SOL    HW235064   2.691   2.455  15.877  1.8760 -1.9940  0.5975
 7869SOL     OW35065   0.858   1.297   8.747 -0.1907 -0.2575  0.2214
 7869SOL    HW135066   0.948   1.316   8.774  0.6749 -0.9182 -2.1982
 7869SOL    HW235067   0.820   1.269   8.830 -0.9768  1.1417  0.3485
 7870SOL     OW35068   3.398   0.500   2.984 -0.2450  0.1801 -0.0836
 7870SOL    HW135069   3.386   0.525   3.076  0.1902 -3.0263  0.8704
 7870SOL    HW235070   3.347   0.571   2.947  0.3284  0.8297  0.3765
 7871SOL     OW35071   1.723   4.673  10.765  0.0904  0.7188 -0.2487
 7871SOL    HW135072   1.773   4.593  10.755 -1.8929 -0.6441  0.8451
 7871SOL    HW235073   1.649   4.661  10.706 -0.6719 -0.3304  0.9270
 7872SOL     OW35074   2.180   1.060   3.814  0.5334 -0.3396 -0.3276
 7872SOL    HW135075   2.166   0.995   3.744  2.8486 -1.0929 -0.1184
 7872SOL    HW235076   2.094   1.054   3.855 -0.1686  1.1174 -1.5703
 7873SOL     OW35077   3.165   3.006  10.503  0.2360 -0.6196  0.3213
 7873SOL    HW135078   3.219   2.957  10.441  0.9928  1.0883 -0.3644
 7873SOL    HW235079   3.218   3.027  10.580  1.6959 -1.7891 -0.3926
 7874SOL     OW35080   3.395   0.700   9.485  0.1933  0.5109  0.3980
 7874SOL    HW135081   3.404   0.777   9.428 -0.1335  0.3975  0.1927
 7874SOL    HW235082   3.334   0.732   9.552 -0.6616 -2.0433  0.8163
 7875SOL     OW35083   4.478   1.125   7.372 -0.4841 -0.3969  0.2593
 7875SOL    HW135084   4.525   1.043   7.391 -0.2651 -0.7200 -1.6569
 7875SOL    HW235085   4.410   1.127   7.439  1.1815  2.7641  1.8378
 7876SOL     OW35086   0.012   3.832   3.340  0.0398 -0.4289 -0.4014
 7876SOL    HW135087   4.641   3.848   3.350 -0.0456  0.0349 -1.9004
 7876SOL    HW235088   0.032   3.793   3.425 -2.8364 -0.2800  0.3268
 7877SOL     OW35089   2.051   0.143   9.375 -0.0214 -0.4108  0.8019
 7877SOL    HW135090   2.019   0.194   9.300 -0.7992 -3.6231 -1.0667
 7877SOL    HW235091   2.113   0.202   9.417  1.7329 -1.6764 -0.0383
 7878SOL     OW35092   2.373   4.441   3.049  0.7158 -0.0476  0.5836
 7878SOL    HW135093   2.378   4.532   3.077 -1.7001  0.1191  0.4807
 7878SOL    HW235094   2.288   4.418   3.088 -0.3293 -2.0823 -2.9162
 7879SOL     OW35095   2.441   2.173  16.320 -0.2417 -0.4577  0.3533
 7879SOL    HW135096   2.408   2.123  16.395  0.0149  1.0427  1.4606
 7879SOL    HW235097   2.400   2.128  16.246  2.6781  1.3212 -2.3534
 7880SOL     OW35098   1.395   1.317   6.368 -0.1129 -0.4850  0.2107
 7880SOL    HW135099   1.387   1.309   6.463 -0.6147 -3.1749 -0.0584
 7880SOL    HW235100   1.345   1.242   6.335 -1.3301  0.0462  0.8767
 7881SOL     OW35101   2.581   1.080  10.372 -0.1230 -0.0178  0.1840
 7881SOL    HW135102   2.625   1.005  10.331  0.0444  0.8756 -1.2597
 7881SOL    HW235103   2.507   1.105  10.317  0.0446 -1.0329 -0.4955
 7882SOL     OW35104   0.336   4.536   5.466 -0.4154 -0.1867 -0.2059
 7882SOL    HW135105   0.380   4.576   5.391  1.5771 -1.4818  0.2775
 7882SOL    HW235106   0.247   4.566   5.448 -0.2878 -0.8650 -2.0466
 7883SOL     OW35107   2.327   4.276   4.725 -0.2630 -0.0756 -0.5515
 7883SOL    HW135108   2.406   4.261   4.777 -1.6569 -0.3304  1.5062
 7883SOL    HW235109   2.259   4.253   4.789 -0.4002 -0.9019 -0.9933
 7884SOL     OW35110   1.808   1.024   7.528  0.0083  0.6325 -0.1176
 7884SOL    HW135111   1.768   1.048   7.445  0.2667  0.9279 -0.1545
 7884SOL    HW235112   1.769   0.943   7.560 -1.6019  1.2815 -0.4002
 7885SOL     OW35113   0.228   3.358   1.034 -0.1364  0.2815 -0.3626
 7885SOL    HW135114   0.185   3.440   1.059  0.6758 -0.0234  2.0330
 7885SOL    HW235115   0.158   3.295   1.051 -1.4819  2.1999  1.2319
 7886SOL     OW35116   1.009   3.348  14.236 -0.3652 -0.1509  0.4305
 7886SOL    HW135117   0.998   3.359  14.331  0.5122  0.3635  0.4759
 7886SOL    HW235118   1.016   3.439  14.209  0.9568 -0.2416  0.4362
 7887SOL     OW35119   2.485   1.108  10.769 -0.3146  0.5128 -0.5975
 7887SOL    HW135120   2.535   1.140  10.694  0.9646 -0.3321 -0.0891
 7887SOL    HW235121   2.483   1.014  10.756 -0.7405  0.4242  0.1099
 7888SOL     OW35122   3.180   2.943   8.214  0.6850  0.1275  0.4087
 7888SOL    HW135123   3.112   2.990   8.261 -0.5112 -1.0085 -0.1927
 7888SOL    HW235124   3.167   2.851   8.237 -1.3737 -0.2228 -2.1603
 7889SOL     OW35125   2.418   1.368   3.291 -0.0522  0.6563  0.0824
 7889SOL    HW135126   2.500   1.412   3.270  0.1673  1.8122  3.4762
 7889SOL    HW235127   2.399   1.339   3.201 -0.9048  0.4933  0.3130
 7890SOL     OW35128   0.290   1.318  10.313 -0.0707  0.8029  0.7863
 7890SOL    HW135129   0.234   1.388  10.346 -1.0754 -0.0667  0.9340
 7890SOL    HW235130   0.235   1.243  10.337  1.1369  0.1964  1.6852
 7891SOL     OW35131   1.114   0.713   6.963 -0.4495 -0.5906 -0.6870
 7891SOL    HW135132   1.177   0.704   6.892  1.5392 -0.4661  1.0709
 7891SOL    HW235133   1.174   0.691   7.035 -0.3271  2.7540  0.2014
 7892SOL     OW35134   1.160   2.280   7.590  0.6444 -0.6073 -0.9429
 7892SOL    HW135135   1.130   2.352   7.534  0.8042  1.2618  1.3705
 7892SOL    HW235136   1.091   2.216   7.573 -1.5830  1.9578 -1.6657
 7893SOL     OW35137   3.821   0.257   4.113 -0.2985 -0.4536  0.4862
 7893SOL    HW135138   3.895   0.224   4.061 -0.4617  2.1320 -1.3385
 7893SOL    HW235139   3.790   0.327   4.056  0.4260 -0.1826  0.4182
 7894SOL     OW35140   2.735   2.587   9.098 -0.2343 -0.6366 -0.3106
 7894SOL    HW135141   2.687   2.609   9.018 -1.6554 -0.5768  0.5610
 7894SOL    HW235142   2.730   2.492   9.108  0.7435 -0.2997  3.2143
 7895SOL     OW35143   0.086   4.085  16.741 -0.1417  0.5871  0.2733
 7895SOL    HW135144   0.023   4.048  16.679  0.3035  2.5240 -1.3062
 7895SOL    HW235145   0.043   4.098  16.826 -0.3626 -1.0513  0.4190
 7896SOL     OW35146   4.438   4.601  10.841 -0.3720  0.2641  0.6588
 7896SOL    HW135147   4.479   4.682  10.871  0.1381  0.3096 -0.1673
 7896SOL    HW235148   4.480   4.535  10.896  0.0227 -0.8576 -0.9659
 7897SOL     OW35149   3.917   3.359   6.070  0.0728  0.2344  0.3233
 7897SOL    HW135150   3.875   3.331   6.151  1.0746 -1.2833  0.3193
 7897SOL    HW235151   3.977   3.426   6.104 -0.1481 -0.6794  2.4525
 7898SOL     OW35152   0.477   0.763   3.630 -0.1102  0.4584  0.6075
 7898SOL    HW135153   0.527   0.821   3.572 -1.8052  1.6260  0.3199
 7898SOL    HW235154   0.397   0.808   3.656 -0.2103  0.7856 -0.2505
 7899SOL     OW35155   1.830   3.258   3.925 -0.3701  0.6285 -0.7704
 7899SOL    HW135156   1.742   3.253   3.962 -0.6588  0.1702 -1.5104
 7899SOL    HW235157   1.807   3.249   3.832  1.5277  0.0294 -1.1786
 7900SOL     OW35158   1.377   2.200   6.263  0.2548  0.1597 -0.4376
 7900SOL    HW135159   1.372   2.291   6.235 -0.9834  0.3764  0.4940
 7900SOL    HW235160   1.463   2.172   6.232 -0.0577 -1.0101 -0.2301
 7901SOL     OW35161   0.145   0.676   4.932 -0.2561 -0.0867  0.1994
 7901SOL    HW135162   0.150   0.758   4.883 -1.7549 -0.0808  0.0500
 7901SOL    HW235163   0.102   0.618   4.870  0.1751 -1.0009  0.7602
 7902SOL     OW35164   1.131   0.635   2.100  0.0320 -0.1545 -0.2747
 7902SOL    HW135165   1.095   0.686   2.172  0.1500  0.8698 -0.9477
 7902SOL    HW235166   1.065   0.652   2.034  0.9829  0.8519 -0.9650
 7903SOL     OW35167   3.628   3.433   2.104 -0.1824 -0.0021 -0.5442
 7903SOL    HW135168   3.713   3.439   2.146 -0.4828 -0.1219  0.0913
 7903SOL    HW235169   3.565   3.416   2.175  0.1723 -0.7462 -0.4068
 7904SOL     OW35170   1.371   2.607   8.455 -0.4542  0.2703  0.6168
 7904SOL    HW135171   1.438   2.557   8.503 -1.4723 -2.0338 -0.3610
 7904SOL    HW235172   1.389   2.700   8.467  1.9848 -0.1201  0.1491
 7905SOL     OW35173   4.073   1.198   5.523 -0.3126  0.0035  0.5027
 7905SOL    HW135174   3.985   1.167   5.543  0.0937 -0.9309  0.8797
 7905SOL    HW235175   4.067   1.293   5.531 -0.8116  0.0251 -0.1857
 7906SOL     OW35176   2.391   3.243   6.542 -0.2510  0.2855 -0.3349
 7906SOL    HW135177   2.377   3.336   6.524  1.5688  0.2709 -1.7125
 7906SOL    HW235178   2.485   3.239   6.559 -0.3709  0.9231  0.4924
 7907SOL     OW35179   3.207   2.056  16.907  0.0664  0.1184 -0.0570
 7907SOL    HW135180   3.279   2.053  16.845 -0.7419 -1.0444 -0.9373
 7907SOL    HW235181   3.148   2.104  16.848  0.0372 -0.2482 -0.3273
 7908SOL     OW35182   2.962   3.960   5.107 -0.1238 -0.2157 -0.1550
 7908SOL    HW135183   2.982   3.867   5.119 -2.4494 -0.9775 -2.2264
 7908SOL    HW235184   3.020   3.979   5.033 -1.0772  0.2487 -0.7797
 7909SOL     OW35185   3.977   2.311   3.439 -0.4347 -0.1608 -0.1290
 7909SOL    HW135186   3.908   2.296   3.375  0.4527  0.0972 -1.1621
 7909SOL    HW235187   3.935   2.262   3.510 -0.3323 -0.7651 -0.4825
 7910SOL     OW35188   3.020   3.140   2.349 -0.2777  0.1588  0.1478
 7910SOL    HW135189   3.108   3.177   2.342 -0.4690  0.5823 -0.0556
 7910SOL    HW235190   3.036   3.048   2.330  0.3135 -0.0458  1.7111
 7911SOL     OW35191   0.605   2.183  15.485 -0.1799 -0.0332  0.3916
 7911SOL    HW135192   0.630   2.106  15.434 -1.1139 -0.3959  0.4802
 7911SOL    HW235193   0.665   2.252  15.454 -1.3823  0.7038 -0.3118
 7912SOL     OW35194   1.202   0.471   7.916  0.4623  0.2751 -0.1069
 7912SOL    HW135195   1.223   0.382   7.944 -1.0424 -0.3036 -0.8190
 7912SOL    HW235196   1.252   0.525   7.977  2.0949 -0.1046 -1.1228
 7913SOL     OW35197   0.946   2.424   3.567 -0.0024 -0.0588 -0.1450
 7913SOL    HW135198   1.028   2.445   3.611  1.2208  3.8615 -4.2890
 7913SOL    HW235199   0.881   2.477   3.614  1.2876  2.2060 -0.9226
 7914SOL     OW35200   3.837   4.100   5.339  0.1178  0.0850 -0.1998
 7914SOL    HW135201   3.808   4.185   5.304  0.5383 -1.3441 -3.9980
 7914SOL    HW235202   3.782   4.092   5.416 -2.5295 -0.7067 -2.1620
 7915SOL     OW35203   2.980   1.156  12.720 -0.0180  0.1676 -0.2382
 7915SOL    HW135204   2.920   1.212  12.670  0.5539  1.8890  0.9797
 7915SOL    HW235205   2.934   1.072  12.720 -0.9960  0.6934 -0.6593
 7916SOL     OW35206   0.700   2.941   2.001  0.4941 -0.0420  0.0102
 7916SOL    HW135207   0.723   2.934   2.093 -0.7102 -1.3252  0.2053
 7916SOL    HW235208   0.610   2.909   2.000  0.1333  1.0033 -2.0479
 7917SOL     OW35209   2.783   3.706   8.604 -0.1157 -0.3765  0.1480
 7917SOL    HW135210   2.756   3.614   8.596 -0.0779 -0.8306  5.3559
 7917SOL    HW235211   2.739   3.750   8.676  0.4299  1.6646 -0.7695
 7918SOL     OW35212   3.894   4.170   7.407 -0.5858 -0.1295  0.2325
 7918SOL    HW135213   3.877   4.147   7.498  0.1343  0.1278  0.4299
 7918SOL    HW235214   3.987   4.151   7.400 -0.1184  0.7339  4.2658
 7919SOL     OW35215   2.059   1.652   6.413  0.5557 -0.3254  0.3962
 7919SOL    HW135216   2.123   1.713   6.378 -0.6333  1.2485  0.9661
 7919SOL    HW235217   2.001   1.725   6.436 -1.3795 -2.1733  1.3553
 7920SOL     OW35218   1.969   2.778   3.521  0.6121 -0.9051 -0.1181
 7920SOL    HW135219   1.904   2.812   3.460  0.2539 -1.7020 -0.1841
 7920SOL    HW235220   1.922   2.798   3.602  0.0821 -1.4926 -0.2733
 7921SOL     OW35221   1.854   2.450   3.197 -0.0821 -0.1001 -0.0519
 7921SOL    HW135222   1.794   2.500   3.253 -0.0066 -0.0341 -0.0289
 7921SOL    HW235223   1.797   2.418   3.127 -0.1605  0.1742 -0.1143
 7922SOL     OW35224   2.138   0.507  14.452  0.5819 -0.0443 -0.1265
 7922SOL    HW135225   2.227   0.479  14.473  0.7025 -0.0708 -0.6645
 7922SOL    HW235226   2.093   0.434  14.410 -0.8142  1.2345 -0.8298
 7923SOL     OW35227   2.885   0.844  13.184 -0.0457 -0.2327 -0.1589
 7923SOL    HW135228   2.977   0.852  13.159 -0.0416 -0.9893 -0.3961
 7923SOL    HW235229   2.872   0.754  13.155 -0.1235 -0.7783  1.5910
 7924SOL     OW35230   1.911   0.033   8.676  0.4725  0.2479  0.1557
 7924SOL    HW135231   2.000   0.017   8.643  0.6676 -2.1912  1.8681
 7924SOL    HW235232   1.852   0.007   8.606  1.3066  2.9432 -1.5974
 7925SOL     OW35233   0.610   1.342  16.734  0.6621 -0.6126  0.0684
 7925SOL    HW135234   0.536   1.401  16.752  1.1020 -0.4041  1.1987
 7925SOL    HW235235   0.592   1.282  16.807  0.7455  1.0549  1.4714
 7926SOL     OW35236   3.036   0.102   1.620 -0.5834  0.1964  0.8699
 7926SOL    HW135237   3.107   0.164   1.638 -1.1917  1.5615 -1.4613
 7926SOL    HW235238   2.967   0.157   1.584  0.0908  0.0737 -0.6060
 7927SOL     OW35239   4.049   3.268   3.943 -0.1955  0.1066  0.2829
 7927SOL    HW135240   4.128   3.318   3.963  1.5884 -2.0109 -1.5960
 7927SOL    HW235241   4.002   3.343   3.907  0.4460 -0.2571 -1.2948
 7928SOL     OW35242   4.016   0.686   8.494  0.3795 -0.2899  0.5494
 7928SOL    HW135243   3.928   0.666   8.464  1.2945 -0.2808 -2.1564
 7928SOL    HW235244   4.058   0.600   8.489  2.0427  0.5040  0.9317
 7929SOL     OW35245   4.134   0.949   4.707 -0.0045 -0.4389  0.1051
 7929SOL    HW135246   4.060   0.960   4.767  0.2478 -1.0229  0.5237
 7929SOL    HW235247   4.124   0.857   4.684  0.1336 -0.3313 -0.3863
 7930SOL     OW35248   0.339   0.974   2.399  0.2035 -0.1756 -0.5336
 7930SOL    HW135249   0.393   0.994   2.476 -2.0781  0.0057  1.0182
 7930SOL    HW235250   0.349   1.057   2.352  0.2267 -0.3512 -0.8439
 7931SOL     OW35251   2.879   3.180   7.905 -0.2247  0.1157  0.2171
 7931SOL    HW135252   2.891   3.275   7.906  2.0302 -0.1716  0.3916
 7931SOL    HW235253   2.967   3.148   7.887  0.2370 -0.3405  3.2664
 7932SOL     OW35254   3.384   0.228   6.970 -0.1754  0.7005 -0.3066
 7932SOL    HW135255   3.343   0.151   7.009 -2.4383  1.5223 -1.0873
 7932SOL    HW235256   3.318   0.260   6.909 -1.9679  1.6456  2.1453
 7933SOL     OW35257   1.414   3.325   0.789 -0.6581 -0.7734  0.7127
 7933SOL    HW135258   1.416   3.291   0.700 -0.8456  1.5566 -0.1942
 7933SOL    HW235259   1.410   3.420   0.773 -0.5983 -1.2414 -2.0524
 7934SOL     OW35260   3.236   0.186   1.944 -0.3032 -0.1796 -0.1013
 7934SOL    HW135261   3.270   0.270   1.913 -0.9237  0.3404  0.6212
 7934SOL    HW235262   3.143   0.202   1.930 -0.5615 -0.7783  0.9350
 7935SOL     OW35263   4.061   0.854   7.397 -0.3503 -0.5183  0.1017
 7935SOL    HW135264   4.053   0.949   7.395 -0.4607 -0.5391 -0.6014
 7935SOL    HW235265   4.156   0.837   7.403 -0.4776 -0.6448  1.7083
 7936SOL     OW35266   3.929   4.549   6.837 -0.0979  0.1269  0.1137
 7936SOL    HW135267   3.946   4.544   6.931 -0.5920 -0.2074  0.1892
 7936SOL    HW235268   3.834   4.558   6.835 -0.0472  0.6507  0.2882
 7937SOL     OW35269   3.914   1.433   4.026  0.4011  0.8398  0.0326
 7937SOL    HW135270   3.835   1.462   3.981 -0.9256 -0.9172  1.2678
 7937SOL    HW235271   3.940   1.507   4.082 -1.4822  1.6789 -0.2019
 7938SOL     OW35272   3.838   2.715   4.700 -0.1870 -0.1245 -0.0986
 7938SOL    HW135273   3.793   2.639   4.664  1.0224  0.6814 -3.2841
 7938SOL    HW235274   3.924   2.678   4.723  0.7669  2.1821  0.0886
 7939SOL     OW35275   0.837   1.250   8.320  0.4761  0.3555  0.3095
 7939SOL    HW135276   0.805   1.196   8.392 -2.3743  0.4944 -0.8565
 7939SOL    HW235277   0.815   1.334   8.360 -0.3850  0.6220 -0.7429
 7940SOL     OW35278   3.617   0.524   5.741 -0.3110 -0.5897  0.2075
 7940SOL    HW135279   3.693   0.565   5.781 -2.2295  1.1741  2.0460
 7940SOL    HW235280   3.563   0.602   5.731 -1.2721 -0.9237  2.8716
 7941SOL     OW35281   1.684   4.254   4.464 -0.8171  0.0895 -0.4951
 7941SOL    HW135282   1.641   4.171   4.484 -0.6001 -0.5290 -2.6091
 7941SOL    HW235283   1.620   4.325   4.462 -2.2694 -1.2718 -2.0509
 7942SOL     OW35284   0.071   1.821   2.069 -0.3806 -0.8037  0.4288
 7942SOL    HW135285   0.108   1.743   2.027  0.4734 -0.5058  0.6320
 7942SOL    HW235286   0.135   1.842   2.136  0.8107  2.7674 -1.8340
 7943SOL     OW35287   0.927   3.430  12.219 -0.0355  0.2073  0.1623
 7943SOL    HW135288   0.907   3.514  12.177 -2.1628 -1.3852 -2.0509
 7943SOL    HW235289   0.843   3.384  12.224 -0.2110  0.7567  2.1521
 7944SOL     OW35290   0.247   3.153  10.793  0.6572 -0.1028  0.4197
 7944SOL    HW135291   0.209   3.234  10.827  1.2396  0.0631  0.6735
 7944SOL    HW235292   0.278   3.176  10.706  1.8230 -0.3510  0.7713
 7945SOL     OW35293   2.024   1.872  12.848  0.0980  0.5358 -0.1070
 7945SOL    HW135294   1.983   1.939  12.901 -1.5414  0.0838 -0.8191
 7945SOL    HW235295   2.054   1.815  12.919 -0.6600 -0.2342 -0.4092
 7946SOL     OW35296   0.973   0.671   4.616  0.0411 -0.1046 -0.3881
 7946SOL    HW135297   1.002   0.583   4.639 -1.6626 -0.5235  0.1841
 7946SOL    HW235298   1.041   0.682   4.550 -0.8316 -4.5119 -2.0243
 7947SOL     OW35299   1.099   0.099  10.380 -0.1075 -0.1290 -0.6365
 7947SOL    HW135300   1.178   0.134  10.421 -0.0607  1.1819 -1.8556
 7947SOL    HW235301   1.115   0.005  10.395  0.2014  0.1290  0.6497
 7948SOL     OW35302   4.194   3.023   3.871 -0.4146 -0.0973  0.3983
 7948SOL    HW135303   4.150   3.016   3.786  0.0789  0.2782  0.1143
 7948SOL    HW235304   4.156   3.103   3.906  2.0335  1.1396  0.1946
 7949SOL     OW35305   3.233   2.124   0.778 -0.0867 -0.0704  0.1188
 7949SOL    HW135306   3.227   2.115   0.873 -3.5845  2.1888  0.1131
 7949SOL    HW235307   3.141   2.132   0.753  0.3332 -0.5744 -1.5874
 7950SOL     OW35308   2.460   4.087  12.103 -0.0510 -0.3628  0.1952
 7950SOL    HW135309   2.454   4.074  12.009  0.1767  2.2832 -0.1905
 7950SOL    HW235310   2.366   4.086  12.125  0.7981  1.7363  4.0486
 7951SOL     OW35311   2.086   1.349   3.086 -0.0782  0.0156 -0.1000
 7951SOL    HW135312   1.991   1.358   3.083 -0.1595 -1.0556 -0.6502
 7951SOL    HW235313   2.098   1.319   3.176  2.0281 -2.8143 -1.3445
 7952SOL     OW35314   2.382   1.933  10.346 -0.0426 -0.1358  0.6654
 7952SOL    HW135315   2.323   1.997  10.306  0.8783  0.4210  0.2239
 7952SOL    HW235316   2.394   1.877  10.270  0.1133 -2.3436  2.3110
 7953SOL     OW35317   2.009   4.705   8.078  0.1068 -0.2435 -0.3284
 7953SOL    HW135318   1.958   0.033   8.141  2.7364 -2.4504  3.5567
 7953SOL    HW235319   1.953   4.710   8.000 -1.2258  0.1549  0.6596
 7954SOL     OW35320   0.432   1.589   3.861 -0.0413 -0.2970 -0.2101
 7954SOL    HW135321   0.451   1.619   3.950 -1.8056  1.3398 -0.3892
 7954SOL    HW235322   0.347   1.547   3.872 -0.0757  0.1242  1.0547
 7955SOL     OW35323   1.827   2.357   5.087 -0.6892 -0.3885 -0.0818
 7955SOL    HW135324   1.891   2.427   5.075 -1.0234  0.1420  1.2767
 7955SOL    HW235325   1.805   2.339   4.995 -0.3022 -0.8287 -0.0867
 7956SOL     OW35326   3.103   3.311   1.695  0.3957  0.2715  0.3805
 7956SOL    HW135327   3.038   3.263   1.745  1.5911 -1.8601 -0.1254
 7956SOL    HW235328   3.182   3.267   1.728 -0.0055 -0.8108 -0.1015
 7957SOL     OW35329   3.454   3.419   4.519 -0.0083  0.3818 -0.0759
 7957SOL    HW135330   3.411   3.381   4.596 -1.2822  1.3432 -0.2904
 7957SOL    HW235331   3.415   3.376   4.443 -0.1763 -0.5222  0.5195
 7958SOL     OW35332   0.065   2.275   6.717 -0.3020 -0.3749  0.2406
 7958SOL    HW135333   0.048   2.202   6.658  1.2694  0.7226 -1.5655
 7958SOL    HW235334   0.039   2.240   6.802 -0.2369 -0.0567  0.3941
 7959SOL     OW35335   1.120   1.225  15.276  0.0301 -0.2902 -0.4527
 7959SOL    HW135336   1.030   1.195  15.287  0.3576 -1.8757 -2.1287
 7959SOL    HW235337   1.148   1.208  15.187 -1.1781  1.3579 -1.1450
 7960SOL     OW35338   4.178   4.581   6.695 -0.8150 -0.5510  0.1416
 7960SOL    HW135339   4.100   4.553   6.742 -0.1164 -1.6718  0.6275
 7960SOL    HW235340   4.242   4.543   6.755 -0.4539  0.4944  0.4190
 7961SOL     OW35341   0.872   2.069   3.911  0.2553 -0.5087 -0.0614
 7961SOL    HW135342   0.949   2.118   3.884  0.5360 -0.1425  1.4104
 7961SOL    HW235343   0.907   1.981   3.925 -1.9765 -1.0148  2.3055
 7962SOL     OW35344   1.394   2.450   3.103  0.1800  0.0488 -0.0626
 7962SOL    HW135345   1.302   2.434   3.081  0.1315 -1.3012  1.0894
 7962SOL    HW235346   1.390   2.420   3.194 -4.8354 -1.0986 -0.6580
 7963SOL     OW35347   3.341   0.395  11.784 -0.6359  0.4346 -0.1070
 7963SOL    HW135348   3.261   0.364  11.742  0.1306 -0.8606 -0.5978
 7963SOL    HW235349   3.328   0.356  11.870  0.2698 -1.7104 -0.9471
 7964SOL     OW35350   1.274   2.169   5.788  0.0594  0.2157 -0.3405
 7964SOL    HW135351   1.220   2.231   5.739  0.0960 -0.5659 -1.3668
 7964SOL    HW235352   1.360   2.212   5.792  0.2836 -0.4037  1.3196
 7965SOL     OW35353   3.366   3.749   3.656 -0.2391  0.6630 -0.0558
 7965SOL    HW135354   3.344   3.783   3.743  0.5496  0.3630  0.2600
 7965SOL    HW235355   3.393   3.661   3.680 -0.5750  0.5003 -0.2737
 7966SOL     OW35356   3.744   3.813   3.808 -0.5909 -0.7189 -0.1902
 7966SOL    HW135357   3.686   3.750   3.852  0.9115 -2.1337 -0.2257
 7966SOL    HW235358   3.812   3.752   3.780 -0.5999 -1.4348  1.3616
 7967SOL     OW35359   1.794   3.938   4.936 -0.6770  0.2128  0.1700
 7967SOL    HW135360   1.722   3.932   4.872 -3.5355 -1.9354  3.5498
 7967SOL    HW235361   1.808   3.847   4.964 -0.1494 -0.0702 -1.0246
 7968SOL     OW35362   0.444   0.246  12.866  0.6279  0.1495 -0.2413
 7968SOL    HW135363   0.429   0.340  12.878 -1.2121 -0.0173 -1.1075
 7968SOL    HW235364   0.496   0.249  12.787  0.8029 -1.6423 -0.1934
 7969SOL     OW35365   4.609   1.593   4.269 -0.5438  0.1054  0.1285
 7969SOL    HW135366   4.589   1.575   4.177  0.0469 -0.5317  0.1282
 7969SOL    HW235367   4.683   1.652   4.257  0.3053 -0.5721  2.0361
 7970SOL     OW35368   2.642   0.032   0.945 -0.2382 -0.4773  0.1778
 7970SOL    HW135369   2.554   0.011   0.977 -0.1249 -0.9067  0.2075
 7970SOL    HW235370   2.636   0.019   0.850 -1.5123  1.5646 -0.0308
 7971SOL     OW35371   1.122   1.299   5.784 -0.0497 -0.0301 -0.4459
 7971SOL    HW135372   1.137   1.207   5.802  2.9315  0.4007 -0.7525
 7971SOL    HW235373   1.134   1.345   5.867  2.1730 -0.1615 -0.7159
 7972SOL     OW35374   0.562   3.933  10.173 -0.5495 -0.7903 -0.2086
 7972SOL    HW135375   0.519   3.850  10.151 -0.5349 -1.0831  0.8356
 7972SOL    HW235376   0.509   3.945  10.252  2.5324 -0.2500  1.7779
 7973SOL     OW35377   3.767   1.644  17.364 -0.3129  0.0650  0.7088
 7973SOL    HW135378   3.801   1.722  17.409 -1.6780  1.2393 -0.2944
 7973SOL    HW235379   3.778   1.576  17.431  1.3399 -1.3102 -0.9303
 7974SOL     OW35380   4.043   3.349   9.759 -0.7738 -0.2924 -0.1652
 7974SOL    HW135381   4.090   3.270   9.732 -1.6040 -0.7518 -0.2830
 7974SOL    HW235382   4.012   3.375   9.673  3.2182  0.6936 -1.2734
 7975SOL     OW35383   2.697   4.051   3.946  0.5784  0.2576 -0.1127
 7975SOL    HW135384   2.759   4.120   3.968  0.1975  1.0082 -1.4344
 7975SOL    HW235385   2.733   3.976   3.995  0.7665 -0.7371 -1.7604
 7976SOL     OW35386   0.946   2.675   2.582 -0.1487 -0.2713 -0.1992
 7976SOL    HW135387   1.010   2.611   2.552  0.9209  0.7664 -0.1512
 7976SOL    HW235388   0.958   2.672   2.677  0.6668  0.5643 -0.2698
 7977SOL     OW35389   3.249   4.386   3.481 -0.0333 -0.3966  0.0969
 7977SOL    HW135390   3.196   4.398   3.402  0.2161  0.3352  0.0400
 7977SOL    HW235391   3.277   4.477   3.493 -0.1333 -0.4218  0.5475
 7978SOL     OW35392   1.315   0.579  15.908  0.3731 -0.4409  0.4787
 7978SOL    HW135393   1.407   0.555  15.922  0.3126 -0.9948 -0.0304
 7978SOL    HW235394   1.328   0.654  15.966  1.8702  0.1292 -0.5760
 7979SOL     OW35395   3.115   3.421   1.392 -0.2149 -0.1518 -0.4302
 7979SOL    HW135396   3.134   3.459   1.477  0.7368  0.6843 -1.0232
 7979SOL    HW235397   3.147   3.333   1.411  1.5552  0.3011 -1.3204
 7980SOL     OW35398   3.309   1.608   8.575 -0.0978  0.3025 -0.2324
 7980SOL    HW135399   3.334   1.672   8.641  0.7677  0.7973 -1.0419
 7980SOL    HW235400   3.221   1.634   8.547 -0.9542 -0.0052  2.1652
 7981SOL     OW35401   0.042   1.048  12.165  0.1582  0.2738 -0.4052
 7981SOL    HW135402   4.721   1.004  12.238 -0.4572  1.4194 -0.0798
 7981SOL    HW235403   0.027   0.980  12.099  1.2916 -0.0928 -0.2801
 7982SOL     OW35404   4.570   2.681   6.467 -0.1384  0.1627 -0.0959
 7982SOL    HW135405   4.543   2.736   6.393  2.6729  1.4394 -0.1793
 7982SOL    HW235406   4.637   2.618   6.439  0.3418  1.7832 -2.6318
 7983SOL     OW35407   0.337   2.497   5.154 -0.3233 -0.6594  0.3998
 7983SOL    HW135408   0.300   2.556   5.088 -0.5293 -0.6069  0.5654
 7983SOL    HW235409   0.266   2.443   5.189 -1.0831 -0.1827 -0.3997
 7984SOL     OW35410   3.208   2.010   3.545 -0.4857 -0.5493  0.0241
 7984SOL    HW135411   3.115   1.996   3.531 -0.5313 -0.4845  0.2630
 7984SOL    HW235412   3.221   2.014   3.640  0.9054 -0.9894 -0.1470
 7985SOL     OW35413   2.369   2.140   6.460 -0.7793  0.2059  0.1878
 7985SOL    HW135414   2.359   2.220   6.409  0.9479  1.2618  1.4901
 7985SOL    HW235415   2.286   2.147   6.507 -1.3473 -1.3876 -0.6191
 7986SOL     OW35416   3.698   3.523   8.523  0.0671 -0.2353 -0.3721
 7986SOL    HW135417   3.619   3.569   8.553 -0.4599 -0.6369 -1.1374
 7986SOL    HW235418   3.750   3.602   8.509  1.0430 -0.8278 -0.0504
 7987SOL     OW35419   1.329   3.726   5.194  0.0939 -0.2266 -0.4872
 7987SOL    HW135420   1.417   3.688   5.190  0.1413 -0.1098 -0.5600
 7987SOL    HW235421   1.338   3.796   5.129 -0.2564 -0.8413 -1.2159
 7988SOL     OW35422   2.325   2.718   9.338  0.2419 -0.2530  0.2127
 7988SOL    HW135423   2.419   2.699   9.332  0.3837  1.0679 -1.5998
 7988SOL    HW235424   2.300   2.772   9.264  0.3300 -0.6536 -0.1064
 7989SOL     OW35425   2.501   0.430   5.706  0.8816  0.0778 -0.2453
 7989SOL    HW135426   2.486   0.374   5.781 -0.8166 -0.3558 -0.9125
 7989SOL    HW235427   2.410   0.459   5.695  1.3042  1.6980  0.5416
 7990SOL     OW35428   2.206   2.632   1.418 -0.1750 -0.8288 -0.1256
 7990SOL    HW135429   2.191   2.712   1.368  0.4703 -1.2800 -1.0585
 7990SOL    HW235430   2.302   2.629   1.427 -0.2102 -1.4341  0.0822
 7991SOL     OW35431   0.273   3.924   9.627 -0.5361  0.8064 -0.1601
 7991SOL    HW135432   0.229   3.894   9.547  1.6233  0.2560 -1.1701
 7991SOL    HW235433   0.227   4.007   9.640 -0.9794  0.9454 -2.5903
 7992SOL     OW35434   0.451   4.201  13.054 -0.0992  0.1368  0.3613
 7992SOL    HW135435   0.502   4.255  12.994 -0.2118 -0.0548  0.0931
 7992SOL    HW235436   0.379   4.166  13.001 -1.3237  1.9854  0.7905
 7993SOL     OW35437   3.065   1.677   8.904 -0.0987 -0.0015  0.5245
 7993SOL    HW135438   3.035   1.768   8.914  0.8159  0.7227 -3.3030
 7993SOL    HW235439   2.988   1.637   8.945 -0.4396  0.4569  0.3391
 7994SOL     OW35440   3.395   2.670   5.341  0.3960  0.3400 -0.0306
 7994SOL    HW135441   3.443   2.606   5.289 -0.9302 -0.0238 -0.7689
 7994SOL    HW235442   3.463   2.711   5.396 -0.6227  0.3392  1.2289
 7995SOL     OW35443   3.531   4.010   2.106 -0.5796 -0.2012 -0.4757
 7995SOL    HW135444   3.489   4.057   2.179  1.7826  0.9307  0.1607
 7995SOL    HW235445   3.608   4.066   2.093 -1.1740 -0.2193 -3.9110
 7996SOL     OW35446   3.298   1.116  16.239 -0.3650  0.0957  0.8569
 7996SOL    HW135447   3.317   1.095  16.147 -1.0848 -1.6886  1.1228
 7996SOL    HW235448   3.218   1.066  16.252  1.4565 -2.9638  0.2866
 7997SOL     OW35449   3.394   3.967   8.286 -0.0864 -0.5122 -0.1828
 7997SOL    HW135450   3.410   4.057   8.316 -3.0687 -0.0947  0.2272
 7997SOL    HW235451   3.330   3.951   8.356  0.9358 -1.8083  0.4349
 7998SOL     OW35452   1.591   2.114  11.080 -0.2344  0.0381 -0.2075
 7998SOL    HW135453   1.501   2.132  11.106  0.1532  1.8637 -0.1537
 7998SOL    HW235454   1.618   2.205  11.068 -1.9110  0.7418  1.4480
 7999SOL     OW35455   0.376   0.362   4.744  0.5984 -0.0423  0.7638
 7999SOL    HW135456   0.352   0.338   4.654 -0.2169  2.7228  0.2457
 7999SOL    HW235457   0.366   0.274   4.779  0.1185 -0.4108 -0.2919
 8000SOL     OW35458   2.353   0.713   4.360  0.1202  0.9327 -0.3835
 8000SOL    HW135459   2.278   0.755   4.318  0.0697  1.7518  0.5187
 8000SOL    HW235460   2.394   0.786   4.407  1.4913 -0.1460  0.1028
 8001SOL     OW35461   0.031   1.387   7.785 -0.3325  0.3832 -0.1972
 8001SOL    HW135462   0.112   1.401   7.736 -0.1933 -2.0090 -0.6337
 8001SOL    HW235463   0.034   1.292   7.788 -1.4329  0.2640 -2.7672
 8002SOL     OW35464   3.959   2.280   4.212 -0.3637  0.3156  0.0852
 8002SOL    HW135465   3.943   2.339   4.138 -0.3630 -0.3478 -0.4499
 8002SOL    HW235466   4.054   2.274   4.218 -0.3584  1.3060  0.9739
 8003SOL     OW35467   0.482   3.581   8.964  0.0313  0.2324 -0.4011
 8003SOL    HW135468   0.529   3.620   8.890  0.9891 -2.0491 -0.9861
 8003SOL    HW235469   0.536   3.504   8.978  1.1288  0.9904 -0.4152
 8004SOL     OW35470   2.012   3.622  14.944 -0.2083 -0.7781 -1.1386
 8004SOL    HW135471   2.024   3.701  14.996  1.0327 -1.6611 -0.0993
 8004SOL    HW235472   1.985   3.650  14.856 -0.1682  1.5508 -0.4012
 8005SOL     OW35473   2.395   2.321   1.433 -0.2466  0.1682  0.7307
 8005SOL    HW135474   2.374   2.350   1.344  1.0506 -2.3143 -0.3914
 8005SOL    HW235475   2.306   2.311   1.466 -0.8403  2.1083 -0.2849
 8006SOL     OW35476   2.534   3.344  14.476  0.1568 -0.4661  0.4523
 8006SOL    HW135477   2.621   3.306  14.483  0.9683  1.3033 -0.0343
 8006SOL    HW235478   2.503   3.317  14.389  1.1461 -2.3026  0.6679
 8007SOL     OW35479   4.715   4.358  10.777  0.7081  0.1496  0.1074
 8007SOL    HW135480   4.715   4.286  10.839 -0.1074 -0.0397 -0.1050
 8007SOL    HW235481   4.671   4.420  10.836 -0.7747  0.3773 -1.2292
 8008SOL     OW35482   0.767   1.785   7.464 -0.4603  0.0908 -0.3087
 8008SOL    HW135483   0.814   1.780   7.381  0.6033 -0.3160  0.3164
 8008SOL    HW235484   0.824   1.728   7.516  1.5204  1.5111 -0.9463
 8009SOL     OW35485   3.612   2.868   5.376 -0.0287  0.1162  0.4031
 8009SOL    HW135486   3.624   2.963   5.372  0.2978  0.1255  1.5753
 8009SOL    HW235487   3.600   2.842   5.285  1.3895  0.2544  0.1799
 8010SOL     OW35488   4.370   2.102  10.861  0.4387 -0.1771  0.0116
 8010SOL    HW135489   4.308   2.125  10.791  0.1323  0.3696  0.4648
 8010SOL    HW235490   4.427   2.035  10.822  0.4631  0.1510 -0.5250
 8011SOL     OW35491   3.871   3.276  16.910  0.0634 -0.2616  0.1980
 8011SOL    HW135492   3.942   3.336  16.886 -1.0704  0.4051 -1.5128
 8011SOL    HW235493   3.914   3.192  16.923  1.1707 -0.1107 -2.4860
 8012SOL     OW35494   0.225   4.396   3.023 -0.2772  0.0093  0.1336
 8012SOL    HW135495   0.176   4.478   3.028  0.6393  0.5039  1.1595
 8012SOL    HW235496   0.244   4.386   2.930  0.3849 -1.3412  0.4165
 8013SOL     OW35497   3.526   1.816   0.480  0.2207 -0.1455  0.2286
 8013SOL    HW135498   3.430   1.818   0.478  0.2647  1.6712 -0.8297
 8013SOL    HW235499   3.541   1.734   0.526  0.2843 -0.1139  0.2632
 8014SOL     OW35500   0.470   0.898   4.533 -0.0672 -0.4808 -0.3042
 8014SOL    HW135501   0.564   0.887   4.517  0.0118 -1.9733  1.1125
 8014SOL    HW235502   0.464   0.961   4.605  0.0937 -0.3232 -0.4290
 8015SOL     OW35503   0.817   1.635   4.596  0.2866 -0.1597 -0.5723
 8015SOL    HW135504   0.911   1.651   4.595  0.2421  0.1191 -0.2666
 8015SOL    HW235505   0.780   1.718   4.566 -4.1817 -1.9241  0.0148
 8016SOL     OW35506   4.420   1.794  14.165  0.2811 -0.0786 -0.4006
 8016SOL    HW135507   4.356   1.777  14.234  1.6838  1.8377  1.4141
 8016SOL    HW235508   4.497   1.801  14.222  2.1119  1.4303 -3.0211
 8017SOL     OW35509   3.681   1.608   3.461  0.1324  0.5385 -0.7431
 8017SOL    HW135510   3.711   1.578   3.375  2.0372  3.3234 -1.0549
 8017SOL    HW235511   3.592   1.572   3.465  0.4348 -0.1590 -0.2261
 8018SOL     OW35512   1.748   0.405   8.660  0.0590 -0.2551  0.0673
 8018SOL    HW135513   1.755   0.470   8.590  1.9402 -1.2589 -0.7168
 8018SOL    HW235514   1.676   0.346   8.637 -0.6321  0.3398  0.7117
 8019SOL     OW35515   3.251   4.442  12.179  0.6297 -0.3556 -0.1356
 8019SOL    HW135516   3.184   4.480  12.122 -1.0849  0.1010  2.2099
 8019SOL    HW235517   3.251   4.358  12.132  3.5614  0.9608 -2.5291
 8020SOL     OW35518   4.461   3.332   4.954  0.2113 -0.3148  0.0272
 8020SOL    HW135519   4.497   3.401   5.010 -0.6760  1.8159 -1.9880
 8020SOL    HW235520   4.422   3.277   5.021 -2.2461  1.2477 -0.0839
 8021SOL     OW35521   4.188   1.788   2.809  0.4153 -0.0894  0.2859
 8021SOL    HW135522   4.097   1.763   2.822  0.3691 -1.7392 -3.2799
 8021SOL    HW235523   4.206   1.853   2.877  0.9681 -0.0541  0.1028
 8022SOL     OW35524   0.751   0.725   5.007  0.1348  0.4740 -0.0346
 8022SOL    HW135525   0.727   0.684   4.924 -1.1391  2.7599 -0.8086
 8022SOL    HW235526   0.764   0.816   4.981 -0.2397  0.4128 -0.4438
 8023SOL     OW35527   2.983   3.633   6.840 -0.8666  0.0722  0.1984
 8023SOL    HW135528   3.006   3.701   6.776 -2.1008 -0.2785 -0.6146
 8023SOL    HW235529   3.064   3.632   6.891 -0.4723 -1.7849 -0.4670
 8024SOL     OW35530   1.287   2.689   5.534  0.2090  0.3896  0.0250
 8024SOL    HW135531   1.220   2.627   5.503 -1.5094  2.4623 -0.4437
 8024SOL    HW235532   1.247   2.771   5.506 -1.3728 -0.2085  0.4796
 8025SOL     OW35533   0.059   2.022  14.695  0.4586 -0.4050 -0.4609
 8025SOL    HW135534   0.033   2.087  14.761 -1.4728 -1.2663 -0.3593
 8025SOL    HW235535   4.701   2.008  14.645 -0.2146  0.8398  0.2831
 8026SOL     OW35536   3.463   4.142  12.100 -0.4974 -0.1232  0.4604
 8026SOL    HW135537   3.520   4.173  12.029 -1.2271  1.9925  0.7679
 8026SOL    HW235538   3.530   4.088  12.140  0.5856  0.0224 -1.1792
 8027SOL     OW35539   0.595   0.912   7.502 -0.3822  0.2842 -0.2944
 8027SOL    HW135540   0.624   0.949   7.419  1.8796 -0.5778  0.1124
 8027SOL    HW235541   0.632   0.824   7.495 -0.7219  0.1723 -0.6839
 8028SOL     OW35542   0.158   3.784   1.519  0.5992  0.1182  0.0148
 8028SOL    HW135543   0.226   3.742   1.571  0.7240 -0.3571 -0.5316
 8028SOL    HW235544   0.210   3.788   1.439  0.4750  0.6135 -0.0384
 8029SOL     OW35545   0.656   1.222   9.032  0.3837  0.2588  0.1360
 8029SOL    HW135546   0.637   1.128   9.041 -0.0734  0.2510 -0.8709
 8029SOL    HW235547   0.567   1.247   9.005 -0.1654  1.5315  3.0759
 8030SOL     OW35548   0.890   1.598   4.984  0.9307  0.3789  0.3331
 8030SOL    HW135549   0.920   1.507   4.986  0.1947  0.1107 -0.6398
 8030SOL    HW235550   0.969   1.635   5.024  0.2806 -0.2131  2.1751
 8031SOL     OW35551   2.287   3.373   3.625 -0.6958  0.2354 -0.7531
 8031SOL    HW135552   2.247   3.295   3.587 -0.5329 -0.5482  0.7013
 8031SOL    HW235553   2.376   3.340   3.637 -0.2795  0.0040 -4.4536
 8032SOL     OW35554   1.893   2.407   1.101 -1.0013  0.5617 -0.1216
 8032SOL    HW135555   1.935   2.322   1.116 -1.2562  0.1540 -1.7235
 8032SOL    HW235556   1.939   2.470   1.157  0.0450 -0.7308  0.4867
 8033SOL     OW35557   0.378   3.269   6.973  0.2497 -0.7286 -0.0714
 8033SOL    HW135558   0.440   3.278   7.045  0.8410  0.1176 -0.6955
 8033SOL    HW235559   0.332   3.354   6.976  1.3674 -0.2136  2.7475
 8034SOL     OW35560   1.252   4.353   3.797  0.3359 -0.0113  0.0761
 8034SOL    HW135561   1.267   4.447   3.789 -0.2342  0.0878  0.1896
 8034SOL    HW235562   1.184   4.331   3.733 -0.3507  1.2213  0.3760
 8035SOL     OW35563   3.321   3.157   2.022  0.0163 -0.0415 -0.1802
 8035SOL    HW135564   3.320   3.253   2.027 -2.0620 -0.0397 -0.4438
 8035SOL    HW235565   3.327   3.144   1.927 -0.9825  1.1737 -0.4075
 8036SOL     OW35566   0.708   4.666   9.056  0.2785  0.3275  0.5668
 8036SOL    HW135567   0.787   4.613   9.071 -1.0550 -1.5656  0.8257
 8036SOL    HW235568   0.668   4.672   9.143 -1.7501 -1.8824 -0.2431
 8037SOL     OW35569   2.402   1.420   5.407  0.5537  0.0479 -0.0217
 8037SOL    HW135570   2.351   1.466   5.475  0.3913 -3.0855  2.0018
 8037SOL    HW235571   2.427   1.487   5.344  0.6072  2.0112  2.0725
 8038SOL     OW35572   1.493   3.830  15.168 -0.4363  0.2985  0.6396
 8038SOL    HW135573   1.493   3.744  15.125 -0.9957  0.7306 -0.2024
 8038SOL    HW235574   1.402   3.840  15.195 -0.8108 -0.7074 -0.2573
 8039SOL     OW35575   4.654   1.309   5.327 -0.0081 -0.3304  0.2359
 8039SOL    HW135576   4.672   1.272   5.241  1.7103 -0.5921  0.7082
 8039SOL    HW235577   4.670   1.229   5.377 -1.8153 -0.3897  0.7182
 8040SOL     OW35578   3.480   3.451   0.854 -0.2251  0.3864 -0.1010
 8040SOL    HW135579   3.441   3.535   0.829  1.9122  0.7943 -2.0025
 8040SOL    HW235580   3.410   3.424   0.913 -0.6686  1.9098  0.0648
 8041SOL     OW35581   3.443   2.521   2.812 -0.3054  0.2940 -0.6846
 8041SOL    HW135582   3.451   2.606   2.857  2.8333 -0.4259  0.1078
 8041SOL    HW235583   3.426   2.459   2.883 -1.2035 -0.3370 -1.4557
 8042SOL     OW35584   2.864   4.098   0.577 -0.1677  0.4163  0.2589
 8042SOL    HW135585   2.834   4.152   0.651 -0.4360  0.4435  0.1281
 8042SOL    HW235586   2.954   4.076   0.600  0.2712  2.3779  0.4276
 8043SOL     OW35587   3.310   1.115  10.508  0.0113 -0.0985  0.5228
 8043SOL    HW135588   3.357   1.134  10.426  0.7491  2.8614  1.6403
 8043SOL    HW235589   3.381   1.069  10.552  1.7624  0.3636 -1.7731
 8044SOL     OW35590   2.299   1.845   8.093 -0.4593 -0.0022  0.2513
 8044SOL    HW135591   2.363   1.800   8.038 -1.8574 -0.9061 -0.6312
 8044SOL    HW235592   2.314   1.940   8.089  1.8533 -0.3315  1.3241
 8045SOL     OW35593   4.039   1.822   6.832  0.5359  0.0830 -0.4947
 8045SOL    HW135594   4.011   1.913   6.841 -0.2131 -0.2488  0.5764
 8045SOL    HW235595   3.976   1.788   6.769 -0.5053  0.9239  0.0930
 8046SOL     OW35596   2.246   4.711   9.056  0.4326  0.0272 -0.1624
 8046SOL    HW135597   2.169   4.681   9.103  1.1314 -1.7162 -0.1486
 8046SOL    HW235598   2.214   4.679   8.971 -0.7603  2.2878 -0.5646
 8047SOL     OW35599   1.383   1.456   3.939  0.6104 -0.0240 -0.3697
 8047SOL    HW135600   1.440   1.507   3.997  0.2289  1.4294 -1.2766
 8047SOL    HW235601   1.421   1.369   3.951  0.7931  0.0147 -0.6706
 8048SOL     OW35602   3.313   4.384   6.982 -0.2795  0.0464 -0.2455
 8048SOL    HW135603   3.267   4.311   6.940 -2.2405  0.9770  0.3080
 8048SOL    HW235604   3.316   4.462   6.928  1.3815  0.5291  0.5136
 8049SOL     OW35605   0.796   3.249   1.410  0.1432  0.0339  0.8872
 8049SOL    HW135606   0.843   3.184   1.461  2.4588  0.5848 -0.5026
 8049SOL    HW235607   0.767   3.201   1.332  1.0948  2.3231 -0.8822
 8050SOL     OW35608   2.420   0.828   9.675 -0.0337  0.2481 -0.3888
 8050SOL    HW135609   2.387   0.917   9.664 -3.0372 -1.1863 -2.9136
 8050SOL    HW235610   2.510   0.842   9.705 -0.5477  3.2528 -0.2850
 8051SOL     OW35611   2.021   2.959   4.924 -0.0283  0.8230 -0.2890
 8051SOL    HW135612   1.926   2.970   4.914 -0.2302 -1.9166 -1.6194
 8051SOL    HW235613   2.050   3.048   4.941 -1.2225  1.4250 -1.3482
 8052SOL     OW35614   3.342   3.620   2.947  0.0382 -0.0752 -0.6396
 8052SOL    HW135615   3.286   3.542   2.944  3.2933 -2.4638  1.6817
 8052SOL    HW235616   3.265   3.676   2.957 -0.8524 -1.3728 -0.2673
 8053SOL     OW35617   1.134   3.288   4.735  0.1599 -0.5399 -0.1104
 8053SOL    HW135618   1.191   3.353   4.694 -0.5589  0.0475 -0.1749
 8053SOL    HW235619   1.190   3.276   4.812 -0.7060 -1.6826  0.3420
 8054SOL     OW35620   4.496   2.098  13.046 -0.3520  0.3744  0.2097
 8054SOL    HW135621   4.436   2.085  13.119 -0.8400  0.4511 -0.1815
 8054SOL    HW235622   4.512   2.192  13.058 -1.1581  0.4778  0.4447
 8055SOL     OW35623   0.174   0.024  13.923  0.3215 -0.4608  0.3584
 8055SOL    HW135624   0.127   0.106  13.931 -1.0367 -1.0958 -0.9428
 8055SOL    HW235625   0.127   4.697  13.856  0.5164 -0.2521  0.0654
 8056SOL     OW35626   3.420   1.641   7.871  0.4834  0.0389 -0.1552
 8056SOL    HW135627   3.355   1.698   7.912 -0.1035 -1.1477  0.5570
 8056SOL    HW235628   3.490   1.633   7.936  0.7665  0.8335 -0.3638
 8057SOL     OW35629   0.992   4.391   2.695 -0.2155 -0.4688 -0.3745
 8057SOL    HW135630   0.951   4.305   2.694 -2.2818  0.4948 -0.4123
 8057SOL    HW235631   0.927   4.428   2.755  0.1896 -0.7511  0.2358
 8058SOL     OW35632   0.417   1.209  16.417 -0.4719  0.0506 -0.1255
 8058SOL    HW135633   0.426   1.171  16.330 -0.6837  1.8177 -0.9335
 8058SOL    HW235634   0.433   1.136  16.476  1.2958 -0.1777 -0.8898
 8059SOL     OW35635   1.931   1.294   0.154  0.3816 -0.8573  0.2809
 8059SOL    HW135636   2.001   1.338   0.107  0.0649 -0.4083  0.2325
 8059SOL    HW235637   1.918   1.362   0.219 -2.0605 -1.0270 -0.0191
 8060SOL     OW35638   3.784   0.012   0.992  0.1490 -0.6611 -0.0720
 8060SOL    HW135639   3.696   0.037   0.964  0.6847 -0.2789 -1.4082
 8060SOL    HW235640   3.773   0.006   1.087  0.9248 -1.5272 -0.0310
 8061SOL     OW35641   0.848   2.345   5.426 -0.0772 -0.5784 -0.3370
 8061SOL    HW135642   0.804   2.262   5.412 -3.0803  0.8690  0.4127
 8061SOL    HW235643   0.930   2.307   5.457  0.3270  2.5305  2.3742
 8062SOL     OW35644   0.674   1.130   9.337  0.8135 -0.0783 -0.1337
 8062SOL    HW135645   0.602   1.068   9.345 -0.5283  1.4361 -0.3366
 8062SOL    HW235646   0.712   1.124   9.425 -0.0628 -1.2051  0.1555
 8063SOL     OW35647   0.163   2.939   6.836 -0.2036 -0.3952 -0.1351
 8063SOL    HW135648   0.147   2.933   6.930 -0.6775  0.1399 -0.1769
 8063SOL    HW235649   0.194   2.850   6.820 -0.6707 -0.4021 -1.0360
 8064SOL     OW35650   1.141   1.456   0.832 -0.1634 -0.3895 -0.4444
 8064SOL    HW135651   1.085   1.533   0.819 -0.6957 -0.6061  0.6049
 8064SOL    HW235652   1.217   1.503   0.866 -0.4847 -0.0488 -0.1971
 8065SOL     OW35653   0.570   3.112   9.303 -0.4929 -0.3698 -0.0641
 8065SOL    HW135654   0.614   3.040   9.348  1.0559  1.4184  1.3296
 8065SOL    HW235655   0.483   3.107   9.342 -0.3783  0.2186  0.2736
 8066SOL     OW35656   4.679   4.291   2.965 -0.0758  0.2245  0.0993
 8066SOL    HW135657   4.694   4.247   2.881  1.3148  2.1053 -0.6683
 8066SOL    HW235658   0.046   4.320   2.982 -0.2118  1.3703 -1.0979
 8067SOL     OW35659   4.028   3.198   0.098 -0.1479 -0.3438  0.0509
 8067SOL    HW135660   4.003   3.243   0.018 -0.0845 -1.3081 -0.5124
 8067SOL    HW235661   3.991   3.256   0.164 -0.5998 -0.1980 -0.3391
 8068SOL     OW35662   3.581   1.338   9.859 -0.0970  0.0973  1.0513
 8068SOL    HW135663   3.533   1.350   9.941 -1.4295  3.3131 -0.1851
 8068SOL    HW235664   3.624   1.254   9.875  1.2343  0.4111 -0.8484
 8069SOL     OW35665   2.099   0.051   5.693 -0.0884 -0.4078  0.1043
 8069SOL    HW135666   2.073   0.054   5.785 -0.6716 -1.1410 -0.0330
 8069SOL    HW235667   2.024   0.008   5.652 -0.3190 -1.1753  1.3259
 8070SOL     OW35668   1.033   3.093  16.928  0.7998 -0.4142 -0.2785
 8070SOL    HW135669   1.095   3.152  16.970 -0.3637  1.3471 -1.0566
 8070SOL    HW235670   0.977   3.066  17.001  1.9694 -0.3363  0.6488
 8071SOL     OW35671   0.965   3.162   3.760  0.3232 -0.1554  0.2859
 8071SOL    HW135672   0.886   3.108   3.750  0.1774  0.2112 -0.5555
 8071SOL    HW235673   0.977   3.186   3.668 -1.3494 -0.6457 -0.0662
 8072SOL     OW35674   0.106   2.600   3.269  0.2890 -0.6357  0.2502
 8072SOL    HW135675   0.179   2.598   3.207 -0.4128 -2.3614 -0.5163
 8072SOL    HW235676   0.107   2.512   3.306 -0.3085 -0.0695  1.5900
 8073SOL     OW35677   0.344   0.820  13.211 -0.3682  0.1123 -0.1312
 8073SOL    HW135678   0.413   0.879  13.242 -0.4044 -1.2657  2.6088
 8073SOL    HW235679   0.284   0.826  13.285 -0.2023  0.8190 -0.0497
 8074SOL     OW35680   1.626   4.668   9.433 -1.0554 -0.4371  0.5573
 8074SOL    HW135681   1.630   0.041   9.438  1.1901 -0.5206  0.3002
 8074SOL    HW235682   1.695   4.656   9.368 -1.8817 -2.5449  0.0614
 8075SOL     OW35683   3.922   3.141  15.499  0.3665  0.0641 -0.5845
 8075SOL    HW135684   3.833   3.106  15.493  0.6509 -0.7750 -0.0127
 8075SOL    HW235685   3.897   3.209  15.562  0.1376  0.4271 -1.0707
 8076SOL     OW35686   3.793   4.313   1.231  0.1197 -0.4934  0.0731
 8076SOL    HW135687   3.771   4.223   1.207 -1.0995 -0.0651 -0.4014
 8076SOL    HW235688   3.866   4.321   1.169 -0.0856 -3.3614 -0.5327
 8077SOL     OW35689   4.180   1.812   7.713 -0.2496 -0.3753  0.4531
 8077SOL    HW135690   4.209   1.737   7.766  4.0762  0.7565 -0.3128
 8077SOL    HW235691   4.088   1.788   7.700  0.3377 -2.0966 -0.6538
 8078SOL     OW35692   4.579   3.337  14.112  0.1818 -0.0476 -0.0937
 8078SOL    HW135693   4.566   3.296  14.198  0.7705  2.2080  1.0679
 8078SOL    HW235694   4.661   3.292  14.089  0.0733 -0.2855 -0.0173
 8079SOL     OW35695   0.518   4.351   7.580 -0.3544  0.5443 -0.2425
 8079SOL    HW135696   0.557   4.331   7.666  0.0556 -0.7090 -0.7167
 8079SOL    HW235697   0.591   4.314   7.531 -1.3796 -1.6558 -0.1456
 8080SOL     OW35698   1.000   2.101   0.955  0.1339  0.3265 -0.1665
 8080SOL    HW135699   0.939   2.031   0.933  0.8680 -0.3386 -0.1309
 8080SOL    HW235700   1.081   2.073   0.912 -0.4987 -0.3104 -0.9392
 8081SOL     OW35701   2.422   3.727  13.144  0.1584 -0.5428  0.7395
 8081SOL    HW135702   2.388   3.808  13.180  0.0136 -0.2929  0.0300
 8081SOL    HW235703   2.352   3.695  13.088 -0.2932 -1.9263  2.0861
 8082SOL     OW35704   0.692   2.916  14.626 -0.0988  0.4340  0.8115
 8082SOL    HW135705   0.695   2.910  14.722 -0.8567 -0.9112  0.7497
 8082SOL    HW235706   0.664   2.828  14.601 -0.6588  0.4281  1.4741
 8083SOL     OW35707   0.961   0.135  16.506  0.0869 -0.3474 -0.1173
 8083SOL    HW135708   1.007   0.179  16.578  0.9358 -1.5668  0.0997
 8083SOL    HW235709   1.028   0.077  16.469 -0.1379 -1.8927  1.8618
 8084SOL     OW35710   4.424   4.144  11.424 -0.5551  0.2606 -0.2345
 8084SOL    HW135711   4.341   4.100  11.440 -0.0271 -1.5318 -2.4987
 8084SOL    HW235712   4.473   4.132  11.505 -0.8657 -1.3031 -0.2841
 8085SOL     OW35713   1.494   3.904   7.716  0.3399 -0.6837  0.1414
 8085SOL    HW135714   1.512   3.904   7.622  0.7169 -0.8698  0.2085
 8085SOL    HW235715   1.568   3.850   7.745 -0.9333 -3.2184 -1.3282
 8086SOL     OW35716   0.399   4.320  17.543 -0.1545 -0.1672  0.0174
 8086SOL    HW135717   0.455   4.301  17.618 -0.7520  0.1517  0.5461
 8086SOL    HW235718   0.316   4.312  17.591 -2.4130 -0.9860 -4.0035
 8087SOL     OW35719   1.895   1.535   0.946  0.0785 -0.3318  0.4397
 8087SOL    HW135720   1.942   1.517   1.028  2.3937  0.3925 -0.7271
 8087SOL    HW235721   1.942   1.461   0.907 -1.4466 -1.5274  0.8315
 8088SOL     OW35722   4.688   3.056   4.903 -0.6271  0.2571 -0.2390
 8088SOL    HW135723   4.703   3.147   4.876 -0.9869  1.4010  3.3559
 8088SOL    HW235724   4.644   3.026   4.824  0.5741 -1.3676 -0.2916
 8089SOL     OW35725   1.199   3.941   6.450  0.0006 -0.3147  0.3478
 8089SOL    HW135726   1.140   3.895   6.509 -0.3759  0.6936  0.7413
 8089SOL    HW235727   1.182   3.906   6.362 -0.4410  0.5929  0.0818
 8090SOL     OW35728   1.991   0.551   3.303 -0.0789  0.1073  0.1145
 8090SOL    HW135729   1.927   0.480   3.302  1.7420 -1.5741  0.6681
 8090SOL    HW235730   2.018   0.560   3.212 -2.4839  2.0620 -0.3755
 8091SOL     OW35731   0.010   3.005   3.282 -0.6542 -0.1891  0.1688
 8091SOL    HW135732   0.017   3.094   3.317  0.2250 -0.6658  1.1975
 8091SOL    HW235733   0.095   2.984   3.243 -0.2322 -0.0683  1.0312
 8092SOL     OW35734   4.494   2.211   7.942  0.3597 -0.0200  0.6620
 8092SOL    HW135735   4.459   2.289   7.898 -0.1570 -0.4706  0.2724
 8092SOL    HW235736   4.415   2.159   7.951  1.7359 -1.9239  1.6447
 8093SOL     OW35737   2.887   4.261   7.016  0.4637  0.2547 -0.3998
 8093SOL    HW135738   2.973   4.234   6.986  0.6550  1.3493 -0.8525
 8093SOL    HW235739   2.892   4.217   7.100  2.5231  2.7151  0.7682
 8094SOL     OW35740   1.475   4.342   3.462  0.1097 -0.2505  0.6207
 8094SOL    HW135741   1.406   4.279   3.484  2.1968 -1.9707  2.2466
 8094SOL    HW235742   1.533   4.337   3.538 -0.3080  1.0982  1.0186
 8095SOL     OW35743   0.907   1.654   8.992  0.0729  0.7868 -0.2995
 8095SOL    HW135744   0.999   1.680   8.993  0.3685 -0.2635  0.4616
 8095SOL    HW235745   0.884   1.664   8.900  0.1998  0.7873 -0.3313
 8096SOL     OW35746   3.603   2.601   4.092 -0.6028 -0.6557  0.1857
 8096SOL    HW135747   3.539   2.673   4.091 -0.5422 -0.6053 -0.1769
 8096SOL    HW235748   3.634   2.607   4.002  0.6989 -1.5022  0.5795
 8097SOL     OW35749   0.802   3.301   9.974 -0.0569  0.2043  0.4680
 8097SOL    HW135750   0.872   3.356   9.939  1.9242 -2.1294  0.7874
 8097SOL    HW235751   0.839   3.214   9.965  0.5591  0.0906  3.9827
 8098SOL     OW35752   1.251   3.456   0.481  0.3301  0.8549  0.1857
 8098SOL    HW135753   1.260   3.551   0.471  0.5664  1.0052  1.8094
 8098SOL    HW235754   1.166   3.440   0.522  1.4517 -0.5541  1.9667
 8099SOL     OW35755   3.739   2.207   2.537 -0.0377 -0.2924  0.2511
 8099SOL    HW135756   3.654   2.241   2.566  0.1835 -0.5538  1.2143
 8099SOL    HW235757   3.703   2.155   2.466 -0.4979 -0.9633  0.9710
 8100SOL     OW35758   2.186   0.331  11.316 -0.0572 -0.7657 -0.8172
 8100SOL    HW135759   2.255   0.265  11.323  0.5683 -0.1467 -1.1155
 8100SOL    HW235760   2.201   0.387  11.392 -0.0687  0.9108 -2.0623
 8101SOL     OW35761   1.817   3.061  16.025 -0.2189 -0.0887 -0.3278
 8101SOL    HW135762   1.749   3.029  16.084  0.2067 -2.1307 -0.9689
 8101SOL    HW235763   1.798   3.016  15.943  0.2760  0.6942 -0.8700
 8102SOL     OW35764   1.127   2.311   3.315  0.0636 -0.0313 -0.1852
 8102SOL    HW135765   1.179   2.282   3.389 -1.5816  2.1747  1.8204
 8102SOL    HW235766   1.048   2.257   3.323  0.0282  0.0816  0.2247
 8103SOL     OW35767   0.916   2.601  15.348  0.2988 -0.1304 -0.1035
 8103SOL    HW135768   0.928   2.630  15.258  1.5593 -1.4981 -0.3621
 8103SOL    HW235769   0.952   2.670  15.404  0.3024  0.9774 -1.4633
 8104SOL     OW35770   4.209   0.417   2.734 -0.6201  0.1484 -0.1057
 8104SOL    HW135771   4.134   0.424   2.675  0.6413  0.4434 -1.6801
 8104SOL    HW235772   4.237   0.507   2.747  0.0321 -0.1655  0.6770
 8105SOL     OW35773   3.568   1.179  15.140  0.0244  0.2526  0.0645
 8105SOL    HW135774   3.629   1.225  15.198 -0.2446  1.7563 -0.8274
 8105SOL    HW235775   3.503   1.167  15.209  0.0989  1.6967  0.4004
 8106SOL     OW35776   2.998   0.877   7.430  0.0880 -0.1024 -0.7092
 8106SOL    HW135777   2.944   0.890   7.353 -1.4921  0.7525  0.5356
 8106SOL    HW235778   2.989   0.966   7.466  0.3290 -0.4578  0.2453
 8107SOL     OW35779   1.895   0.514  12.951 -0.1961 -0.2787  0.2920
 8107SOL    HW135780   1.950   0.535  13.026  1.0282 -0.3447 -0.5860
 8107SOL    HW235781   1.952   0.533  12.877 -0.3811  1.9222  0.7291
 8108SOL     OW35782   3.348   0.708   9.938  0.1772  0.5245  0.2089
 8108SOL    HW135783   3.322   0.773   9.874 -0.8885  0.1691  0.2761
 8108SOL    HW235784   3.437   0.688   9.911  0.8437  0.4924  2.4893
 8109SOL     OW35785   3.433   0.167  16.249  0.2976 -0.2564  0.3065
 8109SOL    HW135786   3.506   0.225  16.229  1.3668 -1.3105  1.1661
 8109SOL    HW235787   3.417   0.117  16.169 -2.7663 -1.1730  1.5160
 8110SOL     OW35788   0.881   2.801   1.519 -0.4470  0.1816 -0.1556
 8110SOL    HW135789   0.795   2.840   1.502 -0.0024  0.8189 -0.9637
 8110SOL    HW235790   0.873   2.712   1.486 -0.2899  0.3966 -0.7744
 8111SOL     OW35791   1.508   1.734   6.444 -0.1860 -0.0485  0.2996
 8111SOL    HW135792   1.457   1.656   6.423  0.0547  0.0334 -0.5735
 8111SOL    HW235793   1.427   1.784   6.457  0.9441  1.0394  3.1947
 8112SOL     OW35794   2.393   3.012   3.791  0.4494 -0.3133  0.4083
 8112SOL    HW135795   2.361   2.991   3.704  0.2556  0.0646  0.3899
 8112SOL    HW235796   2.393   2.927   3.835  0.9065 -1.7293 -2.3019
 8113SOL     OW35797   2.804   4.637   8.889  0.1541  0.0323  0.0144
 8113SOL    HW135798   2.851   4.556   8.909  0.2672  0.2685  0.6844
 8113SOL    HW235799   2.877   4.686   8.852 -1.0969  1.8349 -0.0575
 8114SOL     OW35800   0.000   3.282   3.393 -0.0368  0.0361  0.0534
 8114SOL    HW135801   0.002   3.248   3.482  0.8479 -1.3778 -0.5086
 8114SOL    HW235802   4.644   3.336   3.399  0.4623  0.6486  1.0198
 8115SOL     OW35803   1.650   1.949   8.067 -0.0473  0.1198 -0.0724
 8115SOL    HW135804   1.616   1.860   8.073 -0.5525  0.2086 -1.7051
 8115SOL    HW235805   1.592   1.989   8.132  0.0781  0.4309 -0.1478
 8116SOL     OW35806   0.907   0.431   6.822  0.0157  0.3622 -0.2536
 8116SOL    HW135807   0.879   0.342   6.799 -0.1697  0.4804 -0.4773
 8116SOL    HW235808   0.889   0.441   6.916  2.7930  0.9638  0.2213
 8117SOL     OW35809   2.942   2.855   2.336  0.0675 -1.2294  0.2698
 8117SOL    HW135810   2.972   2.778   2.288  0.8323 -0.5803 -0.2815
 8117SOL    HW235811   2.850   2.860   2.313 -0.0998 -0.3561  1.1112
 8118SOL     OW35812   3.390   3.840  15.381 -0.4388 -0.5542  0.0381
 8118SOL    HW135813   3.465   3.829  15.439  1.0968 -1.9500 -2.1855
 8118SOL    HW235814   3.325   3.879  15.439 -0.6104  1.1131 -1.2826
 8119SOL     OW35815   1.640   2.350   3.021  0.0223 -0.2655  0.6081
 8119SOL    HW135816   1.587   2.279   2.986  0.2135  0.5331 -1.2922
 8119SOL    HW235817   1.574   2.419   3.029 -0.6318 -0.5050 -2.7664
 8120SOL     OW35818   2.024   2.922   7.524  0.6053 -0.1953  0.3159
 8120SOL    HW135819   2.078   2.991   7.564 -0.4173  1.3765 -1.0082
 8120SOL    HW235820   1.957   2.960   7.467  1.8015  1.6683  0.1266
 8121SOL     OW35821   1.018   2.047   7.521  0.5236 -0.2682 -0.0010
 8121SOL    HW135822   1.081   1.976   7.510 -1.3842 -1.9411 -0.2682
 8121SOL    HW235823   0.933   2.006   7.503  0.7950 -1.8865  2.2971
 8122SOL     OW35824   1.930   0.738   4.715 -0.0711  0.1013 -0.1936
 8122SOL    HW135825   1.948   0.804   4.782  0.2480 -0.3587  0.1754
 8122SOL    HW235826   2.012   0.698   4.685 -0.0684  0.7656 -1.0539
 8123SOL     OW35827   0.264   0.749   8.812  0.1936  0.7384 -0.4939
 8123SOL    HW135828   0.179   0.793   8.805  0.6812  1.6051 -0.8790
 8123SOL    HW235829   0.284   0.705   8.729 -1.8244  1.6360 -1.4623
 8124SOL     OW35830   3.944   3.183  10.821 -0.2098  0.1706  0.0691
 8124SOL    HW135831   3.938   3.102  10.771 -0.4030 -1.2280  2.3685
 8124SOL    HW235832   3.943   3.148  10.910 -1.0312  1.5445  0.6024
 8125SOL     OW35833   1.139   4.170   3.976  0.2453  0.2092 -0.2714
 8125SOL    HW135834   1.169   4.206   4.060  1.0249 -2.6878  0.7161
 8125SOL    HW235835   1.175   4.229   3.911 -1.1339 -1.0867 -2.1964
 8126SOL     OW35836   1.757   4.149  12.501  0.4002  0.0239 -0.2151
 8126SOL    HW135837   1.717   4.235  12.516 -0.7976 -0.8863  1.7671
 8126SOL    HW235838   1.845   4.182  12.486  0.3911 -1.3608 -3.2413
 8127SOL     OW35839   4.704   0.701  11.533  0.6097  0.1257 -0.3155
 8127SOL    HW135840   0.067   0.739  11.516  1.0715 -1.1116 -0.7472
 8127SOL    HW235841   4.702   0.633  11.466  2.8556  0.4873 -0.7390
 8128SOL     OW35842   0.590   0.989   6.241  0.5545  0.2461 -0.5326
 8128SOL    HW135843   0.580   1.074   6.284  0.0568 -0.7595  1.3684
 8128SOL    HW235844   0.527   1.001   6.170  0.0610 -0.3555 -0.1918
 8129SOL     OW35845   3.040   2.268  14.398  0.4100  0.1092  0.4528
 8129SOL    HW135846   3.125   2.227  14.411  0.9341  1.0688 -0.0085
 8129SOL    HW235847   3.057   2.313  14.315 -3.5807 -1.0751 -1.0271
 8130SOL     OW35848   2.729   3.218   3.793 -0.2769 -0.1078  0.5292
 8130SOL    HW135849   2.693   3.209   3.881 -0.7537 -2.6564  0.0918
 8130SOL    HW235850   2.761   3.129   3.780 -1.4230 -0.3390 -0.6325
 8131SOL     OW35851   4.703   2.370  11.820  0.3127  0.4889  0.2931
 8131SOL    HW135852   4.665   2.289  11.855  0.6674  0.1329 -0.1315
 8131SOL    HW235853   0.011   2.411  11.900  0.7874 -0.1599  0.4418
 8132SOL     OW35854   2.077   4.239  10.781 -0.1839  0.3231 -0.0366
 8132SOL    HW135855   2.165   4.262  10.813 -1.3420  1.2349  2.5135
 8132SOL    HW235856   2.063   4.284  10.698  1.0500 -0.0336 -0.4340
 8133SOL     OW35857   2.795   2.210  10.581 -0.0117  0.2247  0.0095
 8133SOL    HW135858   2.750   2.232  10.663 -0.6513 -2.4453  0.3626
 8133SOL    HW235859   2.794   2.296  10.538 -1.0229  1.4494  2.4924
 8134SOL     OW35860   4.311   3.967   1.975 -0.3819  0.0107  0.3500
 8134SOL    HW135861   4.351   4.049   2.005  1.8314 -1.4099  1.2804
 8134SOL    HW235862   4.379   3.930   1.919  1.2869  0.7874  1.8491
 8135SOL     OW35863   0.649   1.069   3.694  0.5409  0.2485  0.0345
 8135SOL    HW135864   0.708   1.004   3.656  2.9651  1.5338  1.5788
 8135SOL    HW235865   0.705   1.096   3.767  0.8259 -1.3390  0.4017
 8136SOL     OW35866   4.648   4.657   2.117  0.1705  0.2324 -0.6595
 8136SOL    HW135867   4.554   4.667   2.102 -0.1552 -2.0316 -0.0289
 8136SOL    HW235868   4.666   4.564   2.105 -0.5350  0.1215 -0.8672
 8137SOL     OW35869   3.487   0.868  12.242 -0.6212 -0.0462 -0.3752
 8137SOL    HW135870   3.505   0.960  12.221 -2.2404  0.2609 -0.4030
 8137SOL    HW235871   3.391   0.871  12.242 -0.6018  0.4657  2.0802
 8138SOL     OW35872   3.791   1.479   2.469 -0.0037 -0.0907 -0.2793
 8138SOL    HW135873   3.878   1.439   2.462  0.4796  0.6519  1.5553
 8138SOL    HW235874   3.746   1.404   2.508  2.0231 -0.4166  1.4559
 8139SOL     OW35875   4.327   1.751   0.323  0.3412  0.0309 -0.4106
 8139SOL    HW135876   4.348   1.716   0.409  2.4509  0.2224 -0.8631
 8139SOL    HW235877   4.381   1.691   0.272 -0.8871 -0.7342 -0.8076
 8140SOL     OW35878   0.419   0.919  10.515  0.8983 -0.0623 -0.6066
 8140SOL    HW135879   0.479   0.853  10.481  1.3540  0.5518 -0.9832
 8140SOL    HW235880   0.403   0.907  10.609 -0.2809  1.4538 -0.6019
 8141SOL     OW35881   0.405   2.756  15.901 -0.0882  0.2138  0.5782
 8141SOL    HW135882   0.347   2.756  15.825 -1.0907 -0.9598  1.3456
 8141SOL    HW235883   0.391   2.844  15.936  2.1898  0.7820  0.0891
 8142SOL     OW35884   0.108   4.702  12.046  1.0622  0.4874 -0.5778
 8142SOL    HW135885   0.170   4.636  12.017 -0.7612 -0.6088 -1.9941
 8142SOL    HW235886   0.148   4.715  12.132  2.4995 -1.8679 -0.9155
 8143SOL     OW35887   0.442   3.555   9.459 -0.6080  0.1455 -0.1901
 8143SOL    HW135888   0.405   3.593   9.379 -0.5407  3.7060  1.4611
 8143SOL    HW235889   0.493   3.479   9.430  0.4096  0.5733  0.4728
 8144SOL     OW35890   0.811   2.045  13.510 -0.5084  0.0685  0.4251
 8144SOL    HW135891   0.722   2.025  13.538 -1.5582  2.3160 -1.3051
 8144SOL    HW235892   0.802   2.036  13.415 -0.4047 -1.5734  0.5835
 8145SOL     OW35893   3.119   1.720  16.251  0.2046  0.1653  0.6776
 8145SOL    HW135894   3.176   1.747  16.179  0.2400 -0.5121  0.4476
 8145SOL    HW235895   3.047   1.783  16.255 -0.7356 -1.0133  2.3401
 8146SOL     OW35896   4.314   3.167  17.437  0.0880  0.2655 -0.1307
 8146SOL    HW135897   4.321   3.196  17.346 -1.3459 -1.4648 -0.8107
 8146SOL    HW235898   4.306   3.072  17.425  0.2297  0.2422 -0.0296
 8147SOL     OW35899   2.638   1.368  10.184  0.0531 -0.0044  0.1954
 8147SOL    HW135900   2.710   1.403  10.131 -0.6614  0.1035 -0.7113
 8147SOL    HW235901   2.600   1.453  10.204 -1.2375 -0.6743  0.5713
 8148SOL     OW35902   2.772   0.286   3.163  0.4160 -0.1057 -0.4452
 8148SOL    HW135903   2.709   0.217   3.182  1.8860 -1.2508  0.2559
 8148SOL    HW235904   2.729   0.333   3.090 -1.9517  0.8228  1.5458
 8149SOL     OW35905   3.174   2.734   5.534  0.3460 -0.1288 -0.8185
 8149SOL    HW135906   3.218   2.652   5.557  2.1006  0.3854 -2.3036
 8149SOL    HW235907   3.244   2.797   5.551 -0.9411  0.3540  2.7165
 8150SOL     OW35908   0.973   3.378   5.749 -0.6065  0.4226  0.3219
 8150SOL    HW135909   1.008   3.443   5.688 -0.1847 -0.5287 -0.4464
 8150SOL    HW235910   0.935   3.320   5.684 -1.8242  0.6405  0.8409
 8151SOL     OW35911   4.073   1.673   9.380  0.2741 -0.4637  0.1188
 8151SOL    HW135912   4.002   1.635   9.431  1.0802  0.4618  1.9088
 8151SOL    HW235913   4.118   1.593   9.356  1.0119  0.2807 -0.9987
 8152SOL     OW35914   1.818   3.928   9.185  0.9169 -0.2546  0.6774
 8152SOL    HW135915   1.831   4.015   9.221 -2.0786 -0.4907  2.4231
 8152SOL    HW235916   1.724   3.941   9.169  1.0840 -0.9672 -0.8400
 8153SOL     OW35917   0.620   4.500   4.791  0.4662  0.0832 -0.4999
 8153SOL    HW135918   0.706   4.463   4.774  1.6224  2.6788 -0.3046
 8153SOL    HW235919   0.597   4.490   4.883 -0.0767  1.3578 -0.4951
 8154SOL     OW35920   4.659   0.607  17.059 -0.2412  0.4888 -0.3510
 8154SOL    HW135921   4.681   0.594  17.151  2.6601  2.4187 -0.7627
 8154SOL    HW235922   4.598   0.537  17.035  0.0051  0.7440 -1.7015
 8155SOL     OW35923   4.483   0.400  17.057 -0.0280  0.1667  0.1184
 8155SOL    HW135924   4.467   0.368  16.969  1.3752 -1.4914  0.4743
 8155SOL    HW235925   4.433   0.340  17.113 -1.0959  0.0418 -0.9542
 8156SOL     OW35926   3.128   4.434   7.202 -0.6481  0.2505  0.2030
 8156SOL    HW135927   3.215   4.425   7.162 -0.7249 -0.8935  0.3053
 8156SOL    HW235928   3.114   4.345   7.234  1.1999  0.5194  1.7418
 8157SOL     OW35929   3.096   1.073   6.900 -0.5107 -0.1869 -0.0902
 8157SOL    HW135930   3.057   1.087   6.813  1.2348  3.1397 -0.3118
 8157SOL    HW235931   3.072   1.144   6.959  1.2717  1.1059 -0.9178
 8158SOL     OW35932   2.545   2.394   1.655  0.4421 -0.6051 -0.1732
 8158SOL    HW135933   2.511   2.369   1.569 -0.3606 -1.1236  0.2993
 8158SOL    HW235934   2.470   2.428   1.703  0.3664 -1.5851  0.4102
 8159SOL     OW35935   4.377   3.274  15.908 -0.0589  0.7005 -0.0442
 8159SOL    HW135936   4.386   3.180  15.893  2.0120  0.9179 -0.2622
 8159SOL    HW235937   4.354   3.306  15.821  0.2100  1.2717  0.0929
 8160SOL     OW35938   0.522   0.096   2.404  1.3402 -0.6404  0.5378
 8160SOL    HW135939   0.537   0.179   2.449 -0.0779  0.3440 -0.8199
 8160SOL    HW235940   0.430   0.111   2.383  0.8577 -0.5898  2.6793
 8161SOL     OW35941   1.258   2.525   1.638  0.1992  0.8207 -0.4322
 8161SOL    HW135942   1.303   2.481   1.566 -0.5566 -0.1595 -0.2960
 8161SOL    HW235943   1.167   2.502   1.624  0.9554 -1.2084 -2.0009
 8162SOL     OW35944   4.086   3.686   3.350  0.2598  0.3155 -0.0123
 8162SOL    HW135945   3.995   3.717   3.352  0.4064  0.7370  0.1786
 8162SOL    HW235946   4.117   3.727   3.431 -2.0534  0.2342  0.9443
 8163SOL     OW35947   1.018   2.380   7.933  0.2449 -0.2079  0.2708
 8163SOL    HW135948   1.081   2.393   8.004  0.9725 -0.6283 -0.2988
 8163SOL    HW235949   0.958   2.315   7.971  0.4325 -0.8979 -0.5897
 8164SOL     OW35950   3.126   3.770  15.238  0.4058 -0.0921  0.3389
 8164SOL    HW135951   3.159   3.735  15.321 -0.1137 -1.0555  0.1466
 8164SOL    HW235952   3.204   3.816  15.210  0.7096 -1.1822 -0.6169
 8165SOL     OW35953   3.624   2.877   4.263 -0.3185  0.3880  0.0627
 8165SOL    HW135954   3.616   2.970   4.246 -2.0047  0.0546 -0.9627
 8165SOL    HW235955   3.628   2.878   4.359  0.5345 -1.8904  0.0511
 8166SOL     OW35956   3.328   0.823  11.707 -0.2675  0.2615  1.1396
 8166SOL    HW135957   3.358   0.865  11.627 -1.7274  2.4803  1.7262
 8166SOL    HW235958   3.389   0.863  11.770  0.1770  1.1055  0.1646
 8167SOL     OW35959   1.542   1.713   4.052 -0.6436  0.3727 -0.2495
 8167SOL    HW135960   1.615   1.704   4.113 -1.5480 -1.4908  0.5463
 8167SOL    HW235961   1.500   1.790   4.091 -3.4207 -0.1538 -2.2204
 8168SOL     OW35962   4.142   1.566  12.447 -0.3169  0.4456 -0.3561
 8168SOL    HW135963   4.210   1.499  12.435  0.2839  1.0225 -0.1545
 8168SOL    HW235964   4.069   1.509  12.471 -1.3048  1.6451 -0.5126
 8169SOL     OW35965   1.668   0.100   8.834  0.4436 -0.0129  0.2463
 8169SOL    HW135966   1.596   0.126   8.776  1.5708 -0.4414 -1.3583
 8169SOL    HW235967   1.737   0.074   8.772 -0.4486 -1.1081 -0.2932
 8170SOL     OW35968   0.471   4.488   2.533  0.0041 -0.2232 -0.1570
 8170SOL    HW135969   0.471   4.399   2.498 -0.3456 -1.2982  2.5727
 8170SOL    HW235970   0.416   4.536   2.470 -0.6028  2.2722  2.2353
 8171SOL     OW35971   0.549   3.547  15.963 -0.3398  0.3723 -0.7669
 8171SOL    HW135972   0.472   3.604  15.960 -1.8452 -1.5645  0.7966
 8171SOL    HW235973   0.577   3.551  16.055 -1.5137  0.5115 -0.4105
 8172SOL     OW35974   2.298   0.246   9.476  0.4084  0.1093 -0.3831
 8172SOL    HW135975   2.390   0.244   9.501  0.2580  0.4342  0.2075
 8172SOL    HW235976   2.313   0.297   9.397 -0.9320  0.4891 -0.3984
 8173SOL     OW35977   1.306   4.236  17.515 -0.1050 -0.0954  0.0968
 8173SOL    HW135978   1.361   4.157  17.517 -0.8581 -0.6565 -0.8911
 8173SOL    HW235979   1.342   4.279  17.592  2.2965 -2.3168  0.2228
 8174SOL     OW35980   2.250   1.306   8.383  0.4177 -0.5803 -0.6418
 8174SOL    HW135981   2.276   1.398   8.385 -0.3958 -0.3446 -1.2079
 8174SOL    HW235982   2.330   1.265   8.419 -0.2938 -1.0807  0.3757
 8175SOL     OW35983   2.388   0.485  14.583 -0.3048  0.1145 -0.5754
 8175SOL    HW135984   2.395   0.564  14.530  4.5414 -0.7256 -1.1715
 8175SOL    HW235985   2.470   0.496  14.632 -0.9095  1.0118  0.2354
 8176SOL     OW35986   1.179   3.354   0.946 -0.0683  0.0838 -0.1104
 8176SOL    HW135987   1.144   3.441   0.963  2.4408  0.9159  0.7595
 8176SOL    HW235988   1.265   3.367   0.906  0.2455 -0.7696  0.2858
 8177SOL     OW35989   0.348   2.528   8.403 -0.3806  0.5470  0.4653
 8177SOL    HW135990   0.320   2.451   8.354 -1.4625  0.6317  0.9515
 8177SOL    HW235991   0.325   2.505   8.493  0.6333  1.0482  0.8534
 8178SOL     OW35992   1.249   3.213   4.444 -0.0213 -0.3658  0.0959
 8178SOL    HW135993   1.247   3.194   4.350 -0.2951  0.1727 -0.0014
 8178SOL    HW235994   1.170   3.164   4.467 -1.0430 -0.0124 -2.7077
 8179SOL     OW35995   2.721   1.656  16.395 -0.6215 -0.2217  0.0911
 8179SOL    HW135996   2.771   1.686  16.471 -0.2759 -0.7730  0.0784
 8179SOL    HW235997   2.667   1.587  16.432 -0.6294  0.2791  1.0186
 8180SOL     OW35998   3.279   0.790  17.374 -0.0941 -0.1543 -0.1135
 8180SOL    HW135999   3.314   0.769  17.461 -0.0535 -1.1534 -0.3669
 8180SOL    HW236000   3.342   0.751  17.313 -0.2721 -0.6993  0.0473
 8181SOL     OW36001   2.700   2.877   5.006 -0.7719  0.0250 -0.9572
 8181SOL    HW136002   2.757   2.859   4.931 -0.5433  1.0522 -1.0212
 8181SOL    HW236003   2.647   2.951   4.978  0.5545  1.5198  0.5176
 8182SOL     OW36004   4.068   1.705   7.425 -0.0787 -0.4185  0.2203
 8182SOL    HW136005   4.043   1.745   7.342  2.5930  0.0470 -0.3341
 8182SOL    HW236006   4.011   1.753   7.486 -0.6857  0.8670 -1.3764
 8183SOL     OW36007   2.505   2.729   2.951 -0.0882 -0.6004  0.4350
 8183SOL    HW136008   2.439   2.739   3.020  0.0876 -0.5956  0.6055
 8183SOL    HW236009   2.453   2.666   2.902  0.3103 -1.0073  0.5406
 8184SOL     OW36010   3.279   2.621   4.627  0.2473  0.1074  0.2801
 8184SOL    HW136011   3.205   2.666   4.587 -0.1934 -0.7355  0.1495
 8184SOL    HW236012   3.279   2.532   4.592 -1.3442  0.3676 -0.3730
 8185SOL     OW36013   1.240   0.315  13.064  0.2978  0.1694  0.2748
 8185SOL    HW136014   1.173   0.278  13.006 -0.1939  0.9511  0.3536
 8185SOL    HW236015   1.194   0.295  13.145  0.6445  0.9088  0.6474
 8186SOL     OW36016   0.560   3.553  13.220  0.5084  0.0213 -0.1086
 8186SOL    HW136017   0.609   3.632  13.241  1.3808 -0.5991  0.1642
 8186SOL    HW236018   0.579   3.491  13.291  0.6877 -0.2828 -0.4212
 8187SOL     OW36019   1.124   1.445  12.906 -0.1826 -0.4112 -0.5278
 8187SOL    HW136020   1.215   1.446  12.878 -0.2842  1.6192 -0.7426
 8187SOL    HW236021   1.123   1.474  12.998 -1.3523 -2.8272  0.2293
 8188SOL     OW36022   0.862   3.747   1.771 -0.1117  0.1867 -0.4397
 8188SOL    HW136023   0.905   3.666   1.799 -0.5599  0.2282  0.3502
 8188SOL    HW236024   0.939   3.798   1.745 -0.2051 -0.4867 -2.0425
 8189SOL     OW36025   2.757   1.428   3.578  0.0132  0.2206  0.0988
 8189SOL    HW136026   2.771   1.334   3.568 -0.6151 -0.0304  1.5886
 8189SOL    HW236027   2.846   1.455   3.557  0.1861 -0.3503  0.1225
 8190SOL     OW36028   0.501   1.014   4.770  0.1467  0.1109  0.5540
 8190SOL    HW136029   0.584   1.055   4.743  0.5028 -0.5288  0.6675
 8190SOL    HW236030   0.501   1.026   4.865 -1.6624  1.0651  0.4310
 8191SOL     OW36031   2.758   2.754  15.911 -0.1747 -0.2314 -0.2224
 8191SOL    HW136032   2.728   2.667  15.885 -0.6054  0.0663 -0.7167
 8191SOL    HW236033   2.853   2.743  15.910 -0.0872  0.1041  4.8452
 8192SOL     OW36034   1.413   3.348   1.448  0.4611  0.3307 -0.1875
 8192SOL    HW136035   1.320   3.353   1.426  0.3613  1.2028  0.4259
 8192SOL    HW236036   1.406   3.386   1.536 -0.4028 -0.2326 -0.0116
 8193SOL     OW36037   1.216   3.836   1.212 -0.0585  0.1460  0.5310
 8193SOL    HW136038   1.185   3.884   1.135 -2.4915 -2.3343 -0.0240
 8193SOL    HW236039   1.210   3.749   1.173  2.0552  0.7214 -1.0872
 8194SOL     OW36040   2.725   2.796   4.430  0.2166  0.1684 -0.0266
 8194SOL    HW136041   2.725   2.830   4.341 -0.0071 -0.1777 -0.1576
 8194SOL    HW236042   2.657   2.729   4.439  0.0347  0.6038  1.9868
 8195SOL     OW36043   0.018   1.576   2.739 -0.0937 -0.3648  0.4043
 8195SOL    HW136044   4.664   1.558   2.685  0.3928  2.3753 -1.2083
 8195SOL    HW236045   0.019   1.496   2.791 -1.1327 -1.3935 -1.1550
 8196SOL     OW36046   1.770   1.628  14.783  0.3491 -0.1687  0.3248
 8196SOL    HW136047   1.801   1.653  14.696 -3.0176  1.8900 -0.2807
 8196SOL    HW236048   1.682   1.662  14.769  0.3091  0.1776  1.4685
 8197SOL     OW36049   1.395   4.603   2.108  0.2499  0.5876 -0.1242
 8197SOL    HW136050   1.337   4.534   2.140  1.2232  0.0636  0.5145
 8197SOL    HW236051   1.333   4.675   2.096  0.5155  0.8399  0.0213
 8198SOL     OW36052   1.175   2.895  14.123  0.2059  0.0677 -0.3300
 8198SOL    HW136053   1.238   2.955  14.083 -0.2798  1.9276  1.7643
 8198SOL    HW236054   1.180   2.828  14.054  0.1912  0.1165 -0.3787
 8199SOL     OW36055   1.690   0.917   5.841  0.0475 -0.4974 -0.1315
 8199SOL    HW136056   1.762   0.930   5.780 -0.8132  0.3594 -0.9597
 8199SOL    HW236057   1.665   0.832   5.805 -1.1233 -0.2363  0.0720
 8200SOL     OW36058   1.646   0.707   2.177  0.1620 -0.2869  0.3930
 8200SOL    HW136059   1.679   0.707   2.087 -2.3045  1.2344 -0.4963
 8200SOL    HW236060   1.553   0.705   2.154  0.1245  0.1642  0.5078
 8201SOL     OW36061   0.919   0.170   3.423  0.6128 -0.0676 -0.1737
 8201SOL    HW136062   0.838   0.129   3.451  0.2180 -0.1876 -1.4915
 8201SOL    HW236063   0.928   0.231   3.496 -2.8387  0.3953 -0.1467
 8202SOL     OW36064   0.461   2.272   2.771 -0.2973  0.0171 -0.3036
 8202SOL    HW136065   0.400   2.247   2.840  0.5750  3.3924  1.6799
 8202SOL    HW236066   0.396   2.268   2.700 -0.0820  1.2327 -0.5754
 8203SOL     OW36067   1.940   4.283   9.213 -0.2289 -0.1958  0.2590
 8203SOL    HW136068   1.939   4.227   9.136  5.5575 -0.1331  0.1351
 8203SOL    HW236069   1.847   4.290   9.233  0.0460  0.2188  1.4009
 8204SOL     OW36070   1.842   0.314  13.162  0.3094 -0.0412 -0.3569
 8204SOL    HW136071   1.880   0.371  13.095 -1.6890 -0.6306 -1.9746
 8204SOL    HW236072   1.857   0.353  13.248  0.2864  3.4946 -1.9591
 8205SOL     OW36073   0.781   4.160   2.490  0.7330 -0.0638 -0.5314
 8205SOL    HW136074   0.790   4.070   2.522  0.0559  0.2774  0.5867
 8205SOL    HW236075   0.845   4.157   2.418 -0.6070  1.2152 -1.7800
 8206SOL     OW36076   2.221   1.793  16.445  0.2044  0.3190 -0.4063
 8206SOL    HW136077   2.194   1.716  16.395  0.6338 -0.9652  1.3374
 8206SOL    HW236078   2.164   1.864  16.417  0.1126  0.2880 -0.2967
 8207SOL     OW36079   1.331   3.503   2.512 -0.2582  0.7281 -0.1357
 8207SOL    HW136080   1.296   3.559   2.442 -1.2875 -1.1150 -1.0677
 8207SOL    HW236081   1.266   3.525   2.578  0.6391  0.1231  0.9468
 8208SOL     OW36082   3.102   0.850   9.333 -0.0251  0.8768  0.5114
 8208SOL    HW136083   3.040   0.779   9.324 -0.8457  1.5445  0.9322
 8208SOL    HW236084   3.059   0.915   9.388 -1.8078  1.9855 -2.1756
 8209SOL     OW36085   2.373   4.309   3.421 -0.2132  0.1171 -0.2264
 8209SOL    HW136086   2.355   4.267   3.337 -1.9346  1.1154 -0.3471
 8209SOL    HW236087   2.408   4.241   3.478  0.8358 -1.0799 -2.2784
 8210SOL     OW36088   2.238   3.530   2.156  0.2789  0.1801 -0.1575
 8210SOL    HW136089   2.274   3.442   2.148  1.6144  1.0172 -3.1345
 8210SOL    HW236090   2.311   3.587   2.180  1.6844 -1.3333 -0.8352
 8211SOL     OW36091   3.064   3.465   8.338 -0.7011  0.2636 -0.1823
 8211SOL    HW136092   3.127   3.420   8.282  0.7723  1.0797  0.8053
 8211SOL    HW236093   3.080   3.431   8.426 -2.7447  0.7899  0.3894
 8212SOL     OW36094   4.545   0.081   6.623  0.6006 -0.0360 -0.2635
 8212SOL    HW136095   4.455   0.112   6.632  1.1124  1.8202 -1.6590
 8212SOL    HW236096   4.558   0.028   6.702 -2.9692 -1.0585 -0.3851
 8213SOL     OW36097   1.368   2.699   2.767 -0.1828 -0.5304 -0.3923
 8213SOL    HW136098   1.448   2.647   2.763  0.9193  1.1807 -0.6306
 8213SOL    HW236099   1.315   2.652   2.832  0.6854 -3.0862 -1.5365
 8214SOL     OW36100   2.529   0.621   0.229  0.2556 -0.3406 -0.1434
 8214SOL    HW136101   2.498   0.584   0.312 -0.6388  0.3276 -0.1704
 8214SOL    HW236102   2.457   0.614   0.166 -1.0220  0.9008  1.1641
 8215SOL     OW36103   4.197   0.200   2.346 -0.7156 -0.1379  0.2345
 8215SOL    HW136104   4.123   0.143   2.328 -0.1532 -0.7946 -0.0083
 8215SOL    HW236105   4.165   0.283   2.309 -0.6005 -0.3989 -0.4415
 8216SOL     OW36106   4.542   2.537   7.014 -0.7658 -0.3511  0.2501
 8216SOL    HW136107   4.521   2.444   7.029  0.2660 -0.8792 -1.6106
 8216SOL    HW236108   4.635   2.528   6.992 -0.9897 -2.4252  0.1456
 8217SOL     OW36109   1.850   4.591   2.362 -0.1372 -0.3245  0.1693
 8217SOL    HW136110   1.756   4.601   2.370  0.2243  2.0901  1.3820
 8217SOL    HW236111   1.882   4.663   2.415 -1.1875 -0.1566  0.5558
 8218SOL     OW36112   2.685   2.713   0.126 -0.2350 -0.0231 -0.0235
 8218SOL    HW136113   2.724   2.776   0.064 -2.0942  2.4933  1.3672
 8218SOL    HW236114   2.721   2.731   0.213 -1.4310  0.1988  0.4115
 8219SOL     OW36115   1.030   1.577   7.192  0.1138 -0.0550 -0.2872
 8219SOL    HW136116   0.944   1.553   7.160  1.8055 -1.1547 -3.9712
 8219SOL    HW236117   1.037   1.654   7.137  0.0969 -0.3276 -0.6680
 8220SOL     OW36118   2.999   0.906   8.064 -0.3207  0.2965 -0.3987
 8220SOL    HW136119   2.968   0.824   8.025  2.0784  0.0604 -1.7733
 8220SOL    HW236120   2.939   0.971   8.026 -0.4989  0.4254  0.0943
 8221SOL     OW36121   2.405   3.750   2.655  0.2639 -0.1822  0.5239
 8221SOL    HW136122   2.352   3.703   2.591  0.0472  0.9597 -0.1508
 8221SOL    HW236123   2.492   3.738   2.616  0.8101 -0.4566  1.8185
 8222SOL     OW36124   0.071   3.934  11.855  0.4202 -0.0052  0.2979
 8222SOL    HW136125   4.700   3.951  11.855  0.4382  0.0515  2.3557
 8222SOL    HW236126   0.108   4.023  11.860 -0.4224  0.3276  0.6196
 8223SOL     OW36127   2.364   1.342   6.130  0.0900  0.1084 -0.2923
 8223SOL    HW136128   2.350   1.283   6.056  1.7812 -0.6709  0.0057
 8223SOL    HW236129   2.372   1.294   6.213 -0.6352 -0.4725 -0.5583
 8224SOL     OW36130   2.637   4.623   5.400  0.5246 -0.5790 -0.6233
 8224SOL    HW136131   2.599   4.633   5.488  3.3918  0.7969  0.4560
 8224SOL    HW236132   2.710   4.684   5.409  0.2648 -0.5488  1.3001
 8225SOL     OW36133   4.458   4.583  16.941  0.6313  0.2126 -0.4780
 8225SOL    HW136134   4.414   4.589  17.026 -1.4681  1.6646 -1.6407
 8225SOL    HW236135   4.441   4.667  16.897 -0.2784  1.6000  2.5100
 8226SOL     OW36136   2.822   0.078   5.433  0.4861 -0.5687 -0.3217
 8226SOL    HW136137   2.857   0.111   5.350 -1.2790  1.3987 -0.2755
 8226SOL    HW236138   2.890   0.112   5.490  0.0365  1.2155 -0.8461
 8227SOL     OW36139   1.010   0.179   1.607 -0.2608  0.1438  0.1217
 8227SOL    HW136140   0.930   0.127   1.605 -0.5560  0.6666 -2.4013
 8227SOL    HW236141   0.983   0.234   1.681 -0.2645  0.0692  0.1752
 8228SOL     OW36142   0.336   4.384   2.757  0.3304 -0.0413 -0.2828
 8228SOL    HW136143   0.363   4.445   2.688 -0.7216 -1.1542 -1.6599
 8228SOL    HW236144   0.412   4.326   2.761  0.1862 -0.2882 -1.0409
 8229SOL     OW36145   2.697   0.686   8.068 -0.1987  0.6864  0.6596
 8229SOL    HW136146   2.705   0.781   8.080 -0.8375  0.9718 -1.0554
 8229SOL    HW236147   2.708   0.658   8.158  1.8432 -0.6925 -0.0253
 8230SOL     OW36148   2.399   3.069  11.710  0.3054  0.7128  0.2914
 8230SOL    HW136149   2.422   3.149  11.757  2.1572  0.7791 -0.7233
 8230SOL    HW236150   2.364   3.008  11.775 -0.4580 -0.6755 -1.4221
 8231SOL     OW36151   1.694   3.278   0.858 -0.1310 -0.2556 -0.1145
 8231SOL    HW136152   1.601   3.293   0.875  0.0040  0.1043  0.3120
 8231SOL    HW236153   1.702   3.235   0.773 -1.3404  1.4215 -1.0730
 8232SOL     OW36154   3.079   0.004   0.019 -0.4203  0.1597 -0.1911
 8232SOL    HW136155   3.027   0.038  17.640 -1.3254 -0.4553  0.1599
 8232SOL    HW236156   3.168   4.715  17.679  0.1359 -0.3854  1.4960
 8233SOL     OW36157   3.313   1.531   2.647 -0.3297 -0.5680 -0.5287
 8233SOL    HW136158   3.311   1.605   2.707  0.8483  1.2410 -2.6864
 8233SOL    HW236159   3.373   1.562   2.579 -0.0776  2.5925  1.1242
 8234SOL     OW36160   0.774   1.972  17.329  0.2275 -0.6523  0.4978
 8234SOL    HW136161   0.745   2.051  17.376  1.3494  0.4271 -0.6316
 8234SOL    HW236162   0.719   1.908  17.374 -1.0021 -2.3972 -3.4728
 8235SOL     OW36163   3.533   3.564   5.792 -0.2767  0.4897 -0.0283
 8235SOL    HW136164   3.490   3.594   5.713  1.0254 -2.5825 -1.9105
 8235SOL    HW236165   3.604   3.509   5.758 -2.0344 -2.3245  0.8115
 8236SOL     OW36166   1.714   2.203  10.806  0.1243  0.0391  0.1451
 8236SOL    HW136167   1.675   2.119  10.830 -0.1933 -0.0528 -0.6693
 8236SOL    HW236168   1.654   2.236  10.738  0.0156 -0.3780  0.0358
 8237SOL     OW36169   4.360   4.266   5.562  0.2678 -0.0269  0.0360
 8237SOL    HW136170   4.319   4.321   5.496  1.7474 -1.0617 -1.7480
 8237SOL    HW236171   4.324   4.182   5.534  1.7316  0.4193 -3.1115
 8238SOL     OW36172   4.656   1.273  13.281  0.2504  0.1403 -0.8511
 8238SOL    HW136173   4.707   1.332  13.337  0.0101  1.2691 -1.8325
 8238SOL    HW236174   4.713   1.197  13.282  1.7303  1.2308 -1.3877
 8239SOL     OW36175   2.457   2.888   8.938  0.1834 -0.1738 -0.1483
 8239SOL    HW136176   2.401   2.831   8.991 -0.4452  1.3724  0.8718
 8239SOL    HW236177   2.498   2.946   9.003  0.4362 -1.2821  0.6760
 8240SOL     OW36178   2.043   2.799   5.944  0.0597  0.5270 -0.2628
 8240SOL    HW136179   2.058   2.893   5.949 -0.4040  0.7018 -2.1138
 8240SOL    HW236180   2.136   2.777   5.939 -0.1042 -0.3419  0.6016
 8241SOL     OW36181   3.454   3.708   2.058 -0.2895 -0.0145  0.0116
 8241SOL    HW136182   3.533   3.740   2.015 -0.1720 -1.2932 -0.7114
 8241SOL    HW236183   3.459   3.750   2.143  0.5742  0.3818 -0.2389
 8242SOL     OW36184   4.477   1.748  13.363  0.2902 -0.0072 -0.4330
 8242SOL    HW136185   4.430   1.792  13.293 -0.7145  0.9815  0.8661
 8242SOL    HW236186   4.434   1.665  13.342 -0.2939  0.3138 -0.4962
 8243SOL     OW36187   0.539   4.065  15.004 -0.0801  0.3213  0.0198
 8243SOL    HW136188   0.533   4.160  14.987 -0.1173 -0.2009 -2.9732
 8243SOL    HW236189   0.629   4.052  15.032 -0.6980 -1.7283  1.0610
 8244SOL     OW36190   4.155   4.071   1.677 -0.3007 -0.3788 -0.5581
 8244SOL    HW136191   4.071   4.101   1.712 -0.3269 -0.7264 -0.3246
 8244SOL    HW236192   4.128   3.984   1.647 -0.0943 -1.1669  1.5654
 8245SOL     OW36193   1.633   2.692   7.609  0.3168 -0.1251 -0.2577
 8245SOL    HW136194   1.616   2.786   7.602  1.7324  0.0677 -1.1556
 8245SOL    HW236195   1.587   2.670   7.689 -1.5646  2.1379 -0.6990
 8246SOL     OW36196   2.286   1.269   4.379  0.4084  0.0888 -0.1014
 8246SOL    HW136197   2.331   1.311   4.453  1.7819 -0.9138 -0.3837
 8246SOL    HW236198   2.281   1.341   4.317 -0.0426  0.0869 -0.0703
 8247SOL     OW36199   1.917   2.483   7.707  0.1607 -0.0761  0.4963
 8247SOL    HW136200   1.843   2.460   7.764  0.9671 -1.6321  0.9085
 8247SOL    HW236201   1.953   2.570   7.722 -0.7316  0.4378 -0.3279
 8248SOL     OW36202   4.698   3.100   6.501  0.0594  0.0145 -0.3106
 8248SOL    HW136203   0.049   3.138   6.549 -1.0829  2.2703 -0.3012
 8248SOL    HW236204   4.671   3.024   6.552 -0.7005 -0.9112 -2.0704
 8249SOL     OW36205   1.984   2.092   7.913 -0.2170 -0.4955  0.5133
 8249SOL    HW136206   2.054   2.122   7.972  0.4010 -2.0642  0.5719
 8249SOL    HW236207   1.932   2.173   7.912  0.8754  0.2060  0.1329
 8250SOL     OW36208   4.428   3.861   0.441 -0.3643  0.3140 -0.2840
 8250SOL    HW136209   4.473   3.924   0.385  1.2120 -0.2117  0.3749
 8250SOL    HW236210   4.336   3.882   0.431 -0.9693 -1.9161  0.5708
 8251SOL     OW36211   0.336   3.270  15.214 -0.3299 -0.0920 -0.0617
 8251SOL    HW136212   0.428   3.288  15.231 -0.4214  1.2530 -1.0430
 8251SOL    HW236213   0.301   3.356  15.192  1.0164  0.5813  0.4870
 8252SOL     OW36214   2.804   3.410   5.351 -0.0570 -0.0311  0.9830
 8252SOL    HW136215   2.844   3.497   5.343  0.9455 -0.3963  2.1134
 8252SOL    HW236216   2.719   3.427   5.391  0.8652  2.0644  2.1112
 8253SOL     OW36217   2.993   1.249   8.908 -0.6321  0.2581 -0.4524
 8253SOL    HW136218   2.919   1.237   8.848 -0.9979  0.7732 -0.1066
 8253SOL    HW236219   2.952   1.203   8.982  2.2969 -0.9746  0.4170
 8254SOL     OW36220   0.632   4.606   8.217  0.1201  0.1332  0.4660
 8254SOL    HW136221   0.631   4.582   8.310 -1.0619  1.6849  0.8424
 8254SOL    HW236222   0.724   4.592   8.195 -0.2570  0.9930 -1.6228
 8255SOL     OW36223   0.242   1.246   6.901  0.1855  0.9530  0.3512
 8255SOL    HW136224   0.314   1.225   6.961  0.4933  1.9110  0.3205
 8255SOL    HW236225   0.290   1.266   6.821 -2.0638  0.8625 -1.0253
 8256SOL     OW36226   3.242   2.796   4.248 -0.2826  0.3746 -0.5124
 8256SOL    HW136227   3.184   2.729   4.212  0.3196 -1.3272  1.6546
 8256SOL    HW236228   3.213   2.875   4.203 -1.8433 -0.1643 -0.4673
 8257SOL     OW36229   2.928   1.594   2.941 -0.3053 -0.2856  0.3076
 8257SOL    HW136230   2.834   1.607   2.945 -0.2547  0.1410  0.0858
 8257SOL    HW236231   2.916   1.538   2.864 -1.8705  1.2874 -0.5949
 8258SOL     OW36232   3.501   4.674   6.084 -0.0070 -0.5324 -0.4448
 8258SOL    HW136233   3.590   4.688   6.116  0.6239 -0.7931 -2.0692
 8258SOL    HW236234   3.470   4.628   6.162  0.3184 -0.5201 -0.3087
 8259SOL     OW36235   1.409   0.450   6.578 -0.0143  0.1131 -0.2808
 8259SOL    HW136236   1.496   0.436   6.542 -0.4004 -0.6052 -0.9460
 8259SOL    HW236237   1.417   0.524   6.638  2.6375 -0.3081 -0.1225
 8260SOL     OW36238   1.395   2.219   9.851  0.1511  0.3852  0.2065
 8260SOL    HW136239   1.325   2.183   9.905  0.8254  1.2516  1.6615
 8260SOL    HW236240   1.350   2.220   9.767 -0.3518 -0.0005  0.4684
 8261SOL     OW36241   3.553   0.930  10.125 -0.0526 -0.5812  0.5298
 8261SOL    HW136242   3.622   0.981  10.167 -2.3684  0.2309  3.3186
 8261SOL    HW236243   3.583   0.839  10.131 -1.1144 -0.8481  1.9949
 8262SOL     OW36244   1.179   4.189   5.360 -0.2836 -0.0613 -0.5332
 8262SOL    HW136245   1.090   4.156   5.349 -0.4390  0.6320 -1.4280
 8262SOL    HW236246   1.228   4.135   5.299 -0.6244  1.8189 -2.4935
 8263SOL     OW36247   1.046   2.233   5.103 -0.0353  0.3791 -0.3598
 8263SOL    HW136248   1.014   2.147   5.077  0.6237 -0.6917  2.3872
 8263SOL    HW236249   0.957   2.267   5.114 -0.2143  0.1124 -0.9861
 8264SOL     OW36250   4.080   4.074   4.162 -0.1291 -0.2388  0.9551
 8264SOL    HW136251   4.018   4.107   4.227 -0.8850  0.8749 -0.3299
 8264SOL    HW236252   4.048   4.122   4.086  1.3679 -1.9966 -0.7894
 8265SOL     OW36253   1.718   1.147   4.175  0.0110 -0.1516 -0.2783
 8265SOL    HW136254   1.727   1.052   4.168 -1.0803 -0.1715 -1.4588
 8265SOL    HW236255   1.802   1.181   4.147 -0.8302  1.6437 -0.6327
 8266SOL     OW36256   0.349   3.052  13.102 -0.3751  0.1351 -0.2693
 8266SOL    HW136257   0.426   3.109  13.099 -0.9084  0.8164 -0.9597
 8266SOL    HW236258   0.390   2.965  13.112  0.4701  0.6813  1.0823
 8267SOL     OW36259   3.541   0.102   0.930  0.1119  0.0494  0.0386
 8267SOL    HW136260   3.492   0.113   0.849  1.2393  0.4609 -0.5879
 8267SOL    HW236261   3.503   0.021   0.963  1.4142 -0.1096  1.1890
 8268SOL     OW36262   1.302   2.041   7.503  0.4205  0.0953  0.2182
 8268SOL    HW136263   1.313   2.136   7.510  0.3775  0.1175 -0.0386
 8268SOL    HW236264   1.392   2.012   7.520  0.5391  0.6052  0.4637
 8269SOL     OW36265   1.247   1.537   6.258 -0.5969  0.6705 -0.5407
 8269SOL    HW136266   1.212   1.481   6.189  0.2238 -0.2705 -0.1942
 8269SOL    HW236267   1.315   1.479   6.290 -1.7443 -0.8779 -0.9036
 8270SOL     OW36268   3.909   3.375   0.271 -0.9050  0.1819 -0.1590
 8270SOL    HW136269   3.855   3.342   0.343 -0.3618 -1.2155 -0.3847
 8270SOL    HW236270   3.893   3.469   0.275  1.6189  0.5689  0.9237
 8271SOL     OW36271   3.811   4.513   0.019 -0.3826 -0.3294  0.0637
 8271SOL    HW136272   3.765   4.498  17.630 -0.1522  0.0155 -0.1283
 8271SOL    HW236273   3.834   4.422   0.040 -0.9778  0.0681  2.3819
 8272SOL     OW36274   2.657   4.050   0.165 -0.0552  0.4726  0.2895
 8272SOL    HW136275   2.651   3.956   0.184 -0.6168  0.0608 -1.8503
 8272SOL    HW236276   2.728   4.074   0.223  1.1577 -0.0963 -0.9536
 8273SOL     OW36277   1.609   0.392   9.171 -0.5461  0.9303 -0.6903
 8273SOL    HW136278   1.683   0.332   9.175 -1.1235  0.1693 -1.1178
 8273SOL    HW236279   1.574   0.366   9.085 -2.4252 -0.0965  0.3690
 8274SOL     OW36280   3.700   4.417   8.006  0.2208  0.3476  0.3916
 8274SOL    HW136281   3.607   4.395   8.000 -0.1149  1.2661  2.3900
 8274SOL    HW236282   3.692   4.512   7.996  2.9107  0.7319  1.8910
 8275SOL     OW36283   4.433   1.199   1.316 -0.5711  0.4712 -0.1823
 8275SOL    HW136284   4.407   1.282   1.278  4.0686  1.2839 -1.5616
 8275SOL    HW236285   4.460   1.223   1.405  0.1559 -0.4171 -0.1563
 8276SOL     OW36286   4.517   2.730   1.185  0.2843 -0.2654  0.0354
 8276SOL    HW136287   4.474   2.734   1.099 -0.5847  1.3484  0.5366
 8276SOL    HW236288   4.494   2.643   1.217 -0.2159 -0.3338 -0.4982
 8277SOL     OW36289   0.533   1.965  10.037  0.4073  0.3281 -0.0911
 8277SOL    HW136290   0.438   1.957  10.025  0.3013  2.1431 -0.5813
 8277SOL    HW236291   0.530   1.925  10.124  1.5100 -0.0338 -0.2276
 8278SOL     OW36292   4.619   3.250   0.866 -0.2070 -0.0292  0.1257
 8278SOL    HW136293   4.674   3.187   0.819  1.2259  0.1473  1.5649
 8278SOL    HW236294   4.622   3.210   0.953  1.2113  1.0132  0.5593
 8279SOL     OW36295   0.969   1.122   2.992  0.0959  0.3526  0.3945
 8279SOL    HW136296   1.009   1.113   2.906  0.1396  1.1252  0.3360
 8279SOL    HW236297   0.888   1.164   2.966  0.9057  2.5191  1.3579
 8280SOL     OW36298   3.562   3.468  10.481  0.1489 -0.2568  0.1095
 8280SOL    HW136299   3.500   3.446  10.551  0.3726 -0.2941  0.2951
 8280SOL    HW236300   3.553   3.563  10.491 -0.6208 -0.2810 -0.3268
 8281SOL     OW36301   3.518   3.172   8.241 -0.6810 -0.1657  0.3042
 8281SOL    HW136302   3.597   3.190   8.291 -0.1641  0.8341 -0.8481
 8281SOL    HW236303   3.472   3.250   8.274 -0.1372  0.0641  0.5217
 8282SOL     OW36304   2.963   3.212   5.483 -0.1630 -0.2290 -0.0453
 8282SOL    HW136305   2.913   3.277   5.433 -0.9118 -0.3167  0.5947
 8282SOL    HW236306   3.027   3.270   5.524 -0.3500  0.9122 -1.3664
 8283SOL     OW36307   1.869   2.140   3.745  0.0059  0.4806 -0.9007
 8283SOL    HW136308   1.962   2.158   3.734  0.0178  0.3841 -0.9562
 8283SOL    HW236309   1.881   2.050   3.774 -0.9628  1.0414  1.2852
 8284SOL     OW36310   3.770   2.985   8.126 -0.1837  1.2698 -0.4277
 8284SOL    HW136311   3.787   2.934   8.205 -0.6953 -0.0477 -1.1739
 8284SOL    HW236312   3.765   3.075   8.158  1.5417  1.6524 -1.2261
 8285SOL     OW36313   3.332   4.222   2.637  0.0670  0.4181  0.2122
 8285SOL    HW136314   3.393   4.287   2.603  1.7561 -1.9401 -1.2601
 8285SOL    HW236315   3.268   4.229   2.566 -0.1436  0.2445  0.3845
 8286SOL     OW36316   4.431   0.246   5.583  0.0656  0.0263 -0.0599
 8286SOL    HW136317   4.416   0.230   5.490  2.5220  0.4364 -0.5374
 8286SOL    HW236318   4.469   0.162   5.609 -0.9043 -0.4653 -0.2317
 8287SOL     OW36319   0.308   0.880  10.764 -0.2088 -0.4015  0.4304
 8287SOL    HW136320   0.337   0.969  10.784  0.4530 -1.1758  2.9846
 8287SOL    HW236321   0.215   0.883  10.787  0.1202  0.7758  1.5920
 8288SOL     OW36322   1.993   0.402   3.899  0.1182  0.5097  0.2907
 8288SOL    HW136323   1.915   0.364   3.940  0.5529 -0.2747  0.3896
 8288SOL    HW236324   1.997   0.352   3.818  0.2997  1.2266 -0.1366
 8289SOL     OW36325   2.964   0.525   5.539  0.1445  0.4360 -0.2397
 8289SOL    HW136326   3.037   0.507   5.479  0.1935 -1.3081  0.3445
 8289SOL    HW236327   2.916   0.450   5.502 -0.4723 -0.8438  3.1623
 8290SOL     OW36328   2.894   0.460   3.360 -0.4678 -0.5863  0.1614
 8290SOL    HW136329   2.903   0.537   3.303  1.4436 -1.7837 -1.1886
 8290SOL    HW236330   2.878   0.389   3.298  0.5969  0.0012 -0.8056
 8291SOL     OW36331   4.542   2.800   0.204 -0.2456 -0.6333  0.5230
 8291SOL    HW136332   4.599   2.876   0.193 -1.0551 -0.4167 -2.2698
 8291SOL    HW236333   4.595   2.739   0.255 -0.4599  0.6897  2.3348
 8292SOL     OW36334   2.685   0.937   2.497 -0.3576  0.3514 -0.1011
 8292SOL    HW136335   2.740   0.894   2.431  0.3971 -1.3620  1.6435
 8292SOL    HW236336   2.639   0.863   2.536 -2.6184  2.0946  0.5427
 8293SOL     OW36337   4.211   4.183   5.119 -0.4875 -0.3901  0.1339
 8293SOL    HW136338   4.299   4.146   5.111 -1.0032 -1.3287 -1.1033
 8293SOL    HW236339   4.156   4.127   5.064 -1.8915  1.1676 -0.0561
 8294SOL     OW36340   2.766   0.180   9.669  0.1221 -0.1668 -0.1291
 8294SOL    HW136341   2.711   0.147   9.740  0.9582 -2.0017 -0.3466
 8294SOL    HW236342   2.826   0.234   9.720 -1.0778  1.0100  0.0606
 8295SOL     OW36343   2.943   3.515  10.003  0.0389 -0.2833 -0.5718
 8295SOL    HW136344   2.928   3.596  10.052 -1.1043 -3.4041  4.2851
 8295SOL    HW236345   3.034   3.493  10.021  0.0456 -1.1428 -1.6985
 8296SOL     OW36346   3.785   3.956   3.307 -0.1440  0.1251  0.2565
 8296SOL    HW136347   3.848   4.026   3.287 -1.5117  2.3535  3.9402
 8296SOL    HW236348   3.793   3.973   3.400  0.7871 -0.2767  0.2543
 8297SOL     OW36349   1.549   1.322   8.410 -0.3300 -0.5942  0.2694
 8297SOL    HW136350   1.644   1.333   8.422 -0.0941 -1.0595 -1.2120
 8297SOL    HW236351   1.512   1.370   8.484 -0.6482  0.0870 -0.3315
 8298SOL     OW36352   3.185   3.778   9.851 -0.2644 -0.6795 -0.0545
 8298SOL    HW136353   3.279   3.765   9.836 -0.1896 -0.2499  0.0498
 8298SOL    HW236354   3.158   3.690   9.822  1.4895 -0.5806 -2.0099
 8299SOL     OW36355   3.878   2.188   9.109  0.0179 -0.3593 -0.2321
 8299SOL    HW136356   3.962   2.200   9.066 -0.6865  1.8305 -1.0054
 8299SOL    HW236357   3.863   2.266   9.163  0.5555 -0.2391 -0.2660
 8300SOL     OW36358   0.599   2.697  11.307  0.4382  0.3357  0.3495
 8300SOL    HW136359   0.572   2.743  11.228  2.3802 -0.4202 -0.7391
 8300SOL    HW236360   0.525   2.637  11.311 -1.6606  2.7810 -1.8931
 8301SOL     OW36361   4.183   2.794   6.792  0.7004  0.0019  0.5130
 8301SOL    HW136362   4.142   2.755   6.869 -0.7111  2.2116  0.8749
 8301SOL    HW236363   4.235   2.726   6.749 -0.4074 -0.8421  0.4844
 8302SOL     OW36364   2.126   0.000  15.608  0.4795 -0.1879 -0.2800
 8302SOL    HW136365   2.187   4.657  15.573 -0.4887  0.0172 -2.3595
 8302SOL    HW236366   2.049   4.667  15.617  0.3428  0.1632  0.6969
 8303SOL     OW36367   0.269   2.206  15.355 -0.2284 -0.0577 -0.1976
 8303SOL    HW136368   0.334   2.275  15.347 -0.5242  0.1934 -0.4662
 8303SOL    HW236369   0.258   2.172  15.266 -0.7928 -2.6894  0.8805
 8304SOL     OW36370   1.623   1.555   2.706 -0.2491  0.3907  0.0038
 8304SOL    HW136371   1.623   1.616   2.780  1.2283  0.5038 -0.0928
 8304SOL    HW236372   1.677   1.594   2.638 -0.9388  1.8326  0.2757
 8305SOL     OW36373   0.348   3.431   1.465  0.8710  0.0011 -0.1380
 8305SOL    HW136374   0.370   3.394   1.379 -1.4935 -2.5034  0.3077
 8305SOL    HW236375   0.255   3.417   1.485  0.6568 -0.3351 -1.3570
 8306SOL     OW36376   3.664   1.655   1.998  0.7055 -0.3725  0.0316
 8306SOL    HW136377   3.691   1.652   2.089  1.7408 -0.9331 -0.2969
 8306SOL    HW236378   3.595   1.588   1.998  1.7994 -1.5270 -3.1092
 8307SOL     OW36379   4.475   2.706   3.193  0.7652 -0.1245 -0.1117
 8307SOL    HW136380   4.454   2.798   3.173 -0.1603 -0.4043 -0.4232
 8307SOL    HW236381   4.548   2.715   3.254  2.2473 -1.2444 -1.7424
 8308SOL     OW36382   1.177   0.178   3.054  0.2639  0.0516 -0.0238
 8308SOL    HW136383   1.221   0.094   3.042 -0.7917 -0.5223  0.1788
 8308SOL    HW236384   1.159   0.206   2.965 -0.8350 -2.4738 -0.5882
 8309SOL     OW36385   1.277   2.927   1.603 -0.3839 -0.5544 -0.5263
 8309SOL    HW136386   1.262   3.001   1.544 -0.8858  1.4996  2.1549
 8309SOL    HW236387   1.189   2.909   1.637 -0.1738 -2.2347 -0.8823
 8310SOL     OW36388   1.546   1.188   9.560 -0.8251  0.1902  0.3560
 8310SOL    HW136389   1.525   1.097   9.582  0.0042 -0.1720 -0.3218
 8310SOL    HW236390   1.466   1.234   9.585 -0.7126  0.9926 -0.7344
 8311SOL     OW36391   2.751   1.829   8.151 -0.2669  0.0103  0.5215
 8311SOL    HW136392   2.769   1.919   8.177 -0.3931 -0.1866  1.2854
 8311SOL    HW236393   2.802   1.778   8.213  1.7252  3.6034  1.8082
 8312SOL     OW36394   1.342   1.044  10.390 -0.1908 -0.1107  0.3625
 8312SOL    HW136395   1.307   1.130  10.412  2.1076  1.4082 -1.7910
 8312SOL    HW236396   1.436   1.059  10.378  0.5083 -2.7029  2.6079
 8313SOL     OW36397   2.704   3.517   3.444  0.6812  0.2107  0.7008
 8313SOL    HW136398   2.756   3.449   3.487  2.2821  1.0263  0.0395
 8313SOL    HW236399   2.768   3.548   3.380 -0.6556 -1.8040 -1.5971
 8314SOL     OW36400   3.703   4.540   6.389  0.0444 -0.4393 -0.1410
 8314SOL    HW136401   3.785   4.549   6.439 -1.9221 -0.0923  3.0340
 8314SOL    HW236402   3.703   4.611   6.325  1.1664 -0.5360 -0.2548
 8315SOL     OW36403   2.430   3.074  12.496  0.2506  0.2478 -0.2357
 8315SOL    HW136404   2.437   3.105  12.406  1.1200  1.4609  0.2609
 8315SOL    HW236405   2.343   3.103  12.523  0.1570  2.1804 -2.5880
 8316SOL     OW36406   2.432   2.708   5.471  0.3237 -0.0340  0.4909
 8316SOL    HW136407   2.447   2.722   5.377 -0.7551  0.9396  0.4620
 8316SOL    HW236408   2.337   2.691   5.474 -0.0790  2.2073  0.4355
 8317SOL     OW36409   3.677   3.976  12.182  0.1890 -0.6589 -0.0801
 8317SOL    HW136410   3.642   3.891  12.153  0.1791 -0.7193  0.1070
 8317SOL    HW236411   3.739   4.007  12.117  0.3972 -2.5279 -0.7826
 8318SOL     OW36412   2.358   0.660   9.473  0.2675 -0.4453 -0.0237
 8318SOL    HW136413   2.394   0.702   9.551 -2.9348 -1.4632  2.0251
 8318SOL    HW236414   2.423   0.678   9.405 -1.8489  2.1274 -1.3853
 8319SOL     OW36415   1.554   2.322   7.699 -0.2335 -0.2203  1.0107
 8319SOL    HW136416   1.461   2.346   7.694 -0.1883 -0.0284  1.0992
 8319SOL    HW236417   1.582   2.339   7.610 -1.7157  2.4418  1.0505
 8320SOL     OW36418   2.150   0.989  11.630 -0.1157 -0.0937  0.2409
 8320SOL    HW136419   2.234   0.999  11.674  0.2323  0.6069 -0.5948
 8320SOL    HW236420   2.149   0.899  11.598  2.3668 -0.6674  1.7784
 8321SOL     OW36421   3.204   1.508  11.825  0.1772  0.0261  0.5223
 8321SOL    HW136422   3.224   1.591  11.781 -0.7654 -1.1516 -2.1422
 8321SOL    HW236423   3.108   1.502  11.823  0.3352 -0.9923 -3.4792
 8322SOL     OW36424   2.879   3.468   6.071  0.3559  0.6231 -0.3535
 8322SOL    HW136425   2.837   3.397   6.119  0.7264  0.0075 -0.9378
 8322SOL    HW236426   2.954   3.494   6.125  0.8096 -0.6872 -0.3588
 8323SOL     OW36427   1.654   0.546   3.693  0.7833  0.1111  0.2843
 8323SOL    HW136428   1.658   0.450   3.694  1.4317  0.1503  1.8704
 8323SOL    HW236429   1.738   0.580   3.661 -0.7019  3.0712 -0.4702
 8324SOL     OW36430   0.560   2.908   8.345  1.1576 -0.0663 -0.3615
 8324SOL    HW136431   0.644   2.953   8.338  1.1452  0.3864  2.2940
 8324SOL    HW236432   0.590   2.827   8.387 -0.9249  0.0422  1.3391
 8325SOL     OW36433   1.599   3.782   5.512 -0.5971 -0.1586 -0.4539
 8325SOL    HW136434   1.566   3.742   5.593  0.5313 -1.3633 -0.6036
 8325SOL    HW236435   1.591   3.709   5.451 -1.5099  0.0017 -0.5238
 8326SOL     OW36436   2.463   2.484   2.502  0.6755  0.1944 -0.8992
 8326SOL    HW136437   2.367   2.489   2.505  0.6209 -2.5595  1.3280
 8326SOL    HW236438   2.480   2.408   2.557 -2.2696 -0.5080 -0.9746
 8327SOL     OW36439   1.004   0.596   2.370  0.1400 -0.3053  0.1084
 8327SOL    HW136440   1.057   0.665   2.410  2.1848 -1.2173 -1.0083
 8327SOL    HW236441   0.945   0.656   2.324 -1.4658 -1.5689  0.4987
 8328SOL     OW36442   3.091   4.101   3.895  0.1556  0.1225 -0.2412
 8328SOL    HW136443   3.183   4.122   3.876  0.3192  1.7695  2.4333
 8328SOL    HW236444   3.081   4.018   3.848  1.3687 -1.3671  2.1306
 8329SOL     OW36445   1.829   3.167   6.486 -0.6642  0.4988 -0.1632
 8329SOL    HW136446   1.914   3.195   6.452 -0.7771 -1.5239 -2.1239
 8329SOL    HW236447   1.797   3.236   6.545 -1.2668 -0.8067  1.0273
 8330SOL     OW36448   1.382   1.633  16.765  0.0850 -0.2196 -0.1867
 8330SOL    HW136449   1.387   1.657  16.672  0.3647  1.2954  0.2227
 8330SOL    HW236450   1.343   1.712  16.802 -1.4464 -1.3114  0.5339
 8331SOL     OW36451   3.552   1.521   4.628 -0.4721 -0.3254  0.0336
 8331SOL    HW136452   3.619   1.586   4.606  0.6836 -1.3414  0.5762
 8331SOL    HW236453   3.533   1.553   4.716  2.8254 -1.3390  1.1156
 8332SOL     OW36454   1.260   4.328  10.353 -0.6436  0.0908 -0.2770
 8332SOL    HW136455   1.207   4.248  10.358 -0.5693  0.2085  2.3023
 8332SOL    HW236456   1.217   4.377  10.423  0.8941 -1.4488  1.7199
 8333SOL     OW36457   0.526   4.564   3.923 -0.0181 -0.8474  0.5444
 8333SOL    HW136458   0.549   4.634   3.984 -0.4943 -1.2377  1.1750
 8333SOL    HW236459   0.509   4.488   3.979 -3.8560 -0.4161 -0.0113
 8334SOL     OW36460   1.768   2.738   6.527 -0.0671  0.6685 -0.2436
 8334SOL    HW136461   1.800   2.674   6.591 -0.2183  0.9897  0.1506
 8334SOL    HW236462   1.808   2.711   6.445  2.2358 -1.4082  1.5718
 8335SOL     OW36463   0.494   4.331   4.056  0.6155  0.1937 -0.1394
 8335SOL    HW136464   0.443   4.278   4.117 -2.4876  0.8664 -2.1477
 8335SOL    HW236465   0.538   4.268   3.999  0.8434  0.4821 -0.2802
 8336SOL     OW36466   3.245   3.384  10.918  0.1837 -0.1624  0.7557
 8336SOL    HW136467   3.165   3.431  10.941 -0.0720  0.5291 -1.5750
 8336SOL    HW236468   3.199   3.301  10.913 -0.4301  0.3147 -1.3308
 8337SOL     OW36469   1.923   4.348   3.989 -0.6623 -0.4548  0.3521
 8337SOL    HW136470   1.888   4.294   3.918  0.6686  0.5961 -1.0968
 8337SOL    HW236471   1.838   4.386   4.011 -0.3750 -0.3321  1.2398
 8338SOL     OW36472   0.334   0.170   2.789 -0.3482  0.3405 -0.3037
 8338SOL    HW136473   0.308   0.220   2.711  0.8100  1.9921  0.3849
 8338SOL    HW236474   0.288   0.217   2.859 -1.5686 -0.5692 -0.4981
 8339SOL     OW36475   2.636   3.982   8.230 -0.1393  0.4476 -0.0089
 8339SOL    HW136476   2.609   3.890   8.229 -0.3626  0.5505 -1.9231
 8339SOL    HW236477   2.638   3.991   8.326 -0.6589  0.3992  0.0084
 8340SOL     OW36478   1.138   0.262  13.288  0.5214  0.1598  0.3638
 8340SOL    HW136479   1.049   0.226  13.281  0.2200  0.7379  1.2643
 8340SOL    HW236480   1.180   0.190  13.335  0.0308  0.3427  1.0749
 8341SOL     OW36481   3.664   4.065   4.972  0.6102 -0.4181  0.3630
 8341SOL    HW136482   3.577   4.039   5.001  0.5428  0.1785  0.6964
 8341SOL    HW236483   3.649   4.063   4.877  0.5292  1.7939  0.3252
 8342SOL     OW36484   0.302   4.126   1.350 -0.1004 -0.0586  0.3466
 8342SOL    HW136485   0.218   4.145   1.391  0.1594  0.2566  0.7405
 8342SOL    HW236486   0.342   4.213   1.343  0.0451  0.0660  2.6353
 8343SOL     OW36487   1.044   0.347   8.651 -0.5151 -0.2092 -0.1560
 8343SOL    HW136488   1.062   0.262   8.612  0.7859 -0.4557  0.9635
 8343SOL    HW236489   0.953   0.344   8.680 -0.7514 -0.1582 -0.9066
 8344SOL     OW36490   2.211   0.664   7.398  0.1197  0.3927 -0.3931
 8344SOL    HW136491   2.188   0.572   7.388 -4.2661  1.5200 -0.4430
 8344SOL    HW236492   2.150   0.700   7.462  1.6155  1.2753  0.5323
 8345SOL     OW36493   1.920   4.704   5.293  0.1994 -0.2363 -0.0126
 8345SOL    HW136494   1.994   0.042   5.283  0.4624 -0.6828 -0.7932
 8345SOL    HW236495   1.975   4.626   5.304 -0.9146 -0.7425  1.8098
 8346SOL     OW36496   4.408   2.306   8.746  0.3818 -0.4749 -0.2848
 8346SOL    HW136497   4.317   2.284   8.726  0.8553 -2.4564 -0.2255
 8346SOL    HW236498   4.400   2.311   8.842 -0.6915  2.6904 -0.5345
 8347SOL     OW36499   2.455   0.090  15.599 -0.4312 -0.3029 -0.5213
 8347SOL    HW136500   2.368   0.101  15.638 -0.1754  3.9125 -1.1181
 8347SOL    HW236501   2.430   0.093  15.506 -1.3053  1.8998 -0.2206
 8348SOL     OW36502   2.567   2.290  14.332 -0.5182  0.4669 -0.3810
 8348SOL    HW136503   2.526   2.214  14.374  0.1852 -0.6992 -1.7857
 8348SOL    HW236504   2.658   2.269  14.353 -1.0418  2.1748  3.4612
 8349SOL     OW36505   0.033   4.423   9.624 -0.2744 -0.4320  0.1137
 8349SOL    HW136506   4.699   4.441   9.550  0.2760  0.8694  0.0050
 8349SOL    HW236507   4.709   4.453   9.702  1.2559 -1.1525  1.3154
 8350SOL     OW36508   0.928   2.328  11.856  0.0690  0.0616 -0.0616
 8350SOL    HW136509   0.856   2.385  11.828 -0.4132 -1.4417 -1.8760
 8350SOL    HW236510   0.910   2.247  11.808 -2.6117  1.5273 -1.5238
 8351SOL     OW36511   3.365   3.159   1.756  0.0077 -0.4146  0.5086
 8351SOL    HW136512   3.356   3.109   1.675  1.9602 -0.5473  0.3827
 8351SOL    HW236513   3.447   3.197   1.724  0.3839 -1.2443  0.5154
 8352SOL     OW36514   1.413   4.084   5.824  0.1922 -0.2196 -0.2069
 8352SOL    HW136515   1.386   3.993   5.821  0.4262 -0.2306 -1.8256
 8352SOL    HW236516   1.475   4.077   5.897  1.2399 -0.5990 -1.1335
 8353SOL     OW36517   2.613   1.770   3.721 -0.2091  0.2835  0.7522
 8353SOL    HW136518   2.553   1.811   3.783  0.1467 -0.2059  1.4126
 8353SOL    HW236519   2.576   1.682   3.718 -3.5115  1.5960  3.9471
 8354SOL     OW36520   0.517   3.631  17.269  0.1826 -0.0707  0.2477
 8354SOL    HW136521   0.512   3.584  17.352  1.9711  0.7026  0.7874
 8354SOL    HW236522   0.612   3.638  17.259  0.4217 -1.8201  1.3374
 8355SOL     OW36523   2.107   3.460   3.354  0.7968 -0.8892 -0.7040
 8355SOL    HW136524   2.043   3.530   3.341  0.3462 -1.0387  0.7251
 8355SOL    HW236525   2.062   3.402   3.292  0.3080 -0.9873 -0.2570
 8356SOL     OW36526   0.345   2.744   5.005 -0.2337  0.0232 -0.1933
 8356SOL    HW136527   0.421   2.718   4.954 -0.9173 -2.0394 -0.1776
 8356SOL    HW236528   0.299   2.792   4.936 -1.3332  0.4989  0.8476
 8357SOL     OW36529   4.001   3.475  16.483  0.5141  0.3669 -0.1165
 8357SOL    HW136530   4.070   3.475  16.417  0.2134 -0.7503 -0.4259
 8357SOL    HW236531   3.930   3.433  16.435  1.1583 -4.1763  2.8700
 8358SOL     OW36532   0.369   0.705   7.498  0.3370  0.5149  0.2179
 8358SOL    HW136533   0.455   0.717   7.539 -0.2860 -0.5415  1.8197
 8358SOL    HW236534   0.367   0.759   7.418  2.8893  0.5479  0.1586
 8359SOL     OW36535   2.871   2.586  16.181 -0.4059 -0.4497 -0.0610
 8359SOL    HW136536   2.828   2.594  16.095 -2.0019 -1.1945  0.6767
 8359SOL    HW236537   2.815   2.651  16.223  1.8309  1.8919 -0.6850
 8360SOL     OW36538   2.572   3.404   2.191 -0.0625 -0.4324 -0.5426
 8360SOL    HW136539   2.549   3.496   2.183  2.3014  0.2715  0.6125
 8360SOL    HW236540   2.666   3.403   2.173  0.2902 -1.6059  1.3131
 8361SOL     OW36541   3.015   2.031   5.902 -0.3163 -0.1269  0.1946
 8361SOL    HW136542   3.073   1.982   5.844 -2.1987 -2.7613  0.5357
 8361SOL    HW236543   2.932   2.039   5.856 -1.1605 -0.6781  1.6390
 8362SOL     OW36544   0.733   4.552  11.661  0.1936  0.1312 -0.4044
 8362SOL    HW136545   0.755   4.635  11.620  1.3425  0.6497  1.2573
 8362SOL    HW236546   0.805   4.529  11.720  1.5589 -2.9924 -3.3176
 8363SOL     OW36547   3.616   1.910   2.740 -0.2936  0.4557 -0.7595
 8363SOL    HW136548   3.596   2.000   2.766  0.7330  0.9681 -1.7469
 8363SOL    HW236549   3.711   1.920   2.726  0.1934 -2.7656  0.3144
 8364SOL     OW36550   2.123   0.422   0.311  0.1814 -0.1617  0.6930
 8364SOL    HW136551   2.038   0.399   0.273  0.9516  2.2181 -2.4226
 8364SOL    HW236552   2.097   0.482   0.381 -0.5322 -0.9610  1.1092
 8365SOL     OW36553   1.829   3.968   2.245  0.0025 -0.8877  0.1277
 8365SOL    HW136554   1.740   3.985   2.276  0.3422  1.5530 -0.2113
 8365SOL    HW236555   1.825   3.989   2.152  1.0457  0.6200  0.4272
 8366SOL     OW36556   2.437   1.421   6.554 -0.1910  0.0630  0.6176
 8366SOL    HW136557   2.451   1.515   6.571 -1.5542  0.5536 -0.9414
 8366SOL    HW236558   2.437   1.383   6.642  1.2030  0.0830  0.6254
 8367SOL     OW36559   0.194   0.053   3.666 -0.1163 -0.0148 -0.0231
 8367SOL    HW136560   0.221   4.701   3.719 -1.3838  0.4835  1.3298
 8367SOL    HW236561   0.275   0.103   3.680  1.1324 -1.7894 -0.9353
 8368SOL     OW36562   4.001   0.662   2.775 -0.5849 -0.2345 -0.6128
 8368SOL    HW136563   3.968   0.591   2.722  0.5542 -0.2591 -1.2900
 8368SOL    HW236564   3.916   0.699   2.799 -0.4545 -1.1401  1.2893
 8369SOL     OW36565   4.666   2.955  12.367  0.0727 -0.4590  0.3152
 8369SOL    HW136566   4.643   2.925  12.455  0.8169 -1.1965  0.2645
 8369SOL    HW236567   4.589   3.008  12.351 -0.3105 -0.8397  0.8936
 8370SOL     OW36568   2.925   1.455   8.665 -0.3254 -0.3964  0.5092
 8370SOL    HW136569   2.994   1.409   8.616 -1.7815 -1.8961 -0.1200
 8370SOL    HW236570   2.898   1.395   8.735  0.0659 -0.9870  0.1544
 8371SOL     OW36571   2.440   2.789   4.093  0.3286 -0.1295  0.4026
 8371SOL    HW136572   2.350   2.759   4.099  0.1221  0.7939  1.8192
 8371SOL    HW236573   2.438   2.860   4.157  1.0905  0.2331  0.0302
 8372SOL     OW36574   4.044   0.169   4.996 -0.0911 -0.1939  0.0447
 8372SOL    HW136575   4.130   0.212   4.991  0.4874 -1.1059  2.2154
 8372SOL    HW236576   4.068   0.076   5.003  1.5373  0.1869 -0.3973
 8373SOL     OW36577   0.401   4.271   7.841 -0.5069  0.2969  0.0193
 8373SOL    HW136578   0.318   4.293   7.882 -0.6238  1.7386 -1.0042
 8373SOL    HW236579   0.380   4.208   7.772  1.6860 -2.4402  1.8532
 8374SOL     OW36580   1.328   2.893  14.412 -0.0140 -0.0715 -0.3142
 8374SOL    HW136581   1.277   2.970  14.387 -1.2300 -1.0235 -0.7955
 8374SOL    HW236582   1.364   2.870  14.326  2.6774  2.7028  0.0698
 8375SOL     OW36583   2.704   3.050   5.516  0.2179 -0.0058  0.3993
 8375SOL    HW136584   2.757   2.970   5.518  1.9171  1.0523 -1.6846
 8375SOL    HW236585   2.776   3.110   5.532  0.7069 -0.1098 -1.3652
 8376SOL     OW36586   4.339   0.954  13.862 -0.0613  0.3859 -0.3090
 8376SOL    HW136587   4.293   1.023  13.813 -0.7054 -0.4554 -0.8876
 8376SOL    HW236588   4.417   0.944  13.808 -0.7936  0.3423 -1.3600
 8377SOL     OW36589   1.816   1.866   7.548  0.6613 -0.1841  0.3213
 8377SOL    HW136590   1.810   1.777   7.583 -0.4538 -1.1307 -2.2919
 8377SOL    HW236591   1.813   1.912   7.632  2.9641 -1.4239  1.0867
 8378SOL     OW36592   0.108   4.492   4.986  0.2375 -0.7551 -0.3293
 8378SOL    HW136593   0.076   4.486   4.896  0.2248  1.3059 -0.4648
 8378SOL    HW236594   0.118   4.399   5.006  0.9228 -0.3416  1.1770
 8379SOL     OW36595   2.736   4.612   2.625  0.3743  0.1518  0.6194
 8379SOL    HW136596   2.728   4.517   2.613 -0.1826  0.0372  1.9728
 8379SOL    HW236597   2.647   4.642   2.606  0.5532  1.2128  1.4879
 8380SOL     OW36598   0.119   4.603  14.533  0.2930  0.1666  0.0657
 8380SOL    HW136599   0.034   4.574  14.566  1.1608  0.2866  2.4589
 8380SOL    HW236600   0.093   4.654  14.457  0.0143  3.1552  2.1757
 8381SOL     OW36601   4.087   1.188   0.072  0.1328  0.2925  0.3957
 8381SOL    HW136602   4.107   1.251   0.141 -2.2431 -0.2270  1.5574
 8381SOL    HW236603   4.106   1.232  17.682  0.0192  0.4393  0.4468
 8382SOL     OW36604   0.265   2.593  15.329  0.0853 -0.2887 -0.2018
 8382SOL    HW136605   0.332   2.537  15.368  1.4406  0.1919 -1.8310
 8382SOL    HW236606   0.308   2.627  15.250 -1.2799 -3.0374 -2.1007
 8383SOL     OW36607   0.452   1.268   3.737 -0.8624  0.2126 -0.0145
 8383SOL    HW136608   0.486   1.179   3.742  1.3227  1.0727  0.5899
 8383SOL    HW236609   0.492   1.305   3.658 -0.4068 -0.3360 -0.0424
 8384SOL     OW36610   4.285   1.109   6.638  0.0859 -0.3620 -0.1956
 8384SOL    HW136611   4.290   1.076   6.548  0.2821 -0.4663 -0.1448
 8384SOL    HW236612   4.198   1.094   6.677  0.9915  0.7037  2.2277
 8385SOL     OW36613   2.077   4.153   4.135 -0.3691 -0.2372  0.2146
 8385SOL    HW136614   2.018   4.220   4.101 -1.0177 -1.0161 -0.2035
 8385SOL    HW236615   2.150   4.209   4.159 -0.0835  0.2326 -1.8303
 8386SOL     OW36616   4.670   3.695  13.664 -1.0173 -0.3725 -0.1120
 8386SOL    HW136617   4.609   3.726  13.731 -1.0501  0.2844 -0.4425
 8386SOL    HW236618   4.671   3.601  13.683 -1.1976  0.4696  4.0169
 8387SOL     OW36619   1.939   3.888   3.044  0.3813 -0.3389  0.0846
 8387SOL    HW136620   1.937   3.978   3.078 -1.7349  0.6768 -2.6760
 8387SOL    HW236621   1.956   3.903   2.951 -2.0463 -0.0795 -0.3131
 8388SOL     OW36622   4.376   3.031   6.028  0.5737  0.5692 -0.1288
 8388SOL    HW136623   4.416   3.050   6.113  0.6422 -2.0633  0.4002
 8388SOL    HW236624   4.439   3.073   5.969 -1.4426 -0.1004 -2.7808
 8389SOL     OW36625   4.028   3.868   0.233  0.1102 -0.0272 -0.1104
 8389SOL    HW136626   4.098   3.911   0.281  0.0065 -1.2616  1.1589
 8389SOL    HW236627   4.083   3.798   0.198 -0.2076  0.4028 -1.4472
 8390SOL     OW36628   0.041   4.244   5.734 -0.4746  0.4083 -0.5017
 8390SOL    HW136629   4.717   4.266   5.653 -0.6305 -0.9543 -0.7830
 8390SOL    HW236630   4.688   4.202   5.775 -1.4584  1.5287 -1.1481
 8391SOL     OW36631   3.037   3.272  12.636  0.7594  0.3226 -0.1008
 8391SOL    HW136632   3.074   3.352  12.673  3.3060 -1.4956  1.2819
 8391SOL    HW236633   3.007   3.311  12.553  0.5270  1.5563  0.5594
 8392SOL     OW36634   4.460   0.257  13.406 -0.1669 -0.3264 -0.0326
 8392SOL    HW136635   4.398   0.276  13.476 -1.3703 -1.4508 -0.7992
 8392SOL    HW236636   4.495   0.343  13.384  0.4126 -0.6905 -0.5628
 8393SOL     OW36637   3.415   3.688  16.127 -0.1554 -0.1148  0.1828
 8393SOL    HW136638   3.462   3.687  16.044  0.7232 -2.3724  0.7085
 8393SOL    HW236639   3.323   3.670  16.104 -0.6219  0.5123  1.5190
 8394SOL     OW36640   1.588   3.655   5.032 -0.5139  0.1209  0.3324
 8394SOL    HW136641   1.633   3.589   4.980  0.5490  3.2808 -2.7758
 8394SOL    HW236642   1.621   3.623   5.116 -1.5135  1.3381  1.2031
 8395SOL     OW36643   2.649   4.237  12.937  0.7405 -0.0213  0.3312
 8395SOL    HW136644   2.642   4.141  12.932 -2.7759  0.3556 -1.4022
 8395SOL    HW236645   2.711   4.243  13.010 -0.0223  1.1781  0.8847
 8396SOL     OW36646   0.669   3.456  13.464  0.3703  0.2708  0.1936
 8396SOL    HW136647   0.742   3.446  13.526  1.4062 -0.9821 -1.1937
 8396SOL    HW236648   0.686   3.375  13.414  0.7853  1.5037 -1.6850
 8397SOL     OW36649   2.537   1.295  12.804  0.0528  0.2231 -0.5059
 8397SOL    HW136650   2.484   1.335  12.873 -0.6078 -1.6147  0.0575
 8397SOL    HW236651   2.525   1.202  12.825  0.3154  0.1367 -0.7412
 8398SOL     OW36652   2.027   1.283   3.354 -0.0473 -0.1498  0.4315
 8398SOL    HW136653   1.936   1.310   3.360 -0.0685 -0.1745  0.2321
 8398SOL    HW236654   2.040   1.204   3.406  3.0757 -0.1652 -0.3604
 8399SOL     OW36655   2.447   0.643   4.003 -0.1818 -0.3412 -0.7662
 8399SOL    HW136656   2.412   0.728   3.977 -0.0080 -0.7935 -2.4626
 8399SOL    HW236657   2.373   0.594   3.967 -0.2918 -1.5511  1.0934
 8400SOL     OW36658   1.028   3.218   9.695  1.1249 -0.5894 -0.0564
 8400SOL    HW136659   1.080   3.261   9.626 -0.2644  1.2337  0.0108
 8400SOL    HW236660   0.963   3.175   9.639  1.6879 -1.3852 -0.0900
 8401SOL     OW36661   1.387   4.365  14.833  0.3594 -0.3670 -0.3390
 8401SOL    HW136662   1.388   4.271  14.816 -1.3293 -0.2681 -0.8961
 8401SOL    HW236663   1.384   4.391  14.742 -1.2000 -0.5438 -0.3240
 8402SOL     OW36664   2.754   4.372   8.050  0.3427  0.0648 -0.8207
 8402SOL    HW136665   2.718   4.288   8.023  2.1177 -1.0702  0.3516
 8402SOL    HW236666   2.826   4.379   7.987  0.3192  2.0405 -0.6320
 8403SOL     OW36667   2.124   0.018   7.704 -0.8828  0.1631  0.2460
 8403SOL    HW136668   2.037   0.009   7.743 -0.7730 -0.0444  0.4376
 8403SOL    HW236669   2.109   0.054   7.616  0.0595 -2.2044 -0.8885
 8404SOL     OW36670   2.991   3.675   4.641  0.0526 -0.0936 -0.1220
 8404SOL    HW136671   2.900   3.662   4.666 -0.5133  1.7332 -1.2456
 8404SOL    HW236672   3.004   3.768   4.656 -2.7609  0.1085  1.0150
 8405SOL     OW36673   3.436   1.014   2.092 -0.5176 -0.0815  0.3639
 8405SOL    HW136674   3.481   1.028   2.009 -1.7401 -1.0070 -0.4308
 8405SOL    HW236675   3.471   1.091   2.138  2.3207 -1.7217  0.9970
 8406SOL     OW36676   2.990   2.604   2.210  0.0362 -0.1409  0.3962
 8406SOL    HW136677   3.062   2.588   2.271  1.2120  2.1194 -0.4373
 8406SOL    HW236678   2.976   2.519   2.167 -0.4673  0.7877 -1.3070
 8407SOL     OW36679   3.610   3.698  15.881  0.3977 -0.2569  0.2273
 8407SOL    HW136680   3.623   3.617  15.831  0.2755 -0.9489  1.3153
 8407SOL    HW236681   3.571   3.761  15.821 -0.4076 -0.8536  0.1258
 8408SOL     OW36682   4.340   3.216   6.851 -0.4399 -0.6144  0.0888
 8408SOL    HW136683   4.294   3.164   6.785 -1.4175  0.0398  0.2513
 8408SOL    HW236684   4.305   3.302   6.828  2.6463  0.9814  1.3293
 8409SOL     OW36685   2.715   0.846   9.621  0.1755  0.0137  0.0705
 8409SOL    HW136686   2.800   0.843   9.577 -0.2159 -0.2994 -0.6806
 8409SOL    HW236687   2.736   0.915   9.683  3.0051 -0.7366 -0.0637
 8410SOL     OW36688   0.841   3.439   1.125 -0.2810 -0.2601  0.1986
 8410SOL    HW136689   0.880   3.358   1.159  0.9431  0.3952  0.3670
 8410SOL    HW236690   0.906   3.480   1.068  0.1998  3.7185  3.6054
 8411SOL     OW36691   2.336   2.964   5.323  0.6695 -0.3199  0.4561
 8411SOL    HW136692   2.381   2.927   5.248 -0.2399  1.8738 -1.1946
 8411SOL    HW236693   2.253   2.926   5.293 -0.7963  1.4741  2.1400
 8412SOL     OW36694   1.837   1.605  10.292 -0.4293  0.0664  0.2614
 8412SOL    HW136695   1.787   1.524  10.307  0.2529 -0.1593  1.2664
 8412SOL    HW236696   1.789   1.668  10.345 -1.6862 -1.2053  0.6380
 8413SOL     OW36697   4.138   1.196  12.321  0.2146 -0.8751  0.0108
 8413SOL    HW136698   4.206   1.140  12.361  1.5362 -0.2037 -1.3130
 8413SOL    HW236699   4.082   1.224  12.393  0.6873  3.1401 -1.1805
 8414SOL     OW36700   2.433   2.666   0.223 -0.1469 -0.0849  0.2158
 8414SOL    HW136701   2.526   2.684   0.212 -0.5691  1.7445 -0.3868
 8414SOL    HW236702   2.399   2.754   0.238  0.3754  0.1166  0.1999
 8415SOL     OW36703   2.760   2.955  15.030  0.0632  0.3629 -0.0935
 8415SOL    HW136704   2.843   2.995  15.057 -0.1638  0.7706  0.0063
 8415SOL    HW236705   2.748   2.881  15.090  2.0574 -1.2011 -1.5952
 8416SOL     OW36706   1.937   1.145  14.925 -0.6488 -0.1190  0.6642
 8416SOL    HW136707   1.981   1.205  14.866 -0.0872 -0.1311  1.0748
 8416SOL    HW236708   2.005   1.083  14.950 -0.0545  0.4182  0.3536
 8417SOL     OW36709   3.061   0.273   6.484  0.0285  0.3280 -0.4356
 8417SOL    HW136710   3.128   0.206   6.470  0.3221  0.6854 -0.7579
 8417SOL    HW236711   3.006   0.249   6.409 -0.5265 -0.2332  0.1450
 8418SOL     OW36712   0.360   1.018  10.270 -0.1482  0.0283 -0.0632
 8418SOL    HW136713   0.329   1.108  10.259 -0.5400  0.1932  2.4887
 8418SOL    HW236714   0.360   1.002  10.364  0.6892  1.5554  0.1894
 8419SOL     OW36715   2.268   4.499  12.439 -0.5766  0.5953  0.6961
 8419SOL    HW136716   2.262   4.585  12.480 -1.9613  1.1297 -0.6565
 8419SOL    HW236717   2.222   4.451  12.508 -2.7229  0.9237 -0.5121
 8420SOL     OW36718   1.029   4.234  12.914  0.3268 -0.0301  0.0967
 8420SOL    HW136719   1.063   4.257  12.827  0.8000 -1.4798 -0.1040
 8420SOL    HW236720   1.004   4.324  12.935  1.2785  0.3925 -0.5960
 8421SOL     OW36721   3.499   0.329   6.499  0.0708  0.1547  0.7885
 8421SOL    HW136722   3.562   0.359   6.565  0.1890 -0.3929  0.9240
 8421SOL    HW236723   3.456   0.413   6.480 -0.5540  0.0203  1.6072
 8422SOL     OW36724   3.971   4.381   5.524 -0.3690  0.4020  0.0108
 8422SOL    HW136725   3.949   4.372   5.617 -1.6724  0.5345 -0.2940
 8422SOL    HW236726   3.884   4.374   5.486  0.0422 -2.0238 -0.4539
 8423SOL     OW36727   1.089   0.920   7.344  0.3113  0.1447  0.4392
 8423SOL    HW136728   1.175   0.960   7.327  0.5831 -0.5503  0.1668
 8423SOL    HW236729   1.037   1.000   7.335 -1.0996 -0.9189 -0.8361
 8424SOL     OW36730   0.325   2.202   9.055 -0.5949  0.3041 -0.2791
 8424SOL    HW136731   0.408   2.181   9.012 -0.1739  2.3555 -0.4908
 8424SOL    HW236732   0.328   2.292   9.086  0.1422  1.4156 -3.5884
 8425SOL     OW36733   0.443   2.616   5.376 -0.3183 -0.3298 -0.0789
 8425SOL    HW136734   0.398   2.583   5.298 -2.0651 -3.4117  2.2432
 8425SOL    HW236735   0.399   2.701   5.384  0.9595  0.2314  0.8769
 8426SOL     OW36736   1.205   1.074   2.466  0.4875 -0.0617  0.0300
 8426SOL    HW136737   1.186   1.148   2.408 -1.0482 -0.2043  0.3370
 8426SOL    HW236738   1.231   1.124   2.544  0.9260  0.9568 -0.7733
 8427SOL     OW36739   1.874   4.578   7.569  0.6278  0.1008  0.3049
 8427SOL    HW136740   1.802   4.566   7.631 -1.0733  2.6217 -1.1593
 8427SOL    HW236741   1.907   4.492   7.543  0.9018 -0.0580  1.2022
 8428SOL     OW36742   2.507   4.150   8.037  0.1193  0.6270  0.0882
 8428SOL    HW136743   2.529   4.132   8.128  0.2169 -1.1186 -0.2757
 8428SOL    HW236744   2.444   4.085   8.005  0.9902  0.2106 -0.7733
 8429SOL     OW36745   3.583   0.950  17.674 -0.0898  0.0022 -0.3326
 8429SOL    HW136746   3.505   0.975   0.030 -0.9339 -3.3111  0.0100
 8429SOL    HW236747   3.631   1.031  17.656  1.4426 -0.6357  0.8852
 8430SOL     OW36748   0.168   4.299  11.163  0.4532  0.2772 -0.4583
 8430SOL    HW136749   0.144   4.390  11.146  0.6161  0.3443 -0.3306
 8430SOL    HW236750   0.262   4.309  11.179  0.6211 -2.7354  0.3661
 8431SOL     OW36751   0.626   0.935   0.809 -0.5108  0.1388 -0.7705
 8431SOL    HW136752   0.574   0.925   0.889  2.0420  2.1966  1.1476
 8431SOL    HW236753   0.598   1.023   0.782 -3.8198 -0.9638 -0.8723
 8432SOL     OW36754   1.468   2.477   3.989 -0.0971  0.2620  0.2514
 8432SOL    HW136755   1.421   2.537   4.047  0.4728 -0.9782  2.0070
 8432SOL    HW236756   1.461   2.521   3.904  3.6566 -2.7371 -1.6314
 8433SOL     OW36757   4.368   2.109   6.168 -0.2319  0.1475 -0.1628
 8433SOL    HW136758   4.293   2.050   6.157 -1.8542  1.9933  0.9021
 8433SOL    HW236759   4.333   2.190   6.131 -0.0536  0.4977  0.4444
 8434SOL     OW36760   4.218   2.447   7.470 -0.0595  0.1751 -0.3071
 8434SOL    HW136761   4.143   2.495   7.435 -0.3050  0.5278  0.7134
 8434SOL    HW236762   4.283   2.512   7.444 -1.2712  0.2772 -3.0512
 8435SOL     OW36763   0.334   2.993   1.961 -0.5908 -0.0878  0.4451
 8435SOL    HW136764   0.266   2.994   2.029 -1.1124  0.7811 -0.0929
 8435SOL    HW236765   0.280   3.011   1.884 -1.0755  0.8551  1.0109
 8436SOL     OW36766   2.015   3.104   9.371  0.3224 -0.0684  0.0772
 8436SOL    HW136767   2.072   3.110   9.294  0.4947  0.9688  0.2956
 8436SOL    HW236768   2.069   3.164   9.421  1.9861  0.5035 -2.3814
 8437SOL     OW36769   4.645   2.887   0.609  0.2423 -0.1564  0.3532
 8437SOL    HW136770   4.695   2.814   0.647 -1.3058 -0.8866  0.9667
 8437SOL    HW236771   4.713   2.947   0.576  0.1019 -0.0482  0.2621
 8438SOL     OW36772   1.527   1.569  15.178  0.9897 -0.2176 -0.3571
 8438SOL    HW136773   1.620   1.568  15.152  1.3995 -1.0154  1.1251
 8438SOL    HW236774   1.530   1.602  15.268  0.2198 -1.3026  0.0659
 8439SOL     OW36775   0.525   2.708   7.288  0.1031  0.4104 -0.6380
 8439SOL    HW136776   0.588   2.781   7.283 -1.4240  1.7989  0.4459
 8439SOL    HW236777   0.474   2.727   7.209 -1.8258 -1.7941  0.0914
 8440SOL     OW36778   2.076   1.230   5.735  0.1272 -0.3794 -0.9358
 8440SOL    HW136779   2.133   1.303   5.760 -0.5351  0.3039 -1.4347
 8440SOL    HW236780   2.142   1.170   5.699 -1.6935 -3.2231  0.4644
 8441SOL     OW36781   4.604   0.406   6.320 -0.4636  0.1102 -0.3283
 8441SOL    HW136782   4.641   0.379   6.236 -3.6445 -0.0728 -1.6698
 8441SOL    HW236783   4.607   0.325   6.371 -1.0426  0.1901 -0.1712
 8442SOL     OW36784   3.847   2.374   4.806 -0.1115  0.4560  0.2171
 8442SOL    HW136785   3.790   2.378   4.730 -0.9937 -3.1153  0.6662
 8442SOL    HW236786   3.929   2.362   4.759 -1.2609 -0.9820 -1.4694
 8443SOL     OW36787   3.293   3.838   3.916 -0.2047  0.0594  0.7284
 8443SOL    HW136788   3.283   3.805   4.005  1.1312 -0.9172  0.5229
 8443SOL    HW236789   3.370   3.891   3.939 -0.1388  0.7242 -1.0216
 8444SOL     OW36790   4.614   3.579  17.519  0.1927 -0.1694  0.4488
 8444SOL    HW136791   4.611   3.484  17.521  1.3625 -0.2105  0.3076
 8444SOL    HW236792   4.651   3.584  17.431 -0.8105 -0.1051  0.0368
 8445SOL     OW36793   2.950   1.692   7.534 -0.2027 -0.5006 -0.6701
 8445SOL    HW136794   3.010   1.721   7.603 -1.0006  0.7481 -0.5056
 8445SOL    HW236795   2.863   1.696   7.575  1.4225  0.6716  2.6864
 8446SOL     OW36796   4.488   2.380   5.809 -0.2739 -0.6080 -0.3206
 8446SOL    HW136797   4.545   2.454   5.830 -0.0869 -1.1127  0.9431
 8446SOL    HW236798   4.556   2.313   5.801 -0.7836 -1.3955  1.9549
 8447SOL     OW36799   1.674   0.357   5.830 -0.7370  0.0637 -0.1218
 8447SOL    HW136800   1.651   0.436   5.781 -0.4664  0.3865  0.2621
 8447SOL    HW236801   1.745   0.333   5.771 -0.4051  1.4197 -0.2794
 8448SOL     OW36802   1.532   0.665   6.680  0.2384 -0.4513 -0.3366
 8448SOL    HW136803   1.529   0.700   6.591 -0.5656 -1.7636 -0.8264
 8448SOL    HW236804   1.621   0.681   6.712 -0.2344 -0.2209  0.8921
 8449SOL     OW36805   2.138   3.768   5.213 -0.3448  0.6148  0.0929
 8449SOL    HW136806   2.160   3.855   5.249 -1.8238  0.3016  1.7444
 8449SOL    HW236807   2.131   3.717   5.293 -1.4472 -0.5995 -0.7786
 8450SOL     OW36808   3.469   1.922   3.136 -0.1551  0.1140  0.0463
 8450SOL    HW136809   3.407   1.900   3.206  1.5281 -1.9267  0.8940
 8450SOL    HW236810   3.413   1.979   3.083  0.6730 -2.1459 -3.2664
 8451SOL     OW36811   4.573   1.904  17.650  0.0999 -0.2742 -0.0762
 8451SOL    HW136812   4.609   1.848  17.582 -0.4047 -0.9787  0.2305
 8451SOL    HW236813   4.605   1.868   0.040 -0.5401  1.6592  0.9914
 8452SOL     OW36814   0.759   1.622   5.340  1.0336  0.2580 -0.0841
 8452SOL    HW136815   0.822   1.669   5.394  1.9646 -3.4343  1.9751
 8452SOL    HW236816   0.806   1.542   5.317  0.5641  0.1924 -0.8301
 8453SOL     OW36817   1.036   3.213  12.324 -0.8595 -0.2423 -1.0824
 8453SOL    HW136818   1.004   3.295  12.287 -0.8581  0.5469  0.7090
 8453SOL    HW236819   1.104   3.192  12.259 -1.1851 -0.2340 -1.4283
 8454SOL     OW36820   4.705   2.087   8.548  0.3289  0.1403 -0.4775
 8454SOL    HW136821   0.045   2.092   8.476  0.1083  1.2552 -0.5917
 8454SOL    HW236822   0.038   2.109   8.623 -0.1941  0.7356 -0.2664
 8455SOL     OW36823   2.099   4.006   8.609 -0.0754  0.0156  0.2791
 8455SOL    HW136824   2.013   4.049   8.602 -0.0524 -0.3581 -2.2911
 8455SOL    HW236825   2.148   4.058   8.545  0.8699 -1.2811 -0.0596
 8456SOL     OW36826   3.619   3.235  10.347 -0.1406 -0.1714  0.2022
 8456SOL    HW136827   3.700   3.218  10.394  1.8271  1.3161 -2.6667
 8456SOL    HW236828   3.592   3.322  10.375 -0.9351 -0.6507  0.9247
 8457SOL     OW36829   4.290   0.135   6.709  0.1181  0.2635  0.0587
 8457SOL    HW136830   4.251   0.048   6.722  0.5375 -0.0023 -0.4686
 8457SOL    HW236831   4.260   0.175   6.791 -1.4835  0.5620 -0.6725
 8458SOL     OW36832   1.934   0.381   8.417 -0.2660 -0.2961  0.4324
 8458SOL    HW136833   2.008   0.424   8.460  0.9134 -1.0193 -0.8652
 8458SOL    HW236834   1.907   0.320   8.486  0.8008 -0.1651  0.9600
 8459SOL     OW36835   4.034   1.719   1.665  0.2848 -0.3177 -0.6274
 8459SOL    HW136836   4.097   1.791   1.673  2.5052 -2.1936 -1.0738
 8459SOL    HW236837   4.032   1.715   1.570  0.2613 -1.0200 -0.5971
 8460SOL     OW36838   4.627   2.565   3.974  0.3403 -0.2785  0.3017
 8460SOL    HW136839   4.662   2.576   4.062  0.7998  0.3267  0.0433
 8460SOL    HW236840   4.698   2.524   3.924 -0.8214 -2.4325  0.4061
 8461SOL     OW36841   2.225   0.779   0.680 -0.1514 -0.1590  0.0631
 8461SOL    HW136842   2.307   0.743   0.712  0.3859  0.2467 -0.8680
 8461SOL    HW236843   2.167   0.759   0.754 -0.8598 -1.7163 -0.9178
 8462SOL     OW36844   0.735   4.378   1.721  1.2492  0.3199  0.0804
 8462SOL    HW136845   0.778   4.292   1.719  0.8221  0.1458 -1.5181
 8462SOL    HW236846   0.707   4.377   1.813 -1.5947 -2.1267 -0.8315
 8463SOL     OW36847   3.402   1.121   5.902  0.6354  0.1147  0.6975
 8463SOL    HW136848   3.421   1.120   5.996  3.2255  0.8925  0.1886
 8463SOL    HW236849   3.315   1.081   5.895  0.1400  1.0648  1.6263
 8464SOL     OW36850   4.133   2.832   4.977  0.1482  0.2475 -0.0492
 8464SOL    HW136851   4.066   2.901   4.982 -0.6117 -0.5084  0.0914
 8464SOL    HW236852   4.211   2.878   5.010  1.0275 -0.8966 -0.5397
 8465SOL     OW36853   2.856   1.927   0.270  0.1116  0.0096  1.2502
 8465SOL    HW136854   2.771   1.945   0.309 -0.2788 -1.4622  1.1033
 8465SOL    HW236855   2.878   2.019   0.255  1.6178 -0.4236  0.7639
 8466SOL     OW36856   1.819   3.578   8.493  0.0113  0.8494  0.1530
 8466SOL    HW136857   1.782   3.557   8.578  2.0445  0.7792  1.0178
 8466SOL    HW236858   1.758   3.533   8.434  2.2896 -3.4618  1.1025
 8467SOL     OW36859   2.757   0.421   6.715 -0.4297  0.2986  0.7738
 8467SOL    HW136860   2.686   0.361   6.694 -1.2644  1.9681 -1.0961
 8467SOL    HW236861   2.816   0.366   6.767  0.6250 -0.2876 -1.0639
 8468SOL     OW36862   2.555   2.255   2.262 -0.2410 -0.5191  0.3018
 8468SOL    HW136863   2.470   2.271   2.221 -0.2508  0.2814  0.6344
 8468SOL    HW236864   2.549   2.162   2.283  2.1888 -0.8247 -0.3443
 8469SOL     OW36865   3.454   2.022  15.558  0.0729 -0.6226 -0.4831
 8469SOL    HW136866   3.542   2.010  15.594 -0.4611  1.1746  1.4496
 8469SOL    HW236867   3.458   1.960  15.486 -1.3496  2.3578 -3.1304
 8470SOL     OW36868   0.097   1.228   4.192 -0.1651  0.4314  0.6694
 8470SOL    HW136869   0.115   1.208   4.100 -2.3472  0.1627  0.2985
 8470SOL    HW236870   0.186   1.236   4.228 -0.4134  0.7711  1.1992
 8471SOL     OW36871   0.808   3.153  13.497  0.3767 -0.5581 -0.2196
 8471SOL    HW136872   0.769   3.176  13.413 -0.3459 -0.4802  0.1325
 8471SOL    HW236873   0.837   3.239  13.526 -0.6888  0.2832 -1.6453
 8472SOL     OW36874   0.758   3.659   2.486 -0.9918 -0.5376 -0.5561
 8472SOL    HW136875   0.824   3.624   2.427 -0.4029  0.4316 -0.4605
 8472SOL    HW236876   0.696   3.586   2.487  0.9286 -2.1735 -1.0138
 8473SOL     OW36877   3.384   4.181   5.717  0.6069  0.2408 -0.0232
 8473SOL    HW136878   3.372   4.230   5.798  0.1116 -0.2986  0.2337
 8473SOL    HW236879   3.467   4.140   5.742  1.7703  2.3292 -0.5000
 8474SOL     OW36880   0.855   0.688   6.805  0.2255  0.3230 -0.5666
 8474SOL    HW136881   0.857   0.598   6.775  1.6503  0.3478 -0.5598
 8474SOL    HW236882   0.934   0.703   6.858 -1.8746  3.1777  1.7923
 8475SOL     OW36883   2.659   3.741   5.183  0.2988 -0.1733  0.2369
 8475SOL    HW136884   2.675   3.834   5.163 -0.3263  0.3980  2.4425
 8475SOL    HW236885   2.639   3.748   5.276 -0.0957  0.3974  0.1182
 8476SOL     OW36886   0.951   1.954   9.833  0.2279 -0.5372  0.0574
 8476SOL    HW136887   0.871   1.922   9.875  0.5267 -0.3879  0.7407
 8476SOL    HW236888   0.947   1.906   9.750 -0.2367 -2.2072  1.0329
 8477SOL     OW36889   1.592   2.162   8.626 -0.6911 -0.7591 -1.0358
 8477SOL    HW136890   1.624   2.140   8.714  3.4906  0.6187 -2.2016
 8477SOL    HW236891   1.585   2.072   8.592 -0.3168 -0.5461 -1.6792
 8478SOL     OW36892   3.719   1.127   8.409  0.3339  0.1223 -0.7665
 8478SOL    HW136893   3.725   1.193   8.477  0.4562 -0.4963 -0.1767
 8478SOL    HW236894   3.811   1.120   8.385  0.3058  2.7733 -1.6346
 8479SOL     OW36895   2.648   0.527  16.565 -0.2410 -0.1632 -0.8721
 8479SOL    HW136896   2.696   0.533  16.483 -0.1778 -0.2854 -0.8437
 8479SOL    HW236897   2.722   0.495  16.616  0.1686  2.1061 -0.0043
 8480SOL     OW36898   3.137   4.446   4.138 -0.0296 -0.1824 -0.3172
 8480SOL    HW136899   3.214   4.389   4.139 -0.6085 -0.9231  2.2045
 8480SOL    HW236900   3.158   4.507   4.067  0.4939 -1.3826 -1.1826
 8481SOL     OW36901   4.216   2.750   4.430 -0.1216  0.2610 -0.4434
 8481SOL    HW136902   4.189   2.739   4.339 -1.3327 -0.8218  0.0442
 8481SOL    HW236903   4.172   2.831   4.459  0.1205 -0.1480  1.0779
 8482SOL     OW36904   4.299   1.774  13.156 -0.4036  0.1154 -0.0991
 8482SOL    HW136905   4.313   1.694  13.104  1.1246  1.1097 -1.2192
 8482SOL    HW236906   4.207   1.766  13.178  0.0354 -4.0889  0.1480
 8483SOL     OW36907   2.936   0.931  14.326 -0.0026 -0.0812 -0.3553
 8483SOL    HW136908   2.907   0.841  14.342  2.5682 -1.3082 -2.6196
 8483SOL    HW236909   3.021   0.924  14.369  1.0481  2.5240 -1.9777
 8484SOL     OW36910   0.737   4.229  14.515 -0.2900 -0.3575 -0.1281
 8484SOL    HW136911   0.783   4.255  14.435  1.5583 -1.0121  0.7246
 8484SOL    HW236912   0.697   4.313  14.537  0.9461  0.2269 -0.1574
 8485SOL     OW36913   0.955   1.428   5.310  0.2344 -0.0483  0.1556
 8485SOL    HW136914   0.997   1.466   5.233  0.1038  0.1126  0.1622
 8485SOL    HW236915   1.017   1.367   5.350 -0.8785 -1.7786 -0.7777
 8486SOL     OW36916   0.982   2.794   0.950 -0.0343 -0.1624 -0.0708
 8486SOL    HW136917   1.064   2.777   0.904 -0.4023 -0.5274 -0.5861
 8486SOL    HW236918   0.918   2.745   0.899  1.2894 -0.0622 -1.8162
 8487SOL     OW36919   0.736   4.289  14.225 -0.1304 -0.4102 -0.5012
 8487SOL    HW136920   0.822   4.327  14.209  1.0482 -1.9045  2.2686
 8487SOL    HW236921   0.675   4.361  14.208 -0.9459 -1.3695 -1.5969
 8488SOL     OW36922   0.376   3.707   1.682 -0.4528 -0.2832 -0.5896
 8488SOL    HW136923   0.343   3.757   1.756  0.2125  1.0963 -1.2084
 8488SOL    HW236924   0.470   3.728   1.678 -0.7823  1.3511  0.4848
 8489SOL     OW36925   0.129   0.216   5.617 -0.1982  0.0196  0.1855
 8489SOL    HW136926   0.065   0.207   5.547  0.8794 -0.0223 -0.7833
 8489SOL    HW236927   0.157   0.124   5.621  3.2272  1.0039 -1.2934
 8490SOL     OW36928   1.026   0.816   8.286 -0.2264 -0.4007 -0.5171
 8490SOL    HW136929   1.039   0.723   8.265  0.6458  0.2705 -2.8119
 8490SOL    HW236930   0.935   0.815   8.319  0.2593 -2.1528  0.8306
 8491SOL     OW36931   3.659   4.138   6.755 -0.0267  0.1690  0.0121
 8491SOL    HW136932   3.610   4.063   6.791  0.8361 -1.2347 -1.7185
 8491SOL    HW236933   3.665   4.206   6.821 -0.0344 -1.7708  2.0123
 8492SOL     OW36934   0.394   0.700   7.157  0.2499 -0.6602  0.5369
 8492SOL    HW136935   0.401   0.777   7.214  1.5739  0.2814 -0.9090
 8492SOL    HW236936   0.403   0.737   7.069  0.6681 -2.0465  0.0031
 8493SOL     OW36937   2.222   1.472   9.214  0.1214 -0.2821 -0.4537
 8493SOL    HW136938   2.153   1.491   9.277  0.9963 -1.2062  0.7726
 8493SOL    HW236939   2.275   1.405   9.257 -1.5157 -1.9923 -1.0777
 8494SOL     OW36940   3.823   2.483   5.930 -0.2019  0.2580  0.0445
 8494SOL    HW136941   3.760   2.542   5.887  0.0447  1.2479  1.0332
 8494SOL    HW236942   3.754   2.419   5.950 -0.2473  1.0864  2.5499
 8495SOL     OW36943   0.413   2.750   7.041 -0.2834 -0.2608  0.7598
 8495SOL    HW136944   0.339   2.760   6.981  1.2957  0.1977 -1.1137
 8495SOL    HW236945   0.478   2.778   6.977  0.2122 -1.5823  0.6899
 8496SOL     OW36946   3.581   3.829   2.341  0.2989  0.1919  0.0260
 8496SOL    HW136947   3.566   3.883   2.419 -1.4386 -0.0126 -0.1649
 8496SOL    HW236948   3.630   3.882   2.279  0.4007  0.9055  0.7198
 8497SOL     OW36949   1.092   3.784   7.948 -0.0503  0.1493  0.1595
 8497SOL    HW136950   1.034   3.851   7.984  1.6256  1.1001  1.0915
 8497SOL    HW236951   1.028   3.739   7.892  1.2700  0.2907 -1.4607
 8498SOL     OW36952   1.018   2.353   4.721 -0.7734  0.9300  0.1506
 8498SOL    HW136953   0.952   2.411   4.760 -0.6985 -1.0004  3.1715
 8498SOL    HW236954   1.090   2.412   4.744  1.7389 -2.2979  0.5623
 8499SOL     OW36955   0.469   1.356   9.230  0.3390  0.3761 -0.6948
 8499SOL    HW136956   0.441   1.309   9.151  0.3997 -0.0592 -0.4548
 8499SOL    HW236957   0.436   1.445   9.218  0.7482  0.4470 -1.2755
 8500SOL     OW36958   2.789   4.613   7.466  0.4223 -0.4428  0.0842
 8500SOL    HW136959   2.721   4.640   7.405  0.5313  2.6309  1.3151
 8500SOL    HW236960   2.822   4.703   7.475  0.1346 -0.4687  1.3309
 8501SOL     OW36961   4.631   4.441  11.040  0.0071 -0.2378 -0.5517
 8501SOL    HW136962   4.621   4.455  11.134 -1.0246 -0.4490 -0.6294
 8501SOL    HW236963   4.646   4.347  11.049 -1.8132 -0.2122  2.8405
 8502SOL     OW36964   0.769   1.245   6.721  0.0118 -0.0854  0.4428
 8502SOL    HW136965   0.686   1.197   6.722  0.2937 -0.5209  2.3675
 8502SOL    HW236966   0.836   1.177   6.735 -1.2002 -1.9402 -2.8299
 8503SOL     OW36967   0.673   3.212  12.307 -0.7250 -0.0288  0.6065
 8503SOL    HW136968   0.586   3.199  12.345  0.3362 -1.2008  2.6691
 8503SOL    HW236969   0.653   3.282  12.245 -1.0161  0.6763  1.4954
 8504SOL     OW36970   0.105   4.235   3.392 -0.0126 -0.1971  0.0137
 8504SOL    HW136971   0.043   4.303   3.368  0.7314 -0.0704 -1.5492
 8504SOL    HW236972   0.175   4.286   3.433  1.0749 -1.0742 -0.7344
 8505SOL     OW36973   3.740   0.511   5.496  0.3961  0.4622 -0.4236
 8505SOL    HW136974   3.684   0.492   5.572  0.4804  0.1803 -0.4323
 8505SOL    HW236975   3.688   0.581   5.457 -4.2098 -0.5438  3.8752
 8506SOL     OW36976   2.204   3.444   5.374 -0.0315 -0.2537 -0.0710
 8506SOL    HW136977   2.173   3.357   5.399 -2.2559  1.0613  1.7078
 8506SOL    HW236978   2.215   3.487   5.459 -1.5701  1.0591 -0.5369
 8507SOL     OW36979   1.757   1.559   5.819 -0.1652 -0.3957  0.3914
 8507SOL    HW136980   1.732   1.471   5.792 -0.2533  0.1516 -1.3688
 8507SOL    HW236981   1.793   1.532   5.903  0.8539 -1.4311 -0.3730
 8508SOL     OW36982   4.111   0.158  17.335 -0.2621  0.3682  0.3406
 8508SOL    HW136983   4.075   0.073  17.360  1.2814 -0.2366  0.5102
 8508SOL    HW236984   4.071   0.215  17.401 -0.0718  1.0695 -0.1544
 8509SOL     OW36985   3.568   1.683   3.030  0.4092  0.1375  0.3151
 8509SOL    HW136986   3.548   1.643   3.114  0.6905  3.1151  1.7791
 8509SOL    HW236987   3.544   1.774   3.047 -0.4481  0.1249 -0.8015
 8510SOL     OW36988   1.653   2.939   6.379  0.4541 -0.0551 -0.3420
 8510SOL    HW136989   1.694   3.003   6.437  0.7549 -2.2105  1.8317
 8510SOL    HW236990   1.688   2.859   6.419  2.0698  0.7263 -0.1915
 8511SOL     OW36991   3.455   2.621   7.068 -0.4780  0.0461 -0.1129
 8511SOL    HW136992   3.484   2.665   6.988  1.6829  1.3593  1.3629
 8511SOL    HW236993   3.447   2.527   7.053  2.4752 -0.9059  3.9555
 8512SOL     OW36994   0.344   4.013   2.923 -0.1223  0.2327  0.3692
 8512SOL    HW136995   0.292   3.997   3.002 -1.6249 -0.2655 -0.6985
 8512SOL    HW236996   0.421   4.059   2.955  0.2171 -0.2803  0.2956
 8513SOL     OW36997   2.787   2.868   8.632 -0.5497  0.1374  0.2628
 8513SOL    HW136998   2.778   2.813   8.554  0.6141 -1.2185  1.0867
 8513SOL    HW236999   2.694   2.888   8.647 -1.0718 -1.8594 -0.3550
 8514SOL     OW37000   3.336   3.048  11.786  0.0260  0.2229  0.0449
 8514SOL    HW137001   3.358   3.106  11.858 -1.0855 -0.3226  0.8283
 8514SOL    HW237002   3.395   3.100  11.731  0.9752 -0.1433  0.7114
 8515SOL     OW37003   4.504   1.503   4.500  0.5214 -0.3548 -0.2985
 8515SOL    HW137004   4.558   1.521   4.423 -0.2079 -1.4811 -1.0602
 8515SOL    HW237005   4.557   1.433   4.539  0.2649 -1.4176 -1.8904
 8516SOL     OW37006   3.246   3.821   8.889  0.8279 -0.5449  0.6203
 8516SOL    HW137007   3.162   3.778   8.903 -0.0052  0.6086 -0.9213
 8516SOL    HW237008   3.290   3.812   8.974 -0.6539  0.2748  1.4786
 8517SOL     OW37009   2.045   1.866   0.514  0.1764  0.3031 -0.0860
 8517SOL    HW137010   2.019   1.909   0.432 -0.3797 -0.1459 -0.1379
 8517SOL    HW237011   1.966   1.867   0.567 -1.1564  0.1405 -2.0937
 8518SOL     OW37012   0.242   0.290  13.371 -0.3164  0.0761 -0.3408
 8518SOL    HW137013   0.279   0.204  13.393  2.2836  1.4273  0.6559
 8518SOL    HW237014   0.319   0.337  13.339  0.8266 -2.7990 -1.9001
 8519SOL     OW37015   3.854   3.899   7.295 -0.5526  0.0892  0.4421
 8519SOL    HW137016   3.868   3.984   7.336  0.7125  0.9956 -1.9099
 8519SOL    HW237017   3.771   3.871   7.335 -0.2275 -0.4413  0.7508
 8520SOL     OW37018   4.551   1.743   2.546 -0.4971 -0.4364  0.7842
 8520SOL    HW137019   4.526   1.652   2.558 -4.4182  0.6931  1.2311
 8520SOL    HW237020   4.472   1.798   2.539 -0.9072 -1.1130  0.1288
 8521SOL     OW37021   0.190   1.541   8.796  0.7054  0.0013 -0.2266
 8521SOL    HW137022   0.195   1.492   8.878  0.5613  2.0076  0.9906
 8521SOL    HW237023   0.152   1.624   8.827 -1.3220 -1.0296  0.0006
 8522SOL     OW37024   0.339   2.217   7.264 -0.2773 -0.1417 -0.4900
 8522SOL    HW137025   0.411   2.281   7.260  0.7261 -1.1814  0.9012
 8522SOL    HW237026   0.336   2.203   7.358 -3.7084 -0.4700 -0.6686
 8523SOL     OW37027   1.269   1.706  15.342  0.2128 -0.0459 -0.0897
 8523SOL    HW137028   1.290   1.614  15.361  0.0025 -0.1852 -0.5366
 8523SOL    HW237029   1.350   1.754  15.362  0.1943  1.0224 -2.5945
 8524SOL     OW37030   3.212   0.598   6.813  0.1375 -0.0451  0.4906
 8524SOL    HW137031   3.257   0.671   6.854 -1.8704  0.3734  1.9665
 8524SOL    HW237032   3.238   0.609   6.722 -1.6974  2.6704  0.3067
 8525SOL     OW37033   1.696   4.543   1.392 -0.8191  0.7386 -0.4523
 8525SOL    HW137034   1.708   4.597   1.314 -1.7490  2.2160  0.4156
 8525SOL    HW237035   1.637   4.593   1.449 -0.2725  0.6082  0.2147
 8526SOL     OW37036   2.667   1.123   6.310 -0.4937  0.3690  0.0564
 8526SOL    HW137037   2.676   1.155   6.220 -1.1876  2.1258  0.6029
 8526SOL    HW237038   2.619   1.041   6.300 -1.1335  0.8809 -1.0979
 8527SOL     OW37039   0.107   0.089   4.693  0.5454 -0.1580  0.4283
 8527SOL    HW137040   0.067   0.169   4.728 -0.9344  0.2312 -2.1423
 8527SOL    HW237041   0.196   0.111   4.721  0.9866 -0.0982 -1.0519
 8528SOL     OW37042   2.585   3.171  15.127  0.0778  0.5561  0.0204
 8528SOL    HW137043   2.629   3.089  15.147  2.4743  1.9891  0.6830
 8528SOL    HW237044   2.662   3.229  15.120  1.2186 -0.8315  1.2117
 8529SOL     OW37045   1.823   4.718   9.263  0.2352 -0.2651  0.6799
 8529SOL    HW137046   1.803   0.067   9.204  0.1509  0.1209  1.1750
 8529SOL    HW237047   1.894   0.047   9.301  1.8751 -2.8893  1.2604
 8530SOL     OW37048   2.738   4.585  13.909 -0.0967 -0.3287 -0.3123
 8530SOL    HW137049   2.681   4.632  13.969  0.4339 -0.8831  0.6293
 8530SOL    HW237050   2.721   4.495  13.936  3.2935 -0.4778  1.3337
 8531SOL     OW37051   3.898   4.054  13.558  0.7253  0.1823  0.1681
 8531SOL    HW137052   3.881   3.961  13.549 -1.1513  0.5396 -0.0166
 8531SOL    HW237053   3.866   4.076  13.645  0.2214  0.2468 -0.0323
 8532SOL     OW37054   3.369   0.082   5.458  0.3072 -0.4432 -0.2790
 8532SOL    HW137055   3.425   0.019   5.412 -0.4709 -0.7070 -0.8531
 8532SOL    HW237056   3.299   0.024   5.487 -0.6647  1.4360  1.1436
 8533SOL     OW37057   2.719   1.712  17.225 -0.0681  0.1674  0.0759
 8533SOL    HW137058   2.763   1.771  17.287  0.2709  0.6946 -0.6625
 8533SOL    HW237059   2.786   1.644  17.231  0.1735  0.6391  2.7084
 8534SOL     OW37060   2.040   3.787   8.749  0.1934 -0.5807  0.2931
 8534SOL    HW137061   2.064   3.858   8.689 -0.0768 -1.7183 -1.1725
 8534SOL    HW237062   1.945   3.780   8.747  0.0898  0.9655  0.0501
 8535SOL     OW37063   3.667   1.442   2.967  0.2525  0.0259 -0.2557
 8535SOL    HW137064   3.619   1.520   2.997  1.0149  1.2608 -2.2638
 8535SOL    HW237065   3.754   1.480   2.955  0.7276 -0.3572  1.9637
 8536SOL     OW37066   0.151   0.945   5.187  0.2446 -0.0951  0.3073
 8536SOL    HW137067   0.201   1.014   5.231 -1.5985  0.2854  1.8066
 8536SOL    HW237068   0.218   0.912   5.128 -1.0927  0.8862 -1.7699
 8537SOL     OW37069   2.197   3.532  16.056 -0.0040  0.1274 -0.4383
 8537SOL    HW137070   2.153   3.499  16.134  1.1297 -1.3569 -0.4336
 8537SOL    HW237071   2.264   3.586  16.099 -0.6265 -0.1649  0.8989
 8538SOL     OW37072   4.203   4.183   9.973 -0.2590  0.4277  0.1493
 8538SOL    HW137073   4.286   4.231   9.972  1.5917 -2.8141 -0.2358
 8538SOL    HW237074   4.177   4.186  10.065  0.2003 -1.5243  0.3434
 8539SOL     OW37075   4.431   4.436   2.972  0.1868  0.0014  0.3417
 8539SOL    HW137076   4.510   4.386   2.953  1.6504  1.8173  1.6938
 8539SOL    HW237077   4.456   4.526   2.951  1.8058  0.0065  2.2588
 8540SOL     OW37078   3.539   3.866   6.915 -0.1575 -0.3753  0.1753
 8540SOL    HW137079   3.493   3.905   6.990 -1.1514  1.0076 -1.1608
 8540SOL    HW237080   3.631   3.868   6.942 -0.1435 -3.0289  0.3523
 8541SOL     OW37081   1.090   1.118   4.258  0.3882 -0.2859  0.7379
 8541SOL    HW137082   1.180   1.085   4.259  0.5914  0.2814  1.5746
 8541SOL    HW237083   1.065   1.105   4.167  0.4526 -3.7947  1.2274
 8542SOL     OW37084   2.232   4.019   5.318  0.8314  0.0013  0.2429
 8542SOL    HW137085   2.277   4.083   5.373  1.2537  0.4442 -0.6233
 8542SOL    HW237086   2.168   4.073   5.271  0.8540 -0.4747 -0.3303
 8543SOL     OW37087   4.212   0.850  13.533 -0.1882 -0.1729  0.3922
 8543SOL    HW137088   4.125   0.809  13.525 -0.6618  0.9353 -0.1503
 8543SOL    HW237089   4.262   0.772  13.555  0.6258  0.2564  0.0517
 8544SOL     OW37090   1.096   3.308   8.122 -0.4822  0.1393 -0.1292
 8544SOL    HW137091   1.139   3.393   8.125  2.5728 -1.4906  1.2819
 8544SOL    HW237092   1.134   3.264   8.198 -2.0885 -0.2925  0.4354
 8545SOL     OW37093   4.313   4.624  15.112 -0.0184  0.1181  0.4372
 8545SOL    HW137094   4.296   4.531  15.100 -1.3300  0.6671 -1.7653
 8545SOL    HW237095   4.364   4.621  15.194  0.7987 -0.6338 -0.1032
 8546SOL     OW37096   2.075   2.060   4.928 -0.1611 -0.1664 -0.0538
 8546SOL    HW137097   1.994   2.051   4.979 -0.2881 -1.7358 -0.5356
 8546SOL    HW237098   2.045   2.069   4.837  0.1103  0.3519 -0.0934
 8547SOL     OW37099   3.036   4.105   4.148 -0.1940  0.3679 -0.6668
 8547SOL    HW137100   3.073   4.029   4.192 -1.1084  0.7568  0.7861
 8547SOL    HW237101   3.077   4.110   4.062 -0.7571  2.6924 -0.8203
 8548SOL     OW37102   3.192   4.456  12.809  0.0081  0.4843  0.0074
 8548SOL    HW137103   3.099   4.464  12.788 -0.2417  0.9345  1.3104
 8548SOL    HW237104   3.193   4.365  12.840 -3.6890  1.4252  2.8661
 8549SOL     OW37105   4.270   3.299  15.673 -0.2253 -0.1050 -0.0331
 8549SOL    HW137106   4.225   3.383  15.664 -0.8703 -0.6450 -1.8343
 8549SOL    HW237107   4.345   3.321  15.618 -2.0642 -0.7076 -2.7727
 8550SOL     OW37108   1.616   3.002   3.444 -0.2546  0.6051  1.0641
 8550SOL    HW137109   1.567   2.919   3.442  0.9523 -0.0664 -0.6351
 8550SOL    HW237110   1.666   2.981   3.365 -2.1716  1.8502 -0.5090
 8551SOL     OW37111   4.565   0.933  11.324  0.3327  0.6756 -0.0925
 8551SOL    HW137112   4.632   0.948  11.390 -0.8824  0.2451  1.2334
 8551SOL    HW237113   4.489   0.978  11.361 -0.0912  1.1493 -1.5238
 8552SOL     OW37114   2.044   0.014  14.448 -0.0226 -0.2484  0.5619
 8552SOL    HW137115   2.011   4.662  14.399  3.3943 -1.7490  0.4879
 8552SOL    HW237116   2.137   4.721  14.427  0.0046  0.0316  0.4735
 8553SOL     OW37117   4.399   3.215  12.733 -0.3643 -0.5151  0.4530
 8553SOL    HW137118   4.493   3.223  12.748 -0.6134  0.3034  1.5961
 8553SOL    HW237119   4.383   3.302  12.771  0.3037 -0.4103  0.4864
 8554SOL     OW37120   0.448   3.572  12.911  0.0047 -0.3487  0.1456
 8554SOL    HW137121   0.405   3.574  12.826  0.5146 -0.8790 -0.1212
 8554SOL    HW237122   0.456   3.664  12.938 -0.4968 -0.2062 -0.1911
 8555SOL     OW37123   3.094   1.636   6.865  0.0471 -0.4458 -0.5529
 8555SOL    HW137124   3.002   1.634   6.893 -0.2577  0.5169 -1.5292
 8555SOL    HW237125   3.085   1.614   6.772  1.1690 -0.0573 -0.7469
 8556SOL     OW37126   1.479   2.838   1.753  0.2072  0.4833 -0.1079
 8556SOL    HW137127   1.562   2.812   1.712  0.1504 -0.7581  0.5593
 8556SOL    HW237128   1.420   2.859   1.680  0.4143  0.3158 -0.3234
 8557SOL     OW37129   1.457   3.415   3.654 -0.0744  0.2004  0.1662
 8557SOL    HW137130   1.367   3.447   3.651 -0.9231 -2.0406  1.9394
 8557SOL    HW237131   1.438   3.323   3.671 -3.6602  1.4701  2.8368
 8558SOL     OW37132   0.147   0.053   3.993 -0.0451  0.2149 -0.3166
 8558SOL    HW137133   0.066   0.068   3.944 -0.0519  0.4173 -0.2455
 8558SOL    HW237134   0.106   0.001   4.062  1.3528  0.7332  0.9248
 8559SOL     OW37135   2.187   0.390   5.587 -0.2412  0.1296  0.2142
 8559SOL    HW137136   2.123   0.368   5.519  1.0119 -0.6112 -0.7212
 8559SOL    HW237137   2.190   0.314   5.644 -1.3362  0.2348  0.4025
 8560SOL     OW37138   0.223   4.689   6.878  0.1420  0.3178 -0.0460
 8560SOL    HW137139   0.296   0.002   6.928  1.6313 -1.7484 -0.7346
 8560SOL    HW237140   0.181   4.636   6.946  1.0850 -0.7061 -0.2627
 8561SOL     OW37141   0.843   1.177   7.186 -0.0115  0.9318 -0.4794
 8561SOL    HW137142   0.912   1.200   7.249  0.3293 -1.7197  0.1225
 8561SOL    HW237143   0.880   1.114   7.124 -1.1383  0.1063 -0.2933
 8562SOL     OW37144   0.199   0.927   4.448  0.1635 -0.9977  0.1095
 8562SOL    HW137145   0.151   0.853   4.412 -1.2544 -0.7245  1.4572
 8562SOL    HW237146   0.286   0.889   4.462 -0.5528 -2.2954  0.9897
 8563SOL     OW37147   3.646   2.897   4.533  0.1356  0.4212  0.7084
 8563SOL    HW137148   3.635   2.859   4.620  0.2304  0.2844  0.6620
 8563SOL    HW237149   3.640   2.991   4.551 -2.3870  0.5417 -0.7686
 8564SOL     OW37150   1.578   1.315   9.187  0.2916  0.0088 -0.1735
 8564SOL    HW137151   1.589   1.221   9.203  2.0940  0.3903  0.8005
 8564SOL    HW237152   1.655   1.328   9.131  0.2662 -1.3141 -0.5200
 8565SOL     OW37153   4.514   2.742   5.941 -0.3434  0.1700  0.0108
 8565SOL    HW137154   4.422   2.719   5.952 -0.0784 -0.3532  1.1227
 8565SOL    HW237155   4.504   2.770   5.850 -0.5731  0.7006  0.1987
 8566SOL     OW37156   1.782   3.530   2.020  0.5777  0.3546 -0.3268
 8566SOL    HW137157   1.711   3.592   2.001  0.5934  0.5537  0.2379
 8566SOL    HW237158   1.855   3.593   2.024  1.0490 -0.3665  2.7444
 8567SOL     OW37159   2.247   1.728  10.499  0.0044 -0.5100 -0.0561
 8567SOL    HW137160   2.291   1.809  10.472  0.3151 -0.7945 -0.3873
 8567SOL    HW237161   2.204   1.708  10.416 -0.7345  1.7435 -0.2180
 8568SOL     OW37162   0.858   3.211  15.073 -0.7340  0.6925  0.2024
 8568SOL    HW137163   0.870   3.216  15.168  0.7240  1.3557 -0.0207
 8568SOL    HW237164   0.885   3.122  15.049  0.3562  0.9254  0.5617
 8569SOL     OW37165   1.549   4.707  13.297  0.0335  0.4148  0.2269
 8569SOL    HW137166   1.511   4.672  13.216 -2.6283  0.7176  1.3740
 8569SOL    HW237167   1.559   0.073  13.264  1.1157 -0.6925 -2.4776
 8570SOL     OW37168   0.069   0.945  15.314 -0.0133  0.6786  0.0016
 8570SOL    HW137169   0.104   0.869  15.359 -1.4428  0.8494  1.4060
 8570SOL    HW237170   0.058   0.904  15.228  0.6917 -0.4586  0.4518
 8571SOL     OW37171   4.607   3.680   7.794 -0.0744 -0.1812 -0.5588
 8571SOL    HW137172   4.622   3.729   7.713  0.3629  1.0378  0.2605
 8571SOL    HW237173   4.528   3.632   7.770  0.1758 -0.9642  0.1604
 8572SOL     OW37174   1.312   0.203  10.134  0.0539  0.4419  0.0863
 8572SOL    HW137175   1.222   0.211  10.103  0.2701  1.5509 -0.2546
 8572SOL    HW237176   1.306   0.156  10.217  1.4604 -0.6711 -0.4275
 8573SOL     OW37177   0.256   3.265   3.687 -0.2150  0.3733  0.1631
 8573SOL    HW137178   0.245   3.289   3.779 -0.6605 -1.2133  0.5195
 8573SOL    HW237179   0.176   3.212   3.680 -2.2145  3.1742  1.5418
 8574SOL     OW37180   3.947   0.650   7.547 -0.0943  0.9552 -0.2667
 8574SOL    HW137181   3.877   0.619   7.489 -1.1424  0.7609  1.0920
 8574SOL    HW237182   3.988   0.717   7.493  2.2505 -1.3591 -1.3193
 8575SOL     OW37183   1.838   2.452   6.592 -0.0965  0.4834 -0.0544
 8575SOL    HW137184   1.849   2.438   6.498  1.0643  0.2402  0.1229
 8575SOL    HW237185   1.757   2.407   6.614  1.1266 -0.8792  1.6250
 8576SOL     OW37186   2.666   0.184   2.403 -0.2091 -0.1662 -0.9737
 8576SOL    HW137187   2.673   0.167   2.497 -0.4059  0.1294 -0.9053
 8576SOL    HW237188   2.595   0.246   2.389 -0.1108 -0.0269 -0.8431
 8577SOL     OW37189   2.410   4.633   4.059  0.0463  0.5877  0.4768
 8577SOL    HW137190   2.326   4.638   4.013 -0.9808 -3.6249  1.9291
 8577SOL    HW237191   2.447   4.718   4.035 -3.5511  1.8075 -0.7783
 8578SOL     OW37192   2.889   3.121   9.291 -0.1327 -0.2456  0.4770
 8578SOL    HW137193   2.862   3.037   9.329  0.2278 -0.6886 -0.2369
 8578SOL    HW237194   2.829   3.123   9.216  0.9769 -0.8631 -0.4337
 8579SOL     OW37195   3.299   2.433   3.476 -0.2048  0.4154 -0.2411
 8579SOL    HW137196   3.343   2.389   3.549  0.3676  0.0904 -0.7795
 8579SOL    HW237197   3.231   2.370   3.452  0.4812  0.2026 -1.6235
 8580SOL     OW37198   1.024   0.803  15.926  0.2989  0.2052 -0.1691
 8580SOL    HW137199   1.031   0.873  15.991 -1.6719 -0.1032  0.3731
 8580SOL    HW237200   1.045   0.724  15.975 -1.3945 -1.3615 -1.9351
 8581SOL     OW37201   0.907   3.711   4.326 -0.4275  0.1107  0.1358
 8581SOL    HW137202   0.892   3.792   4.374  0.1313 -0.7594  1.7957
 8581SOL    HW237203   0.936   3.644   4.389  2.8833  1.2163 -0.2013
 8582SOL     OW37204   2.751   0.251   7.682 -0.1825  0.2854  0.2589
 8582SOL    HW137205   2.736   0.322   7.745 -0.3813 -0.4363  1.0307
 8582SOL    HW237206   2.809   0.198   7.737  0.2054  0.9454  0.4938
 8583SOL     OW37207   4.003   3.529   3.076 -0.1735 -0.0852  0.4563
 8583SOL    HW137208   4.076   3.582   3.046 -0.8313 -1.1443 -3.0589
 8583SOL    HW237209   3.996   3.564   3.165 -4.3607 -0.8865  0.4569
 8584SOL     OW37210   4.231   2.525  12.032  0.3606  0.3418 -0.2452
 8584SOL    HW137211   4.226   2.575  11.951  0.2517 -0.3073 -0.6440
 8584SOL    HW237212   4.265   2.590  12.093  0.3056 -0.0294  0.1837
 8585SOL     OW37213   0.585   2.366   6.793  0.4432  0.4794 -0.0386
 8585SOL    HW137214   0.497   2.403   6.804  1.5066  2.7288  0.9943
 8585SOL    HW237215   0.576   2.272   6.783  0.1837  0.5653 -0.6191
 8586SOL     OW37216   1.175   0.576   8.581  0.3155  0.2307  0.4713
 8586SOL    HW137217   1.099   0.626   8.551  0.9140 -0.1002 -1.6334
 8586SOL    HW237218   1.139   0.495   8.616  1.0601 -0.8104 -1.1513
 8587SOL     OW37219   0.094   3.448   0.817  0.2114  0.3726 -0.1247
 8587SOL    HW137220   0.158   3.412   0.878 -0.9575  0.4182  1.1287
 8587SOL    HW237221   0.018   3.397   0.843  1.0854 -0.1123  1.4629
 8588SOL     OW37222   0.763   3.398   5.914 -0.2053  0.0517 -0.4431
 8588SOL    HW137223   0.739   3.311   5.883  0.1807 -0.2149  0.0039
 8588SOL    HW237224   0.842   3.404   5.860 -0.6228  1.5104 -0.9034
 8589SOL     OW37225   1.741   0.206  14.298  1.0080  0.0653 -0.8385
 8589SOL    HW137226   1.688   0.204  14.378  2.6775 -0.0284  0.2708
 8589SOL    HW237227   1.694   0.263  14.238  0.6309  1.7149  1.0155
 8590SOL     OW37228   1.118   1.974   4.125  0.4348 -0.3834  0.7453
 8590SOL    HW137229   1.055   1.920   4.077  0.1951  0.5161  0.0625
 8590SOL    HW237230   1.169   1.906   4.169  2.0422 -0.0280 -0.5436
 8591SOL     OW37231   0.521   2.612  14.872  0.4071 -0.1939 -0.2884
 8591SOL    HW137232   0.494   2.530  14.914 -2.3319  0.8817  0.0451
 8591SOL    HW237233   0.473   2.675  14.926  0.1151 -3.2619  3.0603
 8592SOL     OW37234   2.913   3.752  10.158  0.5042  0.3984  0.5343
 8592SOL    HW137235   2.909   3.766  10.252 -1.5885 -0.9964  0.6480
 8592SOL    HW237236   2.996   3.794  10.136  0.4976  0.3790  0.4716
 8593SOL     OW37237   0.981   2.288  12.394  0.0023 -0.2757 -0.0669
 8593SOL    HW137238   1.003   2.298  12.301  0.7137 -2.5382 -0.1461
 8593SOL    HW237239   0.903   2.343  12.404 -1.3549 -2.3077  0.5845
 8594SOL     OW37240   1.564   2.172   5.611 -0.1175 -0.1182 -0.2505
 8594SOL    HW137241   1.535   2.213   5.693  2.5372  2.0146 -0.3731
 8594SOL    HW237242   1.497   2.104   5.606 -0.2792 -0.0945  1.8128
 8595SOL     OW37243   1.597   4.600   6.241 -0.4321 -0.2897 -0.1697
 8595SOL    HW137244   1.599   4.546   6.162 -0.9800 -0.2424 -0.2116
 8595SOL    HW237245   1.554   4.551   6.311  1.9295 -2.6265 -0.3417
 8596SOL     OW37246   4.105   1.682  16.110  0.3258  0.7731  0.6565
 8596SOL    HW137247   4.162   1.750  16.147  0.1608  0.5244  1.3722
 8596SOL    HW237248   4.019   1.697  16.149 -0.1243  2.1132 -0.8987
 8597SOL     OW37249   3.953   1.460   8.767 -0.3459 -0.3206  0.1119
 8597SOL    HW137250   3.984   1.428   8.682 -0.6468  0.9919 -0.4935
 8597SOL    HW237251   3.915   1.543   8.739 -1.2589  0.3286  3.2445
 8598SOL     OW37252   3.589   3.215   4.887  0.1467 -0.3379 -0.2415
 8598SOL    HW137253   3.596   3.120   4.900 -0.5321 -0.3609 -0.0379
 8598SOL    HW237254   3.534   3.244   4.960  1.0432  0.2206  0.2038
 8599SOL     OW37255   1.564   2.610   0.791  0.2933 -0.2049  0.3218
 8599SOL    HW137256   1.556   2.704   0.777  0.4467  0.0990  2.2663
 8599SOL    HW237257   1.567   2.598   0.886  1.5891 -4.7777 -0.3036
 8600SOL     OW37258   3.339   3.563   5.100  0.0323 -0.6885 -0.0526
 8600SOL    HW137259   3.374   3.474   5.096 -1.7143 -1.4039  0.5585
 8600SOL    HW237260   3.278   3.571   5.027 -0.7425 -0.5978  0.6143
 8601SOL     OW37261   2.542   1.224   2.176  0.3887  0.1115  0.6756
 8601SOL    HW137262   2.598   1.273   2.236  2.7805 -0.0942 -1.3709
 8601SOL    HW237263   2.615   1.178   2.135 -0.1793 -0.5206  0.3599
 8602SOL     OW37264   0.282   2.762   1.328  0.5159  0.4980 -0.1015
 8602SOL    HW137265   0.285   2.807   1.412 -1.7536 -0.5532  0.5403
 8602SOL    HW237266   0.371   2.771   1.293  1.0824 -0.3056  1.1312
 8603SOL     OW37267   1.839   4.370  14.579 -0.5158 -0.4765 -0.2231
 8603SOL    HW137268   1.865   4.444  14.634 -1.8460  0.6813 -1.1598
 8603SOL    HW237269   1.920   4.342  14.538  0.2882 -0.2991  1.2554
 8604SOL     OW37270   0.881   3.139  15.340  0.5420  0.6040  0.1527
 8604SOL    HW137271   0.857   3.198  15.411 -3.8641  0.0507 -0.8865
 8604SOL    HW237272   0.828   3.062  15.360 -0.0380  0.8398 -0.4568
 8605SOL     OW37273   1.594   3.203   7.262 -0.2512  0.0454  0.0507
 8605SOL    HW137274   1.520   3.145   7.282  0.5680 -0.3476  1.9019
 8605SOL    HW237275   1.611   3.239   7.349  0.4941  1.2304 -0.5963
 8606SOL     OW37276   3.188   4.612  15.842  1.0180  0.2519 -0.0275
 8606SOL    HW137277   3.269   4.562  15.829  1.2203  1.0165 -1.6625
 8606SOL    HW237278   3.157   4.560  15.916  1.1051 -1.7663 -1.4072
 8607SOL     OW37279   1.009   4.550   3.339 -0.1808  0.3462 -0.0406
 8607SOL    HW137280   0.978   4.532   3.428 -1.1146  0.2075 -0.3962
 8607SOL    HW237281   1.102   4.569   3.352 -0.4396  0.8519  1.1408
 8608SOL     OW37282   4.674   3.578  10.361  0.1580 -0.0982 -0.2442
 8608SOL    HW137283   4.660   3.631  10.440  1.2539  1.1002 -0.8625
 8608SOL    HW237284   4.717   3.645  10.308  0.5206 -0.0015  0.1685
 8609SOL     OW37285   0.785   3.843  14.488  0.5010 -0.1226  0.1294
 8609SOL    HW137286   0.794   3.756  14.449 -0.1739  0.6734 -1.8056
 8609SOL    HW237287   0.755   3.885  14.407  1.8150  0.8284  0.1309
 8610SOL     OW37288   0.985   2.695  14.282 -0.5477 -0.1736  0.1376
 8610SOL    HW137289   0.941   2.683  14.366 -0.0619 -3.0442 -0.0022
 8610SOL    HW237290   1.002   2.601  14.268 -0.3470 -0.5776  3.0370
 8611SOL     OW37291   1.045   4.393   0.034  0.0020 -0.2479  0.0148
 8611SOL    HW137292   1.129   4.388  17.683  2.0490  0.1724  3.8846
 8611SOL    HW237293   1.076   4.428   0.118 -0.0633 -0.5049  0.1459
 8612SOL     OW37294   2.807   1.382  12.687 -0.0578 -1.0394 -0.4766
 8612SOL    HW137295   2.735   1.339  12.734 -0.5851 -0.3690 -0.6496
 8612SOL    HW237296   2.756   1.440  12.630 -0.0545  0.5557  1.0951
 8613SOL     OW37297   1.015   1.022   4.498  0.7107  0.0237  0.1724
 8613SOL    HW137298   1.008   1.067   4.414 -2.7966 -1.5100 -0.3553
 8613SOL    HW237299   1.103   1.043   4.529  0.4489  0.1462  0.8319
 8614SOL     OW37300   4.435   3.349   5.422 -0.1538  0.2952  0.0884
 8614SOL    HW137301   4.425   3.419   5.488 -2.6853 -0.2999  0.3226
 8614SOL    HW237302   4.402   3.395   5.345 -1.3704 -1.4845 -0.4472
 8615SOL     OW37303   3.313   2.381   6.180 -0.3440  0.2695  0.0429
 8615SOL    HW137304   3.279   2.321   6.114  0.1177  0.1745 -0.1045
 8615SOL    HW237305   3.255   2.361   6.254  0.0562 -0.8231  0.0623
 8616SOL     OW37306   3.411   1.453  14.558  0.6943 -0.2612 -0.0752
 8616SOL    HW137307   3.428   1.450  14.464 -2.1952  2.3823 -0.6561
 8616SOL    HW237308   3.352   1.528  14.557 -1.2068 -1.7747 -0.2631
 8617SOL     OW37309   2.796   1.093   6.556  0.5657  0.3283 -0.1124
 8617SOL    HW137310   2.759   1.072   6.470  0.0248 -0.4396  0.3107
 8617SOL    HW237311   2.889   1.087   6.536  0.6825  0.2405  0.4496
 8618SOL     OW37312   2.458   3.158  10.188 -0.2265 -0.2958  0.0789
 8618SOL    HW137313   2.485   3.155  10.280  0.1548 -1.5493 -0.0754
 8618SOL    HW237314   2.484   3.069  10.163  1.0887 -0.1007  0.7626
 8619SOL     OW37315   1.744   2.143   6.649 -0.5709  0.2251  0.2488
 8619SOL    HW137316   1.720   2.104   6.565  1.6497 -0.5806 -0.0184
 8619SOL    HW237317   1.740   2.067   6.706 -2.5032 -0.5458 -0.9283
 8620SOL     OW37318   2.458   2.204  12.946  0.0618 -0.3442 -0.1931
 8620SOL    HW137319   2.452   2.124  12.894 -2.4428  0.1292 -0.6196
 8620SOL    HW237320   2.368   2.203  12.977  0.2226  0.4020  0.3133
 8621SOL     OW37321   4.333   0.410  16.321  0.1293  0.5840  0.1419
 8621SOL    HW137322   4.270   0.471  16.284  0.2767  0.9206  0.4478
 8621SOL    HW237323   4.298   0.410  16.410  2.4041  0.2852  1.0252
 8622SOL     OW37324   3.489   4.278   5.191 -0.3892 -0.2589  0.0079
 8622SOL    HW137325   3.465   4.308   5.279  1.2740 -0.4893  0.5244
 8622SOL    HW237326   3.432   4.203   5.172  0.7694 -1.5820  1.7379
 8623SOL     OW37327   1.652   3.117   7.008 -0.5051 -0.6302  0.0046
 8623SOL    HW137328   1.628   3.187   6.948 -3.2756 -0.8861  0.8056
 8623SOL    HW237329   1.618   3.155   7.088 -2.4052 -2.7314  0.1923
 8624SOL     OW37330   3.881   0.922  11.383  0.1900 -1.0377  0.5326
 8624SOL    HW137331   3.797   0.877  11.376 -0.9428  1.5522 -2.3734
 8624SOL    HW237332   3.897   0.917  11.477 -2.1185  0.1919  0.9861
 8625SOL     OW37333   0.591   0.634   8.862 -0.0940  0.4857 -0.1780
 8625SOL    HW137334   0.579   0.722   8.825 -1.1955  1.1241  1.6885
 8625SOL    HW237335   0.645   0.599   8.791 -1.3251 -0.3825 -0.6721
 8626SOL     OW37336   3.788   2.501   1.982 -0.2079  0.3740  0.0146
 8626SOL    HW137337   3.854   2.529   1.920  0.5176  1.5024  1.3075
 8626SOL    HW237338   3.832   2.419   2.004  0.9567  0.6499 -1.3234
 8627SOL     OW37339   4.363   3.832   4.295  0.1350  0.3371 -0.0881
 8627SOL    HW137340   4.306   3.755   4.305  0.7913  0.0828  1.6402
 8627SOL    HW237341   4.438   3.784   4.260  0.1595 -0.0219  0.4580
 8628SOL     OW37342   0.636   0.352   4.626  0.0951 -0.8221 -0.8058
 8628SOL    HW137343   0.669   0.267   4.597  0.8362 -1.1496  0.9800
 8628SOL    HW237344   0.569   0.331   4.691  0.6581 -1.3996 -0.4058
 8629SOL     OW37345   0.389   0.205   7.350  0.1919 -0.1776  0.2589
 8629SOL    HW137346   0.376   0.289   7.394 -0.1955 -1.1345  1.9822
 8629SOL    HW237347   0.484   0.218   7.349  0.2960 -0.7738  1.5335
 8630SOL     OW37348   3.819   1.011   2.820 -0.8218  0.2947  0.1407
 8630SOL    HW137349   3.753   1.053   2.875 -1.5690 -1.8314  0.8631
 8630SOL    HW237350   3.761   0.970   2.755 -0.2856 -1.7768  0.9870
 8631SOL     OW37351   0.978   4.175   8.474  0.1052  0.1812 -0.4218
 8631SOL    HW137352   1.035   4.117   8.524 -0.1540  1.3167  1.1994
 8631SOL    HW237353   0.927   4.217   8.543  1.2931 -0.1114  0.6221
 8632SOL     OW37354   1.261   4.193   4.232  0.1865  0.0387 -0.5036
 8632SOL    HW137355   1.177   4.189   4.277 -0.3118 -2.7297 -1.7233
 8632SOL    HW237356   1.310   4.118   4.264  1.5714  0.3651 -1.8612
 8633SOL     OW37357   4.044   0.148  15.821 -0.1162 -0.2764  0.3084
 8633SOL    HW137358   4.028   0.194  15.739  3.3020  1.5613  0.6986
 8633SOL    HW237359   3.987   0.071  15.812 -1.2367  0.6216 -0.2193
 8634SOL     OW37360   2.736   3.397   5.091 -0.6894  0.2240  0.4362
 8634SOL    HW137361   2.820   3.425   5.056  0.7327 -1.4912  2.5039
 8634SOL    HW237362   2.757   3.382   5.183 -0.8589 -0.5769  0.3440
 8635SOL     OW37363   0.830   3.294   3.301  0.2704 -0.6802 -0.2688
 8635SOL    HW137364   0.796   3.206   3.286 -0.0317 -0.7552  0.8211
 8635SOL    HW237365   0.833   3.328   3.212 -1.1585  0.0531 -0.0523
 8636SOL     OW37366   0.481   0.955   6.513 -0.1298  0.0192 -0.2699
 8636SOL    HW137367   0.389   0.930   6.521 -0.3426  0.7266 -0.5056
 8636SOL    HW237368   0.504   0.944   6.421  0.2352  0.3119 -0.2156
 8637SOL     OW37369   0.615   3.408   2.883 -0.2778 -0.2474 -0.0471
 8637SOL    HW137370   0.546   3.444   2.828 -0.9581  0.0130  0.9695
 8637SOL    HW237371   0.569   3.365   2.955  1.0407 -1.1201  0.2854
 8638SOL     OW37372   0.792   1.978  13.228  0.3701  0.2335  0.8554
 8638SOL    HW137373   0.739   1.920  13.174  1.3302  0.2622 -0.1268
 8638SOL    HW237374   0.860   1.992  13.162  1.1094  0.3547  1.6431
 8639SOL     OW37375   0.363   3.441   2.712 -0.0456 -0.0450 -0.0755
 8639SOL    HW137376   0.428   3.384   2.670 -1.2638 -2.4368  1.2282
 8639SOL    HW237377   0.347   3.516   2.655  0.1879  0.9100  1.1146
 8640SOL     OW37378   3.116   3.272   8.989 -0.1826  0.4653 -0.1350
 8640SOL    HW137379   3.177   3.327   8.939  0.6591 -0.8424 -0.5249
 8640SOL    HW237380   3.102   3.194   8.937  0.7963  0.5964 -0.5916
 8641SOL     OW37381   1.159   0.870   2.700 -0.2159  0.3702  0.2867
 8641SOL    HW137382   1.206   0.844   2.621 -1.2982 -1.2285  0.1802
 8641SOL    HW237383   1.115   0.954   2.683  1.7064  0.9948 -1.5921
 8642SOL     OW37384   1.183   1.462   4.430  0.1162 -0.6277 -0.5209
 8642SOL    HW137385   1.096   1.439   4.398 -0.5435  1.9623 -0.5887
 8642SOL    HW237386   1.231   1.402   4.374 -0.2139 -1.4522  0.0780
 8643SOL     OW37387   1.795   3.371   2.679 -0.2152  0.2202 -0.1430
 8643SOL    HW137388   1.712   3.381   2.633 -0.5655  2.8814  1.0954
 8643SOL    HW237389   1.861   3.393   2.614 -2.5398  0.1253 -2.5287
 8644SOL     OW37390   1.731   3.097   7.761 -0.0022 -0.4309  0.0315
 8644SOL    HW137391   1.811   3.147   7.777 -1.7234  3.3392 -3.2560
 8644SOL    HW237392   1.732   3.050   7.845  3.3304 -0.7196 -0.1733
 8645SOL     OW37393   3.319   2.547   8.185  0.0305  0.3198 -0.0350
 8645SOL    HW137394   3.327   2.460   8.223 -0.0514  0.0966 -0.5272
 8645SOL    HW237395   3.410   2.569   8.202 -0.2624  1.5086 -0.0108
 8646SOL     OW37396   2.264   1.912  11.602  0.1870 -0.3003  0.8914
 8646SOL    HW137397   2.312   1.853  11.660  0.5883 -1.4028 -0.5461
 8646SOL    HW237398   2.245   1.856  11.527  1.8685  0.5746 -0.2156
 8647SOL     OW37399   4.010   3.817   2.810  0.0784 -0.1334 -0.0257
 8647SOL    HW137400   4.083   3.865   2.851 -0.3668  0.8236 -0.3745
 8647SOL    HW237401   3.940   3.876   2.838  0.6129 -0.6000  2.3263
 8648SOL     OW37402   1.304   2.791   7.067  0.0123 -0.0729 -0.5288
 8648SOL    HW137403   1.391   2.795   7.026  0.0641 -1.2503 -0.5358
 8648SOL    HW237404   1.278   2.704   7.036 -1.4669  0.2685 -0.2009
 8649SOL     OW37405   4.568   4.400   6.784  0.3924 -0.0615  0.4025
 8649SOL    HW137406   4.638   4.337   6.802 -0.1801 -0.4684  1.2148
 8649SOL    HW237407   4.587   4.432   6.696 -0.3569  1.8791  0.9627
 8650SOL     OW37408   0.547   0.785   2.862 -0.4114  0.2065 -0.1699
 8650SOL    HW137409   0.590   0.856   2.813 -1.3324 -0.2245 -1.6299
 8650SOL    HW237410   0.583   0.788   2.950  0.5031 -3.4860 -0.4309
 8651SOL     OW37411   2.051   1.487   1.168 -0.4143  1.0877 -0.4024
 8651SOL    HW137412   2.046   1.396   1.196 -3.3079  1.9411  1.8223
 8651SOL    HW237413   2.091   1.521   1.248  1.7332 -1.6065 -0.3460
 8652SOL     OW37414   4.682   2.383   7.776  0.1912  0.3370  0.3369
 8652SOL    HW137415   4.595   2.413   7.752 -0.4241 -0.8802  1.0225
 8652SOL    HW237416   4.692   2.322   7.702  0.2448  3.3556 -2.1237
 8653SOL     OW37417   0.710   4.034  14.696  0.5382 -0.3253  0.1344
 8653SOL    HW137418   0.719   4.119  14.653  0.1003 -0.0728  0.5282
 8653SOL    HW237419   0.741   3.983  14.622 -2.2099 -0.8557 -0.6587
 8654SOL     OW37420   0.847   3.044   8.319  0.2055  0.0879  0.9850
 8654SOL    HW137421   0.896   2.987   8.261  0.1034  0.1388  0.8495
 8654SOL    HW237422   0.879   3.016   8.405  1.1795  0.1808  0.6569
 8655SOL     OW37423   2.279   1.929   5.949  0.0571  0.4300 -0.0344
 8655SOL    HW137424   2.209   1.969   6.000  0.2641 -0.7499  1.1688
 8655SOL    HW237425   2.257   1.954   5.859  2.2482 -1.1727 -1.0282
 8656SOL     OW37426   0.309   3.563   5.665 -0.5900 -0.0781  0.2525
 8656SOL    HW137427   0.373   3.634   5.668 -0.4959 -0.1201 -0.8104
 8656SOL    HW237428   0.368   3.489   5.659  0.6371  1.0216 -1.2265
 8657SOL     OW37429   4.474   0.471  13.208 -0.4908 -0.2717 -0.3498
 8657SOL    HW137430   4.562   0.508  13.216 -0.4055 -0.3697 -0.8618
 8657SOL    HW237431   4.485   0.403  13.142 -0.7578 -1.9530  1.3267
 8658SOL     OW37432   4.396   4.114   2.429 -0.3508 -0.3473 -0.3048
 8658SOL    HW137433   4.384   4.207   2.409 -2.9950 -0.7802 -0.7127
 8658SOL    HW237434   4.345   4.079   2.356 -0.9290  0.0470 -0.0962
 8659SOL     OW37435   2.235   4.387   4.252 -0.0264  0.1833 -0.2425
 8659SOL    HW137436   2.245   4.460   4.313  0.4371 -0.4232  0.3970
 8659SOL    HW237437   2.271   4.426   4.172  1.7161 -2.1021 -0.5620
 8660SOL     OW37438   0.922   3.349  13.648 -0.3482 -0.3326 -0.4566
 8660SOL    HW137439   0.983   3.417  13.677 -0.3196 -0.0156 -1.2664
 8660SOL    HW237440   0.898   3.314  13.734  0.8794  0.0344  0.0384
 8661SOL     OW37441   1.487   0.196   8.664 -0.0403 -0.1580  0.4831
 8661SOL    HW137442   1.461   0.236   8.581  3.3774 -0.8415 -0.8790
 8661SOL    HW237443   1.400   0.187   8.704 -0.4447 -0.0780 -0.3740
 8662SOL     OW37444   4.069   0.652  11.676  0.5207 -0.1815  0.7736
 8662SOL    HW137445   4.105   0.590  11.613 -1.2036 -0.1535 -0.2434
 8662SOL    HW237446   4.150   0.674  11.723  2.1689 -3.2021 -0.6761
 8663SOL     OW37447   2.152   1.493  12.928 -0.4611  0.2675  0.2095
 8663SOL    HW137448   2.232   1.441  12.922 -0.3033  0.3744  1.4996
 8663SOL    HW237449   2.125   1.497  12.836  0.2726  0.4673  0.0057
 8664SOL     OW37450   1.292   4.684   9.975 -0.2206  0.6205 -0.8282
 8664SOL    HW137451   1.255   4.628  10.043  2.2107  1.2511  0.9936
 8664SOL    HW237452   1.288   0.052  10.002  0.8399  0.6335 -0.7337
 8665SOL     OW37453   0.138   3.328  14.374 -0.2645  0.0415  0.1692
 8665SOL    HW137454   0.187   3.269  14.431 -0.8873 -0.5266  0.1099
 8665SOL    HW237455   0.204   3.359  14.312  0.5506 -0.5536  0.7448
 8666SOL     OW37456   3.367   2.361   4.507  0.2492  0.2273 -0.4683
 8666SOL    HW137457   3.368   2.277   4.461 -1.0437  0.2138 -0.4746
 8666SOL    HW237458   3.413   2.418   4.445 -2.9525  2.3858 -0.8350
 8667SOL     OW37459   2.677   0.972   6.767  0.4150  0.3481 -0.7022
 8667SOL    HW137460   2.688   0.882   6.735 -1.6906 -0.0573 -0.2678
 8667SOL    HW237461   2.718   1.019   6.695 -0.6912  0.5241 -1.2083
 8668SOL     OW37462   2.739   3.532  16.801  0.1008 -0.3972 -0.8895
 8668SOL    HW137463   2.814   3.485  16.837  0.3581  0.0701 -0.8118
 8668SOL    HW237464   2.726   3.481  16.721 -2.7798  0.1518 -0.7893
 8669SOL     OW37465   4.214   1.552  15.344  0.4900 -0.7380  0.0433
 8669SOL    HW137466   4.303   1.584  15.359 -0.9339  2.0821  2.3297
 8669SOL    HW237467   4.227   1.464  15.380 -0.8818 -0.6385  0.7648
 8670SOL     OW37468   1.734   2.777   8.479  0.0152 -0.3356  0.0547
 8670SOL    HW137469   1.765   2.692   8.510 -2.4856 -2.0889 -2.2145
 8670SOL    HW237470   1.816   2.814   8.448  0.0530  0.5450  1.2138
 8671SOL     OW37471   4.097   3.541   8.330 -0.0472 -0.0309 -0.3120
 8671SOL    HW137472   4.031   3.600   8.294 -0.6559 -0.5586 -0.0520
 8671SOL    HW237473   4.176   3.563   8.279  0.0975  2.5321  1.0506
 8672SOL     OW37474   0.812   4.619   8.740 -0.0996 -0.4164  0.3440
 8672SOL    HW137475   0.892   4.665   8.766  0.6452 -0.7894 -1.3128
 8672SOL    HW237476   0.746   4.650   8.802 -0.9325 -1.0022 -0.2512
 8673SOL     OW37477   0.153   2.435   4.333 -0.2008  0.0111  0.4032
 8673SOL    HW137478   0.123   2.350   4.300  1.1931 -0.4069  0.1804
 8673SOL    HW237479   0.131   2.415   4.424 -2.2413  0.5566  0.0264
 8674SOL     OW37480   3.555   2.351   4.694  0.2163 -0.3297  0.0523
 8674SOL    HW137481   3.482   2.361   4.633 -0.6115 -0.3529  1.0520
 8674SOL    HW237482   3.564   2.256   4.690 -4.1790 -0.7807  1.4922
 8675SOL     OW37483   2.154   2.483   3.369  0.5170  0.0447 -0.0548
 8675SOL    HW137484   2.197   2.397   3.368 -0.6227 -0.5488  1.6771
 8675SOL    HW237485   2.203   2.521   3.442  1.1488  0.3802 -0.6645
 8676SOL     OW37486   0.243   4.567   0.675  0.2046  0.4055 -0.0180
 8676SOL    HW137487   0.166   4.623   0.666  0.3305  0.3982 -1.2481
 8676SOL    HW237488   0.204   4.487   0.638 -1.3769  1.1587  0.0390
 8677SOL     OW37489   2.764   4.021   0.876 -0.1240 -0.5095  0.6025
 8677SOL    HW137490   2.814   3.953   0.921  1.8086 -1.3184 -2.7844
 8677SOL    HW237491   2.683   3.977   0.848 -0.2463  0.3672 -0.4136
 8678SOL     OW37492   4.186   1.070  10.273  0.0425  0.1337 -0.0771
 8678SOL    HW137493   4.166   1.098  10.184 -0.5051 -2.1857 -0.6850
 8678SOL    HW237494   4.110   1.019  10.301  0.9243 -0.3837  1.3739
 8679SOL     OW37495   2.801   1.974  10.992  0.1971  0.0275  0.6573
 8679SOL    HW137496   2.756   1.906  11.042  0.0382 -0.4025 -0.0801
 8679SOL    HW237497   2.776   2.047  11.050  0.9792  0.6766  0.1946
 8680SOL     OW37498   0.050   0.002   7.107  0.2522 -0.0863  0.8560
 8680SOL    HW137499   0.125   4.704   7.163 -0.8123 -0.9915  1.9393
 8680SOL    HW237500   0.067   0.096   7.097  0.5949 -0.2452 -0.0731
 8681SOL     OW37501   3.481   0.661   7.609  0.0799 -0.1628 -0.8957
 8681SOL    HW137502   3.496   0.635   7.518 -1.7409  3.1390 -2.1496
 8681SOL    HW237503   3.434   0.743   7.592 -0.3673 -0.0459  0.8740
 8682SOL     OW37504   0.044   3.222   1.163 -0.1178 -0.9974 -0.3312
 8682SOL    HW137505   4.695   3.159   1.155  0.0423 -1.0806 -1.1385
 8682SOL    HW237506   0.093   3.174   1.229  2.4086  1.9190 -0.1375
 8683SOL     OW37507   4.215   0.347  13.615  0.3037 -0.6290 -0.1694
 8683SOL    HW137508   4.208   0.252  13.628 -0.3796 -0.4911  0.4092
 8683SOL    HW237509   4.173   0.385  13.691  0.8184  0.1983 -0.3015
 8684SOL     OW37510   3.983   0.697   8.131  0.7039 -0.7809 -0.1169
 8684SOL    HW137511   4.016   0.780   8.094 -0.6267 -0.5134 -0.6960
 8684SOL    HW237512   3.926   0.728   8.200  0.6092 -1.2537  0.0150
 8685SOL     OW37513   3.529   3.955   7.171  0.0660  0.0567  0.1721
 8685SOL    HW137514   3.548   3.909   7.253 -1.8324  1.7199  1.5452
 8685SOL    HW237515   3.591   4.029   7.172 -0.4872  0.4987  2.5105
 8686SOL     OW37516   4.131   0.829  12.888 -0.2766  0.6658 -0.6153
 8686SOL    HW137517   4.076   0.889  12.837  0.7651  0.5879 -1.8259
 8686SOL    HW237518   4.125   0.877  12.971  1.0904 -0.6850  0.2682
 8687SOL     OW37519   4.215   3.010   2.305  0.1896  0.4102  0.5546
 8687SOL    HW137520   4.148   2.959   2.352  1.3320 -0.5961  1.0869
 8687SOL    HW237521   4.243   2.950   2.236 -2.8338  1.7732 -1.8623
 8688SOL     OW37522   0.422   2.082  17.651  0.3218 -0.0586  0.0450
 8688SOL    HW137523   0.382   2.156   0.002  0.1356  1.2313 -2.2743
 8688SOL    HW237524   0.515   2.097  17.672  0.1690  1.7136 -0.5098
 8689SOL     OW37525   3.105   0.622   3.448 -0.2537 -0.0767  0.8827
 8689SOL    HW137526   3.029   0.568   3.428  0.0111 -1.0277  2.3994
 8689SOL    HW237527   3.167   0.556   3.481  1.5734  1.1202 -0.1766
 8690SOL     OW37528   0.698   1.187   8.556 -0.5058  0.1643  0.1291
 8690SOL    HW137529   0.750   1.237   8.618  0.9030  1.3441 -2.0015
 8690SOL    HW237530   0.607   1.201   8.582 -0.3809  1.8374 -0.3685
 8691SOL     OW37531   0.318   2.948   4.610  0.0151  0.1272  0.2960
 8691SOL    HW137532   0.349   2.879   4.551 -0.2290  1.3010 -1.2011
 8691SOL    HW237533   0.224   2.929   4.602  0.0868 -0.8741  1.8203
 8692SOL     OW37534   3.666   3.462   6.690  0.1753  0.6406  0.1932
 8692SOL    HW137535   3.634   3.553   6.687 -1.2078  0.0874 -1.7072
 8692SOL    HW237536   3.623   3.426   6.613  2.6809 -0.8223 -0.5051
 8693SOL     OW37537   4.157   0.237   6.915  0.7223 -0.4217 -0.1558
 8693SOL    HW137538   4.235   0.273   6.959  1.0421 -2.8455  1.2998
 8693SOL    HW237539   4.127   0.185   6.990  1.4391 -0.4279  0.1310
 8694SOL     OW37540   1.237   4.238   6.518  0.3916 -0.0604  0.2732
 8694SOL    HW137541   1.283   4.267   6.597 -0.2127  2.1323 -0.2029
 8694SOL    HW237542   1.304   4.195   6.464 -0.9477  2.1434 -3.1166
 8695SOL     OW37543   2.297   2.833   0.520  0.4595 -0.7365 -0.3951
 8695SOL    HW137544   2.287   2.849   0.426 -2.8467  0.8349  0.2218
 8695SOL    HW237545   2.249   2.750   0.526  0.5241 -0.8130 -0.8841
 8696SOL     OW37546   0.297   1.326   2.004  0.0524 -0.5279 -0.4544
 8696SOL    HW137547   0.367   1.365   1.952  1.6104  0.6151  2.4638
 8696SOL    HW237548   0.290   1.384   2.081  0.2654  0.3803 -1.1146
 8697SOL     OW37549   2.316   0.569   8.194 -0.5736  0.4466  0.1441
 8697SOL    HW137550   2.316   0.477   8.222  1.1361 -0.4452 -2.7394
 8697SOL    HW237551   2.307   0.563   8.099 -0.8999 -0.4893  0.2276
 8698SOL     OW37552   0.434   4.581   8.632  0.0083 -0.5651  0.2693
 8698SOL    HW137553   0.445   4.611   8.722 -1.9914  0.7235  0.0876
 8698SOL    HW237554   0.423   4.660   8.579  0.3737 -0.7398 -0.0682
 8699SOL     OW37555   1.345   1.819  14.605  0.1338 -0.4096 -0.2254
 8699SOL    HW137556   1.400   1.898  14.611  1.9850 -1.5091 -2.9595
 8699SOL    HW237557   1.390   1.768  14.673  0.1530 -1.7437 -1.2469
 8700SOL     OW37558   3.862   3.682  11.244 -0.9724  0.1846  0.1433
 8700SOL    HW137559   3.866   3.751  11.311 -2.7508 -0.3121  0.7759
 8700SOL    HW237560   3.928   3.708  11.180 -2.8797  2.1669 -1.0317
 8701SOL     OW37561   4.527   1.601   8.910  0.5875  0.0291  0.5086
 8701SOL    HW137562   4.600   1.662   8.917  0.6235  0.0979 -0.4418
 8701SOL    HW237563   4.551   1.531   8.971  3.1586 -1.6568 -2.4313
 8702SOL     OW37564   0.804   1.322   3.450 -0.0693  0.6292 -0.2967
 8702SOL    HW137565   0.741   1.339   3.381 -0.4113  1.8070  0.3062
 8702SOL    HW237566   0.804   1.396   3.511  1.0831  1.3516 -1.1601
 8703SOL     OW37567   0.711   1.498   3.899 -0.1590 -0.2517 -0.0904
 8703SOL    HW137568   0.692   1.410   3.929  0.2807 -0.3284 -0.0388
 8703SOL    HW237569   0.639   1.546   3.940 -0.0861 -1.0545  0.9626
 8704SOL     OW37570   2.305   3.047  16.671 -0.5095  0.6172 -0.4332
 8704SOL    HW137571   2.294   3.075  16.581  2.9429 -0.1971 -1.1368
 8704SOL    HW237572   2.398   3.033  16.690 -0.4141  1.2651 -0.4336
 8705SOL     OW37573   3.171   3.668   8.617 -0.4301  0.5108  0.3297
 8705SOL    HW137574   3.139   3.645   8.704  0.4929 -0.7584  0.3275
 8705SOL    HW237575   3.168   3.582   8.575 -0.3785 -0.6720  2.7774
 8706SOL     OW37576   2.014   2.546   4.715 -0.0706  0.1876 -0.1098
 8706SOL    HW137577   2.046   2.622   4.667  3.2451 -1.3048 -0.2413
 8706SOL    HW237578   1.923   2.574   4.728 -0.9553 -1.3410 -3.0519
 8707SOL     OW37579   1.583   3.123   1.145 -0.0805 -0.3127 -0.0665
 8707SOL    HW137580   1.532   3.097   1.068  0.4821  2.6596 -1.4531
 8707SOL    HW237581   1.536   3.203   1.171  1.0709  1.0803 -2.2804
 8708SOL     OW37582   2.789   0.773   4.424  0.0222  0.7872 -0.0935
 8708SOL    HW137583   2.764   0.819   4.344  0.1431 -0.1228 -0.6571
 8708SOL    HW237584   2.881   0.794   4.439  0.6571 -1.1236 -1.2996
 8709SOL     OW37585   1.391   0.137   2.758 -0.0799  0.0057  0.2263
 8709SOL    HW137586   1.301   0.163   2.737 -1.0976 -1.7636  2.4273
 8709SOL    HW237587   1.391   0.049   2.720  1.2848 -0.0484  0.3399
 8710SOL     OW37588   4.158   1.966   3.697  0.7571 -0.1505 -0.1469
 8710SOL    HW137589   4.159   2.061   3.682  0.7421 -0.7431 -3.8431
 8710SOL    HW237590   4.252   1.946   3.698  0.8156  0.1071 -0.7711
 8711SOL     OW37591   3.699   2.861  11.233  0.0545 -0.3099  0.1866
 8711SOL    HW137592   3.745   2.878  11.315  1.7291 -0.3828 -0.7251
 8711SOL    HW237593   3.617   2.833  11.272 -0.8987  2.5464  0.2032
 8712SOL     OW37594   0.008   3.319   4.864 -0.2637  0.0003  0.1862
 8712SOL    HW137595   0.019   3.381   4.792  1.4447 -2.0953 -1.3363
 8712SOL    HW237596   4.645   3.351   4.891  0.0395 -0.2388  1.4648
 8713SOL     OW37597   3.913   0.288   6.763 -0.0339 -0.1637  0.1733
 8713SOL    HW137598   3.925   0.325   6.676  1.0825  0.6493  0.6697
 8713SOL    HW237599   4.004   0.283   6.794 -0.3008 -0.3591  0.9124
 8714SOL     OW37600   3.902   4.586   1.860  0.3743  0.1406 -0.5281
 8714SOL    HW137601   3.971   4.524   1.882 -1.6028 -1.9157 -0.0678
 8714SOL    HW237602   3.868   4.543   1.781  1.0968  1.4650 -1.5532
 8715SOL     OW37603   0.255   2.186  14.805 -0.1916 -0.2752  0.5713
 8715SOL    HW137604   0.210   2.125  14.747 -0.0999  1.2668 -1.1397
 8715SOL    HW237605   0.342   2.159  14.776 -0.6771 -0.4096 -0.7772
 8716SOL     OW37606   4.712   0.193   7.664 -0.1210  0.0633  0.2809
 8716SOL    HW137607   0.053   0.142   7.613 -0.1285 -2.2133  2.5415
 8716SOL    HW237608   0.032   0.182   7.749  1.5602  0.5258 -0.5111
 8717SOL     OW37609   0.065   3.168  11.180 -0.3466  0.0640  0.3949
 8717SOL    HW137610   0.152   3.209  11.180 -0.6670  0.7517  0.5710
 8717SOL    HW237611   0.028   3.194  11.265  0.8815  1.6504  0.4482
 8718SOL     OW37612   2.684   1.007   5.577  0.3506 -0.0314  0.4269
 8718SOL    HW137613   2.720   0.920   5.592  0.7313  0.3820  1.8350
 8718SOL    HW237614   2.758   1.048   5.531  0.5853 -3.1841 -2.0065
 8719SOL     OW37615   0.992   3.674   1.373 -0.1155  0.4494 -0.0839
 8719SOL    HW137616   1.018   3.735   1.304  2.8039 -1.6868 -0.8533
 8719SOL    HW237617   0.899   3.694   1.381 -0.3068  0.1949 -1.6392
 8720SOL     OW37618   2.052   1.438   4.259 -0.2555  0.6224  0.1360
 8720SOL    HW137619   2.018   1.387   4.186 -0.4482 -1.2208  1.5159
 8720SOL    HW237620   2.138   1.461   4.224 -0.3699 -0.5011 -0.8597
 8721SOL     OW37621   2.155   3.151  16.420 -0.4014  0.2867  0.3767
 8721SOL    HW137622   2.155   3.233  16.468 -2.2542  0.6784 -0.2866
 8721SOL    HW237623   2.128   3.182  16.333 -0.5958 -0.4882  0.1579
 8722SOL     OW37624   0.165   0.119   5.953  0.5896 -0.0872  0.6493
 8722SOL    HW137625   0.155   0.058   5.880  2.7416 -0.5721  0.7608
 8722SOL    HW237626   0.084   0.107   6.002  1.4016 -1.1934  1.7279
 8723SOL     OW37627   3.093   1.240  12.975 -0.9626  0.4501  0.0279
 8723SOL    HW137628   3.053   1.209  12.894  0.0562 -0.0119 -0.3033
 8723SOL    HW237629   3.014   1.256  13.027  0.3073 -1.8343  2.6484
 8724SOL     OW37630   0.626   2.288  10.599 -0.4193  0.3235 -0.4752
 8724SOL    HW137631   0.668   2.328  10.674 -0.2175  0.0178 -0.4260
 8724SOL    HW237632   0.681   2.210  10.595  0.5976  0.9478  1.6230
 8725SOL     OW37633   1.758   2.396   4.831 -0.0242 -0.0412 -0.0259
 8725SOL    HW137634   1.684   2.336   4.834 -0.4380  0.4311 -0.8510
 8725SOL    HW237635   1.750   2.429   4.742 -2.6865 -0.0629  0.2054
 8726SOL     OW37636   2.630   1.527   3.283  0.0663 -0.4793  0.0297
 8726SOL    HW137637   2.722   1.522   3.258 -0.0147 -1.4922 -0.0600
 8726SOL    HW237638   2.635   1.558   3.373  1.6404  0.5720 -0.4177
 8727SOL     OW37639   4.418   3.609   2.328 -0.3853 -0.2867  0.1426
 8727SOL    HW137640   4.488   3.569   2.276  0.0380 -0.5367  0.8933
 8727SOL    HW237641   4.467   3.666   2.387 -1.7270  0.1692  0.8215
 8728SOL     OW37642   0.342   3.688   2.587  0.5191  0.6945 -0.6946
 8728SOL    HW137643   0.354   3.695   2.493  1.8863  1.5826 -0.4607
 8728SOL    HW237644   0.292   3.763   2.617  1.3929  1.4770 -1.1857
 8729SOL     OW37645   3.212   1.925   5.709 -0.4794 -0.0722 -0.1563
 8729SOL    HW137646   3.192   1.878   5.628 -1.8684  0.2916 -0.0284
 8729SOL    HW237647   3.224   2.011   5.670 -0.2585 -2.1539 -4.6657
 8730SOL     OW37648   4.679   4.441   6.097 -0.7575  0.0308 -0.1883
 8730SOL    HW137649   4.587   4.421   6.113 -0.6432  0.0458  0.4742
 8730SOL    HW237650   4.720   4.368   6.142 -0.1993 -0.0101 -0.7567
 8731SOL     OW37651   0.313   1.581  17.077  0.3651  0.6605 -0.3169
 8731SOL    HW137652   0.320   1.659  17.131 -0.1581  0.3343  0.2133
 8731SOL    HW237653   0.226   1.592  17.039  1.3006  1.2996 -2.3388
 8732SOL     OW37654   4.549   3.455   8.163 -0.4587 -0.0765 -0.2617
 8732SOL    HW137655   4.599   3.408   8.097  1.2515  1.1897  0.1646
 8732SOL    HW237656   4.512   3.382   8.213 -1.9891  2.2849  2.0435
 8733SOL     OW37657   2.698   1.184  10.571 -0.0664 -0.2178  0.2996
 8733SOL    HW137658   2.664   1.126  10.503 -1.5105 -2.4756  2.9616
 8733SOL    HW237659   2.640   1.260  10.564  1.5624  1.1974  2.4004
 8734SOL     OW37660   1.685   1.467   2.107  0.2125 -0.4991  0.1730
 8734SOL    HW137661   1.701   1.441   2.016 -0.4938 -0.8850  0.1656
 8734SOL    HW237662   1.732   1.550   2.119  1.2451 -0.8173 -1.7528
 8735SOL     OW37663   3.201   1.296  10.159 -0.3296  0.0777  0.2159
 8735SOL    HW137664   3.162   1.215  10.127  0.8242  0.4509 -2.1275
 8735SOL    HW237665   3.136   1.329  10.221  1.5847  0.7530  1.8863
 8736SOL     OW37666   4.276   3.342  15.335  0.9375  0.2495  0.0755
 8736SOL    HW137667   4.352   3.369  15.386  0.8717  0.8818 -0.1614
 8736SOL    HW237668   4.306   3.265  15.286 -1.4845 -0.7654  0.1616
 8737SOL     OW37669   3.641   0.796   3.618  0.0266  0.4487 -0.0574
 8737SOL    HW137670   3.597   0.712   3.625 -0.3583  0.4654 -2.3750
 8737SOL    HW237671   3.714   0.789   3.679 -1.8344  0.5479  2.1910
 8738SOL     OW37672   3.484   3.636   8.654 -0.0308  0.1956 -0.4014
 8738SOL    HW137673   3.391   3.627   8.635 -0.6929  0.2240  2.7733
 8738SOL    HW237674   3.494   3.731   8.644 -2.9785  0.4880 -0.4785
 8739SOL     OW37675   2.822   1.771   4.939  0.1763 -0.2452  0.1615
 8739SOL    HW137676   2.825   1.688   4.891  1.1113  0.5982 -1.2519
 8739SOL    HW237677   2.799   1.829   4.867 -1.7466  0.6019  1.4666
 8740SOL     OW37678   4.459   0.899  13.027  0.1719  0.3043  0.2084
 8740SOL    HW137679   4.528   0.858  12.974 -0.4445  1.2672 -1.3402
 8740SOL    HW237680   4.424   0.819  13.065  1.5971  0.4484  1.8260
 8741SOL     OW37681   4.339   3.585   4.540  0.4225  0.2321  0.1624
 8741SOL    HW137682   4.426   3.625   4.542  0.9590 -0.9069 -0.3260
 8741SOL    HW237683   4.349   3.527   4.464  1.1504  0.2983  0.2066
 8742SOL     OW37684   2.985   2.680  10.060  0.3088 -0.0535  0.4131
 8742SOL    HW137685   2.971   2.775  10.053  2.6192  0.2837  0.2840
 8742SOL    HW237686   3.065   2.679  10.113  1.3676  1.2057 -1.1628
 8743SOL     OW37687   1.303   4.633   3.060 -0.3749 -0.1457  0.1777
 8743SOL    HW137688   1.231   4.598   3.007 -0.1898 -1.2298  0.6599
 8743SOL    HW237689   1.301   4.570   3.131  0.0849  1.0439  1.2420
 8744SOL     OW37690   2.181   0.027   8.583  0.0136 -0.6438 -0.6748
 8744SOL    HW137691   2.214   0.118   8.585 -2.7484  0.2753  3.9759
 8744SOL    HW237692   2.209   4.696   8.657  4.9747 -1.6473 -3.2984
 8745SOL     OW37693   2.087   3.466   3.045  0.5557  0.3297  0.3726
 8745SOL    HW137694   2.057   3.391   2.995 -2.4303  0.3668  2.0869
 8745SOL    HW237695   2.023   3.528   3.011  1.7364  1.1880 -0.3177
 8746SOL     OW37696   3.861   0.030   4.374  0.4278 -0.2843 -0.2544
 8746SOL    HW137697   3.850   0.105   4.433 -2.2034 -1.7168  1.0852
 8746SOL    HW237698   3.782   0.036   4.320 -0.7477  3.4256  1.8666
 8747SOL     OW37699   1.241   2.376   9.419  0.6868 -0.0002  0.3370
 8747SOL    HW137700   1.221   2.445   9.482  0.2750  0.1183  0.0810
 8747SOL    HW237701   1.301   2.423   9.362  1.5786  0.7983  1.9509
 8748SOL     OW37702   1.647   3.176   8.783 -0.2933  0.3290  0.1260
 8748SOL    HW137703   1.560   3.194   8.818 -0.4936  1.1743 -0.8198
 8748SOL    HW237704   1.681   3.266   8.783 -0.7154  0.4990  2.9270
 8749SOL     OW37705   1.956   3.235   7.787 -0.2315 -0.0730 -0.3025
 8749SOL    HW137706   1.925   3.323   7.766  0.9019  0.0683 -1.3533
 8749SOL    HW237707   1.993   3.259   7.872  1.2808  1.7726 -1.4793
 8750SOL     OW37708   1.196   0.803   2.393  0.5129  0.1614  0.2897
 8750SOL    HW137709   1.274   0.752   2.416  0.8842  0.7146  0.2794
 8750SOL    HW237710   1.225   0.892   2.415  0.4110  0.5894 -1.3266
 8751SOL     OW37711   1.404   2.915   6.297  0.2065  0.2910 -0.0673
 8751SOL    HW137712   1.387   2.874   6.382 -0.7914  0.5790 -0.1239
 8751SOL    HW237713   1.499   2.918   6.294  0.2346  1.6291  2.2629
 8752SOL     OW37714   4.134   3.410   4.978  0.0349 -0.4255  0.5527
 8752SOL    HW137715   4.169   3.321   4.977  3.3379  0.8708 -0.0676
 8752SOL    HW237716   4.161   3.457   4.899  2.8784 -1.9592  0.6133
 8753SOL     OW37717   2.597   3.361   8.934  0.2463  0.3427 -0.7539
 8753SOL    HW137718   2.503   3.352   8.916 -0.0294 -0.8176  1.3053
 8753SOL    HW237719   2.604   3.361   9.029 -1.3934  0.3515 -0.6396
 8754SOL     OW37720   3.024   4.043   2.992 -0.0369  0.3672  0.5580
 8754SOL    HW137721   3.023   4.053   3.087  2.9443  2.8149  0.3011
 8754SOL    HW237722   2.970   4.119   2.970 -2.2203 -0.6890  2.1378
 8755SOL     OW37723   1.538   2.804   4.860  1.0076  0.3691 -0.2245
 8755SOL    HW137724   1.511   2.786   4.950  0.0764  1.6613 -0.2547
 8755SOL    HW237725   1.494   2.888   4.847  4.2315  1.8687 -1.4613
 8756SOL     OW37726   4.668   3.764  10.592 -0.3168  0.7079  0.4467
 8756SOL    HW137727   0.031   3.781  10.630  0.1569  1.5774 -0.9992
 8756SOL    HW237728   4.626   3.718  10.664  0.4288  0.7904  0.9282
 8757SOL     OW37729   2.407   4.210   2.165  0.2605  0.3401  0.7138
 8757SOL    HW137730   2.337   4.229   2.103 -0.8113 -2.1878  1.1527
 8757SOL    HW237731   2.449   4.296   2.163 -2.4683  1.6867  2.2157
 8758SOL     OW37732   0.152   3.482  11.526 -0.0422 -0.1759 -0.1632
 8758SOL    HW137733   0.117   3.476  11.437  3.6161 -0.2915 -1.5815
 8758SOL    HW237734   0.099   3.554  11.560 -1.8564 -2.3128  1.5257
 8759SOL     OW37735   0.824   1.352   4.598  0.7236  0.3999  0.2184
 8759SOL    HW137736   0.883   1.374   4.526 -1.8103  2.9813 -1.0434
 8759SOL    HW237737   0.796   1.439   4.625  1.0948  0.1702  1.3447
 8760SOL     OW37738   4.058   3.341   2.247 -0.1037 -0.0699 -0.0659
 8760SOL    HW137739   4.015   3.421   2.279 -0.1785 -0.5076  0.8954
 8760SOL    HW237740   4.076   3.371   2.158 -0.8973  1.1439  0.1760
 8761SOL     OW37741   3.249   0.942   4.680  0.0733  0.4632  0.0597
 8761SOL    HW137742   3.193   1.018   4.670 -1.5352 -0.8704 -1.0949
 8761SOL    HW237743   3.331   0.986   4.700  0.9246  0.0186 -2.5095
 8762SOL     OW37744   3.438   4.664   3.221  0.1330  0.1072  0.1641
 8762SOL    HW137745   3.408   4.615   3.145 -0.0558  1.6211 -0.7324
 8762SOL    HW237746   3.517   4.693   3.176 -0.4390 -0.1244 -0.9851
 8763SOL     OW37747   2.633   2.490   3.028  0.0261 -0.1614  0.3876
 8763SOL    HW137748   2.618   2.584   3.026 -1.1174 -0.3613 -0.0578
 8763SOL    HW237749   2.593   2.457   3.108  0.1494 -1.1554  0.0507
 8764SOL     OW37750   0.996   2.399  12.133 -0.1121  0.4005 -0.5435
 8764SOL    HW137751   1.021   2.490  12.144  0.8295 -0.0846  1.3297
 8764SOL    HW237752   0.981   2.394  12.038 -0.6302  1.1153 -0.4970
 8765SOL     OW37753   0.939   2.932  15.741 -0.3457  0.2102  0.3537
 8765SOL    HW137754   0.937   2.957  15.834  0.0993  1.3710  0.0510
 8765SOL    HW237755   0.904   3.010  15.699 -0.6863 -1.3722 -2.3115
 8766SOL     OW37756   1.835   1.167   7.745  0.3295 -0.2351 -0.4357
 8766SOL    HW137757   1.746   1.139   7.770 -0.0014  0.1179 -1.2093
 8766SOL    HW237758   1.828   1.129   7.658 -1.3416 -1.0168  0.0376
 8767SOL     OW37759   4.084   4.350   7.647  0.1507 -0.1756 -0.1079
 8767SOL    HW137760   4.150   4.342   7.579 -1.4466 -1.6053 -1.4740
 8767SOL    HW237761   4.128   4.405   7.713  1.6778 -0.1189 -1.1995
 8768SOL     OW37762   2.891   2.260  11.370 -0.5224  0.0683 -0.3161
 8768SOL    HW137763   2.874   2.352  11.391  1.5228 -0.3338  3.0273
 8768SOL    HW237764   2.985   2.249  11.385 -0.0009  1.4812 -2.5457
 8769SOL     OW37765   3.304   4.195  13.154 -0.5338 -0.3945  0.2732
 8769SOL    HW137766   3.295   4.207  13.249  0.4135  0.2863  0.2879
 8769SOL    HW237767   3.373   4.259  13.134  2.0463 -2.6319  2.1531
 8770SOL     OW37768   3.809   2.227   2.950 -0.0590  0.3248  0.3418
 8770SOL    HW137769   3.835   2.308   2.908 -2.8422  1.4050  0.7004
 8770SOL    HW237770   3.719   2.209   2.924  0.6051 -1.7056 -0.5186
 8771SOL     OW37771   0.164   2.116   0.895 -0.2316  0.4779  0.2951
 8771SOL    HW137772   0.201   2.070   0.820 -0.7073  1.1386 -0.3406
 8771SOL    HW237773   0.125   2.038   0.934  0.9333  0.4512  1.4115
 8772SOL     OW37774   2.205   3.599   9.853 -0.0308 -0.1925  0.1936
 8772SOL    HW137775   2.210   3.507   9.826 -1.5721 -0.4372  0.7377
 8772SOL    HW237776   2.123   3.605   9.903 -0.3337 -0.5078 -0.2678
 8773SOL     OW37777   2.986   2.091   0.720 -0.2496  0.1080  0.7035
 8773SOL    HW137778   2.992   2.013   0.665 -0.7499  0.0159  0.7748
 8773SOL    HW237779   2.956   2.149   0.650  1.0281 -0.6414 -0.4590
 8774SOL     OW37780   3.684   4.230   7.231 -0.0780  0.2526 -0.7469
 8774SOL    HW137781   3.770   4.240   7.271 -0.2647  3.1964 -1.1325
 8774SOL    HW237782   3.628   4.237   7.309 -0.5744 -3.1436 -0.7752
 8775SOL     OW37783   0.513   2.262   7.519 -0.4113  0.0562  0.5811
 8775SOL    HW137784   0.590   2.237   7.570 -0.8115 -0.9558  0.6856
 8775SOL    HW237785   0.548   2.336   7.470  0.9472 -1.6780 -1.0466
 8776SOL     OW37786   1.598   0.877   4.208  0.4737 -0.3505 -0.5413
 8776SOL    HW137787   1.650   0.801   4.232  0.0387 -0.9227 -1.4135
 8776SOL    HW237788   1.567   0.893   4.297 -1.2186 -2.9734 -0.6682
 8777SOL     OW37789   3.550   2.445   5.232 -0.2764 -0.1675  0.3354
 8777SOL    HW137790   3.515   2.357   5.245  1.0026 -0.8189 -0.6278
 8777SOL    HW237791   3.629   2.444   5.178 -1.5850  2.8964 -1.6485
 8778SOL     OW37792   0.151   3.866   8.284 -0.2245  0.1727 -0.4164
 8778SOL    HW137793   0.233   3.896   8.246  0.4273 -2.0261 -0.7185
 8778SOL    HW237794   0.120   3.947   8.325  0.0853  0.5749 -0.9769
 8779SOL     OW37795   0.320   2.995  11.713  0.0773 -0.1526  0.4240
 8779SOL    HW137796   0.263   3.070  11.697  1.2618  0.4767 -0.8892
 8779SOL    HW237797   0.356   2.969  11.628  1.6771  0.3742  0.9303
 8780SOL     OW37798   4.565   4.145   8.189  0.7050 -0.1205  0.0963
 8780SOL    HW137799   4.612   4.185   8.116 -0.3909  2.3534  0.7652
 8780SOL    HW237800   4.613   4.063   8.201 -0.5015 -0.8186  0.2462
 8781SOL     OW37801   2.594   2.340   3.250  0.1230  0.6295  0.2631
 8781SOL    HW137802   2.519   2.293   3.286  0.9077  0.8372  2.2232
 8781SOL    HW237803   2.668   2.288   3.282  1.0283  0.6238 -1.8887
 8782SOL     OW37804   3.114   0.306   4.832 -0.0909 -0.6023 -0.2026
 8782SOL    HW137805   3.112   0.212   4.849 -0.0288 -0.9516 -2.2356
 8782SOL    HW237806   3.158   0.302   4.748 -1.5432 -1.8295 -0.8990
 8783SOL     OW37807   3.411   2.365   1.232  0.4204  0.3329 -0.2978
 8783SOL    HW137808   3.436   2.330   1.147 -1.4783  0.6612 -0.9874
 8783SOL    HW237809   3.330   2.404   1.200 -0.6463 -1.7312 -0.1165
 8784SOL     OW37810   3.610   0.684  15.605  0.5555 -0.1044  0.2339
 8784SOL    HW137811   3.565   0.756  15.560 -1.8169 -1.3785  0.5775
 8784SOL    HW237812   3.612   0.628  15.528 -0.2348 -0.1476  0.2480
 8785SOL     OW37813   2.663   2.042  15.796 -0.1408 -0.0535 -0.2913
 8785SOL    HW137814   2.604   1.975  15.829  2.3266 -1.3375  1.5186
 8785SOL    HW237815   2.746   1.995  15.805 -0.2780 -0.1874  0.2693
 8786SOL     OW37816   0.766   4.114   6.102  0.5071 -0.2794 -0.1923
 8786SOL    HW137817   0.776   4.190   6.045 -0.3518 -0.5163 -0.6610
 8786SOL    HW237818   0.821   4.051   6.055 -0.6747 -3.1927  2.2904
 8787SOL     OW37819   2.821   2.953  16.331  0.5940  0.0797 -0.3120
 8787SOL    HW137820   2.751   2.954  16.267 -1.5854 -1.0093  2.0620
 8787SOL    HW237821   2.806   2.864  16.362  1.6220 -0.2006 -0.6150
 8788SOL     OW37822   1.129   2.440   3.800 -0.0593 -0.9094  0.8787
 8788SOL    HW137823   1.161   2.490   3.875 -0.2279 -0.1473  0.4450
 8788SOL    HW237824   1.106   2.358   3.843 -2.0544 -0.4792  0.6618
 8789SOL     OW37825   2.946   3.102  16.886  0.2470 -0.2478 -0.6411
 8789SOL    HW137826   2.897   3.044  16.828  0.2750 -0.1062 -0.8064
 8789SOL    HW237827   3.032   3.092  16.845  0.9395 -0.5272  0.8830
 8790SOL     OW37828   2.726   0.384   5.496 -0.0905 -0.3209  0.1068
 8790SOL    HW137829   2.634   0.368   5.475  0.4769 -2.5177 -0.7142
 8790SOL    HW237830   2.745   0.379   5.589 -1.6623  0.3528  0.4486
 8791SOL     OW37831   3.399   4.298   9.712  0.1333  0.3696  0.4213
 8791SOL    HW137832   3.460   4.323   9.782  1.2882  2.3390 -1.3273
 8791SOL    HW237833   3.395   4.205   9.736 -1.2605  0.2296 -0.3607
 8792SOL     OW37834   2.936   3.015  13.511  0.4984 -0.0839  0.0292
 8792SOL    HW137835   2.974   3.057  13.434 -0.0041  0.8834  0.3053
 8792SOL    HW237836   3.009   3.026  13.572 -1.9851  0.0675  2.9920
 8793SOL     OW37837   1.117   4.157   3.266  0.1554  0.5249  0.0457
 8793SOL    HW137838   1.135   4.089   3.201 -1.2430 -0.1070  0.3171
 8793SOL    HW237839   1.025   4.167   3.243  0.1370  0.0785 -0.0827
 8794SOL     OW37840   0.692   1.140  16.523  0.0281 -0.3066  0.1699
 8794SOL    HW137841   0.785   1.119  16.515 -0.0891 -0.7921  0.0808
 8794SOL    HW237842   0.678   1.092  16.605 -1.7703 -1.7600 -0.9707
 8795SOL     OW37843   1.265   1.660   5.861  0.5526  0.2745  0.4131
 8795SOL    HW137844   1.259   1.729   5.795 -1.6361 -0.3277 -0.0221
 8795SOL    HW237845   1.203   1.695   5.925 -0.7127  0.9582 -1.1867
 8796SOL     OW37846   0.627   2.471   6.466 -0.4509 -0.0277  0.6194
 8796SOL    HW137847   0.639   2.398   6.404 -0.7718  1.1640 -0.8496
 8796SOL    HW237848   0.532   2.483   6.465 -0.3920  0.3912 -0.7223
 8797SOL     OW37849   3.790   2.401   4.506  0.2954  0.0073 -0.0004
 8797SOL    HW137850   3.773   2.315   4.467  0.7254 -0.2323  0.3363
 8797SOL    HW237851   3.747   2.464   4.449 -1.0687  0.9663  2.1150
 8798SOL     OW37852   0.989   1.786   8.084  0.0521 -0.1969 -0.2968
 8798SOL    HW137853   1.054   1.753   8.023  0.2748 -0.4144  0.0577
 8798SOL    HW237854   1.042   1.810   8.160  1.3547 -0.9941 -0.9473
 8799SOL     OW37855   0.179   0.957   5.723 -0.2479  0.5496  1.0136
 8799SOL    HW137856   0.182   0.907   5.805 -0.6100 -0.3771  0.4493
 8799SOL    HW237857   0.201   0.888   5.661  2.5822  0.3670  2.1839
 8800SOL     OW37858   1.949   1.333   2.554 -0.0541  0.2406 -0.5640
 8800SOL    HW137859   1.936   1.290   2.639  1.5785  1.3209  0.2280
 8800SOL    HW237860   1.936   1.254   2.502  0.1833 -0.5821  0.6278
 8801SOL     OW37861   3.066   0.689  17.275 -0.4371  0.0077  0.4279
 8801SOL    HW137862   3.155   0.715  17.300 -0.8699  1.3354  0.5942
 8801SOL    HW237863   3.052   0.624  17.344 -0.7846 -1.0127 -0.6118
 8802SOL     OW37864   3.993   3.715   4.914  0.6144 -0.3163 -0.1533
 8802SOL    HW137865   4.050   3.650   4.874 -0.2735 -0.1432 -1.7153
 8802SOL    HW237866   3.980   3.770   4.836 -2.1265  1.0553  1.2535
 8803SOL     OW37867   4.719   4.296  11.511  0.3554  0.1735  0.1865
 8803SOL    HW137868   4.673   4.224  11.554 -1.8641  0.2041 -2.1722
 8803SOL    HW237869   0.083   4.255  11.505  0.7614  0.9758  0.4914
 8804SOL     OW37870   0.669   4.451   7.057  0.1021 -0.2023  0.4018
 8804SOL    HW137871   0.765   4.454   7.062  0.1557 -1.5030  0.0713
 8804SOL    HW237872   0.647   4.540   7.028  2.7791  0.4193  0.2571
 8805SOL     OW37873   0.336   3.599   4.480 -0.1098 -0.3404 -0.3072
 8805SOL    HW137874   0.380   3.523   4.443  1.3697  0.5968 -0.4767
 8805SOL    HW237875   0.387   3.634   4.553 -0.4358  0.2789 -0.3721
 8806SOL     OW37876   2.264   0.437   7.833  0.4011 -0.0018 -0.0050
 8806SOL    HW137877   2.247   0.527   7.805  0.0095 -0.0244  0.1555
 8806SOL    HW237878   2.204   0.424   7.907  2.1753  1.8050  1.7681
 8807SOL     OW37879   4.650   3.051  15.613 -0.4068 -0.3685 -0.1845
 8807SOL    HW137880   0.010   3.098  15.605 -0.5679 -0.1001 -0.2590
 8807SOL    HW237881   4.631   3.065  15.706  1.1459 -2.2798  0.4176
 8808SOL     OW37882   4.705   1.524   5.487 -0.1210 -0.0526 -0.3469
 8808SOL    HW137883   4.712   1.503   5.581 -0.1129 -0.2530 -0.3910
 8808SOL    HW237884   4.666   1.440   5.462 -0.2194  0.6188 -2.3964
 8809SOL     OW37885   0.099   2.328   1.364 -0.2834  0.1581  0.2770
 8809SOL    HW137886   0.191   2.306   1.380 -0.7519 -1.6629  0.4034
 8809SOL    HW237887   0.095   2.424   1.358 -0.7066  0.1642  0.6438
 8810SOL     OW37888   3.400   1.489   9.338  0.5542  0.4957  0.5578
 8810SOL    HW137889   3.382   1.463   9.428  0.1311 -0.3594  0.2352
 8810SOL    HW237890   3.481   1.540   9.343  0.8820 -0.2351  2.6805
 8811SOL     OW37891   3.084   4.448   2.964 -0.2209  0.5320  0.3278
 8811SOL    HW137892   2.999   4.490   2.949  0.0949  0.7018 -1.0421
 8811SOL    HW237893   3.079   4.386   2.891  3.2449 -0.4874  0.9523
 8812SOL     OW37894   1.740   4.365   2.966 -0.2108  0.4898  0.1279
 8812SOL    HW137895   1.686   4.441   2.944 -1.2146  0.3327  2.1345
 8812SOL    HW237896   1.706   4.313   3.038  1.8455  0.5891  1.1626
 8813SOL     OW37897   2.570   4.077   6.538  0.2857 -0.4630  0.1460
 8813SOL    HW137898   2.518   4.156   6.525  1.3173  0.1756 -0.1357
 8813SOL    HW237899   2.660   4.111   6.541  0.3127 -0.3788 -1.5332
 8814SOL     OW37900   3.989   4.699   5.613  0.1418 -0.8519 -0.1624
 8814SOL    HW137901   3.937   4.667   5.539 -0.3323 -2.7864  1.0184
 8814SOL    HW237902   3.918   4.711   5.677 -0.6924 -0.4323 -1.1676
 8815SOL     OW37903   1.603   1.072   3.451  0.1069 -0.5267  0.5093
 8815SOL    HW137904   1.650   0.989   3.451 -1.4640 -1.4104  0.6896
 8815SOL    HW237905   1.648   1.109   3.375 -1.6222  0.6027  0.0194
 8816SOL     OW37906   0.671   2.049   3.627 -0.0512 -0.4745  0.2271
 8816SOL    HW137907   0.722   2.087   3.556 -2.1315 -0.0253 -1.0197
 8816SOL    HW237908   0.725   2.070   3.704 -1.6227  1.4740  0.7801
 8817SOL     OW37909   0.233   4.707  14.234 -0.4376  0.1035  0.1943
 8817SOL    HW137910   0.267   4.706  14.145 -0.5248 -2.0240  0.1947
 8817SOL    HW237911   0.206   0.076  14.239  0.3349  0.2611  1.5965
 8818SOL     OW37912   1.210   0.944  16.529 -0.1592  0.5157 -0.0108
 8818SOL    HW137913   1.162   1.025  16.543 -1.3468 -0.1313 -0.3138
 8818SOL    HW237914   1.279   0.969  16.468  0.5509  1.2050  1.0737
 8819SOL     OW37915   3.764   4.274   3.411 -0.0251 -0.1909 -0.9523
 8819SOL    HW137916   3.683   4.224   3.399  0.3898 -0.8260 -1.1285
 8819SOL    HW237917   3.736   4.340   3.474 -0.2950 -0.9012 -0.3300
 8820SOL     OW37918   4.318   1.955  17.530  0.1422  0.0197 -0.2331
 8820SOL    HW137919   4.374   1.912  17.594 -0.3262 -2.4789 -1.5067
 8820SOL    HW237920   4.340   2.048  17.538  0.7405 -0.1596  0.1607
 8821SOL     OW37921   4.020   0.262   6.168 -0.5921 -0.3027 -0.0112
 8821SOL    HW137922   3.940   0.214   6.193 -1.2166  1.1008  0.6994
 8821SOL    HW237923   3.986   0.351   6.159 -1.4561 -0.5015  1.2415
 8822SOL     OW37924   1.179   1.050  11.581  0.6359  0.7050  0.1912
 8822SOL    HW137925   1.116   1.031  11.512  0.3757  1.1701  0.3015
 8822SOL    HW237926   1.204   1.142  11.572 -0.5650  0.8762 -1.4124
 8823SOL     OW37927   3.223   2.074   5.001 -0.3981  0.0407 -0.2485
 8823SOL    HW137928   3.142   2.073   5.052 -1.8840  3.0333 -2.5669
 8823SOL    HW237929   3.200   2.137   4.932  0.4206  0.9622  0.3241
 8824SOL     OW37930   0.276   2.218   2.561  0.5078  0.1086  0.0466
 8824SOL    HW137931   0.261   2.310   2.537  0.4026 -0.3481 -1.6556
 8824SOL    HW237932   0.240   2.182   2.480 -0.2911 -0.5079  0.6818
 8825SOL     OW37933   2.555   1.023  12.896 -0.0846  0.7040 -0.1281
 8825SOL    HW137934   2.511   0.992  12.975  1.3322 -0.6827  0.1244
 8825SOL    HW237935   2.597   0.945  12.858 -0.0020  1.5825 -1.8388
 8826SOL     OW37936   4.482   4.130  12.917  0.1397 -0.1967 -0.1209
 8826SOL    HW137937   4.549   4.084  12.866  0.1896 -1.7201  1.3153
 8826SOL    HW237938   4.488   4.211  12.867  2.0099  0.6596  1.4868
 8827SOL     OW37939   2.100   2.409   0.935 -0.3735 -0.4010 -0.2762
 8827SOL    HW137940   2.006   2.430   0.932 -0.1532  0.5894 -0.0860
 8827SOL    HW237941   2.103   2.329   0.989 -0.7844  0.0947  0.4870
 8828SOL     OW37942   2.301   3.236   2.109  0.5323  0.2538  0.3854
 8828SOL    HW137943   2.390   3.202   2.117 -0.4110 -2.4604 -0.7225
 8828SOL    HW237944   2.249   3.179   2.166  0.8775  1.2648  1.7182
 8829SOL     OW37945   3.024   3.829   6.656  0.6405 -0.6135 -0.4128
 8829SOL    HW137946   3.042   3.921   6.636  1.6966 -0.4979  1.0517
 8829SOL    HW237947   3.104   3.785   6.627 -0.3242 -1.0523 -2.3991
 8830SOL     OW37948   4.276   4.505   2.634 -0.4715 -0.3765  0.0510
 8830SOL    HW137949   4.336   4.471   2.568  1.2492  0.8929  0.9575
 8830SOL    HW237950   4.338   4.537   2.700  1.2193 -1.0929 -1.1818
 8831SOL     OW37951   4.244   3.494   6.842 -0.4624  0.2005  0.0651
 8831SOL    HW137952   4.169   3.529   6.794 -0.0064  0.4861 -0.4414
 8831SOL    HW237953   4.311   3.562   6.851  0.0649 -0.0484 -2.1341
 8832SOL     OW37954   0.413   1.624   7.505  0.2725  0.0408 -0.0753
 8832SOL    HW137955   0.461   1.573   7.571 -0.0418  1.3812  1.1783
 8832SOL    HW237956   0.440   1.713   7.527 -1.3632  0.5906 -0.3386
 8833SOL     OW37957   2.339   0.175   3.098 -0.2246 -0.1041 -0.1797
 8833SOL    HW137958   2.310   0.248   3.152  0.4364 -0.1456  0.2328
 8833SOL    HW237959   2.403   0.134   3.156  0.6734  1.0946 -0.3134
 8834SOL     OW37960   2.935   1.472  10.629 -0.3264  0.2904 -0.2578
 8834SOL    HW137961   2.887   1.400  10.671 -0.4248  0.0648 -0.7649
 8834SOL    HW237962   2.909   1.547  10.682  1.4852 -0.1869  1.3070
 8835SOL     OW37963   2.371   2.521   7.827 -0.0360 -0.1581 -0.0295
 8835SOL    HW137964   2.291   2.538   7.877 -0.0452  0.9697 -0.4099
 8835SOL    HW237965   2.354   2.544   7.736 -1.9734 -0.8370  0.1629
 8836SOL     OW37966   0.251   4.252   9.654 -0.8149 -0.3415 -0.1075
 8836SOL    HW137967   0.273   4.265   9.562 -0.8314  0.5888  0.0175
 8836SOL    HW237968   0.177   4.313   9.659  0.2774  0.9256  0.5250
 8837SOL     OW37969   1.129   1.797   7.620  0.2057 -0.0774 -0.2914
 8837SOL    HW137970   1.092   1.738   7.554  1.4266  0.8877 -1.8272
 8837SOL    HW237971   1.206   1.819   7.568  1.2774 -0.7537  1.0050
 8838SOL     OW37972   2.677   0.959  15.132 -0.1553  0.1751 -0.0591
 8838SOL    HW137973   2.716   0.945  15.219  1.5685  1.3797 -0.6371
 8838SOL    HW237974   2.744   0.941  15.066 -1.3772  1.9759 -1.7587
 8839SOL     OW37975   0.213   0.945   4.848 -0.2029  0.8341  0.5108
 8839SOL    HW137976   0.131   0.988   4.821 -0.0897  0.0339 -1.1149
 8839SOL    HW237977   0.280   1.000   4.806  2.2666 -2.7177 -0.1889
 8840SOL     OW37978   0.325   4.023   5.558 -0.5144  0.2889  0.0579
 8840SOL    HW137979   0.279   4.041   5.640  0.1905  1.2717  0.2425
 8840SOL    HW237980   0.328   4.115   5.531 -0.5744  0.5376  0.8868
 8841SOL     OW37981   0.016   0.133   5.322 -0.1644 -0.5882  0.5441
 8841SOL    HW137982   0.016   0.154   5.229  2.3004  2.2924  1.1902
 8841SOL    HW237983   4.649   0.151   5.351  0.7985  1.6570  2.1233
 8842SOL     OW37984   0.374   3.647   9.215  0.3376  0.4611 -0.0121
 8842SOL    HW137985   0.404   3.738   9.224  0.3263  0.6770 -2.2416
 8842SOL    HW237986   0.418   3.618   9.135 -1.6360  1.0262 -1.3009
 8843SOL     OW37987   4.702   1.153   2.569 -0.6654  0.0589 -0.0300
 8843SOL    HW137988   4.668   1.144   2.480 -0.0147 -1.4727 -0.1255
 8843SOL    HW237989   4.673   1.079   2.623 -0.3131 -1.7870 -2.3227
 8844SOL     OW37990   0.209   1.191   7.934  0.2328 -0.0624  0.3027
 8844SOL    HW137991   0.226   1.101   7.905 -0.2504 -0.4416  1.1953
 8844SOL    HW237992   0.123   1.166   7.968  0.1958  1.0581  1.0154
 8845SOL     OW37993   1.636   4.705  10.156 -0.5385 -0.0392  0.7738
 8845SOL    HW137994   1.674   4.659  10.231  3.8185  0.5404 -1.1220
 8845SOL    HW237995   1.676   0.069  10.167 -0.7637  0.5326 -2.8748
 8846SOL     OW37996   3.893   3.671   0.343  0.1726  0.5696  0.0740
 8846SOL    HW137997   3.938   3.741   0.295  2.7863 -1.6893 -0.7607
 8846SOL    HW237998   3.964   3.643   0.401  0.3165 -1.4053 -1.0385
 8847SOL     OW37999   0.177   1.330  16.396  0.2692 -0.0300  0.4405
 8847SOL    HW138000   0.129   1.277  16.333  1.6006 -0.4684 -0.2058
 8847SOL    HW238001   0.241   1.269  16.434  1.4074 -0.7057 -2.5207
 8848SOL     OW38002   1.512   2.252   7.994 -0.2842  0.7647 -0.2201
 8848SOL    HW138003   1.514   2.299   7.910 -3.1278  0.9415 -0.1994
 8848SOL    HW238004   1.521   2.163   7.960 -1.4219  1.0969 -1.3988
 8849SOL     OW38005   0.338   3.838   8.958 -0.4365  0.1707  0.2244
 8849SOL    HW138006   0.306   3.898   9.025 -0.2496  0.1235  0.3572
 8849SOL    HW238007   0.430   3.837   8.985 -0.2839 -1.5609 -0.3800
 8850SOL     OW38008   4.295   3.791   6.411  1.0380  0.8383  0.2530
 8850SOL    HW138009   4.207   3.754   6.404  2.2138 -1.4864 -2.3425
 8850SOL    HW238010   4.281   3.842   6.491  0.4525  0.4979  0.3661
 8851SOL     OW38011   3.189   2.629   7.482 -0.2393 -0.2966  0.2459
 8851SOL    HW138012   3.108   2.678   7.466  0.5652  1.7032  2.3622
 8851SOL    HW238013   3.209   2.659   7.571 -1.3951 -2.2747  1.1931
 8852SOL     OW38014   4.062   0.933   5.249 -0.5486 -0.1530 -0.4815
 8852SOL    HW138015   4.105   0.848   5.258  0.3995  0.5616  1.6330
 8852SOL    HW238016   4.041   0.939   5.156 -0.6414  1.1111 -0.3759
 8853SOL     OW38017   2.482   1.126  13.233  0.6960 -0.1671 -0.3528
 8853SOL    HW138018   2.555   1.173  13.194 -0.0930 -1.3466 -3.2166
 8853SOL    HW238019   2.524   1.044  13.260  1.3206  0.2192 -0.1544
 8854SOL     OW38020   2.710   2.436  11.612 -0.6794  0.1731 -0.2151
 8854SOL    HW138021   2.642   2.488  11.570 -1.7830 -3.4374 -2.8843
 8854SOL    HW238022   2.785   2.463  11.559 -0.7373  0.2907 -0.2378
 8855SOL     OW38023   3.086   1.459  12.077 -0.2893  0.0279 -0.2337
 8855SOL    HW138024   3.137   1.446  11.997  0.0826  3.5340 -0.5781
 8855SOL    HW238025   3.131   1.529  12.124 -2.4274  0.3455  1.3329
 8856SOL     OW38026   4.684   2.913  10.404 -0.5465 -0.1424  0.7239
 8856SOL    HW138027   4.678   3.005  10.430 -1.0624  0.0437 -0.0356
 8856SOL    HW238028   0.049   2.886  10.428 -1.0514 -0.7152  1.9147
 8857SOL     OW38029   3.852   4.504   4.573  0.4411 -0.4417 -0.6088
 8857SOL    HW138030   3.919   4.509   4.641 -0.9302  1.6379  0.5892
 8857SOL    HW238031   3.829   4.412   4.587  0.6358 -0.3477  0.3506
 8858SOL     OW38032   1.011   2.650   5.664  0.4551  0.4715  0.4035
 8858SOL    HW138033   0.942   2.693   5.613  2.3586 -1.1476 -3.5289
 8858SOL    HW238034   0.995   2.697   5.746  2.1656 -0.5986  1.3383
 8859SOL     OW38035   2.104   0.695   6.363  0.2106  1.0003 -0.6083
 8859SOL    HW138036   2.115   0.757   6.435 -0.4569 -0.1488  0.4907
 8859SOL    HW238037   2.026   0.648   6.392  0.9197 -0.7510 -1.5644
 8860SOL     OW38038   1.970   0.009   9.612 -0.7753 -0.8266  0.0445
 8860SOL    HW138039   1.880   0.039   9.598 -0.4521 -0.3743 -1.0386
 8860SOL    HW238040   2.008   0.040   9.530 -0.4296 -1.9296 -0.2116
 8861SOL     OW38041   1.146   1.286   5.474  0.0131  0.0380  0.0528
 8861SOL    HW138042   1.239   1.293   5.495 -0.4320 -1.6004  2.6762
 8861SOL    HW238043   1.114   1.289   5.565 -2.4283 -2.0361 -0.7343
 8862SOL     OW38044   2.987   0.356   9.799 -0.7566  0.0118  0.1527
 8862SOL    HW138045   3.039   0.384   9.874 -1.8433  1.4463  0.3905
 8862SOL    HW238046   3.064   0.305   9.773 -1.4211 -0.9775  0.1272
 8863SOL     OW38047   0.683   4.336  16.739  0.2357 -0.0082 -0.4068
 8863SOL    HW138048   0.773   4.316  16.711  0.5391 -0.6864  1.0273
 8863SOL    HW238049   0.672   4.413  16.684  0.0780 -0.6269 -1.2328
 8864SOL     OW38050   1.023   3.816  12.246 -0.6620 -0.3197 -0.9600
 8864SOL    HW138051   1.056   3.745  12.190 -2.2550 -2.1646  0.4414
 8864SOL    HW238052   0.941   3.779  12.279 -0.1744 -0.5377  0.0084
 8865SOL     OW38053   0.287   3.909   1.872  0.0624 -0.3931 -0.3418
 8865SOL    HW138054   0.253   3.949   1.792 -0.5902 -2.1891 -0.9582
 8865SOL    HW238055   0.263   3.973   1.940 -0.8007  1.4637 -2.3866
 8866SOL     OW38056   1.467   0.779   2.470  0.0649  0.3878 -0.1182
 8866SOL    HW138057   1.487   0.835   2.544  2.1345  0.4983 -0.7527
 8866SOL    HW238058   1.521   0.827   2.408 -0.5892 -0.1684 -1.1325
 8867SOL     OW38059   2.552   0.984   4.194  0.3647 -0.2227 -0.2750
 8867SOL    HW138060   2.546   1.064   4.142  0.7091 -0.3042 -0.4468
 8867SOL    HW238061   2.559   0.916   4.127 -0.0614 -0.9568  0.4276
 8868SOL     OW38062   4.190   2.475   1.412 -0.4892  0.1764  0.3805
 8868SOL    HW138063   4.114   2.433   1.372  0.3378 -0.3148 -0.6815
 8868SOL    HW238064   4.178   2.567   1.389 -0.6476 -0.2172 -1.0630
 8869SOL     OW38065   3.939   2.953   0.299 -0.1647  0.2900  0.2112
 8869SOL    HW138066   3.884   2.881   0.330  1.0077 -1.0122 -0.7704
 8869SOL    HW238067   3.931   3.020   0.367  3.1157  1.0376 -0.1681
 8870SOL     OW38068   3.628   4.493   4.864  0.5003  0.3635 -0.2250
 8870SOL    HW138069   3.623   4.583   4.897  0.1648  0.7476 -1.3439
 8870SOL    HW238070   3.635   4.515   4.771  1.0137  2.7365  0.3713
 8871SOL     OW38071   0.823   2.210   9.200  0.7149  0.5302  0.4218
 8871SOL    HW138072   0.773   2.129   9.194 -2.3147  2.2587  2.4161
 8871SOL    HW238073   0.891   2.180   9.261 -0.9228  0.9071  2.4533
 8872SOL     OW38074   1.492   1.991   0.960 -0.3471  0.2991  0.0076
 8872SOL    HW138075   1.489   2.037   1.044  3.7524 -1.4212  1.0575
 8872SOL    HW238076   1.472   1.900   0.982 -0.6688  0.9115  2.2710
 8873SOL     OW38077   3.274   0.814  10.466 -0.0314  0.2076 -0.1582
 8873SOL    HW138078   3.193   0.765  10.475  1.6744 -2.4168  0.7495
 8873SOL    HW238079   3.275   0.836  10.373  1.0833  0.6587 -0.0369
 8874SOL     OW38080   1.557   1.697  14.413 -0.3560 -0.3332  0.3340
 8874SOL    HW138081   1.516   1.772  14.370 -0.5805 -1.0675 -0.7371
 8874SOL    HW238082   1.614   1.659  14.346  0.3451  1.0725  0.1406
 8875SOL     OW38083   1.052   0.723   1.831  0.3403  0.3034  0.1669
 8875SOL    HW138084   1.061   0.814   1.860 -0.7320  0.7835 -0.9856
 8875SOL    HW238085   0.991   0.737   1.758 -1.1557  0.6652  1.4802
 8876SOL     OW38086   4.153   3.886   9.697  0.0137  0.0150  0.6290
 8876SOL    HW138087   4.161   3.847   9.784  1.4228  1.0037  0.9618
 8876SOL    HW238088   4.247   3.887   9.677  0.0557  4.0377  0.9717
 8877SOL     OW38089   1.134   3.073   5.012  0.0169 -0.0741 -0.1558
 8877SOL    HW138090   1.227   3.095   5.003  0.3753 -1.5314  0.0087
 8877SOL    HW238091   1.109   3.077   4.919 -0.6169 -1.1247 -0.0274
 8878SOL     OW38092   1.977   1.930   4.468  0.5639  0.5264 -0.3399
 8878SOL    HW138093   1.938   1.846   4.492  0.3560  0.4289 -1.0262
 8878SOL    HW238094   2.066   1.899   4.485  0.7948  1.2373 -0.2639
 8879SOL     OW38095   1.548   4.556   3.900  0.5475 -0.9871 -0.3998
 8879SOL    HW138096   1.537   4.520   3.988  0.3755 -1.3334 -0.5619
 8879SOL    HW238097   1.458   4.561   3.869  0.1877 -1.2665  0.5978
 8880SOL     OW38098   3.367   4.531   7.496 -0.4889  0.7411  0.2068
 8880SOL    HW138099   3.404   4.454   7.539  0.5432  1.4810  0.6778
 8880SOL    HW238100   3.371   4.503   7.405 -0.0194  0.8521  0.1919
 8881SOL     OW38101   3.042   2.718  15.842  0.6277 -0.5476 -0.3457
 8881SOL    HW138102   3.132   2.709  15.810  0.9995 -1.6426  1.0042
 8881SOL    HW238103   2.992   2.736  15.762  0.5950  0.6687 -0.0575
 8882SOL     OW38104   2.664   3.494   2.743  0.0251  0.3462 -0.3117
 8882SOL    HW138105   2.632   3.584   2.744 -0.4765  0.1007  3.4203
 8882SOL    HW238106   2.711   3.496   2.660  0.5589  1.1338  0.0170
 8883SOL     OW38107   0.947   4.088   8.955 -0.0125  0.4342  0.2952
 8883SOL    HW138108   1.036   4.060   8.932 -0.6756 -1.9622  0.6210
 8883SOL    HW238109   0.939   4.164   8.898  1.1686  1.4002  1.4195
 8884SOL     OW38110   0.666   3.132  11.958  0.0531 -0.4637 -0.3237
 8884SOL    HW138111   0.639   3.203  11.899  0.6456 -0.0918 -0.1451
 8884SOL    HW238112   0.581   3.091  11.973  0.0447 -0.4620 -0.3657
 8885SOL     OW38113   1.943   3.602   3.816  0.4571  0.1327 -0.5535
 8885SOL    HW138114   1.875   3.565   3.760  1.7555 -2.5311 -0.3511
 8885SOL    HW238115   2.015   3.624   3.758 -0.4249  0.7685 -1.3989
 8886SOL     OW38116   3.148   3.463  10.329 -0.0952 -0.1514  0.3020
 8886SOL    HW138117   3.175   3.495  10.243  0.8353  1.1521  1.0850
 8886SOL    HW238118   3.213   3.513  10.376 -1.6147  1.3523  0.8031
 8887SOL     OW38119   0.796   1.504   6.380  0.1928 -0.1525  0.4328
 8887SOL    HW138120   0.855   1.578   6.373  0.8292 -0.6358  0.6751
 8887SOL    HW238121   0.773   1.488   6.288  0.9121  2.1249 -0.1264
 8888SOL     OW38122   1.648   1.676   6.198  0.4068 -0.0172 -0.4104
 8888SOL    HW138123   1.628   1.766   6.171  1.4282  0.5765  0.8253
 8888SOL    HW238124   1.620   1.674   6.290  0.9895  1.2959 -0.2092
 8889SOL     OW38125   0.158   2.621  13.402 -0.4123  0.3815  0.3898
 8889SOL    HW138126   0.252   2.626  13.384  0.1912 -2.1827  2.7898
 8889SOL    HW238127   0.139   2.715  13.401  0.7272  0.6093  0.6418
 8890SOL     OW38128   1.582   1.720   6.869  0.3948  0.2957  0.5829
 8890SOL    HW138129   1.542   1.671   6.941  0.0347 -0.5212 -0.1703
 8890SOL    HW238130   1.660   1.669   6.845  2.4972  2.8488  2.0593
 8891SOL     OW38131   3.171   2.260   6.378  0.1537  0.4267 -0.0267
 8891SOL    HW138132   3.081   2.226   6.371  0.6731 -1.2548  1.5692
 8891SOL    HW238133   3.147   2.350   6.397  1.5832  0.7468  0.2310
 8892SOL     OW38134   3.911   0.699   9.099  0.3089  0.1495 -0.1568
 8892SOL    HW138135   4.005   0.693   9.115 -0.1499  2.1133  3.2887
 8892SOL    HW238136   3.894   0.778   9.048 -1.3809  1.3837  2.3297
 8893SOL     OW38137   2.749   0.674   4.998 -0.3297 -0.2363 -0.0252
 8893SOL    HW138138   2.810   0.675   5.072 -0.9474 -0.6081  0.4851
 8893SOL    HW238139   2.789   0.609   4.940 -0.9378 -0.3763 -0.2880
 8894SOL     OW38140   3.407   0.711   8.423 -0.3158 -0.1938  0.8250
 8894SOL    HW138141   3.344   0.770   8.383  0.1202 -0.8570 -0.8300
 8894SOL    HW238142   3.437   0.653   8.354 -0.8924 -0.8342  1.1082
 8895SOL     OW38143   0.111   4.239   2.734 -0.1305 -0.4194  0.7321
 8895SOL    HW138144   0.196   4.282   2.730 -0.7671  0.7474 -0.1653
 8895SOL    HW238145   0.070   4.274   2.654 -0.5576 -0.1994  1.0473
 8896SOL     OW38146   3.682   2.476  17.455  0.0944  0.2464  0.2135
 8896SOL    HW138147   3.637   2.536  17.395 -0.1009 -0.2870 -0.1654
 8896SOL    HW238148   3.770   2.512  17.463  0.2406 -0.4282  1.7470
 8897SOL     OW38149   0.016   3.130  11.464 -0.0331 -0.3146  0.4123
 8897SOL    HW138150   4.661   3.089  11.502 -0.1755  0.9179  1.4755
 8897SOL    HW238151   0.060   3.047  11.446 -1.2491 -0.9264  0.2605
 8898SOL     OW38152   1.351   1.566   2.741 -0.0909 -0.4013  0.3725
 8898SOL    HW138153   1.444   1.550   2.728 -0.1197 -0.2147 -0.0825
 8898SOL    HW238154   1.343   1.660   2.756 -0.5589 -0.5138  0.8239
 8899SOL     OW38155   1.056   4.691  15.349  0.8326  0.3198  0.2314
 8899SOL    HW138156   1.043   4.698  15.255  0.8799  2.0900  0.3474
 8899SOL    HW238157   1.147   4.722  15.355  0.4696  1.1533  1.4383
 8900SOL     OW38158   3.591   0.061   4.235  0.0407 -0.7920 -0.2868
 8900SOL    HW138159   3.497   0.054   4.217  0.2672  0.8034 -2.0933
 8900SOL    HW238160   3.618   0.035   4.147 -1.6498 -3.2451 -0.0865
 8901SOL     OW38161   2.412   2.585   6.136 -0.3006 -0.5866 -0.1656
 8901SOL    HW138162   2.452   2.561   6.052  1.2821 -0.9556  0.6936
 8901SOL    HW238163   2.380   2.672   6.113 -1.0909 -0.6604  0.6300
 8902SOL     OW38164   1.368   0.777  10.401 -0.3131 -0.4564 -0.0596
 8902SOL    HW138165   1.375   0.787  10.496  1.8069 -1.7245 -0.0859
 8902SOL    HW238166   1.334   0.863  10.377  0.4037  0.2572  1.4847
 8903SOL     OW38167   3.147   3.859  10.096 -0.0193 -0.1599  0.1768
 8903SOL    HW138168   3.235   3.860  10.133 -0.1641 -0.2270  0.5150
 8903SOL    HW238169   3.153   3.819  10.008 -1.6578  0.4560 -0.2116
 8904SOL     OW38170   0.020   3.218   8.316 -0.4186 -0.1674 -0.3588
 8904SOL    HW138171   4.648   3.212   8.321 -0.3222 -0.0850  1.8909
 8904SOL    HW238172   0.034   3.140   8.262  0.2146 -0.7229  0.5944
 8905SOL     OW38173   2.943   2.366   7.032 -0.3317 -0.5844  0.1201
 8905SOL    HW138174   2.915   2.453   7.059  0.1981 -0.3465 -0.0976
 8905SOL    HW238175   3.018   2.355   7.090 -1.2517 -0.4027  1.3353
 8906SOL     OW38176   2.359   1.988   2.509 -0.6441 -0.7062  0.3315
 8906SOL    HW138177   2.321   2.072   2.537  1.1384  0.4365 -0.7009
 8906SOL    HW238178   2.294   1.950   2.450  2.2645 -1.1135 -2.6085
 8907SOL     OW38179   0.093   2.778  17.368  0.8181  0.4592 -0.3352
 8907SOL    HW138180   0.035   2.853  17.381  1.8997  1.1625  0.3710
 8907SOL    HW238181   0.121   2.796  17.278  1.1989  1.5503  0.0029
 8908SOL     OW38182   2.990   1.493   7.352  0.1096  0.0778 -0.0342
 8908SOL    HW138183   2.980   1.563   7.417 -0.5898  2.3793 -2.6125
 8908SOL    HW238184   3.086   1.490   7.351  0.1685  2.0991 -0.4002
 8909SOL     OW38185   4.197   1.693   9.961 -0.0636 -0.1137  0.0598
 8909SOL    HW138186   4.288   1.684   9.933  0.0587  2.7282 -0.4476
 8909SOL    HW238187   4.157   1.707   9.875  1.4164 -2.0042 -0.9231
 8910SOL     OW38188   0.604   1.030   5.305  0.2126 -0.2776  0.3117
 8910SOL    HW138189   0.572   0.941   5.295 -0.7386  0.2724 -1.7135
 8910SOL    HW238190   0.677   1.028   5.243  1.1469 -0.1907  1.4283
 8911SOL     OW38191   1.251   0.143   2.429  0.4854  0.8936  0.2574
 8911SOL    HW138192   1.223   0.231   2.452 -0.9338  0.1161  1.5515
 8911SOL    HW238193   1.345   0.146   2.411  0.5336  0.6591  0.4642
 8912SOL     OW38194   4.512   0.327   0.388  0.1698  0.0229 -0.4292
 8912SOL    HW138195   4.456   0.352   0.462  2.0125  1.7713  0.3630
 8912SOL    HW238196   4.509   0.409   0.340  1.4637  0.3362  0.0403
 8913SOL     OW38197   0.698   2.977   5.226 -0.0687 -0.4620 -0.4019
 8913SOL    HW138198   0.631   2.997   5.159 -1.3498  2.1713  1.6608
 8913SOL    HW238199   0.715   3.069   5.248 -1.9386 -0.2585  0.2064
 8914SOL     OW38200   3.254   3.678   6.509  0.2582  0.6407 -0.0727
 8914SOL    HW138201   3.190   3.679   6.437 -0.2654 -0.7758  0.3683
 8914SOL    HW238202   3.319   3.620   6.470  2.5452  2.8001  0.5494
 8915SOL     OW38203   2.362   3.359   7.883 -0.3502 -0.7662  0.0313
 8915SOL    HW138204   2.433   3.397   7.830 -0.6020 -0.9909 -0.4661
 8915SOL    HW238205   2.387   3.267   7.890  0.0834 -0.4729  2.1525
 8916SOL     OW38206   2.441   1.136   5.481  0.1438 -0.1997 -0.0161
 8916SOL    HW138207   2.513   1.075   5.497 -0.0152 -0.8676 -1.8314
 8916SOL    HW238208   2.482   1.221   5.466  0.1794 -0.5356 -1.7907
 8917SOL     OW38209   1.896   4.137  12.217  0.1336 -0.2340  0.7018
 8917SOL    HW138210   1.915   4.196  12.144  1.0762  0.6270  1.6422
 8917SOL    HW238211   1.907   4.197  12.290  0.2298  0.4525  0.1217
 8918SOL     OW38212   3.651   0.747  10.415  0.5177 -0.0152 -0.0043
 8918SOL    HW138213   3.623   0.752  10.323  0.2282  0.3415  0.1030
 8918SOL    HW238214   3.692   0.834  10.422  0.3368  0.2505 -2.1188
 8919SOL     OW38215   2.468   4.302   7.243  0.3525 -0.0316 -0.2842
 8919SOL    HW138216   2.483   4.363   7.315  1.8268 -1.7621  0.8776
 8919SOL    HW238217   2.492   4.223   7.292 -0.7742 -0.2347 -0.0580
 8920SOL     OW38218   3.426   4.351   4.910  0.0573 -0.4320  0.2283
 8920SOL    HW138219   3.504   4.405   4.902 -0.4891  0.5618  1.5446
 8920SOL    HW238220   3.455   4.290   4.978  0.7027  0.6289  0.8905
 8921SOL     OW38221   2.352   0.996   3.059 -0.4633 -0.4972 -0.0854
 8921SOL    HW138222   2.346   0.992   2.963  1.2918 -2.1593 -0.1339
 8921SOL    HW238223   2.338   1.090   3.071 -1.3502 -0.7209  0.6347
 8922SOL     OW38224   4.566   1.021   4.484 -0.3551 -0.4061  0.5206
 8922SOL    HW138225   4.570   1.106   4.441 -2.6228 -0.9413 -0.7506
 8922SOL    HW238226   4.474   1.018   4.511 -0.6009 -0.3167 -0.3217
 8923SOL     OW38227   4.551   1.048  14.725 -0.0810  0.5247  0.3169
 8923SOL    HW138228   4.566   1.100  14.805  0.0604 -1.6452  1.7074
 8923SOL    HW238229   4.624   0.986  14.733 -0.1066  0.4278 -0.1938
 8924SOL     OW38230   4.639   4.034   8.622 -0.1232  0.3171 -0.6814
 8924SOL    HW138231   4.678   4.021   8.536  0.7538 -0.2377 -0.1994
 8924SOL    HW238232   4.674   3.963   8.675  0.4153  0.2032 -1.1877
 8925SOL     OW38233   3.438   3.288   6.572 -0.4118  0.0283 -0.5681
 8925SOL    HW138234   3.449   3.273   6.666 -1.0975  4.2033  0.1601
 8925SOL    HW238235   3.369   3.222   6.564 -0.4801 -0.0623  0.8917
 8926SOL     OW38236   0.272   4.627   6.232  0.1270  0.5312  0.5301
 8926SOL    HW138237   0.361   4.656   6.250  1.0727 -1.4381 -0.9122
 8926SOL    HW238238   0.239   4.676   6.156 -1.4816 -0.3239  0.6744
 8927SOL     OW38239   2.011   3.332   2.261 -0.2074 -0.3287  0.2712
 8927SOL    HW138240   2.085   3.297   2.311  0.9951  1.9469  0.0975
 8927SOL    HW238241   2.059   3.365   2.185  0.3096  0.2158  0.8354
 8928SOL     OW38242   2.781   4.024  13.458  0.0396 -0.3800 -0.3728
 8928SOL    HW138243   2.799   3.968  13.382  0.5573 -1.6495  0.6842
 8928SOL    HW238244   2.845   3.995  13.524 -1.4774 -0.4950  1.0370
 8929SOL     OW38245   1.871   4.411   8.083 -1.0612 -0.1825 -0.1929
 8929SOL    HW138246   1.942   4.470   8.058 -0.5506 -0.8378 -0.2992
 8929SOL    HW238247   1.888   4.399   8.177  1.0635  2.4704 -0.2358
 8930SOL     OW38248   4.354   1.801   7.080  0.4574  0.8296 -0.1450
 8930SOL    HW138249   4.270   1.846   7.080 -0.4813 -0.8827 -0.6449
 8930SOL    HW238250   4.362   1.794   7.175 -0.0847 -1.6555 -0.2853
 8931SOL     OW38251   4.470   1.000   9.387 -0.2401 -0.1586  0.2575
 8931SOL    HW138252   4.375   0.993   9.381 -0.0543 -0.9633 -1.5632
 8931SOL    HW238253   4.497   0.914   9.420  2.2912  1.0230  1.3249
 8932SOL     OW38254   1.198   4.439   4.466  0.1964  0.1872 -0.0772
 8932SOL    HW138255   1.116   4.448   4.419  0.6251  0.8266 -0.7109
 8932SOL    HW238256   1.175   4.434   4.559  0.6202  0.3923  0.0411
 8933SOL     OW38257   0.470   4.712   6.661  0.1525  0.8558 -0.6700
 8933SOL    HW138258   0.461   0.074   6.704  2.0065  0.8612 -0.2769
 8933SOL    HW238259   0.553   4.685   6.700 -1.7112 -3.5136  0.2288
 8934SOL     OW38260   0.593   1.476  11.614  0.1485 -0.0645  0.3279
 8934SOL    HW138261   0.624   1.479  11.523  2.3017  0.5476  1.0816
 8934SOL    HW238262   0.580   1.383  11.634  0.5214 -0.1952 -0.0304
 8935SOL     OW38263   0.477   1.180   4.542  0.2468 -0.6610  0.1346
 8935SOL    HW138264   0.413   1.182   4.612 -2.0976  1.1184 -2.0660
 8935SOL    HW238265   0.555   1.140   4.581  0.6581  1.3228  1.3131
 8936SOL     OW38266   4.679   0.628   8.638  0.4221 -0.6313  0.0692
 8936SOL    HW138267   4.643   0.627   8.726  1.0201  1.9785  0.3542
 8936SOL    HW238268   4.603   0.599   8.588  0.8494 -0.0299 -0.9531
 8937SOL     OW38269   3.848   2.130   3.599 -0.2551 -0.1910  0.2041
 8937SOL    HW138270   3.770   2.179   3.575 -0.7405  0.0424  2.2111
 8937SOL    HW238271   3.849   2.144   3.694  1.2157 -3.0368  0.5961
 8938SOL     OW38272   0.626   3.792  14.780 -0.4036  0.2744 -0.6020
 8938SOL    HW138273   0.674   3.775  14.699  1.6191 -0.6198  0.8004
 8938SOL    HW238274   0.629   3.887  14.772  2.4415  0.1422 -0.8841
 8939SOL     OW38275   0.576   1.547   5.730  0.5766  0.0016  0.2278
 8939SOL    HW138276   0.624   1.626   5.757 -1.7098  2.0042 -1.4991
 8939SOL    HW238277   0.647   1.484   5.716 -0.3102 -1.2934  1.6222
 8940SOL     OW38278   2.022   2.628   0.356 -0.6732  0.1199  0.3009
 8940SOL    HW138279   2.035   2.542   0.397  1.4930  0.2426 -0.1448
 8940SOL    HW238280   2.009   2.605   0.264 -1.2184 -0.9267  0.6352
 8941SOL     OW38281   4.533   3.968   1.356  0.1783  0.3300 -0.1272
 8941SOL    HW138282   4.628   3.959   1.347  0.1283 -1.0754  0.6024
 8941SOL    HW238283   4.519   3.877   1.383 -2.0437  1.6853  3.4273
 8942SOL     OW38284   2.861   2.919   9.471  0.7720  0.8663 -0.1087
 8942SOL    HW138285   2.949   2.885   9.486  0.4166  0.1251  0.2906
 8942SOL    HW238286   2.832   2.943   9.559  1.4397  0.2747  0.2697
 8943SOL     OW38287   1.074   0.312   5.590 -0.2819 -0.4751 -0.0635
 8943SOL    HW138288   1.072   0.217   5.576  1.6526 -0.9399  2.8047
 8943SOL    HW238289   0.981   0.325   5.568 -0.3858  0.2969  0.8316
 8944SOL     OW38290   4.338   3.886   5.452  0.0197 -0.5123 -0.0844
 8944SOL    HW138291   4.408   3.950   5.439  0.4886 -0.6639  1.6181
 8944SOL    HW238292   4.268   3.941   5.417  1.5283  1.5957  0.2161
 8945SOL     OW38293   0.908   4.066   5.043  0.1345  0.7581  0.3674
 8945SOL    HW138294   0.873   4.026   5.123  0.2682  0.8892  0.4915
 8945SOL    HW238295   1.000   4.041   5.048  0.3553  1.4653 -0.1520
 8946SOL     OW38296   0.867   3.468  13.215 -0.2426  0.1175 -0.3413
 8946SOL    HW138297   0.890   3.448  13.124 -2.3690 -0.9384 -0.6476
 8946SOL    HW238298   0.793   3.409  13.231  0.5169 -0.7869 -0.1835
 8947SOL     OW38299   0.839   0.947   5.912 -0.6498 -0.2163 -0.1402
 8947SOL    HW138300   0.766   0.985   5.863 -0.1286  1.4963  0.4135
 8947SOL    HW238301   0.797   0.915   5.991 -0.2995 -1.7362 -0.5640
 8948SOL     OW38302   3.350   1.340  13.010  0.0232 -0.1608  0.3054
 8948SOL    HW138303   3.257   1.318  13.019 -0.0181  0.7247  1.8710
 8948SOL    HW238304   3.356   1.414  13.070 -1.8047  0.4538 -0.2807
 8949SOL     OW38305   2.871   0.201   4.253  0.1227  0.8359 -0.5914
 8949SOL    HW138306   2.813   0.277   4.247 -2.2749 -0.9908 -0.4407
 8949SOL    HW238307   2.949   0.247   4.285  0.7945  1.3292 -2.9441
 8950SOL     OW38308   0.571   1.796   5.422 -0.2769  0.2557 -0.8740
 8950SOL    HW138309   0.506   1.794   5.352 -0.3236  1.7395 -0.8768
 8950SOL    HW238310   0.634   1.729   5.395 -1.0905 -1.3139  1.0679
 8951SOL     OW38311   2.277   0.974  10.478 -0.3142  0.0173 -0.3180
 8951SOL    HW138312   2.344   1.009  10.538  0.5626 -0.4711 -1.0220
 8951SOL    HW238313   2.252   0.891  10.517  0.0670 -0.0127 -0.1331
 8952SOL     OW38314   2.280   0.834   8.582  0.3279  0.1889 -0.0763
 8952SOL    HW138315   2.356   0.815   8.527  1.2126  0.7960  0.9403
 8952SOL    HW238316   2.209   0.829   8.517  2.7236 -0.7277 -2.6270
 8953SOL     OW38317   3.105   0.229   4.392  0.3504  0.0129  0.0589
 8953SOL    HW138318   3.152   0.295   4.444  0.0356 -0.0190  0.3800
 8953SOL    HW238319   3.151   0.160   4.440 -1.2289 -1.7972 -1.0165
 8954SOL     OW38320   2.928   4.708   9.353  0.4085  0.3816  0.1983
 8954SOL    HW138321   2.841   4.721   9.391  0.9435  1.3471  1.0969
 8954SOL    HW238322   2.980   4.677   9.427  1.9478 -0.2761 -1.1759
 8955SOL     OW38323   3.243   1.315   5.247 -0.6207  0.4700  0.1083
 8955SOL    HW138324   3.246   1.225   5.281  0.5495  1.6937  3.2666
 8955SOL    HW238325   3.258   1.368   5.326  0.4360 -0.3203  0.4386
 8956SOL     OW38326   0.720   4.090   4.387 -0.0689  0.2301  0.0085
 8956SOL    HW138327   0.710   4.055   4.298 -1.0525 -0.3124  0.3267
 8956SOL    HW238328   0.666   4.029   4.437  0.5165  0.4084  0.8428
 8957SOL     OW38329   3.098   3.781   2.541  0.2618  0.4517 -0.4606
 8957SOL    HW138330   3.149   3.829   2.476 -1.5983 -0.0943 -2.3304
 8957SOL    HW238331   3.171   3.757   2.598 -0.8720  1.0923  1.2776
 8958SOL     OW38332   3.585   4.322   9.889  0.3643 -0.9197  0.0000
 8958SOL    HW138333   3.663   4.268   9.875 -0.0474 -1.5958  0.3754
 8958SOL    HW238334   3.576   4.336   9.983  0.1341 -1.9034  0.1211
 8959SOL     OW38335   0.050   3.648   6.857  0.2325  0.1311  0.0099
 8959SOL    HW138336   4.690   3.603   6.873 -0.8931  1.3729 -2.4446
 8959SOL    HW238337   0.048   3.711   6.929 -2.8549 -1.1759  1.0582
 8960SOL     OW38338   0.161   3.707   5.069  0.3990  0.1857 -0.0903
 8960SOL    HW138339   0.219   3.699   4.994  0.8341 -2.3176  0.5146
 8960SOL    HW238340   0.207   3.653   5.133 -1.0374 -0.9399 -0.0280
 8961SOL     OW38341   3.921   2.828   7.835  0.0677  0.2829  0.1479
 8961SOL    HW138342   3.906   2.854   7.926  0.9038 -0.0953  0.3982
 8961SOL    HW238343   3.849   2.873   7.791  0.3154  1.7209  1.2168
 8962SOL     OW38344   2.864   3.779   5.629  0.8930 -0.1308  0.0101
 8962SOL    HW138345   2.828   3.845   5.571 -0.1961  0.0704  0.9274
 8962SOL    HW238346   2.837   3.815   5.713 -1.2972 -3.4102  0.7067
 8963SOL     OW38347   1.172   2.623  14.004 -0.3669 -0.3908  0.2162
 8963SOL    HW138348   1.099   2.672  13.967  0.3227 -0.1215 -0.7994
 8963SOL    HW238349   1.124   2.555  14.052 -1.1068  0.9813  1.3866
 8964SOL     OW38350   1.314   3.471   7.365  0.1843  0.3119  0.2710
 8964SOL    HW138351   1.331   3.421   7.285  0.1694  0.3545  0.2412
 8964SOL    HW238352   1.250   3.535   7.335  1.1048  0.4163 -1.4849
 8965SOL     OW38353   4.536   2.525   1.600 -0.3152  0.0904  0.4169
 8965SOL    HW138354   4.619   2.479   1.585 -0.7598 -0.1844 -1.2217
 8965SOL    HW238355   4.508   2.551   1.512  1.5038  0.8084  0.0483
 8966SOL     OW38356   0.351   2.675  14.060  0.0045 -0.1053 -0.1587
 8966SOL    HW138357   0.414   2.664  13.989  0.9474 -1.4168  0.8902
 8966SOL    HW238358   0.369   2.761  14.099 -0.8588 -0.9097  2.0076
 8967SOL     OW38359   1.374   2.376   8.296  0.2090 -0.9452  0.8610
 8967SOL    HW138360   1.352   2.462   8.331  0.4416  0.2496 -1.9497
 8967SOL    HW238361   1.469   2.392   8.292  0.3552 -2.2725 -0.7417
 8968SOL     OW38362   2.428   0.848   6.545 -0.2535  0.3375 -0.3719
 8968SOL    HW138363   2.459   0.789   6.614 -3.3182  0.3019  0.9633
 8968SOL    HW238364   2.333   0.849   6.558  0.1704 -0.3430  2.9183
 8969SOL     OW38365   0.422   1.630   3.558  0.1492 -0.4371 -0.1081
 8969SOL    HW138366   0.383   1.587   3.634 -0.2039 -1.3799 -0.8274
 8969SOL    HW238367   0.493   1.679   3.600 -1.4625  1.3162  0.5668
 8970SOL     OW38368   0.383   2.095  17.255 -0.7395 -0.2163 -0.4779
 8970SOL    HW138369   0.292   2.121  17.269  0.1358  2.1644  0.9043
 8970SOL    HW238370   0.386   2.078  17.161 -0.0663 -2.6656  0.0015
 8971SOL     OW38371   3.961   3.038   6.192  0.3689 -0.0566  0.6955
 8971SOL    HW138372   4.007   3.035   6.108 -5.9787  0.0846 -2.7907
 8971SOL    HW238373   4.007   3.106   6.241  0.6402 -0.7825  1.4680
 8972SOL     OW38374   0.490   1.427  17.469  0.0530  0.3715  0.0814
 8972SOL    HW138375   0.441   1.353  17.504  0.8765  0.6985  1.9214
 8972SOL    HW238376   0.457   1.434  17.379  0.1092 -1.4582 -0.0859
 8973SOL     OW38377   0.169   1.780  11.265 -0.2579  0.2517 -0.2501
 8973SOL    HW138378   0.229   1.709  11.288 -3.1542 -2.2964 -0.6074
 8973SOL    HW238379   0.183   1.830  11.345  2.2004 -1.8201  0.6453
 8974SOL     OW38380   1.271   0.649   4.854  0.5159  0.3983  0.2141
 8974SOL    HW138381   1.177   0.655   4.868  0.0154 -0.6103 -2.7693
 8974SOL    HW238382   1.294   0.587   4.923  0.1299  0.5577  0.4855
 8975SOL     OW38383   0.816   2.322   0.290  0.8233  0.1796 -0.3360
 8975SOL    HW138384   0.823   2.348   0.382 -0.4726 -0.4773 -0.0474
 8975SOL    HW238385   0.721   2.311   0.286  0.9621 -1.1241  0.0928
 8976SOL     OW38386   2.666   0.722   4.158  0.0162  0.4246  0.1246
 8976SOL    HW138387   2.586   0.686   4.120 -0.7727  2.1018  0.1855
 8976SOL    HW238388   2.682   0.666   4.233 -0.6446 -0.1398 -0.1554
 8977SOL     OW38389   2.709   3.592  17.680  0.0670  0.9412 -0.3941
 8977SOL    HW138390   2.728   3.673  17.632  0.9893  1.1992  0.4247
 8977SOL    HW238391   2.784   3.577   0.044  0.1027  1.6011 -0.2664
 8978SOL     OW38392   2.699   2.813  12.817  0.1054  0.0473 -0.4341
 8978SOL    HW138393   2.790   2.843  12.812  0.2341  0.1897  2.5689
 8978SOL    HW238394   2.675   2.819  12.910 -0.8667  1.2127 -0.7654
 8979SOL     OW38395   2.406   3.674   4.285  0.7469  0.6621  0.0403
 8979SOL    HW138396   2.455   3.725   4.350 -0.9130 -1.3864  2.9145
 8979SOL    HW238397   2.353   3.746   4.250 -3.3596 -2.3511  0.1551
 8980SOL     OW38398   3.767   0.425  16.362 -0.6108  0.5457  0.3517
 8980SOL    HW138399   3.823   0.485  16.314 -0.7421  1.9039  1.9060
 8980SOL    HW238400   3.726   0.481  16.427  0.6726  0.1398  1.5099
 8981SOL     OW38401   2.067   3.952   4.889 -0.2250 -0.3144 -0.2235
 8981SOL    HW138402   1.992   3.905   4.924  0.0290  0.7605  1.7663
 8981SOL    HW238403   2.112   3.888   4.835  0.3318 -0.1983  0.1028
 8982SOL     OW38404   1.874   2.228   5.333 -0.3532  0.1978  0.2825
 8982SOL    HW138405   1.801   2.196   5.280 -1.5972  1.2257  1.3560
 8982SOL    HW238406   1.916   2.289   5.273 -0.7304 -0.0408 -0.2258
 8983SOL     OW38407   0.032   3.918   5.894  0.0853 -0.0809  0.5134
 8983SOL    HW138408   0.063   3.835   5.858  0.5210 -1.1767  3.4178
 8983SOL    HW238409   0.043   3.891   5.986  0.6802 -0.9248  0.1946
 8984SOL     OW38410   0.639   1.766   3.662  0.2076  0.9023  0.3576
 8984SOL    HW138411   0.622   1.780   3.755  1.4033 -2.0086  1.0283
 8984SOL    HW238412   0.638   1.857   3.634  1.8848  0.1983 -2.0823
 8985SOL     OW38413   1.952   3.382   1.192  0.1901 -0.3877 -0.3797
 8985SOL    HW138414   2.011   3.454   1.214 -0.7856 -0.3387  2.1729
 8985SOL    HW238415   1.888   3.433   1.142  0.0982  1.1188  1.2650
 8986SOL     OW38416   4.182   0.384   7.250 -0.1802  0.0348  0.9728
 8986SOL    HW138417   4.087   0.367   7.244 -0.2499 -0.1231  2.7064
 8986SOL    HW238418   4.175   0.451   7.182  1.9340 -0.5364  0.1878
 8987SOL     OW38419   2.904   1.164   2.840  0.0761 -0.5369 -0.1234
 8987SOL    HW138420   2.894   1.070   2.860 -2.1663 -0.1759  0.3861
 8987SOL    HW238421   2.884   1.203   2.925  1.8955 -0.1364  0.1237
 8988SOL     OW38422   3.092   1.450  12.768  0.3096  0.2670  0.2808
 8988SOL    HW138423   3.105   1.480  12.858  0.6284  0.7495  0.0717
 8988SOL    HW238424   3.003   1.414  12.774  0.2827  0.5545  1.4642
 8989SOL     OW38425   3.530   4.126  12.720 -0.1207  0.1424 -0.5025
 8989SOL    HW138426   3.466   4.154  12.654 -1.3072  2.3280  1.5756
 8989SOL    HW238427   3.480   4.087  12.792  1.9583 -1.7353 -0.1068
 8990SOL     OW38428   3.443   3.050   8.851  0.0613 -0.5564  0.1534
 8990SOL    HW138429   3.527   3.060   8.895  0.8183  0.7516 -1.5907
 8990SOL    HW238430   3.412   2.969   8.891 -0.8451 -1.6482 -2.7995
 8991SOL     OW38431   1.253   2.666  11.700  0.1888 -0.2303 -0.4989
 8991SOL    HW138432   1.236   2.579  11.662  0.1028  0.6828 -2.5455
 8991SOL    HW238433   1.201   2.666  11.780  0.5956 -1.0527 -0.2274
 8992SOL     OW38434   3.024   1.993   3.240  1.0281  0.0165  0.3629
 8992SOL    HW138435   2.959   2.035   3.296  0.1303 -2.5933  1.2404
 8992SOL    HW238436   2.967   1.924   3.206  2.6671 -0.3650 -1.6413
 8993SOL     OW38437   1.275   0.573   7.174  0.4367 -0.1878 -0.0093
 8993SOL    HW138438   1.328   0.497   7.150 -0.6015 -0.6324 -0.8678
 8993SOL    HW238439   1.332   0.620   7.236 -1.3373  0.4439  1.1439
 8994SOL     OW38440   0.859   2.868   4.012  0.1315 -0.4320  0.2306
 8994SOL    HW138441   0.830   2.920   4.087  0.4389 -0.2813  0.2444
 8994SOL    HW238442   0.816   2.902   3.934  0.5916 -0.5631 -0.0840
 8995SOL     OW38443   1.845   1.829   4.208  0.1081 -0.1458  0.2397
 8995SOL    HW138444   1.869   1.875   4.289  0.5271 -1.3641  0.7999
 8995SOL    HW238445   1.759   1.799   4.239 -1.7723  1.9114 -3.0209
 8996SOL     OW38446   0.907   4.104   4.774 -0.1022  0.5137  0.1526
 8996SOL    HW138447   0.812   4.094   4.763 -0.1257 -0.4823  1.3018
 8996SOL    HW238448   0.920   4.093   4.868 -0.1613  0.8210  0.1982
 8997SOL     OW38449   3.163   2.091   5.518 -0.3799 -0.2331 -0.6264
 8997SOL    HW138450   3.238   2.095   5.459 -0.0513 -0.1396 -0.2004
 8997SOL    HW238451   3.092   2.044   5.473  0.1849 -1.1192 -0.5741
 8998SOL     OW38452   1.023   3.446   0.232  0.7307 -0.0656 -0.2628
 8998SOL    HW138453   0.948   3.387   0.243  0.7160  0.2774  1.3890
 8998SOL    HW238454   1.030   3.472   0.324 -0.5862 -2.6705  0.5693
 8999SOL     OW38455   1.496   3.447   1.705  0.2056 -0.0104 -0.7169
 8999SOL    HW138456   1.543   3.404   1.776 -1.6068 -1.2640 -0.2732
 8999SOL    HW238457   1.560   3.514   1.680  0.4685  0.0703  0.1564
 9000SOL     OW38458   1.675   0.164   0.648 -0.0728  0.3956 -0.2008
 9000SOL    HW138459   1.670   0.160   0.553  3.5719  1.1512 -0.4337
 9000SOL    HW238460   1.765   0.193   0.664  0.2779 -1.5932  1.4911
 9001SOL     OW38461   3.112   1.979  10.556 -0.0469 -0.5377 -0.1347
 9001SOL    HW138462   3.134   2.072  10.558 -1.3272 -0.2421 -0.3299
 9001SOL    HW238463   3.099   1.975  10.651  1.0858 -2.0804 -0.0496
 9002SOL     OW38464   3.108   4.080   7.645  0.1159 -0.0416  1.2042
 9002SOL    HW138465   3.065   4.094   7.729 -1.4455 -1.3135  0.6077
 9002SOL    HW238466   3.132   3.988   7.648  2.1156  0.4010 -1.2395
 9003SOL     OW38467   4.239   1.315   9.628 -0.1531 -0.2558  0.0765
 9003SOL    HW138468   4.224   1.313   9.533  0.4274 -0.4538 -0.0074
 9003SOL    HW238469   4.156   1.276   9.656  0.5075 -1.4778  0.3134
 9004SOL     OW38470   1.706   3.451   5.203  0.1782 -0.5246  0.1698
 9004SOL    HW138471   1.763   3.466   5.278 -1.7715 -2.4060  1.9968
 9004SOL    HW238472   1.765   3.406   5.142 -0.3206 -4.0637  2.3255
 9005SOL     OW38473   0.822   1.324   1.995 -0.2717  0.0636  0.3736
 9005SOL    HW138474   0.762   1.249   1.995  0.2393 -0.3450  1.1766
 9005SOL    HW238475   0.815   1.351   1.903 -2.4306  3.7397  1.6026
 9006SOL     OW38476   1.276   4.683   6.197  0.3690  0.0134 -1.2238
 9006SOL    HW138477   1.288   4.616   6.130  0.7876  0.9282 -2.0591
 9006SOL    HW238478   1.290   4.636   6.279 -1.2954  0.1464 -0.8637
 9007SOL     OW38479   0.937   0.912   7.052  0.0248 -0.2435 -0.2229
 9007SOL    HW138480   0.998   0.847   7.016  0.3476 -1.3339  2.3318
 9007SOL    HW238481   0.892   0.871   7.125  1.0406 -2.6931 -0.9938
 9008SOL     OW38482   2.628   3.286   2.935  0.4873 -0.0767  0.2596
 9008SOL    HW138483   2.648   3.194   2.916  2.0968  0.5162 -0.9258
 9008SOL    HW238484   2.634   3.328   2.849 -0.0773  0.2733  0.3904
 9009SOL     OW38485   2.487   2.393   6.941 -0.1417  0.2025  0.2946
 9009SOL    HW138486   2.406   2.410   6.893  0.0205 -3.0485 -1.1519
 9009SOL    HW238487   2.474   2.434   7.027 -2.1600  1.7132 -0.7448
 9010SOL     OW38488   0.240   3.877   4.123  0.1550 -0.0474 -0.4207
 9010SOL    HW138489   0.214   3.858   4.032  1.8467  0.8686 -1.1033
 9010SOL    HW238490   0.176   3.940   4.154 -0.2811 -0.6116 -0.1830
 9011SOL     OW38491   3.707   0.703   2.774  0.0380 -0.0469  0.2331
 9011SOL    HW138492   3.642   0.770   2.749 -1.2635 -1.1249  0.7532
 9011SOL    HW238493   3.669   0.616   2.760 -1.2926  0.1983  2.4518
 9012SOL     OW38494   3.630   3.566   6.074  0.0876  0.2372 -0.1026
 9012SOL    HW138495   3.639   3.522   5.989 -1.6861  2.0185 -1.1959
 9012SOL    HW238496   3.693   3.513   6.124  1.0482  1.0760 -0.4375
 9013SOL     OW38497   0.102   0.469  12.989  0.1587 -0.6281  0.3402
 9013SOL    HW138498   0.186   0.492  13.028 -0.2679  1.7838 -0.1598
 9013SOL    HW238499   0.129   0.423  12.909  0.8464 -1.1567  0.8779
 9014SOL     OW38500   1.141   1.984   6.918 -0.0336  0.1077  0.2894
 9014SOL    HW138501   1.154   2.058   6.859  0.7111  0.8198  1.3453
 9014SOL    HW238502   1.106   2.024   6.998 -3.1195  1.4168 -1.7483
 9015SOL     OW38503   1.901   0.904   6.032 -0.1299  0.9383  0.5316
 9015SOL    HW138504   1.943   0.990   6.024 -0.9575  1.5135  2.3728
 9015SOL    HW238505   1.833   0.911   5.964 -1.1223  0.1338  1.4436
 9016SOL     OW38506   1.801   1.901   5.649  0.4042  0.0505 -0.4660
 9016SOL    HW138507   1.817   1.994   5.640  1.4107  0.1155  2.0847
 9016SOL    HW238508   1.805   1.876   5.557 -0.0683  1.4748 -0.8616
 9017SOL     OW38509   3.497   2.248   0.946  0.0722 -0.0630 -0.1412
 9017SOL    HW138510   3.567   2.191   0.979 -1.4988 -0.6582  2.1310
 9017SOL    HW238511   3.540   2.312   0.889 -2.3049 -0.0050 -1.8780
 9018SOL     OW38512   3.613   0.357   3.034  0.0520 -0.4248  0.5428
 9018SOL    HW138513   3.638   0.429   3.092  1.1606  0.6828 -1.2805
 9018SOL    HW238514   3.533   0.392   2.995  0.2202 -1.1841 -0.4844
 9019SOL     OW38515   2.324   3.349   0.657 -0.3714 -0.2211  0.3579
 9019SOL    HW138516   2.293   3.400   0.582  1.9010  1.1517  0.3733
 9019SOL    HW238517   2.315   3.259   0.625 -0.3664  0.4814 -1.5636
 9020SOL     OW38518   2.162   0.932   1.955 -0.7311  0.3362  0.6108
 9020SOL    HW138519   2.106   1.007   1.932 -0.9679 -0.1204 -0.3197
 9020SOL    HW238520   2.094   0.865   1.962  0.4168 -0.7830  0.9625
 9021SOL     OW38521   2.219   2.349   2.847  0.2992  0.0257 -0.3676
 9021SOL    HW138522   2.131   2.349   2.810 -0.3233 -1.4344  1.1549
 9021SOL    HW238523   2.214   2.305   2.932 -0.9986 -0.5895 -0.7734
 9022SOL     OW38524   3.032   3.239  10.657  0.8835 -0.1701 -0.3070
 9022SOL    HW138525   3.072   3.215  10.741  0.7054  0.6501  0.0133
 9022SOL    HW238526   3.091   3.195  10.596  2.1476  1.7000 -0.4379
 9023SOL     OW38527   4.556   2.995   7.751  0.0877  0.0567 -0.1933
 9023SOL    HW138528   4.472   3.021   7.789 -0.6013 -0.9500 -1.0323
 9023SOL    HW238529   4.558   3.047   7.671  0.7337 -1.6137 -1.2657
 9024SOL     OW38530   1.973   2.551   3.680  0.0004 -0.0891 -0.5866
 9024SOL    HW138531   2.000   2.608   3.608 -0.8613  0.0292 -0.8262
 9024SOL    HW238532   1.879   2.551   3.660  0.0260 -2.2263 -0.6777
 9025SOL     OW38533   1.657   3.991   2.616  0.3960 -0.8320  0.2222
 9025SOL    HW138534   1.587   4.052   2.641  1.1312  0.4180 -0.7290
 9025SOL    HW238535   1.728   4.046   2.583 -1.9695  1.9173 -0.2957
 9026SOL     OW38536   1.823   4.577   4.764  0.5216  0.2094  0.3324
 9026SOL    HW138537   1.790   4.488   4.754  0.5292  0.2872 -0.4355
 9026SOL    HW238538   1.744   4.630   4.755  0.6318  0.4708  0.9356
 9027SOL     OW38539   1.944   1.772  11.365 -0.1450 -0.5144  0.2743
 9027SOL    HW138540   1.874   1.717  11.331 -1.1991  1.2718 -0.4648
 9027SOL    HW238541   1.919   1.792  11.455 -1.2021 -0.4608 -0.0339
 9028SOL     OW38542   3.914   0.419   9.367  0.1361  0.4754  0.2702
 9028SOL    HW138543   3.908   0.377   9.281  0.9793 -2.6047  1.7359
 9028SOL    HW238544   3.979   0.488   9.353  0.1313  0.2123 -1.0969
 9029SOL     OW38545   4.266   1.056  14.768  0.2572 -0.4951  0.3780
 9029SOL    HW138546   4.227   0.969  14.769  1.7219 -1.1488  1.2074
 9029SOL    HW238547   4.352   1.047  14.727 -0.7538 -2.1675 -1.3711
 9030SOL     OW38548   0.311   2.585   3.090 -0.2883 -0.7197  0.1446
 9030SOL    HW138549   0.359   2.519   3.139 -0.0624 -0.6244  0.0549
 9030SOL    HW238550   0.377   2.604   3.022 -0.7214  1.1796  0.2713
 9031SOL     OW38551   0.217   1.253  12.099  0.3841 -0.1059  0.3832
 9031SOL    HW138552   0.243   1.271  12.189  0.6850  2.0894 -0.1593
 9031SOL    HW238553   0.159   1.182  12.129  0.5413 -0.5366 -0.3288
 9032SOL     OW38554   0.309   3.554  17.605  0.5392 -0.2990  0.3319
 9032SOL    HW138555   0.381   3.527  17.549  2.3465  1.0109  2.0054
 9032SOL    HW238556   0.334   3.521  17.691 -0.8445 -1.7598  0.1700
 9033SOL     OW38557   4.450   0.057   5.886  0.1800  0.3817 -0.9509
 9033SOL    HW138558   4.447   0.002   5.807  0.3996 -1.0390  0.0246
 9033SOL    HW238559   4.379   0.024   5.940  0.9185 -0.4408 -0.4793
 9034SOL     OW38560   3.499   0.551   9.694 -0.2563  0.3346  0.0415
 9034SOL    HW138561   3.567   0.528   9.631  1.3589  2.2734  1.0934
 9034SOL    HW238562   3.447   0.596   9.628  1.3541  1.7471 -0.2680
 9035SOL     OW38563   4.405   3.216   1.207  0.1273 -0.2641 -0.1857
 9035SOL    HW138564   4.411   3.121   1.208 -2.4473 -0.4488 -1.3875
 9035SOL    HW238565   4.312   3.231   1.227  0.7736 -0.5531  2.9152
 9036SOL     OW38566   3.259   1.839   0.557 -0.0468  0.4309  0.2967
 9036SOL    HW138567   3.178   1.831   0.508  0.1661 -0.9088  0.1755
 9036SOL    HW238568   3.230   1.847   0.648 -1.9144  4.4612 -0.6625
 9037SOL     OW38569   3.574   3.063   2.040  0.0810  0.2947 -0.3223
 9037SOL    HW138570   3.618   3.102   1.964  1.2820 -0.2072  0.1245
 9037SOL    HW238571   3.498   3.119   2.054  0.4513  1.1963 -1.7700
 9038SOL     OW38572   4.127   3.931  11.727  0.3289 -0.3274  0.4946
 9038SOL    HW138573   4.038   3.966  11.724  0.7217  0.6880  0.5720
 9038SOL    HW238574   4.139   3.913  11.820 -1.6598  0.3350  0.8714
 9039SOL     OW38575   0.540   4.556   1.934  0.2471 -0.3572  0.4993
 9039SOL    HW138576   0.460   4.608   1.921 -0.3036 -0.7037  2.4890
 9039SOL    HW238577   0.554   4.588   2.023 -0.9238  0.7487  0.2911
 9040SOL     OW38578   3.105   1.481   9.980  0.0577  0.2422  0.1149
 9040SOL    HW138579   3.097   1.441   9.893  0.0014 -0.7814  0.5857
 9040SOL    HW238580   3.166   1.421  10.023 -0.1066  0.4506  0.6444
 9041SOL     OW38581   1.035   0.683   3.331 -0.3858  0.1184 -0.0937
 9041SOL    HW138582   1.045   0.613   3.266 -1.4413 -0.8427  0.7779
 9041SOL    HW238583   1.022   0.760   3.276 -3.7823 -1.4171 -1.4292
 9042SOL     OW38584   4.419   3.502   7.714 -0.3421  0.4763  0.0579
 9042SOL    HW138585   4.325   3.519   7.705 -0.5750  0.3980  2.3572
 9042SOL    HW238586   4.411   3.429   7.775 -1.3032 -1.9824 -2.9800
 9043SOL     OW38587   1.551   1.727  13.660  0.0562  0.5130  0.2586
 9043SOL    HW138588   1.460   1.750  13.638 -0.2473  0.4833  1.5150
 9043SOL    HW238589   1.572   1.658  13.597 -0.1323  0.4618  0.2511
 9044SOL     OW38590   4.108   2.447   5.246 -0.0038 -0.1712 -0.0078
 9044SOL    HW138591   4.044   2.518   5.248  0.7415  0.5016  0.0074
 9044SOL    HW238592   4.065   2.392   5.311  0.6483  2.2525  2.4573
 9045SOL     OW38593   0.185   4.443   2.306  0.1850  0.2309 -0.0888
 9045SOL    HW138594   0.196   4.348   2.309 -1.8543 -0.0575 -2.0074
 9045SOL    HW238595   0.100   4.451   2.263  0.1282 -1.1932 -0.2432
 9046SOL     OW38596   1.938   4.009  13.915 -0.3981  0.3701  0.0187
 9046SOL    HW138597   1.930   3.987  14.008 -1.1646 -0.5992 -0.2816
 9046SOL    HW238598   1.938   4.104  13.928  1.8850  0.3694  0.1161
 9047SOL     OW38599   3.029   3.460   4.485  0.1465  0.1128 -0.5027
 9047SOL    HW138600   3.001   3.533   4.541 -3.0210 -1.5579  0.0456
 9047SOL    HW238601   3.023   3.387   4.547  0.3540  1.0658  0.6416
 9048SOL     OW38602   0.442   2.476   2.173  0.9554  0.0637 -0.3004
 9048SOL    HW138603   0.389   2.553   2.191  2.3172  1.5008 -2.4947
 9048SOL    HW238604   0.369   2.429   2.132  0.5322 -0.1123  0.6617
 9049SOL     OW38605   1.278   1.880   6.474  0.4041  0.0128 -0.0445
 9049SOL    HW138606   1.228   1.961   6.484  0.7130  0.2634 -0.5374
 9049SOL    HW238607   1.255   1.833   6.554  0.5600  0.8307  0.4816
 9050SOL     OW38608   0.966   2.777  16.344 -0.5409  0.4606  0.1698
 9050SOL    HW138609   0.934   2.853  16.296  0.6264  0.5958 -0.4022
 9050SOL    HW238610   0.940   2.706  16.285  0.9562 -1.2189  1.5036
 9051SOL     OW38611   4.271   3.331   1.506 -0.5255 -0.4728 -0.2168
 9051SOL    HW138612   4.202   3.398   1.505  0.3928  0.4590 -0.9347
 9051SOL    HW238613   4.247   3.280   1.429  0.3272 -1.6064  0.2793
 9052SOL     OW38614   0.054   0.310   3.546 -0.5516 -0.3818 -0.1935
 9052SOL    HW138615   0.069   0.216   3.559  1.1243  0.0605  1.0189
 9052SOL    HW238616   0.139   0.344   3.518 -0.4219 -1.3240 -0.9401
 9053SOL     OW38617   1.268   0.697  15.640  0.4520 -0.1644 -0.3598
 9053SOL    HW138618   1.347   0.749  15.657 -0.3264  0.4357  1.3541
 9053SOL    HW238619   1.261   0.640  15.717 -0.0493  1.3967  0.7360
 9054SOL     OW38620   3.070   3.370   9.225 -0.4508  0.0505 -0.4233
 9054SOL    HW138621   3.040   3.284   9.253 -0.7115  0.7237  1.3550
 9054SOL    HW238622   3.059   3.357   9.131 -0.0786 -1.6828 -0.2242
 9055SOL     OW38623   3.623   2.811   1.057 -0.1227  0.5396  0.7872
 9055SOL    HW138624   3.605   2.898   1.092 -1.3807  0.1492  1.0830
 9055SOL    HW238625   3.537   2.769   1.056  0.0470  0.2267 -0.6112
 9056SOL     OW38626   4.109   1.472  12.893  0.2535 -0.4075  0.3406
 9056SOL    HW138627   4.064   1.554  12.911 -0.0099  0.0897 -2.5302
 9056SOL    HW238628   4.190   1.494  12.940  0.1286  1.9437 -0.5796
 9057SOL     OW38629   0.535   3.789   6.812  0.1366  0.3459 -0.2756
 9057SOL    HW138630   0.548   3.718   6.750 -0.7844 -0.7563  0.8014
 9057SOL    HW238631   0.502   3.860   6.757 -1.1284 -2.2634 -2.8719
 9058SOL     OW38632   0.979   0.108  12.268 -0.0556 -0.2667  0.2846
 9058SOL    HW138633   1.008   0.089  12.178  2.2955 -3.9737  1.8398
 9058SOL    HW238634   0.899   0.058  12.277 -1.4608  2.2849  1.8948
 9059SOL     OW38635   1.184   4.400   8.676 -0.2491 -0.1102 -0.4799
 9059SOL    HW138636   1.215   4.487   8.703 -0.2937 -0.5748  1.0757
 9059SOL    HW238637   1.208   4.399   8.584 -0.2976 -1.0062 -0.4837
 9060SOL     OW38638   4.258   3.248  17.185 -0.2587 -0.3788  0.6288
 9060SOL    HW138639   4.164   3.265  17.186 -0.1308  0.6511 -4.7509
 9060SOL    HW238640   4.290   3.337  17.172 -2.2413  0.3708  0.8118
 9061SOL     OW38641   2.807   0.744   5.563 -0.1645 -0.3543 -0.2287
 9061SOL    HW138642   2.721   0.717   5.597  0.2536 -0.2870  0.8748
 9061SOL    HW238643   2.858   0.663   5.568 -0.1855 -0.3620 -0.1495
 9062SOL     OW38644   4.053   3.768   5.888 -0.0407  0.5405 -0.0643
 9062SOL    HW138645   4.116   3.717   5.939 -2.3730 -1.9914  0.3100
 9062SOL    HW238646   3.998   3.793   5.962 -5.2495 -3.0181 -2.7044
 9063SOL     OW38647   3.857   2.663  12.278 -0.0264 -0.1597 -0.0844
 9063SOL    HW138648   3.947   2.639  12.298  0.1330  0.4570 -0.0584
 9063SOL    HW238649   3.863   2.700  12.190 -3.3120  0.2629 -0.1545
 9064SOL     OW38650   1.604   1.788   2.904  0.1209 -0.3446 -0.1653
 9064SOL    HW138651   1.563   1.743   2.978  0.2861 -3.8265 -2.1798
 9064SOL    HW238652   1.691   1.805   2.940  0.2786 -1.6141  0.0428
 9065SOL     OW38653   4.140   4.036   7.357  0.6080 -0.1907 -0.2280
 9065SOL    HW138654   4.152   3.944   7.333  0.1460 -0.2279 -0.3256
 9065SOL    HW238655   4.224   4.048   7.399  1.3184 -2.7034 -0.9256
 9066SOL     OW38656   3.921   3.826   2.356 -0.6786 -0.0435  0.2635
 9066SOL    HW138657   4.004   3.864   2.385 -1.0163  0.2536  0.8134
 9066SOL    HW238658   3.894   3.885   2.286 -1.6290  0.0648  0.7299
 9067SOL     OW38659   3.570   3.993   3.122 -0.5064  0.3539  0.0733
 9067SOL    HW138660   3.604   3.969   3.209 -0.1239 -0.6582 -0.3506
 9067SOL    HW238661   3.493   3.935   3.123  0.3936 -0.8156  2.7691
 9068SOL     OW38662   1.044   2.854   7.159  0.2469 -0.8703 -0.1397
 9068SOL    HW138663   1.129   2.839   7.118 -0.3552 -0.6640 -1.4506
 9068SOL    HW238664   0.984   2.813   7.097 -0.8006 -1.0561  0.9970
 9069SOL     OW38665   0.869   2.666   1.938  0.1225 -0.4975  0.0431
 9069SOL    HW138666   0.846   2.609   2.011  1.6007 -0.7940  0.2887
 9069SOL    HW238667   0.800   2.732   1.946  3.4027  2.8319  1.1420
 9070SOL     OW38668   2.316   0.158   9.975  0.2769 -0.0914  0.2164
 9070SOL    HW138669   2.355   0.137  10.060 -2.3924 -3.6346  0.5325
 9070SOL    HW238670   2.346   0.248   9.961 -0.0480  0.4002  2.5674
 9071SOL     OW38671   0.974   1.163   6.123  0.4921 -0.8625  0.0614
 9071SOL    HW138672   0.907   1.185   6.187  0.8471 -2.6573  1.0618
 9071SOL    HW238673   0.924   1.154   6.042  0.7388  0.9804 -0.2882
 9072SOL     OW38674   0.797   2.126  11.724  0.4915  0.2916 -0.6672
 9072SOL    HW138675   0.727   2.169  11.675  0.9138  1.4593 -0.2421
 9072SOL    HW238676   0.750   2.072  11.787  1.3632 -1.0027 -1.1318
 9073SOL     OW38677   3.582   0.896   9.597  0.4823  0.0119 -0.1044
 9073SOL    HW138678   3.498   0.858   9.624  0.4413  0.0660 -0.1595
 9073SOL    HW238679   3.625   0.816   9.567 -1.8173 -0.3818 -2.3184
 9074SOL     OW38680   2.880   4.507   1.275 -0.5251 -0.8498 -0.2485
 9074SOL    HW138681   2.790   4.479   1.254 -1.3865  0.5731  1.6096
 9074SOL    HW238682   2.870   4.600   1.257 -1.9433 -0.4838  2.4380
 9075SOL     OW38683   4.447   4.424  14.126  0.5420  0.8186 -0.1909
 9075SOL    HW138684   4.509   4.479  14.174  1.9017 -1.2989  0.4802
 9075SOL    HW238685   4.502   4.403  14.051 -0.7790 -2.7592 -0.1400
 9076SOL     OW38686   1.453   2.657  10.560 -0.0563 -0.2655 -0.3171
 9076SOL    HW138687   1.383   2.611  10.512  0.4942 -0.1643 -1.2151
 9076SOL    HW238688   1.407   2.689  10.637  2.2181  0.0057  0.9127
 9077SOL     OW38689   3.166   0.569  13.316 -0.0880  0.3168  0.3928
 9077SOL    HW138690   3.214   0.565  13.234 -2.4387  0.8892 -1.0363
 9077SOL    HW238691   3.178   0.475  13.322 -2.0696  0.1370  1.7908
 9078SOL     OW38692   0.056   4.366  15.885 -0.5620  0.3883  0.3028
 9078SOL    HW138693   0.066   4.275  15.912 -1.7792  0.6314  1.5911
 9078SOL    HW238694   4.697   4.383  15.932 -0.3088 -0.8148  1.1516
 9079SOL     OW38695   1.981   0.460   9.905 -0.1330 -0.3426  0.0631
 9079SOL    HW138696   1.993   0.381   9.852 -0.1159 -0.3797  0.1208
 9079SOL    HW238697   1.942   0.421   9.983  0.7173  1.8053  1.5620
 9080SOL     OW38698   0.123   3.042   1.358 -0.5957  0.2880  0.8144
 9080SOL    HW138699   0.195   3.031   1.420  0.0506 -1.4384 -0.2446
 9080SOL    HW238700   0.095   2.951   1.357 -0.7397  0.3314  1.2460
 9081SOL     OW38701   2.597   1.156   4.961 -0.4912 -0.3951 -0.2561
 9081SOL    HW138702   2.649   1.087   4.919  0.8368  0.6532 -0.3348
 9081SOL    HW238703   2.515   1.112   4.982 -0.6483  0.2689  0.5151
 9082SOL     OW38704   2.945   1.040  10.501 -0.4296 -0.4144  0.0804
 9082SOL    HW138705   2.884   1.113  10.508  2.5817  2.1451 -0.3553
 9082SOL    HW238706   3.015   1.066  10.561 -0.5026 -1.2222  0.5192
 9083SOL     OW38707   1.800   0.442   9.410  0.0088 -0.2285  0.0000
 9083SOL    HW138708   1.778   0.476   9.323  0.1140 -0.1578  0.0006
 9083SOL    HW238709   1.864   0.506   9.443 -2.0654 -0.2018  3.9171
 9084SOL     OW38710   2.408   2.132   6.932 -0.1191  0.0587 -0.5613
 9084SOL    HW138711   2.321   2.168   6.951  0.4836  0.6159  1.1616
 9084SOL    HW238712   2.448   2.216   6.908 -1.5914  0.2294 -2.4226
 9085SOL     OW38713   1.083   4.633   6.675 -0.2020 -0.4981 -0.5625
 9085SOL    HW138714   1.037   4.696   6.620  2.0655 -0.3204 -2.2799
 9085SOL    HW238715   1.074   4.666   6.764  0.1411 -1.7393 -0.0598
 9086SOL     OW38716   2.937   2.192   5.311 -0.5904  0.2987 -0.0075
 9086SOL    HW138717   3.022   2.235   5.318  1.2303 -3.2746 -0.1543
 9086SOL    HW238718   2.920   2.201   5.217 -0.3496  0.3413 -0.0474
 9087SOL     OW38719   2.988   4.133   3.251  0.0020  0.0654  0.6107
 9087SOL    HW138720   2.904   4.175   3.235 -0.7269 -1.3274  0.7502
 9087SOL    HW238721   2.958   4.075   3.321 -2.3082 -1.1764 -1.4378
 9088SOL     OW38722   4.138   0.765   5.753  0.2830 -0.7355 -0.3477
 9088SOL    HW138723   4.120   0.841   5.809 -4.3418 -1.8317 -0.3791
 9088SOL    HW238724   4.080   0.789   5.681  0.8395  0.4619 -0.4039
 9089SOL     OW38725   2.255   1.081   7.888  0.1481 -0.3685  0.2478
 9089SOL    HW138726   2.282   1.070   7.797  1.2458 -0.0481  0.5340
 9089SOL    HW238727   2.192   1.152   7.890  1.6068  0.9730 -1.2665
 9090SOL     OW38728   0.015   1.997   3.667  0.4835 -0.0983 -0.7354
 9090SOL    HW138729   0.011   1.997   3.571  2.7049  0.1122 -0.8423
 9090SOL    HW238730   0.098   1.950   3.678  1.0334  0.6579 -1.6752
 9091SOL     OW38731   1.237   4.215   1.124  0.5771  0.9014  0.2829
 9091SOL    HW138732   1.313   4.273   1.119  0.2394  1.1996 -1.2560
 9091SOL    HW238733   1.180   4.265   1.184 -0.4491 -0.4194  0.4185
 9092SOL     OW38734   3.116   4.553  16.721  0.3341 -0.1271 -0.3532
 9092SOL    HW138735   3.049   4.592  16.664 -2.8983 -2.0940  2.1107
 9092SOL    HW238736   3.103   4.458  16.709 -0.0824 -0.3308  1.7285
 9093SOL     OW38737   0.421   3.715   4.880  0.0220 -0.0121  0.1356
 9093SOL    HW138738   0.410   3.810   4.872 -0.9213 -0.4215 -3.3205
 9093SOL    HW238739   0.422   3.690   4.788 -1.1254  0.4277 -0.0029
 9094SOL     OW38740   0.778   3.618  17.284  0.6260  0.2302  0.1886
 9094SOL    HW138741   0.850   3.556  17.277  0.3712 -0.3329  2.4073
 9094SOL    HW238742   0.822   3.688  17.333  3.2569 -0.8564 -0.6179
 9095SOL     OW38743   4.466   3.182  14.340  0.8248  0.7711 -0.5448
 9095SOL    HW138744   4.533   3.180  14.408 -0.3331 -0.9536  0.5697
 9095SOL    HW238745   4.387   3.208  14.388  1.7506  0.6104  1.0425
 9096SOL     OW38746   1.122   1.787  16.025  0.0263 -0.3237 -0.6098
 9096SOL    HW138747   1.173   1.709  16.001  0.8452  0.1829 -0.5169
 9096SOL    HW238748   1.036   1.746  16.014  0.1134  0.0006 -2.4796
 9097SOL     OW38749   2.568   1.965   7.599  0.6180  0.3653 -0.0826
 9097SOL    HW138750   2.643   2.014   7.565 -0.0310 -0.0352 -2.0593
 9097SOL    HW238751   2.613   1.890   7.640 -0.2740 -0.8600 -1.3576
 9098SOL     OW38752   1.269   1.028  15.532  0.0579  0.1102  0.0749
 9098SOL    HW138753   1.347   0.975  15.513  1.3591  2.2428 -0.4622
 9098SOL    HW238754   1.286   1.117  15.502  0.6165  0.8548  2.6467
 9099SOL     OW38755   4.115   2.117  15.879 -0.0833  0.1460 -0.0365
 9099SOL    HW138756   4.125   2.159  15.794  1.5140 -0.8627 -0.3546
 9099SOL    HW238757   4.205   2.089  15.895 -0.6822 -1.9713 -0.3494
 9100SOL     OW38758   0.651   2.819   6.325 -0.0025 -0.4945  0.6242
 9100SOL    HW138759   0.608   2.828   6.410  0.8415 -0.7945  1.0766
 9100SOL    HW238760   0.608   2.746   6.281  1.1873 -1.3863  0.9506
 9101SOL     OW38761   1.682   1.412  14.327 -0.0071  0.2640 -0.3089
 9101SOL    HW138762   1.643   1.380  14.245  0.1777 -2.9573  0.8529
 9101SOL    HW238763   1.729   1.490  14.299 -0.4247  0.8547  0.6187
 9102SOL     OW38764   1.977   3.483   2.523 -0.4612  0.0050  0.1167
 9102SOL    HW138765   2.052   3.432   2.495  0.0864  0.5998  0.4928
 9102SOL    HW238766   1.981   3.553   2.458 -0.0682 -0.4806 -0.3733
 9103SOL     OW38767   3.440   2.818   0.166  0.2592  0.0972  0.4781
 9103SOL    HW138768   3.517   2.876   0.170  0.6006 -0.3361  0.1960
 9103SOL    HW238769   3.466   2.749   0.105 -3.0097 -0.7005 -0.0035
 9104SOL     OW38770   4.088   4.137   9.321  0.1099  0.5683  0.0330
 9104SOL    HW138771   4.115   4.045   9.328 -0.9710  0.1845 -0.7889
 9104SOL    HW238772   3.994   4.127   9.339  0.0161  0.2107 -0.6489
 9105SOL     OW38773   3.712   1.200   2.531  0.1296 -0.0979  0.4278
 9105SOL    HW138774   3.667   1.125   2.570 -0.5706  0.5300  0.8287
 9105SOL    HW238775   3.756   1.168   2.453  1.0119  0.2449  0.7776
 9106SOL     OW38776   3.031   3.356   1.137  0.5269 -0.2680 -0.0008
 9106SOL    HW138777   3.075   3.361   1.222  1.3061 -1.0142 -0.3646
 9106SOL    HW238778   2.992   3.443   1.128  1.4039  0.0410 -0.8103
 9107SOL     OW38779   1.085   1.379   5.067  0.6716  0.1231 -0.8158
 9107SOL    HW138780   1.055   1.350   4.981  1.9109  0.0519 -1.2246
 9107SOL    HW238781   1.124   1.296   5.094  0.3182  0.7442  1.5989
 9108SOL     OW38782   2.021   0.673   2.496 -0.3398 -0.2528 -0.3415
 9108SOL    HW138783   2.105   0.669   2.541 -0.5985 -0.3308  0.1342
 9108SOL    HW238784   2.054   0.698   2.409  1.3664  0.9857  0.6793
 9109SOL     OW38785   1.800   0.337   7.669  0.8602  0.3025 -0.3502
 9109SOL    HW138786   1.771   0.255   7.629  0.5578 -0.6807  1.8738
 9109SOL    HW238787   1.853   0.366   7.595  0.2125  0.1705 -0.8744
 9110SOL     OW38788   2.885   1.124   5.432  0.0218 -0.0579 -0.1926
 9110SOL    HW138789   2.849   1.098   5.347  1.7691  1.9634 -1.5536
 9110SOL    HW238790   2.901   1.216   5.410 -1.9706  0.3395 -0.0206
 9111SOL     OW38791   3.601   3.567   3.456 -0.7602  0.1477 -0.2344
 9111SOL    HW138792   3.565   3.605   3.375 -1.3088 -1.6030 -0.8027
 9111SOL    HW238793   3.664   3.638   3.470 -1.2148  0.6603 -0.7713
 9112SOL     OW38794   4.004   0.860   5.542  0.0294  0.1853 -0.3656
 9112SOL    HW138795   4.010   0.896   5.454  3.2794 -0.5006 -0.4227
 9112SOL    HW238796   3.945   0.929   5.572  2.2726  1.4128  1.2001
 9113SOL     OW38797   2.267   4.254   3.837 -0.0666  0.5672  0.1967
 9113SOL    HW138798   2.336   4.311   3.804 -2.3522  2.6898 -0.8687
 9113SOL    HW238799   2.313   4.175   3.867  0.9823  1.7535  1.6768
 9114SOL     OW38800   2.465   3.131   4.076 -0.4278  0.0830  0.0713
 9114SOL    HW138801   2.425   3.077   4.007  0.0849  0.5681 -0.6086
 9114SOL    HW238802   2.384   3.150   4.122 -0.2849  1.3931 -0.2378
 9115SOL     OW38803   3.469   0.206   7.409 -0.4379 -0.2698 -0.0243
 9115SOL    HW138804   3.485   0.279   7.350  1.2396  0.0263  0.8077
 9115SOL    HW238805   3.502   0.130   7.361 -0.2322 -0.4345  0.3707
 9116SOL     OW38806   0.457   3.316  16.235 -0.6208  0.2532  0.4480
 9116SOL    HW138807   0.492   3.235  16.273  1.1601  0.6360 -0.3549
 9116SOL    HW238808   0.532   3.376  16.238  0.0778 -0.6191  0.5823
 9117SOL     OW38809   3.952   3.959   8.450  0.7498  0.2091  0.5117
 9117SOL    HW138810   3.997   3.982   8.369 -2.5817  1.5773 -0.9723
 9117SOL    HW238811   3.898   4.038   8.457 -0.7753 -0.9257  1.5453
 9118SOL     OW38812   2.410   4.497   5.049  0.2657  0.5974  0.0951
 9118SOL    HW138813   2.481   4.433   5.053 -0.7050 -0.6236 -2.5185
 9118SOL    HW238814   2.396   4.517   4.956  2.1899 -0.3503 -0.4000
 9119SOL     OW38815   3.659   3.260  12.692  0.1136 -0.5973 -0.8695
 9119SOL    HW138816   3.614   3.344  12.679 -2.6161 -2.1371 -1.2044
 9119SOL    HW238817   3.735   3.279  12.637  0.0529  1.1066 -0.3616
 9120SOL     OW38818   2.398   4.210  11.853 -0.0802  0.5021  0.0079
 9120SOL    HW138819   2.304   4.200  11.846  0.4478 -3.8764 -0.8037
 9120SOL    HW238820   2.407   4.304  11.870 -0.8194  0.5900 -0.1135
 9121SOL     OW38821   0.493   4.467   1.591  0.3671 -0.5712  0.1694
 9121SOL    HW138822   0.565   4.441   1.648  0.7619 -2.2595 -1.1058
 9121SOL    HW238823   0.491   4.561   1.609 -0.4647 -0.6858  0.6865
 9122SOL     OW38824   2.869   1.449   2.714  0.1223  0.2971 -0.0639
 9122SOL    HW138825   2.787   1.399   2.711 -0.3764  1.0531  1.1181
 9122SOL    HW238826   2.891   1.464   2.622 -0.3213 -0.8943 -0.3685
 9123SOL     OW38827   0.675   0.344   6.628 -0.3636 -0.1119 -0.0059
 9123SOL    HW138828   0.591   0.327   6.671 -0.3329 -0.3237 -0.0312
 9123SOL    HW238829   0.667   0.436   6.602  2.2290 -0.2221 -1.2429
 9124SOL     OW38830   3.242   0.853   3.482 -0.5478 -0.0396 -0.3217
 9124SOL    HW138831   3.278   0.828   3.567 -0.5097  0.8170 -0.0860
 9124SOL    HW238832   3.176   0.784   3.473 -2.2517  1.4887  0.5968
 9125SOL     OW38833   4.194   2.835   1.657 -0.2258 -0.0557  0.0888
 9125SOL    HW138834   4.134   2.770   1.620 -0.0607 -0.2660  0.1870
 9125SOL    HW238835   4.152   2.845   1.742  2.3156 -2.0082  1.6080
 9126SOL     OW38836   3.278   2.301   5.234 -0.2205  0.3033 -0.2143
 9126SOL    HW138837   3.214   2.372   5.225  0.4755  1.2190  2.1542
 9126SOL    HW238838   3.317   2.298   5.146 -0.5463  0.6640 -0.3689
 9127SOL     OW38839   4.333   4.328  15.909 -0.0354  0.2248 -0.2323
 9127SOL    HW138840   4.263   4.268  15.935 -0.4228  1.8627  2.4168
 9127SOL    HW238841   4.370   4.281  15.834 -0.8705  0.5353 -0.8444
 9128SOL     OW38842   0.551   2.206   7.937 -0.0314 -0.1128 -0.0975
 9128SOL    HW138843   0.535   2.298   7.918 -0.1621 -0.2811 -0.7922
 9128SOL    HW238844   0.463   2.172   7.951  0.9961 -2.5158  0.6620
 9129SOL     OW38845   3.479   0.092   2.613 -0.0326  0.0441  0.1060
 9129SOL    HW138846   3.484   0.055   2.525 -1.7536  1.1668 -0.4522
 9129SOL    HW238847   3.440   0.175   2.585  0.0030  0.2904  0.7769
 9130SOL     OW38848   2.253   4.518   8.777  0.2220 -0.0296  0.7843
 9130SOL    HW138849   2.180   4.518   8.839  1.1315  0.3120  1.8710
 9130SOL    HW238850   2.322   4.493   8.839 -0.9560  2.5611  3.1421
 9131SOL     OW38851   2.586   0.714   3.703 -0.2994  0.4510  0.0177
 9131SOL    HW138852   2.578   0.791   3.647 -0.7721 -0.8254 -1.6728
 9131SOL    HW238853   2.632   0.751   3.778 -0.6428  1.9156 -0.5135
 9132SOL     OW38854   2.081   2.106  11.662  0.1744  0.3112  0.4290
 9132SOL    HW138855   2.144   2.035  11.649 -0.0218  0.0162  1.0722
 9132SOL    HW238856   2.112   2.142  11.745  0.7187 -1.4781  1.0186
 9133SOL     OW38857   1.568   0.231   3.152  0.4844 -0.0279  0.2918
 9133SOL    HW138858   1.629   0.218   3.224  1.0154 -1.5968 -0.4419
 9133SOL    HW238859   1.563   0.138   3.127 -1.2869  0.3818 -0.9274
 9134SOL     OW38860   2.213   2.581  12.295 -0.2594  0.0002  0.0622
 9134SOL    HW138861   2.182   2.638  12.365 -0.0353  0.4835 -0.2358
 9134SOL    HW238862   2.294   2.627  12.272 -0.8677  1.1757  0.2543
 9135SOL     OW38863   3.529   2.335   3.073 -0.2352  0.6821 -0.3366
 9135SOL    HW138864   3.586   2.382   3.133 -0.7474  0.5771  0.2445
 9135SOL    HW238865   3.580   2.265   3.033  1.8198  1.7877  0.3858
 9136SOL     OW38866   3.556   1.614   6.445 -0.4014 -0.1242 -0.1247
 9136SOL    HW138867   3.547   1.535   6.392 -0.4499  0.2099 -0.6246
 9136SOL    HW238868   3.645   1.614   6.479 -0.4587  0.9986  0.0490
 9137SOL     OW38869   3.915   2.262   2.025 -0.3281  0.3595 -0.0578
 9137SOL    HW138870   3.999   2.217   2.026 -1.4804 -1.7701  0.5384
 9137SOL    HW238871   3.893   2.221   1.941  0.5040 -0.8274  0.3060
 9138SOL     OW38872   3.441   4.003  10.242  0.2440 -0.1000  0.0804
 9138SOL    HW138873   3.437   3.913  10.273 -1.1226  0.4427  1.4360
 9138SOL    HW238874   3.443   4.000  10.146  1.8575 -1.3577  0.1433
 9139SOL     OW38875   0.474   1.813  10.248  0.5154 -0.0541  0.2189
 9139SOL    HW138876   0.410   1.743  10.232  1.1351 -0.6414  0.2887
 9139SOL    HW238877   0.556   1.764  10.259  1.6099  1.6881 -0.2305
 9140SOL     OW38878   3.639   2.663   0.676  0.0731 -0.5918  0.3045
 9140SOL    HW138879   3.604   2.677   0.588 -1.7481 -0.1160  1.1104
 9140SOL    HW238880   3.671   2.745   0.714  3.8236 -0.8297 -2.3255
 9141SOL     OW38881   3.980   3.587   8.045  0.0199 -0.2840  0.3212
 9141SOL    HW138882   3.901   3.617   8.000  0.0407 -1.0754 -0.2431
 9141SOL    HW238883   4.008   3.663   8.096 -1.1306  3.3195 -4.4849
 9142SOL     OW38884   3.075   1.097   6.563  0.7839  0.3274  0.5344
 9142SOL    HW138885   3.170   1.106   6.556  0.6527 -0.1946 -1.8246
 9142SOL    HW238886   3.061   1.188   6.589  0.6161 -0.1756  2.2268
 9143SOL     OW38887   2.442   0.811   0.976 -0.9178  0.1788  0.0015
 9143SOL    HW138888   2.379   0.879   0.950 -0.6007  0.5766  0.2974
 9143SOL    HW238889   2.370   0.768   1.023  0.3637 -0.0705  1.7151
 9144SOL     OW38890   1.691   1.121  15.490  0.3590 -0.0831 -0.2135
 9144SOL    HW138891   1.621   1.058  15.474  1.2824 -1.1537 -0.1261
 9144SOL    HW238892   1.667   1.190  15.428 -0.9128  1.0476  1.5509
 9145SOL     OW38893   3.332   2.705  10.580  0.2982 -0.1435 -0.3255
 9145SOL    HW138894   3.357   2.757  10.656  1.5564  0.8228 -1.4031
 9145SOL    HW238895   3.362   2.756  10.505 -1.7895 -0.3897 -1.3416
 9146SOL     OW38896   1.815   2.793   1.274  0.4018 -0.2794  0.5489
 9146SOL    HW138897   1.897   2.842   1.283  0.2308 -0.3415  2.4398
 9146SOL    HW238898   1.822   2.766   1.182  0.6038  2.3959 -0.2121
 9147SOL     OW38899   2.508   3.620  10.524 -0.2226  0.2820 -0.4415
 9147SOL    HW138900   2.598   3.606  10.554 -1.0936 -0.3174  1.8635
 9147SOL    HW238901   2.498   3.570  10.443 -0.7952 -2.0999  1.1237
 9148SOL     OW38902   4.055   4.008   7.113 -0.3860 -0.0431  0.0400
 9148SOL    HW138903   4.095   4.056   7.185 -0.7642 -0.6478  0.6467
 9148SOL    HW238904   4.013   3.950   7.177 -1.4545  0.1470 -0.4730
 9149SOL     OW38905   3.587   2.142   5.604  0.3825  0.8865 -0.3279
 9149SOL    HW138906   3.546   2.101   5.680 -1.3522  1.1122 -1.1512
 9149SOL    HW238907   3.592   2.231   5.639  1.7223  0.4396  0.6152
 9150SOL     OW38908   2.126   1.823   9.289 -0.4708  0.2143 -0.0257
 9150SOL    HW138909   2.070   1.839   9.365 -0.0413 -0.6725  0.4737
 9150SOL    HW238910   2.122   1.903   9.237 -1.3949  0.3329  0.2143
 9151SOL     OW38911   4.432   3.672  17.686  0.4282 -0.0852  0.5586
 9151SOL    HW138912   4.488   3.659  17.609  1.7584 -2.6759  1.9424
 9151SOL    HW238913   4.490   3.628   0.054  2.8283  1.0394 -0.9275
 9152SOL     OW38914   1.755   0.117   4.201  0.1573 -0.2044  0.5669
 9152SOL    HW138915   1.825   0.053   4.185  1.4070  1.8229 -2.0648
 9152SOL    HW238916   1.731   0.090   4.290  3.8675 -1.0929  1.3256
 9153SOL     OW38917   2.610   2.670   8.881  0.2984 -0.2623 -0.1682
 9153SOL    HW138918   2.556   2.608   8.831  2.2738 -1.7508 -0.4718
 9153SOL    HW238919   2.555   2.748   8.885 -1.5302 -1.6676  1.7145
 9154SOL     OW38920   0.459   2.690   5.733 -0.3768 -0.1948  0.2234
 9154SOL    HW138921   0.416   2.761   5.780 -0.4970 -0.0464 -0.1185
 9154SOL    HW238922   0.417   2.696   5.647 -0.3926 -1.5466  0.1337
 9155SOL     OW38923   2.382   2.069   1.580 -0.3639 -0.2405 -0.2627
 9155SOL    HW138924   2.403   2.158   1.554  0.3572 -0.7354 -1.3674
 9155SOL    HW238925   2.470   2.031   1.574 -0.3827 -0.4946  0.9987
 9156SOL     OW38926   4.675   3.508   2.402 -0.0964  0.7094 -0.1875
 9156SOL    HW138927   4.685   3.563   2.480  0.7717  0.3416 -0.0439
 9156SOL    HW238928   4.685   3.418   2.432 -0.5004  1.3456  1.8895
 9157SOL     OW38929   2.777   0.563  11.818  0.6148  0.5794  0.0369
 9157SOL    HW138930   2.830   0.629  11.863  1.1329  0.5210 -0.4902
 9157SOL    HW238931   2.785   0.485  11.873  1.2017  0.9230  0.4426
 9158SOL     OW38932   0.448   2.626   3.824 -0.8041  0.5769 -0.2015
 9158SOL    HW138933   0.470   2.579   3.905  0.6043  1.0580 -0.3092
 9158SOL    HW238934   0.374   2.577   3.788 -0.3761 -0.8139  0.7870
 9159SOL     OW38935   0.184   1.371   8.284  0.3314  0.1282  0.2012
 9159SOL    HW138936   0.216   1.337   8.367  0.5623  1.4975  0.6573
 9159SOL    HW238937   0.219   1.460   8.283 -1.2579  0.7734  1.2300
 9160SOL     OW38938   2.062   0.217   9.836 -0.1826 -0.4675 -0.4459
 9160SOL    HW138939   2.031   0.156   9.769  1.1645 -1.4108 -0.2253
 9160SOL    HW238940   2.097   0.156   9.902  1.2541  1.1860  0.3031
 9161SOL     OW38941   1.587   3.938   4.468  0.3961  0.4713  0.4314
 9161SOL    HW138942   1.670   3.905   4.434  0.4466  3.5742 -2.4894
 9161SOL    HW238943   1.530   3.904   4.399  0.3696 -0.3597  0.8658
 9162SOL     OW38944   3.745   3.733   7.983 -0.4501 -0.6526 -0.4336
 9162SOL    HW138945   3.736   3.807   8.043  0.0648 -1.5276  0.7318
 9162SOL    HW238946   3.667   3.748   7.930 -0.3990 -1.2137 -0.6728
 9163SOL     OW38947   1.398   3.402   3.998  0.2652 -0.5992 -0.2362
 9163SOL    HW138948   1.321   3.457   4.011  0.1291 -0.5482 -1.2484
 9163SOL    HW238949   1.429   3.439   3.915 -1.5850  0.4080 -0.4749
 9164SOL     OW38950   0.922   3.271   5.109  0.1437 -0.2660  0.2225
 9164SOL    HW138951   0.944   3.267   5.202 -0.3200 -0.5387  0.3214
 9164SOL    HW238952   0.973   3.204   5.064  0.0273  0.7843 -1.4810
 9165SOL     OW38953   0.293   3.763  11.897  0.1403 -0.5054  0.2507
 9165SOL    HW138954   0.221   3.826  11.907  0.3482 -0.0554 -1.1533
 9165SOL    HW238955   0.243   3.682  11.908  0.4984 -0.7674 -0.0785
 9166SOL     OW38956   1.632   0.667   5.698 -0.2757 -0.0803  0.0389
 9166SOL    HW138957   1.547   0.666   5.654 -0.6504 -1.6665  0.7959
 9166SOL    HW238958   1.689   0.635   5.628 -1.9470 -1.8500 -0.5083
 9167SOL     OW38959   3.215   3.455  16.741 -0.0879  0.0135  0.1085
 9167SOL    HW138960   3.146   3.409  16.788 -0.0284  1.1329  1.2785
 9167SOL    HW238961   3.205   3.543  16.777 -1.0979  0.8437 -2.2016
 9168SOL     OW38962   1.164   2.794   0.427 -0.3575 -0.1027 -0.1876
 9168SOL    HW138963   1.212   2.716   0.398  0.9181 -0.0759  1.8706
 9168SOL    HW238964   1.079   2.753   0.414 -0.4677  0.8748 -2.5047
 9169SOL     OW38965   2.411   0.702   2.170  0.1124  0.0177  0.0192
 9169SOL    HW138966   2.316   0.689   2.176 -0.2974  3.0713 -0.2109
 9169SOL    HW238967   2.415   0.797   2.161  1.2241  0.1270  1.7174
 9170SOL     OW38968   0.147   2.871  11.438  0.0993 -0.5281 -0.2286
 9170SOL    HW138969   0.229   2.912  11.412  0.4297 -1.2115 -0.2397
 9170SOL    HW238970   0.180   2.795  11.486 -0.6665  0.2958  1.6170
 9171SOL     OW38971   2.048   0.324   5.884  0.0878 -0.1974  0.0647
 9171SOL    HW138972   2.089   0.347   5.967 -1.8756  3.5509  0.0044
 9171SOL    HW238973   2.060   0.409   5.842 -2.7512 -0.3246 -0.9600
 9172SOL     OW38974   4.042   1.849   1.129 -0.1850 -0.0999 -0.2417
 9172SOL    HW138975   4.001   1.927   1.092 -1.2172  0.2272  1.5907
 9172SOL    HW238976   4.004   1.782   1.073  2.2970  0.0008 -2.0512
 9173SOL     OW38977   3.540   2.605   1.397  0.8216  0.7217 -0.1968
 9173SOL    HW138978   3.631   2.593   1.371  0.3647 -0.5189 -1.2473
 9173SOL    HW238979   3.529   2.534   1.460  0.1375  1.8727  0.9864
 9174SOL     OW38980   3.584   4.407   0.948 -0.1877  0.1203 -0.2744
 9174SOL    HW138981   3.627   4.463   1.012 -1.4561 -0.2529  0.9094
 9174SOL    HW238982   3.494   4.440   0.957 -0.0825  0.7603 -1.5808
 9175SOL     OW38983   3.830   2.670  16.633 -0.1016  0.4662 -0.1341
 9175SOL    HW138984   3.891   2.637  16.567  0.2852 -1.3094  1.1005
 9175SOL    HW238985   3.759   2.686  16.572  0.7688  1.0519 -0.9957
 9176SOL     OW38986   3.334   0.578   2.636 -0.8992  0.3948  0.2862
 9176SOL    HW138987   3.391   0.636   2.687  0.8072 -0.5547 -0.5369
 9176SOL    HW238988   3.244   0.607   2.650 -1.1882  0.4832 -1.8138
 9177SOL     OW38989   4.322   4.195   3.565 -0.1001 -0.3831  0.4016
 9177SOL    HW138990   4.347   4.146   3.486  1.2323  2.1084 -0.7142
 9177SOL    HW238991   4.342   4.117   3.616 -1.6717 -2.3253 -1.8929
 9178SOL     OW38992   0.883   0.502   8.178 -0.5444 -0.2720 -0.0261
 9178SOL    HW138993   0.808   0.498   8.118 -0.3396  2.4720 -0.4662
 9178SOL    HW238994   0.941   0.559   8.128 -0.4548 -2.6123 -2.6039
 9179SOL     OW38995   0.939   3.917   4.562 -0.2864 -0.2778 -0.0095
 9179SOL    HW138996   0.910   3.994   4.612 -1.4455  0.2466 -1.4981
 9179SOL    HW238997   1.004   3.884   4.625  0.3645  1.8008  0.4251
 9180SOL     OW38998   2.027   0.862  13.108  0.0853  0.2062  0.5418
 9180SOL    HW138999   1.954   0.898  13.158  1.5383  1.3288  1.8640
 9180SOL    HW239000   2.094   0.927  13.130 -0.5025  0.5551  1.2807
 9181SOL     OW39001   2.458   3.603   5.033 -0.5887 -0.1382  0.0192
 9181SOL    HW139002   2.538   3.635   5.074 -0.1173 -2.3423  0.7863
 9181SOL    HW239003   2.407   3.684   5.027 -1.0313 -0.2949  1.5313
 9182SOL     OW39004   2.550   3.820   5.712 -0.5585 -0.1761  0.1189
 9182SOL    HW139005   2.572   3.872   5.789 -1.3609 -0.5097  0.5711
 9182SOL    HW239006   2.537   3.736   5.756  1.5403 -0.5208  0.0689
 9183SOL     OW39007   0.108   1.522   6.846  0.0707  0.0390 -0.2706
 9183SOL    HW139008   0.130   1.581   6.918 -0.8221 -1.2158  1.0208
 9183SOL    HW239009   0.163   1.449   6.874 -1.5888 -1.0352  0.1855
 9184SOL     OW39010   2.102   0.632   0.898 -0.2583  0.0092 -0.0952
 9184SOL    HW139011   2.011   0.658   0.912  0.5979  1.8474  2.0770
 9184SOL    HW239012   2.088   0.553   0.846  0.5410  0.7813 -1.4847
 9185SOL     OW39013   3.005   4.460  13.368 -0.1627 -0.3031  0.2435
 9185SOL    HW139014   2.920   4.495  13.394  0.7625  0.4926  2.1753
 9185SOL    HW239015   3.001   4.455  13.272  0.2600  2.3271  0.0748
 9186SOL     OW39016   2.781   1.336  11.432  0.3025  0.4700 -0.3489
 9186SOL    HW139017   2.720   1.352  11.360  0.4087 -0.3853 -0.6290
 9186SOL    HW239018   2.831   1.418  11.427  1.9941 -0.5398 -0.0085
 9187SOL     OW39019   2.084   4.141   3.679 -0.3029  0.9803  0.8354
 9187SOL    HW139020   2.147   4.117   3.611  0.3283 -0.9903  2.1222
 9187SOL    HW239021   2.137   4.210   3.717  1.7567 -1.1225  1.8268
 9188SOL     OW39022   1.731   1.052   4.731  0.3559  0.6419  0.2241
 9188SOL    HW139023   1.744   0.992   4.659 -3.7492  0.0126  0.0305
 9188SOL    HW239024   1.811   1.023   4.776 -0.2220  0.4684  1.1496
 9189SOL     OW39025   3.479   0.002   7.229  0.1734  0.4256 -0.3883
 9189SOL    HW139026   3.454   4.633   7.241 -1.9847  0.8418 -1.5585
 9189SOL    HW239027   3.404   0.031   7.177  0.3317 -2.9632 -2.5271
 9190SOL     OW39028   0.284   2.227   3.016  0.9653  0.0368 -0.4727
 9190SOL    HW139029   0.205   2.177   2.997 -0.0015  2.0561 -1.7850
 9190SOL    HW239030   0.242   2.313   3.021 -0.4654 -0.6849 -0.0433
 9191SOL     OW39031   4.117   1.582   4.855 -0.0137 -0.4713 -0.1112
 9191SOL    HW139032   4.208   1.554   4.851  0.6228  1.5306  0.5615
 9191SOL    HW239033   4.102   1.583   4.950  2.7525 -2.1901  0.3403
 9192SOL     OW39034   1.456   4.412   2.929 -0.3505 -0.0066 -0.0622
 9192SOL    HW139035   1.377   4.452   2.892 -0.7880 -1.5873 -0.8094
 9192SOL    HW239036   1.421   4.365   3.005 -0.7631  0.5806  0.1113
 9193SOL     OW39037   4.159   1.277  10.067  0.2076 -0.0708 -0.0300
 9193SOL    HW139038   4.243   1.270  10.022 -0.1102  1.1721 -0.8003
 9193SOL    HW239039   4.102   1.343  10.030  1.0478  0.8598  0.3498
 9194SOL     OW39040   3.325   4.007   6.788 -0.5269 -0.3093 -0.0503
 9194SOL    HW139041   3.410   3.970   6.813 -0.8136  0.6402  2.2669
 9194SOL    HW239042   3.341   4.019   6.694 -0.7724 -1.6182 -0.2605
 9195SOL     OW39043   2.893   1.578  10.948  0.4688 -0.0302 -0.0266
 9195SOL    HW139044   2.874   1.626  10.867  1.6568  0.9362  0.2788
 9195SOL    HW239045   2.815   1.617  10.987  0.0280 -0.4162 -0.5118
 9196SOL     OW39046   3.941   0.323   0.864  0.0368 -0.3144 -0.0574
 9196SOL    HW139047   3.973   0.296   0.778 -2.4146 -2.8432 -0.1735
 9196SOL    HW239048   3.956   0.242   0.912  2.9402  2.3454  3.5909
 9197SOL     OW39049   0.007   1.223   8.102  0.0958  0.2618  0.5472
 9197SOL    HW139050   0.079   1.267   8.146  1.6955 -3.0356  1.2004
 9197SOL    HW239051   4.655   1.266   8.144 -0.6259  0.4615 -0.9201
 9198SOL     OW39052   2.610   0.510   0.564 -0.0547  0.3597 -0.1927
 9198SOL    HW139053   2.524   0.547   0.581  0.8133  1.7169  1.3399
 9198SOL    HW239054   2.665   0.586   0.583 -0.6389  0.8121 -0.3601
 9199SOL     OW39055   3.884   2.014   2.747 -0.7180  0.7468  0.5804
 9199SOL    HW139056   3.940   2.076   2.701  1.0495  0.1444  1.9013
 9199SOL    HW239057   3.860   2.065   2.824 -0.0722 -2.4259  2.8994
 9200SOL     OW39058   3.754   3.153   1.022 -0.4536 -0.1589  0.3880
 9200SOL    HW139059   3.700   3.139   0.945 -2.8855  1.4055  1.8220
 9200SOL    HW239060   3.701   3.204   1.083 -1.2795 -3.7477  2.6727
 9201SOL     OW39061   1.983   4.057   0.247  0.1277 -0.2506  0.1553
 9201SOL    HW139062   1.929   4.136   0.256 -0.0625 -0.4552  0.7870
 9201SOL    HW239063   2.052   4.093   0.191 -0.2935 -0.7302 -0.6797
 9202SOL     OW39064   2.463   4.510   7.425  0.3608  0.2829 -0.2933
 9202SOL    HW139065   2.368   4.517   7.435  0.2742 -1.4994  0.0963
 9202SOL    HW239066   2.511   4.573   7.478 -2.5246  0.6401  1.8864
 9203SOL     OW39067   3.712   3.120   5.436  0.0454 -0.4337  0.0598
 9203SOL    HW139068   3.783   3.100   5.496  0.3102  0.6259  0.0862
 9203SOL    HW239069   3.725   3.214   5.446  0.5682 -0.4120 -0.8179
 9204SOL     OW39070   2.914   1.341  13.723 -0.1280  0.3973 -0.3972
 9204SOL    HW139071   2.878   1.399  13.791 -1.3818 -2.0051  0.9816
 9204SOL    HW239072   2.954   1.272  13.775  2.1412  0.4920 -2.0360
 9205SOL     OW39073   2.301   1.973  12.879  0.2087  0.2475 -0.2517
 9205SOL    HW139074   2.214   1.939  12.859  0.1554  1.2086 -1.6956
 9205SOL    HW239075   2.298   1.990  12.973  1.5631  1.0329 -0.3454
 9206SOL     OW39076   4.719   0.162   1.981 -0.0402 -0.4452 -0.1540
 9206SOL    HW139077   4.706   0.089   2.042 -2.0153 -0.0734 -0.1503
 9206SOL    HW239078   4.638   0.162   1.931 -0.5086  2.7125  0.5953
 9207SOL     OW39079   3.315   1.479   7.678 -0.1626  0.1227  0.2034
 9207SOL    HW139080   3.231   1.477   7.723 -0.1281 -1.1476  0.2171
 9207SOL    HW239081   3.356   1.544   7.735 -0.8592  0.2785  0.5178
 9208SOL     OW39082   4.669   0.256   4.283 -0.8997 -0.1337  0.6325
 9208SOL    HW139083   0.016   0.191   4.291  0.8326  1.7194  0.2571
 9208SOL    HW239084   4.609   0.225   4.215  1.9457 -0.3291 -1.7881
 9209SOL     OW39085   4.257   0.669  10.815  0.4377  0.2430 -0.0759
 9209SOL    HW139086   4.292   0.717  10.740 -2.1550 -0.2243 -1.5778
 9209SOL    HW239087   4.163   0.673  10.801  0.3739 -1.3274 -0.1091
 9210SOL     OW39088   0.968   2.875  12.361 -0.5517  0.0592  0.3096
 9210SOL    HW139089   1.040   2.906  12.416 -0.2364 -0.4761  0.1859
 9210SOL    HW239090   0.979   2.781  12.355 -1.0468 -0.0196  0.6370
 9211SOL     OW39091   3.000   4.673   6.723  0.2423 -0.1937 -0.2818
 9211SOL    HW139092   2.995   4.614   6.797  2.6019  0.5139  0.4378
 9211SOL    HW239093   2.988   0.033   6.769 -1.0731 -0.1827 -0.6439
 9212SOL     OW39094   2.661   3.411  17.479  0.2143  0.5931  0.3470
 9212SOL    HW139095   2.670   3.460  17.397 -2.0593 -0.4224 -0.5147
 9212SOL    HW239096   2.682   3.474  17.548 -0.5634 -0.9492  1.9883
 9213SOL     OW39097   2.039   3.179   3.582 -0.1366 -0.5107 -0.5398
 9213SOL    HW139098   1.980   3.247   3.549 -0.3959 -1.3575 -1.8515
 9213SOL    HW239099   2.009   3.166   3.672 -0.4694  1.8242 -0.3178
 9214SOL     OW39100   3.615   0.146   8.537 -0.2438  0.1460 -0.1158
 9214SOL    HW139101   3.694   0.192   8.564  0.2788  0.8653 -2.8123
 9214SOL    HW239102   3.549   0.216   8.538 -0.1680  0.1828  1.6237
 9215SOL     OW39103   2.840   4.429   9.664 -0.0097 -0.6776  0.3220
 9215SOL    HW139104   2.869   4.377   9.589 -0.8820 -1.0428  0.2424
 9215SOL    HW239105   2.758   4.388   9.689  0.2041 -1.1912  0.1799
 9216SOL     OW39106   1.577   4.183   4.886  0.0370 -0.0574  0.2486
 9216SOL    HW139107   1.647   4.119   4.889  0.9626  0.8586 -1.9536
 9216SOL    HW239108   1.634   4.257   4.864 -0.1112 -0.0557 -0.1468
 9217SOL     OW39109   1.753   0.971  10.919 -0.3551  0.3910 -0.2517
 9217SOL    HW139110   1.832   1.014  10.886 -0.5689  1.7954  1.0641
 9217SOL    HW239111   1.782   0.940  11.005 -2.0390 -2.5751 -0.7635
 9218SOL     OW39112   4.561   3.383  11.552  0.9577 -0.0387 -0.6859
 9218SOL    HW139113   4.595   3.319  11.490  0.3075  0.5053 -1.6041
 9218SOL    HW239114   4.632   3.404  11.613  0.3439 -1.4292  0.4988
 9219SOL     OW39115   0.605   0.655   8.239 -0.7038  0.6061 -0.3277
 9219SOL    HW139116   0.535   0.608   8.195  0.3732 -0.1161 -1.2614
 9219SOL    HW239117   0.615   0.607   8.321  0.9205 -1.0484 -1.5127
 9220SOL     OW39118   4.524   1.501   6.449 -0.7053  0.3012  0.4011
 9220SOL    HW139119   4.609   1.522   6.410  0.4638 -0.4794  2.5364
 9220SOL    HW239120   4.486   1.434   6.393  2.2942 -0.1844 -1.0412
 9221SOL     OW39121   2.685   3.836   6.835 -0.0645  0.1613 -0.4813
 9221SOL    HW139122   2.780   3.835   6.830 -0.2334 -2.3855 -2.8502
 9221SOL    HW239123   2.664   3.786   6.914 -0.4645  1.6468  0.3461
 9222SOL     OW39124   1.820   0.115  10.316  0.1556  0.1847  0.5588
 9222SOL    HW139125   1.908   0.143  10.293 -0.7304  1.2851 -1.5130
 9222SOL    HW239126   1.834   0.052  10.386 -0.2737 -0.6807 -0.1318
 9223SOL     OW39127   4.162   4.129   5.377  0.3441 -0.4353 -0.4157
 9223SOL    HW139128   4.180   4.128   5.283 -0.7457 -4.0445 -0.6162
 9223SOL    HW239129   4.068   4.144   5.378  0.5154  0.6337 -1.1095
 9224SOL     OW39130   2.060   1.017   7.407  0.4800 -0.0936  0.1148
 9224SOL    HW139131   2.029   0.974   7.328 -0.2081  0.4420  0.0933
 9224SOL    HW239132   1.982   1.020   7.464  1.6366  2.2064  1.6078
 9225SOL     OW39133   2.040   3.152   2.819 -0.3818  0.3930 -0.4972
 9225SOL    HW139134   2.049   3.246   2.832 -0.0670  0.5717 -2.0426
 9225SOL    HW239135   2.130   3.121   2.820 -0.6792 -0.4789 -0.7906
 9226SOL     OW39136   0.153   0.070  17.069  0.0056 -0.7326  0.2274
 9226SOL    HW139137   0.161   4.707  17.028 -0.1963  0.1343 -1.6578
 9226SOL    HW239138   0.058   0.086  17.066  0.4865  2.0033 -0.5661
 9227SOL     OW39139   0.896   1.254  17.276 -0.3313 -0.5431  0.3832
 9227SOL    HW139140   0.911   1.216  17.362  0.4061  1.2056  1.0273
 9227SOL    HW239141   0.948   1.333  17.285 -1.0374  0.2097 -2.0571
 9228SOL     OW39142   1.778   1.105   3.252  0.0290  0.0234 -0.4020
 9228SOL    HW139143   1.737   1.177   3.204  1.0368  1.5859  1.1292
 9228SOL    HW239144   1.869   1.110   3.223  0.8012 -1.0479  1.8298
 9229SOL     OW39145   0.723   3.111   1.163  0.0444  0.0385  0.1445
 9229SOL    HW139146   0.789   3.048   1.193 -1.9532 -0.1960  4.1093
 9229SOL    HW239147   0.689   3.078   1.080  0.2613  0.8109 -0.2498
 9230SOL     OW39148   0.450   2.901  11.931  0.7625  0.1873  0.1778
 9230SOL    HW139149   0.386   2.929  11.866  1.3164  0.9094 -0.0582
 9230SOL    HW239150   0.482   2.818  11.897  0.6550  1.2235 -2.4333
 9231SOL     OW39151   1.235   4.675   8.637  0.3562 -0.1689 -0.2599
 9231SOL    HW139152   1.195   0.035   8.608  3.1005  1.2566 -0.0069
 9231SOL    HW239153   1.276   4.657   8.553  2.2765  1.5504  0.3023
 9232SOL     OW39154   3.110   1.335   6.706  0.0376 -0.2094  0.2689
 9232SOL    HW139155   3.200   1.308   6.689  0.0609 -0.7748  1.3425
 9232SOL    HW239156   3.106   1.418   6.659  2.1323 -1.2569 -1.8014
 9233SOL     OW39157   4.519   2.301   8.499  0.1210  0.5660  0.5229
 9233SOL    HW139158   4.580   2.230   8.518  0.7990  1.1945  0.7042
 9233SOL    HW239159   4.480   2.320   8.584 -2.6401 -0.1776 -0.5698
 9234SOL     OW39160   2.567   0.421   3.909 -0.7781  0.1881 -0.8306
 9234SOL    HW139161   2.516   0.448   3.833 -2.5311 -1.1895 -0.1288
 9234SOL    HW239162   2.551   0.493   3.970 -1.0145  0.2107 -0.9202
 9235SOL     OW39163   4.351   1.981  17.242 -0.0373  0.0428 -0.1954
 9235SOL    HW139164   4.375   1.892  17.218  0.2446  1.0088 -3.4415
 9235SOL    HW239165   4.306   1.965  17.325 -2.7523  0.0786 -1.6581
 9236SOL     OW39166   4.355   2.067  11.583  0.2499 -0.0551  0.4704
 9236SOL    HW139167   4.339   2.131  11.653  0.2384 -1.6058  1.8940
 9236SOL    HW239168   4.308   2.106  11.510 -1.5263 -0.1592  1.5503
 9237SOL     OW39169   2.620   0.395  12.166  0.3893  0.3471  0.0424
 9237SOL    HW139170   2.543   0.378  12.220 -0.8292  1.2100 -1.4193
 9237SOL    HW239171   2.586   0.355  12.085  1.6973 -0.6051 -0.0346
 9238SOL     OW39172   2.574   1.544   4.733 -0.3894 -0.3022  0.0918
 9238SOL    HW139173   2.537   1.632   4.720  3.4505  1.0827 -1.4536
 9238SOL    HW239174   2.596   1.528   4.824 -2.4067  1.4888  0.9193
 9239SOL     OW39175   1.243   1.987   0.842 -0.0955 -0.2666  0.6107
 9239SOL    HW139176   1.334   2.008   0.863  1.2113 -3.6703 -1.5817
 9239SOL    HW239177   1.257   1.910   0.787  0.0780  1.0933 -1.2620
 9240SOL     OW39178   4.304   3.356   3.954 -0.2788  0.3607 -0.3418
 9240SOL    HW139179   4.390   3.316   3.942 -0.9751 -1.4271  0.5095
 9240SOL    HW239180   4.319   3.411   4.031 -0.5877 -2.1801  1.5396
 9241SOL     OW39181   2.092   1.911   7.749  0.4678 -0.3347  0.0065
 9241SOL    HW139182   2.046   1.991   7.774  3.0137  0.5205  1.9613
 9241SOL    HW239183   2.168   1.948   7.705  2.0541 -1.7206  1.5949
 9242SOL     OW39184   0.160   4.020   1.656 -0.0085 -0.1027 -0.3269
 9242SOL    HW139185   0.078   4.067   1.639 -2.0282 -3.1801  0.7830
 9242SOL    HW239186   0.150   3.935   1.612 -2.6998  0.2717 -0.4734
 9243SOL     OW39187   4.566   2.016   6.021 -0.2102 -0.0616  0.3555
 9243SOL    HW139188   4.531   1.928   6.027  1.0365 -0.5220  0.9214
 9243SOL    HW239189   4.509   2.060   6.084 -0.6480 -0.0803 -0.0263
 9244SOL     OW39190   3.829   3.090   7.449 -0.8275 -0.0074  0.1104
 9244SOL    HW139191   3.787   3.175   7.435  0.5496  0.2419 -2.5394
 9244SOL    HW239192   3.917   3.115   7.420 -0.0145 -2.3913  0.5465
 9245SOL     OW39193   1.824   1.485   6.093  0.0434  0.2302 -0.3955
 9245SOL    HW139194   1.869   1.442   6.165  0.6908  0.7322 -0.5049
 9245SOL    HW239195   1.767   1.546   6.141  0.8688  0.6241  0.0914
 9246SOL     OW39196   4.387   3.524   0.994 -0.2800 -0.0132  0.4247
 9246SOL    HW139197   4.410   3.616   1.009  1.1846 -0.0853 -1.3765
 9246SOL    HW239198   4.316   3.510   1.057 -1.7421  1.2761 -0.9449
 9247SOL     OW39199   3.219   2.070   2.507  0.2365 -0.4108 -0.2570
 9247SOL    HW139200   3.211   1.981   2.540 -1.8689 -0.1468 -0.0723
 9247SOL    HW239201   3.182   2.059   2.419 -0.9302  3.2517 -0.2255
 9248SOL     OW39202   1.339   0.445   5.065 -0.4555  0.5722  0.0018
 9248SOL    HW139203   1.349   0.372   5.004  0.0713 -0.1876  1.0014
 9248SOL    HW239204   1.303   0.403   5.142  0.5190 -0.5214 -0.1455
 9249SOL     OW39205   4.567   0.809  12.283  0.4121  0.3490 -0.0845
 9249SOL    HW139206   4.560   0.765  12.368  3.1143 -2.0493 -1.1160
 9249SOL    HW239207   4.656   0.783  12.260  1.3276  3.0237  0.3234
 9250SOL     OW39208   2.078   0.245   9.099 -0.4379 -0.4640  0.1149
 9250SOL    HW139209   2.164   0.210   9.075 -1.0734 -0.9829 -1.4351
 9250SOL    HW239210   2.091   0.329   9.057 -2.1805 -0.7941 -1.0725
 9251SOL     OW39211   1.535   0.796  14.941 -0.3622  0.3973  0.0477
 9251SOL    HW139212   1.441   0.795  14.925 -0.5953  1.1795  1.3742
 9251SOL    HW239213   1.568   0.724  14.886 -0.5015 -0.2949  0.8723
 9252SOL     OW39214   3.519   4.437  12.592 -0.1781 -0.4743  0.0081
 9252SOL    HW139215   3.534   4.507  12.529 -2.5527  1.7276  1.9357
 9252SOL    HW239216   3.610   4.421  12.619 -0.0740  0.2411  0.0796
 9253SOL     OW39217   3.492   0.029   2.346  0.0968  0.2311  0.2136
 9253SOL    HW139218   3.482   0.064   2.257 -1.0122  1.2179  0.7240
 9253SOL    HW239219   3.410   4.704   2.361  0.4894  0.3293  2.7247
 9254SOL     OW39220   1.612   4.247   9.006 -0.0967  0.8433 -0.3423
 9254SOL    HW139221   1.517   4.253   8.998 -0.1366 -0.7790 -1.0874
 9254SOL    HW239222   1.635   4.185   8.937 -2.3205 -0.7967  0.3975
 9255SOL     OW39223   0.275   4.695   5.678  0.4444 -0.4970 -0.2599
 9255SOL    HW139224   0.261   4.610   5.720  0.4546 -1.3297 -1.9734
 9255SOL    HW239225   0.302   4.651   5.597 -0.4513  0.5334 -1.1103
 9256SOL     OW39226   0.322   3.554   7.632  0.3141 -0.3327  0.0097
 9256SOL    HW139227   0.338   3.473   7.681  2.0238  0.0628  0.1327
 9256SOL    HW239228   0.293   3.622   7.693  1.8339 -0.0629  0.4531
 9257SOL     OW39229   2.818   3.878   2.570 -0.3634 -0.1757 -0.0361
 9257SOL    HW139230   2.912   3.863   2.564 -0.2268  2.1714 -3.5905
 9257SOL    HW239231   2.829   3.971   2.550 -2.9462 -0.0549 -0.8367
 9258SOL     OW39232   4.682   2.862   5.264  0.2774  0.7605  0.0065
 9258SOL    HW139233   4.662   2.951   5.236 -2.2623 -0.1517 -1.1314
 9258SOL    HW239234   4.602   2.825   5.228  1.6672 -1.8203 -0.4365
 9259SOL     OW39235   0.054   3.969   1.223  0.5034  0.0406  0.1624
 9259SOL    HW139236   4.706   3.936   1.167 -0.5071  1.3401  0.6582
 9259SOL    HW239237   0.130   3.915   1.201  0.4636 -0.4002  1.0988
 9260SOL     OW39238   4.546   4.367   0.071  0.6194 -0.0736  0.0866
 9260SOL    HW139239   4.484   4.410   0.130 -0.4648  0.9436 -1.7956
 9260SOL    HW239240   4.565   4.445   0.019 -0.4173 -1.1028 -1.8187
 9261SOL     OW39241   2.309   0.087   4.891 -0.1210 -0.2094  0.1399
 9261SOL    HW139242   2.308   4.718   4.865  3.3109 -0.2345  0.1004
 9261SOL    HW239243   2.285   0.137   4.813 -0.1197  0.1555  0.3726
 9262SOL     OW39244   0.776   0.063   5.456  0.1585 -0.3380 -0.0662
 9262SOL    HW139245   0.737   0.011   5.527  1.1784  0.3465  0.9998
 9262SOL    HW239246   0.771   0.148   5.500  1.5673 -0.0134 -0.5486
 9263SOL     OW39247   1.303   1.308   4.753 -0.3791  0.0546  0.0664
 9263SOL    HW139248   1.375   1.255   4.786 -0.2731 -1.5164 -2.7229
 9263SOL    HW239249   1.229   1.278   4.806  0.0906 -0.1617  0.5959
 9264SOL     OW39250   1.351   0.167   7.295  0.0418  0.3176 -0.6520
 9264SOL    HW139251   1.384   0.232   7.357 -1.7660  0.7828 -0.1902
 9264SOL    HW239252   1.357   0.211   7.210  1.7599  0.8700 -0.2611
 9265SOL     OW39253   2.705   4.125  15.178 -0.1909  0.0902  0.4138
 9265SOL    HW139254   2.625   4.158  15.138 -0.9391 -0.2410  1.6650
 9265SOL    HW239255   2.702   4.031  15.158 -3.1825  0.2881  0.0274
 9266SOL     OW39256   3.102   2.626  11.583  0.3337  0.4714 -0.4238
 9266SOL    HW139257   3.070   2.635  11.673  0.0856 -3.4364 -0.1413
 9266SOL    HW239258   3.178   2.685  11.580  1.6837 -1.3400 -1.7166
 9267SOL     OW39259   1.078   3.076  16.482  0.3375  0.1424 -0.6381
 9267SOL    HW139260   1.040   3.150  16.529  0.7439  0.9572 -1.5984
 9267SOL    HW239261   1.169   3.104  16.495 -0.3327  1.7230  0.7414
 9268SOL     OW39262   0.194   3.566   3.794 -0.0045 -0.1716  0.6478
 9268SOL    HW139263   0.275   3.515   3.801 -0.3509 -0.8538 -0.2576
 9268SOL    HW239264   0.161   3.548   3.706  0.5125  1.1617  0.1675
 9269SOL     OW39265   2.001   4.547   9.889  0.2659 -0.7805  0.1598
 9269SOL    HW139266   2.095   4.545   9.872 -0.2295 -1.5250 -2.6182
 9269SOL    HW239267   2.002   4.582   9.978 -0.1528 -0.1802 -0.0744
 9270SOL     OW39268   0.779   3.948   5.258 -0.5627  0.5895  0.1916
 9270SOL    HW139269   0.764   3.872   5.202 -2.4933  0.2966  1.0974
 9270SOL    HW239270   0.710   3.933   5.324 -1.3494 -0.5452 -0.8861
 9271SOL     OW39271   0.152   1.361  15.820 -0.5381  0.3713  0.0490
 9271SOL    HW139272   0.080   1.391  15.764 -0.7512  1.1987  0.7726
 9271SOL    HW239273   0.222   1.335  15.760 -3.0883 -0.4400 -2.5983
 9272SOL     OW39274   4.033   2.334   6.669 -0.1642  0.0391 -0.0068
 9272SOL    HW139275   4.094   2.342   6.742 -1.0723 -0.9038  0.8571
 9272SOL    HW239276   4.011   2.427   6.655  0.6788  0.1093 -0.8261
 9273SOL     OW39277   1.381   1.981   7.912  0.0121 -0.7500 -0.1300
 9273SOL    HW139278   1.363   1.958   8.003  0.0424  2.3978  0.6584
 9273SOL    HW239279   1.295   1.978   7.870  0.1095  0.9929 -0.4344
 9274SOL     OW39280   0.953   0.762  12.785 -0.1946  0.1331  0.1035
 9274SOL    HW139281   0.970   0.798  12.697 -1.2787  0.6376  0.0962
 9274SOL    HW239282   0.919   0.839  12.830 -0.3471 -0.3209  0.7509
 9275SOL     OW39283   1.518   0.655   2.881  0.5885  0.0355 -0.0732
 9275SOL    HW139284   1.462   0.670   2.957 -0.4422  0.1641 -0.8675
 9275SOL    HW239285   1.518   0.560   2.887  2.0916  0.0627  0.4709
 9276SOL     OW39286   2.880   2.115   8.202 -0.7367 -0.1054 -0.0906
 9276SOL    HW139287   2.924   2.177   8.144 -1.7683  1.0295  0.3504
 9276SOL    HW239288   2.957   2.060   8.216  0.0222  0.7578 -0.8675
 9277SOL     OW39289   1.511   4.001   8.824  0.4693 -0.2501 -0.1269
 9277SOL    HW139290   1.452   3.933   8.856 -0.9992  0.5856 -1.0209
 9277SOL    HW239291   1.445   4.069   8.831  0.9766 -0.0651  2.5401
 9278SOL     OW39292   1.081   1.071   9.016  0.0354 -0.7682 -0.0798
 9278SOL    HW139293   1.137   1.043   8.943  0.7602 -0.4551  0.3534
 9278SOL    HW239294   1.066   1.163   8.994 -1.3340 -0.6077  1.5229
 9279SOL     OW39295   2.896   4.703   1.810  0.0801 -0.2708  0.4836
 9279SOL    HW139296   2.861   4.622   1.772 -1.1671  0.7048 -0.4920
 9279SOL    HW239297   2.948   0.009   1.735  0.9869  0.8923  1.5848
 9280SOL     OW39298   1.206   4.387   4.997 -0.6461 -0.1221 -0.0243
 9280SOL    HW139299   1.196   4.433   5.080 -0.6436 -0.6464  0.2693
 9280SOL    HW239300   1.239   4.302   5.028 -0.9597 -0.5994 -0.9843
 9281SOL     OW39301   1.733   0.169   0.353 -0.1211  0.6203  0.3488
 9281SOL    HW139302   1.677   0.198   0.282  1.9245  1.4854 -0.9167
 9281SOL    HW239303   1.769   0.256   0.372 -0.2661  0.5315  1.0443
 9282SOL     OW39304   0.388   1.345  11.396 -0.2278  0.1865  0.3239
 9282SOL    HW139305   0.305   1.297  11.391  0.8721 -2.0310  2.7932
 9282SOL    HW239306   0.451   1.274  11.411 -1.0874 -0.6474  0.0103
 9283SOL     OW39307   0.768   4.218  13.081  0.7383  0.2001  0.8033
 9283SOL    HW139308   0.851   4.205  13.034 -0.0239 -0.1752 -0.4414
 9283SOL    HW239309   0.724   4.277  13.020  0.9088  0.2836  0.7603
 9284SOL     OW39310   3.553   2.670   7.711  0.0850 -0.3956  0.4941
 9284SOL    HW139311   3.458   2.673   7.715 -0.0583 -3.3793 -0.0112
 9284SOL    HW239312   3.596   2.681   7.796  1.1738  1.2108 -0.2672
 9285SOL     OW39313   2.508   0.593   5.023 -0.1651 -0.0109  0.6258
 9285SOL    HW139314   2.602   0.607   5.028  0.1815 -0.7780 -3.4959
 9285SOL    HW239315   2.514   0.528   4.953  0.5560  0.5195  0.1917
 9286SOL     OW39316   1.100   2.618   5.032  0.5324  0.2845 -0.7150
 9286SOL    HW139317   1.011   2.597   5.062  0.9750 -0.2288  0.2226
 9286SOL    HW239318   1.112   2.698   5.083  0.3106 -0.6175  0.7480
 9287SOL     OW39319   0.936   1.036   3.431  0.3949 -0.2761 -0.0335
 9287SOL    HW139320   0.993   0.984   3.375 -3.3871 -0.8753 -3.2423
 9287SOL    HW239321   0.957   1.126   3.405 -0.5025 -0.6754 -2.0959
 9288SOL     OW39322   3.181   4.161   9.219 -0.5916  0.4579  0.3860
 9288SOL    HW139323   3.208   4.131   9.306  2.4845  2.1661  0.0168
 9288SOL    HW239324   3.222   4.246   9.206  2.1120 -0.6096  2.0281
 9289SOL     OW39325   0.090   2.554   1.039 -0.0616  0.1581 -0.4835
 9289SOL    HW139326   0.080   2.592   1.126  1.7583  0.6489 -0.5056
 9289SOL    HW239327   0.180   2.522   1.045  1.0357  3.7212  2.0429
 9290SOL     OW39328   4.368   1.095   6.126  0.3166  0.1729 -0.1235
 9290SOL    HW139329   4.463   1.086   6.131  0.2353  0.2549  1.4113
 9290SOL    HW239330   4.357   1.102   6.031  0.5103 -0.7833 -0.2069
 9291SOL     OW39331   2.832   1.670   6.978  0.0798 -0.2259 -0.2413
 9291SOL    HW139332   2.750   1.666   6.928  0.5125  0.2909 -0.9891
 9291SOL    HW239333   2.820   1.757   7.018  1.5247  0.1840 -0.7202
 9292SOL     OW39334   0.544   3.208   3.935  0.0016 -0.0438 -0.4957
 9292SOL    HW139335   0.585   3.261   4.004 -0.1523  0.8700 -1.1079
 9292SOL    HW239336   0.460   3.186   3.977 -0.3888  0.3861 -1.0469
 9293SOL     OW39337   0.151   2.984   5.508 -0.2635  0.2992 -0.0002
 9293SOL    HW139338   0.228   2.978   5.452  0.8742 -0.5723  1.6425
 9293SOL    HW239339   0.104   3.057   5.467 -1.0786 -1.0314 -1.4396
 9294SOL     OW39340   4.699   0.781   7.910  0.1609 -0.0325  0.1909
 9294SOL    HW139341   4.635   0.726   7.867 -0.3536  0.7878 -0.1009
 9294SOL    HW239342   0.053   0.729   7.887  1.2946  1.6124  0.2570
 9295SOL     OW39343   3.480   0.116   2.081  0.6299  0.5203  0.0024
 9295SOL    HW139344   3.538   0.163   2.021 -1.5074  2.1529 -0.7756
 9295SOL    HW239345   3.400   0.116   2.029  1.0040  2.1469 -0.5596
 9296SOL     OW39346   3.638   1.248   7.901 -0.2665  0.1628 -0.4728
 9296SOL    HW139347   3.693   1.170   7.888  0.8066  1.0728 -1.3718
 9296SOL    HW239348   3.626   1.244   7.996  1.5677 -0.7937 -0.2848
 9297SOL     OW39349   0.022   0.056   8.627  0.0433  0.0386  0.3004
 9297SOL    HW139350   4.650   0.051   8.617 -0.0465  0.0512  1.1918
 9297SOL    HW239351   0.038   4.700   8.679 -0.6965 -0.8902 -0.8649
 9298SOL     OW39352   0.918   2.640  16.133  0.5001  0.0162  0.5815
 9298SOL    HW139353   1.009   2.637  16.104  0.1500  0.8819 -0.6114
 9298SOL    HW239354   0.900   2.549  16.109  1.6503  0.3923 -1.6774
 9299SOL     OW39355   4.506   0.949  10.199  0.5036  0.4909  0.4683
 9299SOL    HW139356   4.493   0.948  10.105  0.3273 -3.8775  0.5507
 9299SOL    HW239357   4.496   1.040  10.226  1.0893  1.0231 -1.0926
 9300SOL     OW39358   3.761   3.466   8.808  0.3379  0.5659  0.2090
 9300SOL    HW139359   3.735   3.494   8.720 -1.5369  1.6966  1.1247
 9300SOL    HW239360   3.852   3.440   8.794 -0.6960 -3.6666  1.3065
 9301SOL     OW39361   3.627   4.131   2.364 -0.0869  0.2524  0.2859
 9301SOL    HW139362   3.643   4.190   2.438 -1.2384 -2.3407  2.5868
 9301SOL    HW239363   3.533   4.144   2.350 -0.4792 -1.1048  1.6570
 9302SOL     OW39364   4.160   0.648   6.741 -0.2506 -0.2745  0.1945
 9302SOL    HW139365   4.231   0.683   6.687 -0.5033 -0.3913 -0.2148
 9302SOL    HW239366   4.097   0.720   6.745 -0.1896 -0.1026 -1.9083
 9303SOL     OW39367   0.677   3.588   1.309 -0.1358  0.1706  0.0293
 9303SOL    HW139368   0.648   3.641   1.235 -0.5542  0.2627  0.2598
 9303SOL    HW239369   0.728   3.517   1.271 -0.7746  0.4335 -1.3098
 9304SOL     OW39370   2.151   3.960   6.631 -0.1741  0.2820  0.1511
 9304SOL    HW139371   2.149   4.038   6.686 -0.4610 -0.1490  0.7597
 9304SOL    HW239372   2.102   3.895   6.683 -0.4896 -0.9944 -1.7262
 9305SOL     OW39373   3.687   0.220   5.553  0.5075 -0.0216  0.1265
 9305SOL    HW139374   3.612   0.218   5.613  0.6099  0.6251  0.2792
 9305SOL    HW239375   3.750   0.267   5.607  0.9069 -0.6927  0.2429
 9306SOL     OW39376   0.544   4.072   8.006  0.0146  0.2720  0.1633
 9306SOL    HW139377   0.596   4.123   8.068  0.1921  0.7467 -0.3692
 9306SOL    HW239378   0.508   4.142   7.952  0.1330 -0.7263 -1.2101
 9307SOL     OW39379   0.732   0.456   2.078 -0.5175 -0.0740  0.0916
 9307SOL    HW139380   0.722   0.450   2.173 -2.9765 -1.2666 -0.2439
 9307SOL    HW239381   0.641   0.441   2.055 -0.1711  0.7782 -1.8791
 9308SOL     OW39382   2.724   3.213   8.137 -0.3372 -0.7012 -0.1997
 9308SOL    HW139383   2.797   3.201   8.076  0.4014 -2.5730  1.0549
 9308SOL    HW239384   2.748   3.295   8.181  0.7803 -0.3216 -1.5168
 9309SOL     OW39385   0.954   2.856   5.328  0.1521  0.0883 -0.4562
 9309SOL    HW139386   0.973   2.847   5.422 -0.5734  1.2164 -0.2075
 9309SOL    HW239387   0.866   2.894   5.332 -0.0282 -0.2036 -1.7107
 9310SOL     OW39388   4.180   3.635   4.290 -0.1771  0.1506 -0.2406
 9310SOL    HW139389   4.122   3.605   4.220  1.0346  0.8307 -1.5445
 9310SOL    HW239390   4.143   3.589   4.365  0.4571  0.9728  0.5799
 9311SOL     OW39391   3.604   0.008   5.292 -0.6251 -0.0825  0.3381
 9311SOL    HW139392   3.576   0.095   5.264  0.0520 -0.2955 -0.9932
 9311SOL    HW239393   3.524   4.687   5.264  0.6197 -2.4114  0.4006
 9312SOL     OW39394   2.068   3.663   4.760  0.6280 -0.2082  0.2147
 9312SOL    HW139395   2.055   3.724   4.688 -0.6739  0.0636  0.6883
 9312SOL    HW239396   2.115   3.586   4.727  1.6214  1.1700 -1.5436
 9313SOL     OW39397   1.488   1.459  14.540  0.7225  0.0578 -0.3181
 9313SOL    HW139398   1.500   1.547  14.506  0.3602  0.2143 -0.0439
 9313SOL    HW239399   1.569   1.417  14.509  1.0598  1.0981 -0.8211
 9314SOL     OW39400   4.008   3.635  17.568 -0.1067  0.6086 -0.2780
 9314SOL    HW139401   3.999   3.653  17.475  1.0594  1.5271 -0.2189
 9314SOL    HW239402   3.974   3.709  17.620 -1.1322 -0.0833  0.0449
 9315SOL     OW39403   0.716   2.895   9.428  0.2686  0.6063 -0.2970
 9315SOL    HW139404   0.692   2.824   9.368 -0.3197  0.5495  0.0018
 9315SOL    HW239405   0.791   2.855   9.472 -0.7186 -1.3506 -0.4168
 9316SOL     OW39406   2.648   4.666   2.974 -0.8327 -0.4187 -0.1034
 9316SOL    HW139407   2.652   4.718   3.054  2.2671  1.5093 -1.5260
 9316SOL    HW239408   2.609   0.010   2.918  0.4324 -1.0446 -1.7520
 9317SOL     OW39409   1.670   0.502   3.174 -0.2160 -0.4878  0.1764
 9317SOL    HW139410   1.622   0.432   3.218  2.7392 -0.3210  3.6167
 9317SOL    HW239411   1.644   0.475   3.086 -0.7285  1.8600 -0.3944
 9318SOL     OW39412   1.354   1.539   4.607 -0.3699 -0.0915 -0.1941
 9318SOL    HW139413   1.277   1.524   4.552  0.2568  0.2538 -1.1672
 9318SOL    HW239414   1.345   1.454   4.651 -1.9165  0.5210  0.6594
 9319SOL     OW39415   2.826   4.270  13.565 -0.2763  0.1737  0.1835
 9319SOL    HW139416   2.805   4.182  13.534 -1.5468  1.0296 -1.3258
 9319SOL    HW239417   2.764   4.332  13.527  1.6847  1.0396 -1.6216
 9320SOL     OW39418   2.735   4.392  10.858  0.5979 -0.0641  0.0126
 9320SOL    HW139419   2.730   4.430  10.946  4.1326  0.3782  0.0175
 9320SOL    HW239420   2.829   4.402  10.842  0.8349 -3.5291 -0.9563
 9321SOL     OW39421   1.790   0.230   6.142  0.0423  0.0249  0.6500
 9321SOL    HW139422   1.752   0.301   6.193 -1.1246 -1.6568  2.1437
 9321SOL    HW239423   1.881   0.258   6.147  0.7432 -1.7961 -2.1433
 9322SOL     OW39424   3.145   0.998   4.317 -0.4875 -0.0962  0.4370
 9322SOL    HW139425   3.144   1.055   4.240  3.2536 -1.5144 -0.6869
 9322SOL    HW239426   3.097   1.053   4.379 -1.6796  0.0887 -0.6658
 9323SOL     OW39427   3.564   0.830   5.940 -0.4870 -0.4191  0.5215
 9323SOL    HW139428   3.476   0.806   5.968  0.3350  0.4706  3.7830
 9323SOL    HW239429   3.619   0.768   5.988  0.5142  0.1667  0.1458
 9324SOL     OW39430   4.524   2.062   8.278 -0.3843  0.2509 -0.2088
 9324SOL    HW139431   4.457   2.129   8.295  1.1499  1.5156  0.8287
 9324SOL    HW239432   4.591   2.120   8.242 -1.3977  0.8785 -1.1103
 9325SOL     OW39433   2.726   4.214   8.366 -0.1097 -0.8461 -0.1141
 9325SOL    HW139434   2.728   4.133   8.314 -1.6526 -0.2122 -1.1754
 9325SOL    HW239435   2.794   4.199   8.431  0.7045 -0.3301 -0.8463
 9326SOL     OW39436   0.361   1.481   4.906 -0.1136 -0.2898 -0.0867
 9326SOL    HW139437   0.442   1.528   4.883 -0.3060  0.2106  0.2432
 9326SOL    HW239438   0.355   1.504   4.999  1.6245  1.3420 -0.3649
 9327SOL     OW39439   2.796   1.179  15.543 -0.0521 -0.0023 -0.6058
 9327SOL    HW139440   2.741   1.101  15.544  0.7853 -0.5910  0.1776
 9327SOL    HW239441   2.848   1.172  15.623  0.6704  1.3538 -0.9472
 9328SOL     OW39442   0.686   0.497  14.137 -0.1917 -0.2351  0.0921
 9328SOL    HW139443   0.697   0.450  14.220 -2.1117  0.5840  0.8217
 9328SOL    HW239444   0.661   0.427  14.077  0.0470 -1.1429  1.0554
 9329SOL     OW39445   1.684   3.926   6.493 -0.1697 -0.1299 -0.0203
 9329SOL    HW139446   1.647   3.842   6.466  0.1766  0.0125 -0.9343
 9329SOL    HW239447   1.738   3.902   6.569  0.3258 -3.2133 -1.3395
 9330SOL     OW39448   3.124   4.594   1.502 -0.0388 -0.1346 -0.1454
 9330SOL    HW139449   3.040   4.549   1.513 -0.0841  0.6165  2.7326
 9330SOL    HW239450   3.109   4.670   1.558 -1.4144  0.4981 -1.3724
 9331SOL     OW39451   0.156   2.491   3.879  0.5763  0.1404  0.0822
 9331SOL    HW139452   0.152   2.399   3.905 -3.8121 -0.1020 -1.4065
 9331SOL    HW239453   0.198   2.522   3.959  3.2888 -0.0432 -1.2713
 9332SOL     OW39454   2.426   1.173  11.566 -0.4978  0.6036  0.5637
 9332SOL    HW139455   2.493   1.157  11.499  0.0747 -0.0200  1.2835
 9332SOL    HW239456   2.464   1.118  11.634  1.4695  0.3530 -0.7234
 9333SOL     OW39457   2.527   3.787  13.374 -0.4589  0.0952  0.4407
 9333SOL    HW139458   2.447   3.839  13.392 -0.7735  0.1934 -1.2721
 9333SOL    HW239459   2.492   3.753  13.292 -1.1753 -0.9573  1.1776
 9334SOL     OW39460   0.809   3.078   6.940  0.2914 -0.0019 -0.2957
 9334SOL    HW139461   0.826   3.162   6.983  1.8669 -0.7037  0.4511
 9334SOL    HW239462   0.768   3.105   6.858 -0.1475 -4.3596 -1.5057
 9335SOL     OW39463   2.546   1.772   5.857  0.1594 -0.4502 -0.0354
 9335SOL    HW139464   2.476   1.716   5.892 -1.2412  0.7491 -0.9312
 9335SOL    HW239465   2.530   1.851   5.909 -0.6748  0.2443 -1.3409
 9336SOL     OW39466   4.320   1.709   1.336  0.4535 -0.1689 -0.5091
 9336SOL    HW139467   4.325   1.616   1.313  0.9232  0.1701 -1.8206
 9336SOL    HW239468   4.233   1.727   1.301  0.3344  0.0522 -0.0955
 9337SOL     OW39469   4.172   3.063   7.055 -0.7915  0.0153  0.5148
 9337SOL    HW139470   4.086   3.102   7.035  0.0339  1.5115 -0.1320
 9337SOL    HW239471   4.237   3.131   7.039 -1.7853  1.1019  1.1037
 9338SOL     OW39472   1.811   3.590   2.951 -0.7134 -0.2165 -0.3980
 9338SOL    HW139473   1.800   3.495   2.941  0.0849 -0.4140  0.5891
 9338SOL    HW239474   1.779   3.625   2.868 -1.6331  1.0220  0.4861
 9339SOL     OW39475   0.385   1.537   5.938  0.4445  0.1271 -0.7773
 9339SOL    HW139476   0.439   1.538   5.859  2.3526 -1.0538  0.5172
 9339SOL    HW239477   0.314   1.480   5.909  0.4276 -0.5411  0.5541
 9340SOL     OW39478   2.501   0.584  10.383 -0.6453 -0.0108 -1.0482
 9340SOL    HW139479   2.556   0.508  10.400  0.7451  1.3677  0.6114
 9340SOL    HW239480   2.482   0.572  10.290  0.5339  0.8119 -1.4012
 9341SOL     OW39481   1.347   0.765   4.613  0.1957  0.2099 -0.3080
 9341SOL    HW139482   1.337   0.741   4.705 -0.8558  1.0045 -0.2145
 9341SOL    HW239483   1.442   0.756   4.605  0.1739 -0.0500 -0.2619
 9342SOL     OW39484   4.525   2.274   4.070  0.0245 -0.1625  0.2824
 9342SOL    HW139485   4.555   2.365   4.058  0.7858 -0.6715 -1.7485
 9342SOL    HW239486   4.505   2.270   4.163  0.6761 -1.7593  0.3376
 9343SOL     OW39487   4.011   2.679  16.203  0.0426  0.2448 -0.2006
 9343SOL    HW139488   4.095   2.721  16.184  0.9443 -0.3724  2.5469
 9343SOL    HW239489   3.960   2.733  16.141 -0.3222  0.9391  0.7006
 9344SOL     OW39490   2.889   3.096   4.835 -0.4524 -0.3353 -0.2514
 9344SOL    HW139491   2.862   3.020   4.784 -1.2713  1.3141 -2.2483
 9344SOL    HW239492   2.801   3.132   4.843 -0.2973  0.0574 -0.3344
 9345SOL     OW39493   3.629   4.483   3.524 -0.2313 -0.4583 -0.4940
 9345SOL    HW139494   3.607   4.564   3.571  0.5395 -0.2586 -0.4846
 9345SOL    HW239495   3.564   4.481   3.454 -0.4376 -2.6465 -0.2400
 9346SOL     OW39496   2.160   1.958   6.897  0.2602 -0.2647  0.2922
 9346SOL    HW139497   2.223   1.983   6.829  0.6857 -1.4327  0.2611
 9346SOL    HW239498   2.091   2.025   6.887  2.3553  1.9398  0.6671
 9347SOL     OW39499   2.630   0.087   8.155  0.0933  0.1233 -0.0732
 9347SOL    HW139500   2.702   0.052   8.102  1.1234  0.6319  1.0040
 9347SOL    HW239501   2.600   0.164   8.107 -1.7931 -1.3617 -1.2903
 9348SOL     OW39502   3.732   0.609   8.531  0.0077 -0.1004 -0.4339
 9348SOL    HW139503   3.639   0.614   8.506  0.5487  2.2810 -2.0620
 9348SOL    HW239504   3.741   0.519   8.559  1.8888  0.4729  0.7602
 9349SOL     OW39505   3.375   2.963  11.233 -0.4189 -0.0909  0.0828
 9349SOL    HW139506   3.396   2.877  11.270 -1.1735  0.0130  0.7501
 9349SOL    HW239507   3.354   3.010  11.313 -0.8046  2.2776 -1.4106
 9350SOL     OW39508   4.292   2.939   7.937  0.0816  0.5341 -0.5942
 9350SOL    HW139509   4.260   3.020   7.897 -2.0247 -0.2373 -0.4565
 9350SOL    HW239510   4.245   2.939   8.020  1.7685 -0.8043  0.3675
 9351SOL     OW39511   4.377   2.547   3.922 -0.4607  0.1333 -0.2957
 9351SOL    HW139512   4.459   2.585   3.953 -1.2586  0.4326  1.4377
 9351SOL    HW239513   4.393   2.506   3.836  0.3298 -0.8647  0.3246
 9352SOL     OW39514   3.422   2.825   2.021 -0.1636  0.3974 -0.3694
 9352SOL    HW139515   3.467   2.910   2.028 -0.3096  0.5447 -1.2590
 9352SOL    HW239516   3.489   2.779   1.970  0.6860  1.4551 -0.2227
 9353SOL     OW39517   4.718   1.795   0.211 -0.0754  0.6435  0.2667
 9353SOL    HW139518   4.685   1.761   0.295  1.7632 -2.3521 -0.2233
 9353SOL    HW239519   0.042   1.722   0.171 -0.1546  1.0507 -0.5582
 9354SOL     OW39520   1.315   4.040  16.684  0.1950 -0.1022  0.4532
 9354SOL    HW139521   1.226   4.009  16.667 -0.0395  1.4037 -1.0878
 9354SOL    HW239522   1.344   4.035  16.593 -1.5622 -0.2439 -0.0921
 9355SOL     OW39523   1.338   3.467   6.180  0.0528  0.1099 -0.3428
 9355SOL    HW139524   1.336   3.373   6.197  5.7275 -0.2483 -1.7119
 9355SOL    HW239525   1.304   3.498   6.265  1.7493  0.3614  0.2374
 9356SOL     OW39526   0.737   0.733   9.639  0.4883  0.4693  0.1381
 9356SOL    HW139527   0.794   0.673   9.688  1.8228  1.8165  0.2593
 9356SOL    HW239528   0.750   0.711   9.547 -1.4827 -0.5489  0.0965
 9357SOL     OW39529   3.810   0.239   4.550 -0.2769  0.1193  0.5503
 9357SOL    HW139530   3.776   0.294   4.480 -0.5904 -0.4446  0.2592
 9357SOL    HW239531   3.857   0.313   4.588  0.9041 -0.2410 -0.2073
 9358SOL     OW39532   1.793   0.177   9.066  0.1986 -0.0633  0.4477
 9358SOL    HW139533   1.787   0.159   8.972  0.6309 -1.1290  0.6170
 9358SOL    HW239534   1.870   0.231   9.083 -1.5751  2.0976  1.5401
 9359SOL     OW39535   3.864   0.373  11.564  0.8730  0.1115  0.0147
 9359SOL    HW139536   3.826   0.359  11.477 -0.5764  1.3664  0.4442
 9359SOL    HW239537   3.955   0.381  11.537  0.6513 -0.1744 -0.8182
 9360SOL     OW39538   4.214   2.233   3.666  0.4925 -0.0435 -0.3741
 9360SOL    HW139539   4.139   2.266   3.715 -1.0387 -2.8032 -0.8499
 9360SOL    HW239540   4.295   2.271   3.700  0.5566 -0.1716 -0.3819
 9361SOL     OW39541   1.520   4.320   3.742 -0.2038  0.0542 -0.1703
 9361SOL    HW139542   1.426   4.300   3.745  0.3950 -2.8353 -0.5164
 9361SOL    HW239543   1.516   4.412   3.771  0.3611 -0.6428  2.1737
 9362SOL     OW39544   4.034   1.940   5.210 -0.3014 -0.5674 -0.0656
 9362SOL    HW139545   4.078   1.907   5.132  2.8464 -1.5491  2.1099
 9362SOL    HW239546   4.112   1.951   5.265  0.1008  0.6614 -0.8865
 9363SOL     OW39547   1.035   3.747  15.001  0.2763 -0.2306  0.1775
 9363SOL    HW139548   1.086   3.761  14.922  0.1217  0.8478  0.2778
 9363SOL    HW239549   1.101   3.728  15.068 -1.5447 -1.2519  1.7044
 9364SOL     OW39550   1.966   1.445   0.588  0.8169 -0.1062  0.3544
 9364SOL    HW139551   2.047   1.402   0.562 -0.5687 -0.3026 -3.5662
 9364SOL    HW239552   1.997   1.512   0.649 -1.2055 -1.2477  2.6415
 9365SOL     OW39553   1.742   0.307   3.985  0.0441 -0.2690  0.4178
 9365SOL    HW139554   1.683   0.364   4.035 -1.0136  0.7505 -1.9887
 9365SOL    HW239555   1.770   0.246   4.053 -2.6511 -0.7530  1.0936
 9366SOL     OW39556   3.910   0.878   3.708 -0.0507 -0.3423 -0.2571
 9366SOL    HW139557   3.868   0.924   3.636  0.1152  1.1397  0.5944
 9366SOL    HW239558   3.979   0.832   3.659 -2.3705 -1.1489 -2.7676
 9367SOL     OW39559   0.446   2.117   4.463  0.2052  0.1692  0.1783
 9367SOL    HW139560   0.387   2.063   4.408 -0.3953  0.0090  0.9767
 9367SOL    HW239561   0.379   2.151   4.522 -0.7257 -0.6947 -0.3696
 9368SOL     OW39562   4.375   0.892   6.817 -0.4086 -0.3962 -0.2917
 9368SOL    HW139563   4.347   0.961   6.757 -0.2008  1.2946  1.5551
 9368SOL    HW239564   4.466   0.906   6.790 -1.0339  1.8980 -1.2205
 9369SOL     OW39565   2.593   2.003   6.492  0.2333 -0.6070 -0.1522
 9369SOL    HW139566   2.627   2.033   6.576  0.3955 -0.4814 -0.2641
 9369SOL    HW239567   2.511   2.052   6.485 -0.6830 -2.3662 -1.9420
 9370SOL     OW39568   3.938   3.133   3.018 -0.9871 -0.5784 -0.3388
 9370SOL    HW139569   3.977   3.174   2.940 -0.0746  0.3154  0.5932
 9370SOL    HW239570   4.017   3.098   3.060 -1.0925  1.0838  1.1965
 9371SOL     OW39571   0.920   2.164   6.265  1.0704  0.1894 -0.5479
 9371SOL    HW139572   0.914   2.116   6.182  0.1261  0.0221 -0.3877
 9371SOL    HW239573   0.963   2.245   6.240 -1.3989  2.2143  1.7381
 9372SOL     OW39574   2.288   0.640   5.550  0.0130 -0.1584 -0.8451
 9372SOL    HW139575   2.248   0.553   5.558  2.5681 -1.3053 -0.6613
 9372SOL    HW239576   2.207   0.691   5.559  0.4115  0.6980 -2.1365
 9373SOL     OW39577   1.286   3.181  10.075  0.2714  0.0797  0.0471
 9373SOL    HW139578   1.333   3.113  10.124  0.3837 -0.7307 -1.1677
 9373SOL    HW239579   1.276   3.245  10.144  1.1894  0.1163  0.1534
 9374SOL     OW39580   2.946   3.633   0.643 -0.1451 -0.4381  0.0226
 9374SOL    HW139581   2.918   3.543   0.627 -0.9315 -0.1928  0.0077
 9374SOL    HW239582   2.869   3.691   0.651  0.1861 -0.2730  1.9444
 9375SOL     OW39583   4.175   3.048  15.611 -1.4614  0.1293 -0.0836
 9375SOL    HW139584   4.210   3.131  15.644 -0.0371 -0.2498 -0.6475
 9375SOL    HW239585   4.116   3.072  15.539 -3.4840  0.9441  1.8453
 9376SOL     OW39586   2.238   4.400  14.042  0.4520  0.0046  0.1901
 9376SOL    HW139587   2.254   4.494  14.036  0.2222 -0.1721 -3.2602
 9376SOL    HW239588   2.289   4.379  13.963  0.4663  1.1935 -0.1234
 9377SOL     OW39589   0.699   0.467   3.747 -0.0031  0.0597 -0.0334
 9377SOL    HW139590   0.746   0.489   3.827 -3.1048  1.2905  1.4739
 9377SOL    HW239591   0.760   0.495   3.678 -1.4971 -0.8451 -1.7282
 9378SOL     OW39592   3.639   1.950   2.123 -0.0332  0.4701 -0.1381
 9378SOL    HW139593   3.724   1.937   2.164 -0.1616 -1.4109 -0.4535
 9378SOL    HW239594   3.660   1.998   2.043  3.0584 -2.1767 -0.8929
 9379SOL     OW39595   3.109   0.041   2.755  0.1240  0.7188 -0.0489
 9379SOL    HW139596   3.071   4.678   2.735  0.8499  0.8020 -1.8577
 9379SOL    HW239597   3.090   0.096   2.679  1.1876  0.8822 -0.1978
 9380SOL     OW39598   2.664   0.453   5.981 -0.2727  0.0327 -0.1770
 9380SOL    HW139599   2.738   0.494   6.025 -0.8364  1.2847 -0.3652
 9380SOL    HW239600   2.639   0.399   6.056  2.9068 -0.0060  0.8382
 9381SOL     OW39601   2.173   1.439   2.437  0.1612 -0.4972  0.5338
 9381SOL    HW139602   2.083   1.408   2.450 -0.2294  1.7876  3.1328
 9381SOL    HW239603   2.178   1.435   2.341  0.6978 -0.9385  0.5835
 9382SOL     OW39604   3.585   4.398   4.103  0.4172  0.5867  0.4630
 9382SOL    HW139605   3.575   4.475   4.047 -1.7082  0.3769  0.5373
 9382SOL    HW239606   3.531   4.426   4.177  2.0744  1.1465  1.4460
 9383SOL     OW39607   3.950   0.261   1.566 -0.3490 -0.5263 -1.1505
 9383SOL    HW139608   3.904   0.323   1.623  1.0395 -0.1748 -0.4322
 9383SOL    HW239609   3.995   0.200   1.624  0.0575 -0.4605 -1.4017
 9384SOL     OW39610   4.304   0.600  17.127 -0.1050  0.2127  0.6019
 9384SOL    HW139611   4.356   0.523  17.104 -0.7076 -0.4998  1.6162
 9384SOL    HW239612   4.331   0.614  17.218  1.8177 -1.2353  0.2601
 9385SOL     OW39613   2.727   0.833   6.108  0.5540  0.7283  0.3172
 9385SOL    HW139614   2.672   0.815   6.031  1.4454 -1.3705  0.1702
 9385SOL    HW239615   2.658   0.856   6.170  0.6453  0.4051  0.5397
 9386SOL     OW39616   1.762   1.600   8.442 -0.1526 -0.1096 -0.3129
 9386SOL    HW139617   1.781   1.507   8.431  0.3531  0.1484 -1.6748
 9386SOL    HW239618   1.780   1.636   8.355 -0.3819  1.9511  0.4945
 9387SOL     OW39619   0.587   2.680   2.370  0.1087  0.1111  0.4170
 9387SOL    HW139620   0.599   2.616   2.440  1.9270 -0.6775 -0.5962
 9387SOL    HW239621   0.500   2.706   2.399  0.1022  3.4881 -2.6283
 9388SOL     OW39622   1.900   1.910   3.455 -0.0080 -0.1574 -0.3509
 9388SOL    HW139623   1.966   1.856   3.411 -0.4907  1.0614 -2.5493
 9388SOL    HW239624   1.947   1.991   3.471 -1.6596  0.2128  2.5772
 9389SOL     OW39625   2.402   2.744   7.074  0.0251 -0.0643 -0.2683
 9389SOL    HW139626   2.423   2.823   7.124  1.1201 -1.5746  1.6909
 9389SOL    HW239627   2.479   2.687   7.068  1.0638  1.4312 -1.0480
 9390SOL     OW39628   1.322   3.958   2.426 -0.1026 -0.0249 -0.0067
 9390SOL    HW139629   1.325   3.868   2.396 -2.3524 -0.2060  0.3038
 9390SOL    HW239630   1.310   4.008   2.345  2.7547 -1.0458 -1.0357
 9391SOL     OW39631   4.027   1.578  13.176 -0.0405  0.2033 -0.5161
 9391SOL    HW139632   3.973   1.532  13.112  0.6969 -1.0997 -0.1962
 9391SOL    HW239633   4.059   1.507  13.232  0.0538  0.8803  0.2820
 9392SOL     OW39634   3.557   0.312   6.069 -0.1252  0.1030 -0.3328
 9392SOL    HW139635   3.483   0.253   6.078  0.3171 -0.2367  1.0969
 9392SOL    HW239636   3.500   0.389   6.066 -1.1497 -0.6758 -0.7722
 9393SOL     OW39637   3.324   0.807   4.924 -0.1183 -0.1500 -0.3312
 9393SOL    HW139638   3.309   0.717   4.955 -0.7407 -0.5660 -1.8858
 9393SOL    HW239639   3.277   0.803   4.841 -0.5173  1.4823 -0.1804
 9394SOL     OW39640   1.804   0.875  14.988  0.1795  0.6663 -0.3748
 9394SOL    HW139641   1.895   0.891  15.013 -0.0101  0.8793  0.1722
 9394SOL    HW239642   1.827   0.856  14.897 -3.0556 -1.2949 -0.7721
 9395SOL     OW39643   3.049   2.452  14.608 -0.2421 -0.0602 -0.2597
 9395SOL    HW139644   3.015   2.392  14.542 -0.0468  0.8560 -1.1852
 9395SOL    HW239645   3.003   2.534  14.589 -1.7538 -1.1286 -1.2353
 9396SOL     OW39646   1.101   0.082   7.348 -0.4407  0.4646  0.0469
 9396SOL    HW139647   1.187   0.116   7.322 -1.1001  0.2066 -2.4990
 9396SOL    HW239648   1.076   0.158   7.400 -0.4740  0.6017 -0.1685
 9397SOL     OW39649   4.647   1.959   7.275  0.0951  0.3759 -0.1092
 9397SOL    HW139650   4.581   2.028   7.277  0.2704  0.5446 -0.1735
 9397SOL    HW239651   4.632   1.923   7.363 -0.2009  2.3079  0.6330
 9398SOL     OW39652   3.003   2.478   4.351  0.1272 -0.3031  0.5918
 9398SOL    HW139653   3.025   2.527   4.431 -2.9313  0.1969  1.1421
 9398SOL    HW239654   2.935   2.416   4.378  1.8343 -1.3402  2.4813
 9399SOL     OW39655   3.983   0.855  15.767  0.3632  0.1245 -0.0256
 9399SOL    HW139656   4.060   0.862  15.711  0.8106 -1.6582  0.3553
 9399SOL    HW239657   4.022   0.796  15.832 -1.5079  1.3584  2.2293
 9400SOL     OW39658   2.699   3.412  10.273  0.2939 -0.1496 -0.3303
 9400SOL    HW139659   2.629   3.435  10.334  0.4916  1.8534 -0.8818
 9400SOL    HW239660   2.780   3.416  10.324  1.5445  2.5597 -2.5709
 9401SOL     OW39661   2.551   0.614  11.512 -0.0048 -0.3204  0.5744
 9401SOL    HW139662   2.632   0.568  11.490  1.4745  3.2384 -1.5228
 9401SOL    HW239663   2.545   0.694  11.460 -0.0902  0.7226  2.1982
 9402SOL     OW39664   3.604   3.089  17.047  0.1437 -0.0153  0.6914
 9402SOL    HW139665   3.672   3.155  17.061  2.1047 -1.8592 -0.2186
 9402SOL    HW239666   3.558   3.133  16.975  0.0046  2.6265  2.4022
 9403SOL     OW39667   2.005   1.760   2.052 -0.0880  0.0815 -0.0745
 9403SOL    HW139668   2.047   1.832   2.004 -2.0716  0.9258 -0.5400
 9403SOL    HW239669   1.995   1.796   2.140 -1.4138 -1.0255  0.2341
 9404SOL     OW39670   2.209   2.652   5.136  0.0116  0.1606 -0.0722
 9404SOL    HW139671   2.277   2.614   5.081  0.5672 -0.3456  0.9690
 9404SOL    HW239672   2.143   2.590   5.105 -0.9550  0.5592  1.1843
 9405SOL     OW39673   3.989   3.689   3.763  0.5583  0.2577  0.4458
 9405SOL    HW139674   4.068   3.644   3.734 -0.4834 -1.1425 -0.2244
 9405SOL    HW239675   4.002   3.764   3.705  1.9871 -0.7125 -0.4653
 9406SOL     OW39676   0.666   0.719   5.378  0.3188  0.2620  0.3070
 9406SOL    HW139677   0.578   0.707   5.411 -0.2209  3.2940 -0.0782
 9406SOL    HW239678   0.699   0.786   5.438  0.8510  0.9582 -0.7474
 9407SOL     OW39679   3.426   2.752   2.976  0.3245 -0.0377 -0.1252
 9407SOL    HW139680   3.484   2.785   3.045 -1.7060  1.5976  0.8095
 9407SOL    HW239681   3.436   2.821   2.911  0.2041 -0.2791 -0.3951
 9408SOL     OW39682   3.704   2.745  10.964 -0.0580 -0.4113  0.1017
 9408SOL    HW139683   3.702   2.821  10.906 -1.2276 -0.8291 -0.4089
 9408SOL    HW239684   3.742   2.781  11.044  1.1653 -1.3966 -0.0237
 9409SOL     OW39685   2.589   0.525   0.848  0.2746  0.3976  0.3005
 9409SOL    HW139686   2.588   0.496   0.756 -1.2804  1.5507 -0.0366
 9409SOL    HW239687   2.647   0.601   0.839 -0.4459  0.8127 -0.8722
 9410SOL     OW39688   3.267   3.633  10.500  0.2083 -0.3830  0.4627
 9410SOL    HW139689   3.195   3.672  10.549  1.3710  2.3007  0.0665
 9410SOL    HW239690   3.300   3.572  10.566 -0.9710 -1.0109  0.4651
 9411SOL     OW39691   1.105   2.400   6.128  0.4979 -0.4444  0.3746
 9411SOL    HW139692   1.062   2.484   6.145  1.5299 -0.0516  1.0521
 9411SOL    HW239693   1.135   2.398   6.037  0.0659  0.1028  0.2178
 9412SOL     OW39694   1.112   2.792   3.197  0.0072  0.2597  0.0653
 9412SOL    HW139695   1.203   2.765   3.187  0.3341  1.1863  0.4845
 9412SOL    HW239696   1.069   2.707   3.206  1.6407 -0.4358  1.2919
 9413SOL     OW39697   2.040   0.057   3.950 -0.2725  0.2820 -0.5222
 9413SOL    HW139698   2.069   0.031   3.863  1.3377  0.2730  0.0204
 9413SOL    HW239699   1.968   4.719   3.969  0.1613 -0.1307 -0.1858
 9414SOL     OW39700   2.338   1.137   2.352 -0.0052 -0.2865  0.1466
 9414SOL    HW139701   2.382   1.162   2.433 -1.6228  2.2990  0.2483
 9414SOL    HW239702   2.395   1.174   2.284  0.7249 -0.0366  0.8904
 9415SOL     OW39703   1.997   2.253  11.443 -0.0749 -0.6402  0.0542
 9415SOL    HW139704   1.914   2.208  11.425 -0.2679  0.4275 -1.7311
 9415SOL    HW239705   2.017   2.200  11.520  1.4955  0.3008  0.2716
 9416SOL     OW39706   0.606   3.647   7.466 -0.3699 -0.3048 -0.1919
 9416SOL    HW139707   0.537   3.701   7.504 -0.2744  0.0652 -0.5467
 9416SOL    HW239708   0.598   3.665   7.372 -0.4869 -0.4134 -0.2031
 9417SOL     OW39709   3.358   3.507   8.885 -0.3814 -0.2045 -0.1180
 9417SOL    HW139710   3.413   3.557   8.825 -2.4155  1.7551 -0.3094
 9417SOL    HW239711   3.427   3.453   8.925  2.0491  1.5729 -1.8525
 9418SOL     OW39712   1.569   0.321  16.229 -0.6341  0.5059  0.1768
 9418SOL    HW139713   1.611   0.407  16.228 -0.7973  0.5875  0.4332
 9418SOL    HW239714   1.518   0.316  16.148 -1.3153 -1.9723  0.7730
 9419SOL     OW39715   2.002   3.931   1.959  0.0840  0.2444  0.2138
 9419SOL    HW139716   1.985   3.865   2.026  1.1215  0.0047  0.2424
 9419SOL    HW239717   1.959   3.889   1.885  1.9328 -1.0266 -0.1320
 9420SOL     OW39718   0.405   4.322   0.405  0.0783  0.4260  0.6504
 9420SOL    HW139719   0.425   4.409   0.369  1.0910  0.9482  2.4565
 9420SOL    HW239720   0.318   4.303   0.370  1.0748 -1.7758 -0.5934
 9421SOL     OW39721   2.709   2.191  16.678 -0.6754  0.2053  0.1672
 9421SOL    HW139722   2.737   2.208  16.588  1.6003 -0.4277  0.7586
 9421SOL    HW239723   2.691   2.097  16.683 -0.1183  0.0053 -1.6073
 9422SOL     OW39724   0.248   2.029   3.946  0.7606 -0.2841 -0.2784
 9422SOL    HW139725   0.338   2.048   3.970 -0.3056  2.0314  1.7786
 9422SOL    HW239726   0.251   2.034   3.850  2.1379  1.5045 -0.1221
 9423SOL     OW39727   3.957   3.715   0.733  0.2616  0.6692  0.3934
 9423SOL    HW139728   4.008   3.675   0.663  0.3157  0.6285  0.4557
 9423SOL    HW239729   3.884   3.656   0.749 -1.1426  2.4937  0.7508
 9424SOL     OW39730   3.154   1.990  15.571 -0.2910  0.0174 -0.1652
 9424SOL    HW139731   3.129   1.917  15.628 -2.4140  1.6731  1.0087
 9424SOL    HW239732   3.067   2.003  15.534 -0.8807 -0.6354  1.0080
 9425SOL     OW39733   0.871   1.444   6.882  0.0525  0.3234  0.0693
 9425SOL    HW139734   0.821   1.383   6.826 -0.6008  0.6167  0.3447
 9425SOL    HW239735   0.911   1.497   6.813  0.3690 -0.4580 -0.3541
 9426SOL     OW39736   3.054   1.686  10.495 -0.2884  0.1568  0.3761
 9426SOL    HW139737   3.025   1.608  10.543 -3.7694  1.6641  0.7676
 9426SOL    HW239738   2.985   1.748  10.519 -0.2610  0.3712 -0.0927
 9427SOL     OW39739   2.766   2.405   0.087 -0.0090  0.6622  0.4721
 9427SOL    HW139740   2.731   2.377   0.002 -1.8019  0.6821  1.2157
 9427SOL    HW239741   2.731   2.494   0.090  2.6478  1.7359 -0.2454
 9428SOL     OW39742   2.944   2.084   3.493 -0.3532 -0.4999  0.2453
 9428SOL    HW139743   2.851   2.073   3.472 -0.9099  0.7352  2.0827
 9428SOL    HW239744   2.944   2.144   3.567 -2.7166  0.0863 -0.2230
 9429SOL     OW39745   2.476   2.584  10.548 -0.1442  0.2794 -0.0844
 9429SOL    HW139746   2.466   2.524  10.475  2.3997 -2.5087  1.8151
 9429SOL    HW239747   2.499   2.527  10.622  0.0133  0.5562  0.0792
 9430SOL     OW39748   3.401   2.991   8.054  0.3136  0.0896 -0.3927
 9430SOL    HW139749   3.456   3.051   8.105  1.4429 -1.7258  0.5462
 9430SOL    HW239750   3.321   2.975   8.103  0.0627 -0.4288 -0.9721
 9431SOL     OW39751   1.283   1.858   8.672 -0.1284 -0.8894  0.4425
 9431SOL    HW139752   1.373   1.858   8.704  0.3612  1.7637 -0.8661
 9431SOL    HW239753   1.280   1.815   8.587  0.0890 -3.0090  1.5161
 9432SOL     OW39754   1.072   3.042   5.524  0.2593 -0.0811  0.6292
 9432SOL    HW139755   1.167   3.048   5.536  0.3102  0.0913  0.1506
 9432SOL    HW239756   1.050   3.050   5.617 -1.8190  2.7528 -0.1053
 9433SOL     OW39757   4.673   3.678   3.943  0.1656  0.2080  0.2209
 9433SOL    HW139758   0.030   3.629   3.924 -0.1953 -0.0581 -0.6123
 9433SOL    HW239759   4.716   3.763   3.940  1.0143 -0.2070  0.4794
 9434SOL     OW39760   4.069   0.577   3.844 -0.2225  0.0321  0.2190
 9434SOL    HW139761   4.163   0.565   3.830 -0.5063  1.2304 -2.6628
 9434SOL    HW239762   4.034   0.540   3.763  1.0741  0.7217 -0.6400
 9435SOL     OW39763   3.040   1.554   5.703  0.0197  0.3566 -0.8002
 9435SOL    HW139764   2.986   1.620   5.746 -0.6330 -0.7807  0.1191
 9435SOL    HW239765   3.061   1.496   5.776 -1.3515 -0.8359 -1.3382
 9436SOL     OW39766   1.087   0.328  16.991  0.6230 -0.4088  0.6321
 9436SOL    HW139767   1.177   0.357  16.978  0.4065  0.8844  2.0491
 9436SOL    HW239768   1.102   0.239  17.024  1.1982 -0.5218  0.0627
 9437SOL     OW39769   0.572   1.307   3.279 -0.1904 -0.3738 -0.0140
 9437SOL    HW139770   0.537   1.387   3.239  0.6960  0.9450  1.8360
 9437SOL    HW239771   0.578   1.246   3.206 -2.0780  0.3715 -0.7951
 9438SOL     OW39772   0.355   1.232   4.303 -0.2818 -0.2283 -0.3957
 9438SOL    HW139773   0.359   1.311   4.356 -0.3752 -0.0790 -0.6120
 9438SOL    HW239774   0.396   1.175   4.368  0.9121  1.4564  0.3346
 9439SOL     OW39775   0.145   0.812   5.433 -0.2294  0.2047 -0.1349
 9439SOL    HW139776   0.147   0.852   5.346  0.7355  0.6391  0.0758
 9439SOL    HW239777   0.060   0.839   5.469 -1.5512 -3.8735 -0.2071
 9440SOL     OW39778   4.172   2.113   7.879 -0.1793  0.0089 -0.0704
 9440SOL    HW139779   4.165   2.129   7.785  1.7561 -1.5330 -0.4647
 9440SOL    HW239780   4.184   2.202   7.911 -2.1595  1.1053 -2.3617
 9441SOL     OW39781   2.985   0.809   9.659 -0.2337 -0.9303 -0.3272
 9441SOL    HW139782   2.946   0.782   9.576  0.0891 -0.8374 -0.5056
 9441SOL    HW239783   2.962   0.727   9.704  0.8070 -0.1606  1.6261
 9442SOL     OW39784   1.016   1.233   0.887 -0.3119 -0.0725  0.1494
 9442SOL    HW139785   0.961   1.196   0.817  1.7547 -2.8321  0.0017
 9442SOL    HW239786   1.070   1.307   0.858  0.5543 -1.5894 -2.0879
 9443SOL     OW39787   1.059   4.679   3.816 -0.2868  0.3406 -0.3267
 9443SOL    HW139788   1.099   0.019   3.756 -0.5052  0.6287 -0.1716
 9443SOL    HW239789   1.117   4.676   3.892  1.7405 -2.3168 -1.9707
 9444SOL     OW39790   1.442   4.599   7.785  0.3134  0.0968 -0.5851
 9444SOL    HW139791   1.447   4.573   7.693  0.2245  0.2511 -0.6337
 9444SOL    HW239792   1.406   4.687   7.771  0.4321  0.1910 -0.2788
 9445SOL     OW39793   0.288   4.344   4.732  0.2396  0.3667 -0.1129
 9445SOL    HW139794   0.285   4.300   4.647  1.0731 -0.8190  0.4712
 9445SOL    HW239795   0.295   4.434   4.701 -1.4503 -0.0173 -1.6482
 9446SOL     OW39796   1.095   1.649   3.135 -0.1203 -0.4142  0.8675
 9446SOL    HW139797   1.103   1.577   3.073 -0.1244 -0.3636  0.8078
 9446SOL    HW239798   1.074   1.604   3.216  1.3549  3.8440  3.6191
 9447SOL     OW39799   4.214   2.310  11.767 -0.3831 -0.4953  0.1332
 9447SOL    HW139800   4.266   2.382  11.732  0.9169 -1.7377 -0.4898
 9447SOL    HW239801   4.276   2.267  11.826  0.7373 -0.1053 -0.7704
 9448SOL     OW39802   0.857   0.017  15.816  0.1275 -0.4276  0.2826
 9448SOL    HW139803   0.945   0.038  15.783 -0.2973  0.0859 -0.5055
 9448SOL    HW239804   0.802   0.083  15.775 -1.4583 -1.7978  0.2497
 9449SOL     OW39805   0.616   2.306  15.805  0.1296  0.1301  0.1737
 9449SOL    HW139806   0.605   2.396  15.774 -3.7153 -0.5361 -0.4194
 9449SOL    HW239807   0.638   2.324  15.896 -0.2359  1.7681 -0.0762
 9450SOL     OW39808   1.183   0.199   6.348 -0.0843  0.3630  0.1423
 9450SOL    HW139809   1.228   0.131   6.297 -1.3844  0.4858 -1.1512
 9450SOL    HW239810   1.168   0.259   6.276 -1.9550 -1.2815 -0.8427
 9451SOL     OW39811   3.216   3.486  10.055  0.0976  0.1761 -0.1421
 9451SOL    HW139812   3.289   3.548  10.065  2.0337 -1.8298 -1.6674
 9451SOL    HW239813   3.265   3.404  10.055 -0.3732 -0.1121 -1.8986
 9452SOL     OW39814   1.519   0.192   0.862 -0.1051  0.2297 -0.1864
 9452SOL    HW139815   1.578   0.239   0.920  0.2430 -1.0723  0.5102
 9452SOL    HW239816   1.563   0.170   0.780 -0.1121  0.6878 -0.3113
 9453SOL     OW39817   1.289   3.117   2.391  0.4128  0.1719 -0.0781
 9453SOL    HW139818   1.379   3.129   2.360  1.0081 -0.0235  1.5395
 9453SOL    HW239819   1.309   3.049   2.456  0.4868  0.0218 -0.2579
 9454SOL     OW39820   1.410   3.207   7.953  0.1218  0.3664 -0.4827
 9454SOL    HW139821   1.503   3.195   7.937  0.4213  2.2459 -0.1116
 9454SOL    HW239822   1.411   3.181   8.046 -0.9499  2.0111 -0.0023
 9455SOL     OW39823   2.160   4.610   5.063  0.2463 -0.4619 -0.0527
 9455SOL    HW139824   2.130   4.531   5.108  1.4352 -0.2903  1.0654
 9455SOL    HW239825   2.253   4.590   5.077  0.0819 -0.7741  0.6323
 9456SOL     OW39826   2.593   2.559  16.304  0.0540  0.6435 -0.1215
 9456SOL    HW139827   2.667   2.519  16.349 -1.4989  0.0644  1.9011
 9456SOL    HW239828   2.560   2.619  16.372  0.2675  0.1276  0.4322
 9457SOL     OW39829   0.815   3.132  12.577 -0.6586  0.1646 -0.1429
 9457SOL    HW139830   0.779   3.219  12.591 -3.3956 -1.0079  0.1078
 9457SOL    HW239831   0.753   3.091  12.638  1.4394 -0.2257  1.7457
 9458SOL     OW39832   2.721   1.245   4.061  0.5561 -0.0324 -0.0613
 9458SOL    HW139833   2.808   1.278   4.037  0.9241 -1.3737 -0.5501
 9458SOL    HW239834   2.697   1.295   4.140  1.3117  0.0031  0.1471
 9459SOL     OW39835   2.135   2.718   1.056  0.1171  1.1450  0.2196
 9459SOL    HW139836   2.136   2.758   1.143 -1.2217  1.9441 -0.1441
 9459SOL    HW239837   2.043   2.722   1.032  0.3178  0.2713 -0.6948
 9460SOL     OW39838   3.572   2.942   7.192  1.1488  0.6584 -0.2263
 9460SOL    HW139839   3.623   2.869   7.157  0.8415  0.4738 -0.2977
 9460SOL    HW239840   3.556   2.908   7.281  1.1013  1.9480  0.2619
 9461SOL     OW39841   0.675   0.287   7.350 -0.2279 -0.2072 -0.3837
 9461SOL    HW139842   0.713   0.302   7.436 -0.5581  0.7457 -0.3996
 9461SOL    HW239843   0.751   0.251   7.303  0.6006 -1.6393  2.0788
 9462SOL     OW39844   3.790   3.585   5.009 -0.2303 -0.2715  0.2882
 9462SOL    HW139845   3.810   3.611   5.099 -0.9189  0.2092  0.3023
 9462SOL    HW239846   3.864   3.617   4.959 -1.3250  0.3976 -0.9058
 9463SOL     OW39847   1.510   2.344   3.370 -0.1166  0.1617  0.7834
 9463SOL    HW139848   1.569   2.306   3.436  0.2437  0.0568  0.3977
 9463SOL    HW239849   1.484   2.268   3.318 -1.2094 -0.0005  1.5545
 9464SOL     OW39850   4.335   1.205  10.460 -0.1474 -0.2034 -0.0950
 9464SOL    HW139851   4.247   1.244  10.466  0.2077  0.7718 -1.1256
 9464SOL    HW239852   4.301   1.141  10.397  1.3887 -0.7455 -0.3514
 9465SOL     OW39853   2.905   0.683  10.255 -0.5319 -0.3503  0.2237
 9465SOL    HW139854   2.916   0.592  10.227 -1.4342  0.0417 -1.4309
 9465SOL    HW239855   2.938   0.686  10.345 -0.9118  3.6900  0.2493
 9466SOL     OW39856   3.528   2.340   1.548 -0.1090 -0.1897 -0.7689
 9466SOL    HW139857   3.498   2.274   1.611 -1.3519  2.1310  1.1087
 9466SOL    HW239858   3.485   2.319   1.465 -3.0229 -0.4406  0.7929
 9467SOL     OW39859   0.950   0.745   7.481 -0.2626  0.0818  0.1918
 9467SOL    HW139860   0.863   0.756   7.443 -0.7038  0.2251  1.2253
 9467SOL    HW239861   1.002   0.817   7.443 -1.2293  1.3840  1.3172
 9468SOL     OW39862   0.627   3.542  16.273 -0.1895 -0.3771 -0.3046
 9468SOL    HW139863   0.578   3.552  16.354  3.5019  1.1614  1.7163
 9468SOL    HW239864   0.681   3.620  16.286 -1.0901 -0.3292  3.1292
 9469SOL     OW39865   2.995   2.682  10.386 -0.3810  0.5588  0.0792
 9469SOL    HW139866   2.947   2.734  10.322  0.7096 -0.3212 -1.4331
 9469SOL    HW239867   3.082   2.669  10.347 -0.5452 -0.4528  0.0710
 9470SOL     OW39868   2.880   4.260   3.950 -0.2069  0.7312  0.1141
 9470SOL    HW139869   2.853   4.293   3.864  2.7095 -0.5632 -1.3252
 9470SOL    HW239870   2.951   4.200   3.927 -0.0762  0.7822  0.3734
 9471SOL     OW39871   3.216   2.384   1.019  0.1705  0.4473 -0.0638
 9471SOL    HW139872   3.214   2.288   1.019 -0.1498  0.4566 -2.5514
 9471SOL    HW239873   3.256   2.399   0.934  2.2089  0.5435  0.9259
 9472SOL     OW39874   0.605   1.738  14.003  0.2707 -0.3055  0.1228
 9472SOL    HW139875   0.587   1.821  14.046 -2.3194 -1.2277  0.8542
 9472SOL    HW239876   0.637   1.682  14.074  0.0259  0.2900  0.7036
 9473SOL     OW39877   1.506   3.322  12.144 -0.8307 -0.4956  0.5212
 9473SOL    HW139878   1.561   3.293  12.216  0.2630  0.8500  0.2366
 9473SOL    HW239879   1.464   3.397  12.186  1.4582  1.4684 -0.6567
 9474SOL     OW39880   0.174   0.717  15.426  0.6589  0.0749  0.0575
 9474SOL    HW139881   0.145   0.686  15.512  1.2496  1.1795  0.6538
 9474SOL    HW239882   0.222   0.795  15.455  0.0867 -0.1392  1.5396
 9475SOL     OW39883   3.652   2.192   3.866  0.0672 -0.1708 -0.7356
 9475SOL    HW139884   3.604   2.196   3.783 -0.2209  1.5573 -0.4781
 9475SOL    HW239885   3.633   2.276   3.906  0.6606  0.0791 -0.9783
 9476SOL     OW39886   4.616   1.906   4.260 -0.0117  0.5232 -0.4188
 9476SOL    HW139887   4.527   1.935   4.283  0.3136  1.6409 -0.5507
 9476SOL    HW239888   4.605   1.917   4.166  0.4665 -2.3287 -0.7992
 9477SOL     OW39889   0.187   3.869   9.376  0.7291  0.0032  0.1384
 9477SOL    HW139890   0.208   3.911   9.292  1.4243 -1.8226 -0.6039
 9477SOL    HW239891   0.146   3.794   9.333 -1.2673  0.6648  0.9046
 9478SOL     OW39892   4.150   2.787  11.004 -0.2030 -0.1560  0.2195
 9478SOL    HW139893   4.189   2.797  11.091 -3.0180 -1.8727  1.6909
 9478SOL    HW239894   4.180   2.702  10.973  1.3494  0.2938  0.4846
 9479SOL     OW39895   1.974   0.346  17.092 -0.2152 -0.1796 -0.0159
 9479SOL    HW139896   2.013   0.265  17.059  1.6492  0.7268 -0.0053
 9479SOL    HW239897   1.884   0.316  17.105 -0.1944 -0.8501 -1.3777
 9480SOL     OW39898   3.467   3.282   6.169 -0.0832 -0.0603 -0.1172
 9480SOL    HW139899   3.501   3.230   6.242  0.1360 -1.4323 -1.2014
 9480SOL    HW239900   3.407   3.220   6.126  0.9223  0.6708 -2.5816
 9481SOL     OW39901   2.943   4.388   8.950 -0.2000  0.3200 -0.9463
 9481SOL    HW139902   3.022   4.397   8.897 -0.3375  1.5352 -0.9485
 9481SOL    HW239903   2.975   4.402   9.039 -1.4069  3.8512 -1.0718
 9482SOL     OW39904   0.323   0.840   8.536  0.1799  0.1209 -0.1263
 9482SOL    HW139905   0.287   0.752   8.546  0.3673 -0.1245 -1.6594
 9482SOL    HW239906   0.418   0.836   8.550  0.0766 -0.0613  0.5119
 9483SOL     OW39907   1.977   2.172   4.320 -0.6849 -0.3669 -0.1759
 9483SOL    HW139908   1.987   2.081   4.350  0.0368  0.4403  2.0588
 9483SOL    HW239909   1.887   2.194   4.346 -1.5649 -0.2466 -3.3608
 9484SOL     OW39910   3.808   4.185   9.710  0.1582  0.3558  0.1246
 9484SOL    HW139911   3.896   4.223   9.715 -0.5528  2.0554 -0.6316
 9484SOL    HW239912   3.812   4.111   9.771  0.3123 -0.9660 -1.4889
 9485SOL     OW39913   1.240   0.634   3.732  0.3719 -0.0165 -0.1006
 9485SOL    HW139914   1.241   0.607   3.823 -0.4158  2.0081  0.4969
 9485SOL    HW239915   1.195   0.560   3.692  0.6286 -0.5208  0.5412
 9486SOL     OW39916   0.769   3.799  17.066 -0.1300 -0.5262  0.4702
 9486SOL    HW139917   0.828   3.874  17.051 -2.8719  1.2228 -1.5001
 9486SOL    HW239918   0.781   3.779  17.159 -2.3704 -1.2417  0.5987
 9487SOL     OW39919   2.169   4.104   2.779  0.1497 -0.0554 -0.4796
 9487SOL    HW139920   2.121   4.037   2.731 -0.6073 -0.8457  1.3732
 9487SOL    HW239921   2.097   4.157   2.811 -1.0520 -1.5954 -0.6232
 9488SOL     OW39922   4.183   3.938   2.217  0.4757  0.1832  0.2987
 9488SOL    HW139923   4.137   4.021   2.203  0.8863  0.2088 -0.8670
 9488SOL    HW239924   4.224   3.928   2.131 -1.7323  0.6475 -0.8215
 9489SOL     OW39925   3.230   0.160  15.746 -0.9405 -0.1998  0.3550
 9489SOL    HW139926   3.235   0.066  15.760  2.3409 -0.1431 -0.3755
 9489SOL    HW239927   3.137   0.180  15.760 -1.1435 -0.5927 -0.3818
 9490SOL     OW39928   0.981   2.829   6.390  0.1667  0.2810 -0.7051
 9490SOL    HW139929   1.037   2.771   6.442 -0.7606  1.1552  1.2752
 9490SOL    HW239930   0.900   2.837   6.440  0.6325  1.5877 -0.1590
 9491SOL     OW39931   0.076   2.174   4.276 -0.6297 -0.3070  0.4800
 9491SOL    HW139932   0.144   2.128   4.326  0.1705 -0.3205 -0.6334
 9491SOL    HW239933   4.720   2.121   4.279 -0.7540 -0.2207 -1.2085
 9492SOL     OW39934   3.908   1.543   2.892  0.2732  0.0524  0.3343
 9492SOL    HW139935   3.918   1.589   2.809  0.0322 -1.0217 -0.2891
 9492SOL    HW239936   3.964   1.466   2.881 -1.3739 -0.9507 -1.0611
 9493SOL     OW39937   1.019   0.396   4.660  0.0093 -0.5420  0.9599
 9493SOL    HW139938   1.090   0.404   4.724  2.6515  1.3150 -2.1794
 9493SOL    HW239939   0.994   0.304   4.667  0.3990 -0.6246  1.2789
 9494SOL     OW39940   0.322   1.258   4.770  0.0986 -0.1437  0.1066
 9494SOL    HW139941   0.380   1.233   4.842  0.8802 -1.8822 -1.1105
 9494SOL    HW239942   0.300   1.346   4.802  0.2719 -0.9974  2.6263
 9495SOL     OW39943   1.634   1.256  10.973 -0.3634  0.1997 -0.9786
 9495SOL    HW139944   1.633   1.184  10.910 -2.1594 -0.3127 -0.3713
 9495SOL    HW239945   1.573   1.319  10.934 -0.2525 -0.2606 -1.8877
 9496SOL     OW39946   3.138   2.236   3.363  0.6078 -0.3131 -0.0410
 9496SOL    HW139947   3.146   2.193   3.278 -0.0755 -1.9628  0.7443
 9496SOL    HW239948   3.074   2.178   3.405  0.9174 -1.0680 -0.6238
 9497SOL     OW39949   0.440   2.374  15.004  0.6700  0.8521  0.0615
 9497SOL    HW139950   0.407   2.284  15.007  3.6232 -0.2067  0.9235
 9497SOL    HW239951   0.357   2.418  15.023 -0.6082 -1.6894  0.3759
 9498SOL     OW39952   0.175   2.890   4.863  0.5292 -0.2861  0.9082
 9498SOL    HW139953   0.086   2.919   4.883  0.3700 -1.2775  1.6237
 9498SOL    HW239954   0.207   2.969   4.819 -3.3166  0.8288  0.1460
 9499SOL     OW39955   1.704   0.917   3.856 -0.0487 -0.0692  0.0519
 9499SOL    HW139956   1.639   0.861   3.899  0.0723  1.4777  2.2368
 9499SOL    HW239957   1.649   0.982   3.813  0.0028 -0.9217 -1.3009
 9500SOL     OW39958   2.842   1.346   4.912 -0.2735  0.6562 -0.2263
 9500SOL    HW139959   2.920   1.316   4.960 -1.0575 -2.2852 -0.8113
 9500SOL    HW239960   2.781   1.279   4.944 -0.8104  1.3344  0.1703
 9501SOL     OW39961   4.141   1.245   7.166  0.2998 -0.5164  0.1893
 9501SOL    HW139962   4.206   1.177   7.182 -0.9851 -1.4252  1.5096
 9501SOL    HW239963   4.061   1.194   7.160 -0.9661  1.7573 -2.3167
 9502SOL     OW39964   0.055   3.872   6.669 -0.0499 -0.0650  0.0203
 9502SOL    HW139965   0.021   3.783   6.682  1.2654 -0.6782 -0.6413
 9502SOL    HW239966   4.696   3.917   6.689 -0.0731 -0.3742  0.6338
 9503SOL     OW39967   4.394   0.940   1.596  0.1991  0.0794  0.4465
 9503SOL    HW139968   4.453   1.002   1.640  0.7636 -2.1847  2.9017
 9503SOL    HW239969   4.410   0.858   1.643  3.0248 -0.7164 -1.9042
 9504SOL     OW39970   2.233   3.387  13.201 -0.2355 -0.2701  0.0407
 9504SOL    HW139971   2.315   3.392  13.151 -1.5494  1.0575 -1.9742
 9504SOL    HW239972   2.246   3.310  13.257 -2.3485 -0.8225 -0.2411
 9505SOL     OW39973   3.726   3.610   6.970 -0.1371 -0.4298 -0.0653
 9505SOL    HW139974   3.753   3.676   6.906  1.0025  0.4064  1.2905
 9505SOL    HW239975   3.720   3.532   6.915  0.0007 -0.2667 -0.3134
 9506SOL     OW39976   4.500   2.125   2.595  0.0419  0.8997  0.2771
 9506SOL    HW139977   4.421   2.155   2.638  1.2723 -1.1206  3.8981
 9506SOL    HW239978   4.474   2.044   2.552  0.1957  0.6674  0.6214
 9507SOL     OW39979   1.738   0.126   3.338  0.0176 -0.4269 -0.1347
 9507SOL    HW139980   1.728   0.031   3.344 -0.9205 -0.2530  1.1547
 9507SOL    HW239981   1.738   0.149   3.431  0.0749  2.5857 -0.8788
 9508SOL     OW39982   0.703   3.058   3.785  0.0249 -0.4351 -0.1635
 9508SOL    HW139983   0.649   3.118   3.837 -0.6636 -1.6066  0.4844
 9508SOL    HW239984   0.665   3.065   3.697 -0.4366  0.2556  0.0881
 9509SOL     OW39985   4.308   4.222   3.881  0.2396  0.6512 -0.0936
 9509SOL    HW139986   4.291   4.144   3.934 -1.7057  0.2160 -1.3614
 9509SOL    HW239987   4.261   4.201   3.800  1.6641 -1.7206 -0.3108
 9510SOL     OW39988   4.635   1.695  11.260  0.4479  0.0252  0.3580
 9510SOL    HW139989   4.704   1.754  11.228 -0.4973  0.3509 -1.0502
 9510SOL    HW239990   4.682   1.670  11.340 -0.6418  1.4574  1.4459
 9511SOL     OW39991   1.730   2.206   4.443 -0.1959 -0.3731 -0.3354
 9511SOL    HW139992   1.676   2.150   4.499 -1.1736  1.5041  0.5878
 9511SOL    HW239993   1.714   2.289   4.486  1.0772 -0.0289 -0.5280
 9512SOL     OW39994   0.192   4.134   1.984 -0.5463  0.2532  0.1929
 9512SOL    HW139995   0.189   4.198   1.914 -2.5922 -4.2678 -3.8077
 9512SOL    HW239996   0.276   4.158   2.024  0.0946 -1.4320 -0.1082
 9513SOL     OW39997   2.126   2.115   6.566 -0.2774 -0.0824 -0.3794
 9513SOL    HW139998   2.086   2.034   6.597  0.8645 -0.3915  0.2972
 9513SOL    HW239999   2.111   2.099   6.473 -2.3539 -1.9589  0.2895
 9514SOL     OW40000   3.628   0.510   3.580 -0.2397 -0.0306  0.6884
 9514SOL    HW140001   3.624   0.491   3.486  2.7163 -2.7042  1.0859
 9514SOL    HW240002   3.719   0.487   3.600 -0.3616 -0.8107  0.3363
 9515SOL     OW40003   0.865   2.620   7.272 -0.3251  0.3763  0.1597
 9515SOL    HW140004   0.830   2.615   7.182  0.6180  1.5457 -0.2645
 9515SOL    HW240005   0.823   2.699   7.307 -0.8106  1.6914 -3.3582
 9516SOL     OW40006   4.161   0.827   2.926  0.5187  0.7757  0.1218
 9516SOL    HW140007   4.235   0.819   2.867 -0.8015  0.3297 -1.4752
 9516SOL    HW240008   4.093   0.781   2.876  1.0511 -2.0635  2.0262
 9517SOL     OW40009   3.877   1.748  13.720  0.6860 -0.2476 -0.0283
 9517SOL    HW140010   3.858   1.657  13.699  1.5718 -0.6441  0.8426
 9517SOL    HW240011   3.790   1.787  13.729  0.9991  0.5810 -0.6255
 9518SOL     OW40012   3.255   2.409   7.933  0.1473  0.1732  0.2984
 9518SOL    HW140013   3.263   2.452   8.018 -0.4322 -2.6565  1.7704
 9518SOL    HW240014   3.333   2.355   7.937 -1.3269 -2.0143 -0.4755
 9519SOL     OW40015   3.704   1.738  11.439  0.3038 -0.4111  0.2950
 9519SOL    HW140016   3.794   1.746  11.408 -0.0440 -0.9805 -0.8572
 9519SOL    HW240017   3.691   1.831  11.460 -0.9885 -0.2147 -1.3771
 9520SOL     OW40018   2.618   3.057   1.857  0.1403 -0.3248  0.5129
 9520SOL    HW140019   2.599   2.967   1.833  0.6700  0.1168 -1.5291
 9520SOL    HW240020   2.602   3.065   1.951  1.1522  2.8229  0.4469
 9521SOL     OW40021   2.267   0.659   1.097 -0.0537  0.4187 -0.0768
 9521SOL    HW140022   2.270   0.579   1.150 -1.4922  2.0821  2.4862
 9521SOL    HW240023   2.202   0.642   1.029 -0.0915 -3.0821  0.8476
 9522SOL     OW40024   3.261   2.604   1.438  0.2517  0.2952 -0.1410
 9522SOL    HW140025   3.175   2.579   1.404 -0.0238  1.2964 -0.1706
 9522SOL    HW240026   3.317   2.541   1.393  0.4175 -0.6164  1.3472
 9523SOL     OW40027   3.530   2.357   2.631  0.2295 -0.0559  0.6190
 9523SOL    HW140028   3.553   2.415   2.558 -0.1296 -0.1007  0.4744
 9523SOL    HW240029   3.510   2.421   2.699  0.7117 -1.4834  2.1130
 9524SOL     OW40030   0.785   0.550  12.760 -0.6834  0.3875 -0.3070
 9524SOL    HW140031   0.742   0.572  12.843  2.2460 -0.1897  1.3261
 9524SOL    HW240032   0.849   0.621  12.758 -2.6837  2.1896 -0.3782
 9525SOL     OW40033   0.467   1.003  17.079 -0.3437 -0.0486 -0.4540
 9525SOL    HW140034   0.410   1.027  17.151 -0.1777 -3.5032  0.8434
 9525SOL    HW240035   0.416   0.940  17.028 -1.7567  1.0050 -0.3436
 9526SOL     OW40036   0.523   2.833   1.238 -0.2844  0.3298 -0.0474
 9526SOL    HW140037   0.554   2.890   1.308 -0.6113 -0.8949  1.0914
 9526SOL    HW240038   0.575   2.753   1.245 -2.2268 -0.9930 -0.5610
 9527SOL     OW40039   2.766   2.973   9.091  0.1141 -0.1863  0.3492
 9527SOL    HW140040   2.783   3.024   9.012  2.4137  0.6722  1.4116
 9527SOL    HW240041   2.800   2.894   9.051 -1.7181 -0.1272 -1.3094
 9528SOL     OW40042   3.142   0.271  11.631  0.2846  0.0193 -0.0638
 9528SOL    HW140043   3.064   0.245  11.583  1.3553 -0.2089 -1.6826
 9528SOL    HW240044   3.211   0.239  11.573 -1.7936 -0.2112 -2.3738
 9529SOL     OW40045   4.367   2.365   9.007  1.0871  0.0919 -0.5222
 9529SOL    HW140046   4.416   2.287   9.030  0.0118  0.1432  1.9754
 9529SOL    HW240047   4.380   2.432   9.074 -0.3749  2.6466 -2.7739
 9530SOL     OW40048   3.886   0.515   4.567 -0.0426 -0.0520 -0.0292
 9530SOL    HW140049   3.889   0.571   4.490 -0.2167  0.1892  0.1370
 9530SOL    HW240050   3.808   0.539   4.617  0.0791 -1.0841  0.6429
 9531SOL     OW40051   3.857   3.556  14.094  0.5437 -0.1026 -0.0694
 9531SOL    HW140052   3.899   3.604  14.165  1.8620  0.1607 -1.0247
 9531SOL    HW240053   3.899   3.471  14.108  1.4399  0.3355 -0.0829
 9532SOL     OW40054   0.876   3.613   6.721  0.2118  0.5726 -0.3995
 9532SOL    HW140055   0.930   3.536   6.702  1.1665  1.0363  0.4700
 9532SOL    HW240056   0.787   3.591   6.694  0.6536 -3.9161  1.8010
 9533SOL     OW40057   4.545   0.435   8.072  0.3742  0.4244 -0.7800
 9533SOL    HW140058   4.501   0.518   8.090  0.0445  0.4804 -1.8229
 9533SOL    HW240059   4.634   0.453   8.041  0.9465  2.3937  2.0545
 9534SOL     OW40060   0.802   1.199  11.276 -0.2502  0.5532 -0.0917
 9534SOL    HW140061   0.892   1.213  11.306  1.4837 -3.6785 -3.2596
 9534SOL    HW240062   0.801   1.272  11.214  0.3942  0.1284 -0.6068
 9535SOL     OW40063   0.799   0.578   5.202 -0.2120  0.4324 -0.4853
 9535SOL    HW140064   0.776   0.640   5.272  0.5393 -0.2291  0.3446
 9535SOL    HW240065   0.781   0.638   5.130 -3.4767 -2.2489 -1.8448
 9536SOL     OW40066   4.310   0.200   7.424  0.1045  0.1936  0.4550
 9536SOL    HW140067   4.239   0.209   7.488  0.0538  2.7322  0.0278
 9536SOL    HW240068   4.298   0.270   7.361  1.5044  1.1908  1.2959
 9537SOL     OW40069   2.739   2.497  15.719 -0.4070  0.3262  0.2587
 9537SOL    HW140070   2.781   2.427  15.669 -0.7569 -1.0210  1.8438
 9537SOL    HW240071   2.711   2.557  15.650 -2.7123  1.9375  2.6041
 9538SOL     OW40072   0.232   2.911  10.458  0.8166  0.5764  0.1800
 9538SOL    HW140073   0.315   2.880  10.494  1.1489 -0.6367 -1.6504
 9538SOL    HW240074   0.246   3.006  10.464  0.2955  0.7092 -0.7068
 9539SOL     OW40075   2.970   1.971   2.625 -0.3693  0.8614 -0.1147
 9539SOL    HW140076   2.942   1.992   2.536 -1.6531  1.1788  0.3694
 9539SOL    HW240077   2.895   1.917   2.648  0.1730 -0.4966 -1.5090
 9540SOL     OW40078   2.050   2.166   3.459 -0.2305  0.2482 -0.8117
 9540SOL    HW140079   1.990   2.187   3.387 -0.5428 -0.2010 -0.6807
 9540SOL    HW240080   2.057   2.239   3.521  0.1423 -1.7151  1.4840
 9541SOL     OW40081   1.540   4.417   8.272  0.5219  0.6414  0.5676
 9541SOL    HW140082   1.560   4.509   8.260  1.6972  0.4544  1.0772
 9541SOL    HW240083   1.623   4.394   8.315  1.2867  1.5632 -0.4226
 9542SOL     OW40084   0.302   0.668   5.181 -0.0001  0.1086  0.1071
 9542SOL    HW140085   0.214   0.674   5.143  1.0002 -0.0246 -2.2258
 9542SOL    HW240086   0.345   0.613   5.116  1.3437  1.4623 -0.1517
 9543SOL     OW40087   4.208   2.865  11.562  0.0625 -0.5025 -0.1772
 9543SOL    HW140088   4.273   2.912  11.509 -0.7630  0.0219 -0.7234
 9543SOL    HW240089   4.182   2.808  11.490  0.7862  0.2270 -1.0268
 9544SOL     OW40090   1.394   3.108   8.212 -0.6023 -0.3172 -0.3429
 9544SOL    HW140091   1.319   3.150   8.254 -0.5770  1.2113 -1.8284
 9544SOL    HW240092   1.419   3.037   8.271  2.2378  0.6715 -0.3596
 9545SOL     OW40093   0.218   3.725   0.959  0.3517  0.1883 -0.1200
 9545SOL    HW140094   0.298   3.699   0.913  1.6636 -3.7164  4.4530
 9545SOL    HW240095   0.210   3.818   0.939 -2.9493 -0.7123 -3.0764
 9546SOL     OW40096   4.001   1.461   5.559  0.0924 -0.0579 -0.0048
 9546SOL    HW140097   4.045   1.544   5.543 -1.9145  0.5184 -2.4732
 9546SOL    HW240098   3.915   1.488   5.529 -1.0760 -3.8753 -0.1539
 9547SOL     OW40099   4.293   2.818   2.105  0.0348 -0.1319  0.0208
 9547SOL    HW140100   4.233   2.747   2.129  1.8492 -1.1602  1.4802
 9547SOL    HW240101   4.346   2.772   2.040  1.2334 -0.6947  1.3949
 9548SOL     OW40102   0.876   0.406  13.084  0.3911  0.6290  0.2140
 9548SOL    HW140103   0.954   0.426  13.032  1.3341  2.2628  2.2711
 9548SOL    HW240104   0.801   0.406  13.025  1.5397 -0.5456 -1.2572
 9549SOL     OW40105   3.574   2.569   6.415  0.5136  0.8826  0.4187
 9549SOL    HW140106   3.647   2.606   6.465  1.9503  1.6030 -2.1949
 9549SOL    HW240107   3.618   2.500   6.366  0.7997 -0.5412  2.6879
 9550SOL     OW40108   3.787   4.266  16.979  0.4736 -0.1023  0.2763
 9550SOL    HW140109   3.728   4.326  16.934  0.6662 -0.3105 -0.2577
 9550SOL    HW240110   3.773   4.185  16.930  0.9394 -0.3814  0.5961
 9551SOL     OW40111   3.824   1.578   0.140 -0.4420  0.3374  0.2839
 9551SOL    HW140112   3.897   1.559   0.200 -1.1138  0.9597  1.2933
 9551SOL    HW240113   3.753   1.525   0.175  1.1044 -1.0929  1.2836
 9552SOL     OW40114   1.635   4.568   5.262 -0.4452 -0.1011  0.2084
 9552SOL    HW140115   1.718   4.614   5.247 -0.5704  0.4684  1.2779
 9552SOL    HW240116   1.663   4.507   5.330 -0.8221 -0.5657 -0.0571
 9553SOL     OW40117   3.862   3.886   6.050 -0.8393 -0.6513 -0.2541
 9553SOL    HW140118   3.861   3.919   6.140  1.4956  1.4213 -1.0093
 9553SOL    HW240119   3.769   3.894   6.027 -1.4535  0.2460  2.4534
 9554SOL     OW40120   4.258   1.294   3.184 -0.2014 -0.2432  0.4928
 9554SOL    HW140121   4.223   1.205   3.185  2.2947 -1.2681 -2.6510
 9554SOL    HW240122   4.270   1.309   3.278  0.3406  0.4213  0.3201
 9555SOL     OW40123   4.560   1.456  15.393  0.4094  0.8822  0.1606
 9555SOL    HW140124   4.645   1.418  15.371  0.1475 -0.2962  1.1377
 9555SOL    HW240125   4.510   1.378  15.418 -0.3436  0.3815 -2.8931
 9556SOL     OW40126   2.943   2.100   5.041 -0.6256  0.7120 -0.1698
 9556SOL    HW140127   2.978   2.171   4.988 -0.3801  2.7957  2.7766
 9556SOL    HW240128   2.865   2.077   4.990 -1.8241  0.1462  1.8968
 9557SOL     OW40129   1.946   3.010   4.442  0.4843  0.0242  0.4740
 9557SOL    HW140130   1.861   3.022   4.483  0.1287  0.5727 -0.4249
 9557SOL    HW240131   1.936   3.065   4.364  0.2561 -1.0732 -0.2559
 9558SOL     OW40132   1.292   2.423   7.774 -0.1674 -0.1848  0.3242
 9558SOL    HW140133   1.234   2.376   7.713  0.0387 -1.4733  1.1181
 9558SOL    HW240134   1.267   2.377   7.854 -2.3018 -0.3403 -0.4069
 9559SOL     OW40135   1.076   2.190   1.249  0.4520 -0.5604 -0.4725
 9559SOL    HW140136   1.134   2.260   1.220  0.5928  0.1674  1.6378
 9559SOL    HW240137   1.020   2.162   1.176  0.2636 -2.7146  0.5061
 9560SOL     OW40138   2.905   0.784   3.558  0.3263 -0.4612  0.0002
 9560SOL    HW140139   2.985   0.744   3.524  1.0466  2.2462 -1.4951
 9560SOL    HW240140   2.871   0.715   3.616  1.4310 -0.4950  0.6072
 9561SOL     OW40141   0.889   0.860   0.039  0.2911  0.3841  0.2224
 9561SOL    HW140142   0.888   0.956   0.045 -0.1900  0.3101  1.2733
 9561SOL    HW240143   0.831   0.851  17.657  0.4208 -0.3237  0.2101
 9562SOL     OW40144   4.227   0.379   4.457  0.0129  0.6695  1.2577
 9562SOL    HW140145   4.175   0.354   4.534  2.5395 -1.4309  2.3168
 9562SOL    HW240146   4.170   0.435   4.406 -0.0710 -0.8934 -0.3690
 9563SOL     OW40147   0.972   4.614   6.313  0.0183 -0.2189 -0.1035
 9563SOL    HW140148   0.936   4.624   6.401 -2.1571 -0.6917 -0.9457
 9563SOL    HW240149   1.059   4.581   6.339 -0.5406 -1.2347  0.4943
 9564SOL     OW40150   2.149   2.767   2.497  0.3020  0.3835 -0.0427
 9564SOL    HW140151   2.234   2.812   2.497  1.8590 -2.5456 -0.8245
 9564SOL    HW240152   2.159   2.714   2.417 -0.0630 -1.3828  1.0993
 9565SOL     OW40153   3.076   1.333  10.432  0.0422 -0.1145 -0.8148
 9565SOL    HW140154   3.114   1.262  10.483 -0.0747 -0.2773 -0.9527
 9565SOL    HW240155   3.008   1.378  10.482 -0.4573 -1.8195  0.0272
   4.72283   4.72283  17.69328
