Membrane in water
40155
    1TCq1    O1    1   1.002   4.616  10.690  0.0104  0.1107  0.1496
    1TCq1    C1    2   1.100   4.695  10.745  0.6003  0.3264 -0.8014
    1TCq1    O2    3   1.209   4.661  10.779 -0.6860 -0.1335  0.1816
    1TCq1    C2    4   1.031   0.075  10.807  0.2365  0.8512 -0.4923
    1TCq1    C3    5   0.953   0.164  10.733 -0.8547  0.0858 -0.4820
    1TCq1    C4    6   0.871   0.240  10.808  0.1640  0.4635  0.1507
    1TCq1    C5    7   0.859   0.237  10.943  0.4021  0.1125  0.2789
    1TCq1    C6    8   0.936   0.155  11.014 -0.6148 -0.0735  0.6690
    1TCq1    C7    9   1.025   0.071  10.943  0.2613  0.0693 -0.0886
    1TCq1    C8   10   0.923   0.155  11.156  0.0820  0.5005  0.3860
    1TCq1    O4   11   0.866   0.248  11.211  0.3104 -0.2422 -0.2279
    1TCq1    C9   12   0.781   0.327  10.736  0.3494 -0.4793 -0.4141
    1TCq1    O5   13   0.723   0.416  10.805 -0.3951  0.1717  0.4244
    1TCq1    O6   14   0.788   0.332  10.606  0.2881  0.3074  0.4304
    1TCq1    H1   15   0.913   4.656  10.700  1.1510  3.2138 -2.0522
    1TCq1    H2   16   0.949   0.173  10.625 -3.2096 -0.9308 -0.4845
    1TCq1    H3   17   0.784   0.301  10.986  1.4671 -0.0720  2.3729
    1TCq1    H4   18   1.086   4.717  10.991  0.4626  0.8487  0.9040
    2MPD2     C   19   1.037   4.715  11.639 -0.2467  0.4041 -0.6131
    2MPD2    C1   20   0.960   0.097  11.594 -0.4245 -0.3434 -0.6284
    2MPD2    C2   21   0.931   0.116  11.461  0.7750  0.4829  0.3934
    2MPD2    C3   22   0.988   0.030  11.363  0.1468 -0.7550  0.2923
    2MPD2    C4   23   1.056   4.645  11.415 -0.2905 -0.0180  0.0363
    2MPD2    C5   24   1.067   4.619  11.550  0.3702  0.0256 -0.1432
    2MPD2     H   25   0.868   0.199  11.432 -0.1377 -0.4269 -0.2408
    2MPD2    H1   26   1.089   4.566  11.349  1.4486  0.8712 -0.1542
    2MPD2    H2   27   1.055   4.687  11.742 -0.6079  1.2462 -0.3226
    2MPD2    H3   28   1.131   4.538  11.581 -0.7753 -1.0054 -0.5095
    2MPD2     N   29   0.973   0.049  11.226  0.3702  0.1297  0.5475
    2MPD2    H5   30   1.024   4.699  11.176 -0.9509  0.0969 -0.7627
    2MPD2    N1   31   0.896   0.182  11.690  0.4501  0.0513 -0.3056
    2MPD2    H7   32   0.854   0.265  11.651 -1.7010 -1.0422 -0.3392
    3TCq1    O1   33   0.149   0.713  10.833  0.0307  0.1456 -0.6581
    3TCq1    C1   34   0.256   0.783  10.795  0.1544  0.1586 -0.6633
    3TCq1    O2   35   0.292   0.788  10.677  0.5376  0.1927 -0.3777
    3TCq1    C2   36   0.301   0.878  10.896  0.8929  0.4850  0.7062
    3TCq1    C3   37   0.395   0.969  10.852  0.0398  1.2192  0.3340
    3TCq1    C4   38   0.414   1.082  10.926  0.0098 -1.0442  0.2061
    3TCq1    C5   39   0.329   1.114  11.027 -0.1262  0.7585 -0.3163
    3TCq1    C6   40   0.237   1.025  11.072 -0.3618 -0.4125 -0.1127
    3TCq1    C7   41   0.224   0.901  11.007  0.1924 -0.1584 -0.0668
    3TCq1    C8   42   0.157   1.044  11.187  0.5796  0.7636  0.3622
    3TCq1    O4   43   0.115   0.939  11.239  0.4197  0.6288 -0.0373
    3TCq1    C9   44   0.507   1.186  10.885 -0.3006 -0.3400 -0.9085
    3TCq1    O5   45   0.579   1.148  10.788  0.4512  0.1844  0.0466
    3TCq1    O6   46   0.474   1.305  10.912  0.5818  0.2604 -0.2532
    3TCq1    H1   47   0.169   0.692  10.927  0.0533  1.2519 -0.4153
    3TCq1    H2   48   0.458   0.944  10.767  0.4655  0.1083  0.9741
    3TCq1    H3   49   0.361   1.201  11.083  2.2535 -0.0578 -0.3945
    3TCq1    H4   50   0.147   0.830  11.034  0.2463  0.0002  0.5089
    4MPD2     C   51   4.591   1.348  11.487  0.5178  0.3330 -0.5509
    4MPD2    C1   52   4.653   1.421  11.384  0.5015  0.2212  0.3688
    4MPD2    C2   53   0.024   1.364  11.306  0.7985 -0.1293  0.0204
    4MPD2    C3   54   0.046   1.227  11.310  0.1768  0.1109  0.6083
    4MPD2    C4   55   4.698   1.151  11.403 -0.5738  0.0348 -0.2114
    4MPD2    C5   56   4.607   1.210  11.492  0.0998  0.2553  0.5137
    4MPD2     H   57   0.086   1.426  11.241  0.1879 -0.0727 -0.5114
    4MPD2    H1   58   4.707   1.043  11.413 -4.3420 -0.4042 -1.5345
    4MPD2    H2   59   4.520   1.393  11.555 -0.5524  0.6443 -1.8859
    4MPD2    H3   60   4.557   1.152  11.568 -0.9166 -1.1526 -1.2186
    4MPD2     N   61   0.131   1.176  11.213 -0.3948 -0.0946 -0.6567
    4MPD2    H5   62   0.173   1.243  11.149 -2.5289 -0.4900 -2.4969
    4MPD2    N1   63   4.634   1.559  11.366 -0.0986  0.1125  0.7077
    4MPD2    H7   64   4.678   1.595  11.282 -1.4281  1.5184  0.6216
    5TCq1    O1   65   0.037   2.860   9.408  0.4220 -0.1664 -0.2338
    5TCq1    C1   66   0.128   2.919   9.487  0.0792 -0.1905  0.1784
    5TCq1    O2   67   0.204   3.009   9.451 -0.2727 -0.0322  0.4300
    5TCq1    C2   68   0.160   2.820   9.593 -0.4495  0.3613 -0.9925
    5TCq1    C3   69   0.064   2.743   9.647 -0.2625 -0.2772  0.9205
    5TCq1    C4   70   0.083   2.674   9.759  0.2841  0.0723  0.9255
    5TCq1    C5   71   0.208   2.654   9.808 -0.3268  0.0233 -0.3390
    5TCq1    C6   72   0.302   2.740   9.756  0.0480 -0.0854 -1.2625
    5TCq1    C7   73   0.285   2.828   9.656  0.8981  0.0312  0.1226
    5TCq1    C8   74   0.440   2.717   9.804  0.7002  0.5691 -0.1732
    5TCq1    O4   75   0.462   2.617   9.873 -0.7299  0.6317 -0.0784
    5TCq1    C9   76   4.697   2.605   9.826  0.3934  0.1620 -0.4228
    5TCq1    O5   77   4.585   2.609   9.763 -0.1706  0.0539 -0.6389
    5TCq1    O6   78   4.702   2.543   9.931 -0.3839 -0.2785 -0.2076
    5TCq1    H1   79   0.007   2.768   9.425 -1.1792  0.1493 -1.4056
    5TCq1    H2   80   4.690   2.742   9.600 -0.7712  2.6518  1.8987
    5TCq1    H3   81   0.226   2.585   9.890  1.3130  1.5804  0.6195
    5TCq1    H4   82   0.364   2.889   9.615  1.7190 -0.1129  1.5079
    6MPD2     C   83   0.719   2.959   9.803 -0.1449 -0.2874 -0.0588
    6MPD2    C1   84   0.650   2.847   9.843  0.0917  0.2018 -0.1265
    6MPD2    C2   85   0.709   2.766   9.943 -0.8642 -0.3549 -0.2594
    6MPD2    C3   86   0.833   2.792   9.994 -0.8026 -0.3452 -0.0061
    6MPD2    C4   87   0.901   2.901   9.941 -0.0417  0.3719  0.2784
    6MPD2    C5   88   0.842   2.982   9.857 -0.2057  0.3345 -0.3297
    6MPD2     H   89   0.650   2.682   9.978  0.1310 -0.9412 -0.0173
    6MPD2    H1   90   0.999   2.931   9.976  1.4355 -1.3645 -2.3548
    6MPD2    H2   91   0.686   3.019   9.720 -0.3744  0.6581  0.7214
    6MPD2    H3   92   0.896   3.069   9.821  0.5318 -0.0402 -0.1221
    6MPD2     N   93   0.874   2.707  10.105 -0.1879  0.2921  0.3037
    6MPD2    H5   94   0.816   2.631  10.136  1.4079 -0.4395  1.4681
    6MPD2    N1   95   0.521   2.824   9.782 -0.0114  0.1783  0.0261
    6MPD2    H7   96   0.479   2.906   9.739  0.3160  0.4937  0.3099
    7TCq1    O1   97   2.282   2.634  13.196  0.2533  0.1599 -0.4256
    7TCq1    C1   98   2.290   2.582  13.073 -0.2845 -1.1296 -0.7988
    7TCq1    O2   99   2.303   2.636  12.963  0.6463 -0.3365 -0.0585
    7TCq1    C2  100   2.237   2.445  13.085  0.0872 -0.9019 -0.3068
    7TCq1    C3  101   2.162   2.391  12.984  0.7591  0.3108  0.0094
    7TCq1    C4  102   2.141   2.252  12.980  0.0198 -0.3280  0.4256
    7TCq1    C5  103   2.209   2.160  13.057  0.0722 -0.0763  0.1056
    7TCq1    C6  104   2.285   2.217  13.147 -0.1307 -0.2568  0.4527
    7TCq1    C7  105   2.303   2.353  13.167 -0.3664  0.0525 -0.4723
    7TCq1    C8  106   2.365   2.128  13.230  0.1134 -0.0797 -0.1238
    7TCq1    O4  107   2.356   2.011  13.192  0.5099 -0.2948  0.4870
    7TCq1    C9  108   2.069   2.206  12.861  0.0793  0.1758 -0.1299
    7TCq1    O5  109   2.015   2.293  12.790  0.3375  0.8036  0.2379
    7TCq1    O6  110   2.101   2.089  12.823  0.6224 -0.3929  0.8169
    7TCq1    H1  111   2.237   2.585  13.268 -0.4015 -0.8054 -1.4829
    7TCq1    H2  112   2.131   2.458  12.904 -1.5104  1.5487  1.9480
    7TCq1    H3  113   2.227   2.062  13.015 -1.3236  0.3640 -1.5211
    7TCq1    H4  114   2.368   2.390  13.246 -1.8907  2.2509 -0.2303
    8MPD2     C  115   2.668   1.976  13.618  0.3018 -0.0427 -0.3077
    8MPD2    C1  116   2.623   1.905  13.509 -0.0114  0.1740  0.5652
    8MPD2    C2  117   2.555   1.972  13.405  0.3938 -0.1228  0.0525
    8MPD2    C3  118   2.529   2.104  13.415  0.1403  0.6799  0.4282
    8MPD2    C4  119   2.587   2.173  13.520  0.1844 -0.2651  0.1915
    8MPD2    C5  120   2.660   2.111  13.613  0.5806  0.0030 -0.1175
    8MPD2     H  121   2.530   1.921  13.313 -1.3953 -0.5129  0.7631
    8MPD2    H1  122   2.572   2.280  13.521  0.2033 -0.2494 -2.1099
    8MPD2    H2  123   2.724   1.928  13.697 -2.2623  1.4918  2.4557
    8MPD2    H3  124   2.711   2.166  13.691 -0.5135 -1.0564  1.3476
    8MPD2     N  125   2.444   2.184  13.324 -0.5289  0.1496 -0.4769
    8MPD2    H5  126   2.425   2.282  13.344  2.1285  0.2333  1.6945
    8MPD2    N1  127   2.650   1.763  13.504 -0.3108 -0.1330  0.1298
    8MPD2    H7  128   2.704   1.717  13.576  0.2297 -0.4550 -0.4892
    9TCq1    O1  129   1.053   2.306  11.244 -0.0962  0.0803  0.1442
    9TCq1    C1  130   1.077   2.311  11.112 -0.3802  0.1534 -0.6899
    9TCq1    O2  131   1.188   2.329  11.059 -0.7505  0.2330 -0.3871
    9TCq1    C2  132   0.954   2.265  11.042 -0.6978 -0.4567  0.3932
    9TCq1    C3  133   0.916   2.358  10.941 -0.3751 -0.4378 -0.1166
    9TCq1    C4  134   0.788   2.354  10.904  0.1611  0.5287  0.2209
    9TCq1    C5  135   0.698   2.263  10.955 -0.1532 -0.3002  0.3024
    9TCq1    C6  136   0.740   2.160  11.038 -0.6948 -0.1373 -0.1117
    9TCq1    C7  137   0.865   2.172  11.091 -0.6520 -0.1331  0.2714
    9TCq1    C8  138   0.645   2.075  11.101 -0.0910  0.7849  0.3869
    9TCq1    O4  139   0.531   2.074  11.055 -0.2290  0.9202 -0.2321
    9TCq1    C9  140   0.740   2.469  10.832 -0.7783  0.4986 -0.5794
    9TCq1    O5  141   0.826   2.559  10.806 -0.3372 -0.0947 -0.3674
    9TCq1    O6  142   0.616   2.493  10.843 -0.2473 -0.1125 -0.0500
    9TCq1    H1  143   0.957   2.307  11.265 -0.3667  3.7215 -1.2776
    9TCq1    H2  144   0.971   2.451  10.928 -1.5603  0.3649  0.6724
    9TCq1    H3  145   0.593   2.272  10.927 -0.1337 -0.3088  0.2264
    9TCq1    H4  146   0.908   2.110  11.169  1.0986  0.5912 -0.1106
   10MPD2     C  147   0.502   1.973  11.334  1.1557 -1.1381 -0.0079
   10MPD2    C1  148   0.632   1.926  11.292  0.9696  0.1510  0.2394
   10MPD2    C2  149   0.696   1.830  11.368 -0.1902 -0.2329  0.1630
   10MPD2    C3  150   0.637   1.767  11.474 -0.1048  0.1223  0.0374
   10MPD2    C4  151   0.506   1.810  11.506  0.4131  0.2727  0.1361
   10MPD2    C5  152   0.445   1.911  11.435 -0.6942  0.0062  0.1993
   10MPD2     H  153   0.797   1.805  11.337 -0.3689  0.0464 -0.6539
   10MPD2    H1  154   0.446   1.754  11.576 -0.9911  0.4251 -0.9542
   10MPD2    H2  155   0.452   2.044  11.270  2.0273  1.1880  1.9078
   10MPD2    H3  156   0.340   1.930  11.457 -0.7548 -2.5300  2.1860
   10MPD2     N  157   0.686   1.659  11.552  0.2355  0.1884  0.1485
   10MPD2    H5  158   0.634   1.634  11.636 -0.8510 -1.3433 -0.9843
   10MPD2    N1  159   0.704   1.979  11.188  0.7818  0.3620 -0.6920
   10MPD2    H7  160   0.801   1.952  11.175 -0.1196 -2.6245 -1.3864
   11TCq1    O1  161   2.197   0.449  14.484 -0.5484  0.1592 -0.4805
   11TCq1    C1  162   2.253   0.559  14.529  0.1074  0.4394 -0.1413
   11TCq1    O2  163   2.354   0.559  14.593 -0.1395  0.2297 -0.3607
   11TCq1    C2  164   2.145   0.657  14.560 -0.1177  0.4405 -0.0119
   11TCq1    C3  165   2.173   0.741  14.660 -0.0102  0.3186 -0.0563
   11TCq1    C4  166   2.070   0.810  14.708  0.6024 -0.7342 -0.1366
   11TCq1    C5  167   1.940   0.800  14.662  0.3635  0.7432 -0.4416
   11TCq1    C6  168   1.915   0.721  14.556 -0.6035  0.2548  0.4342
   11TCq1    C7  169   2.016   0.644  14.512  0.3096  0.7308  1.2242
   11TCq1    C8  170   1.776   0.717  14.506 -0.8366  0.2610 -0.1710
   11TCq1    O4  171   1.692   0.774  14.574  0.1274 -0.4257 -0.7620
   11TCq1    C9  172   2.087   0.883  14.831 -0.2544 -0.5453 -0.5854
   11TCq1    O5  173   2.201   0.891  14.878 -0.0623 -0.1237  0.2818
   11TCq1    O6  174   1.985   0.932  14.881 -0.0186  0.3883 -0.0870
   11TCq1    H1  175   2.121   0.455  14.422  1.5365 -2.2043 -3.2513
   11TCq1    H2  176   2.268   0.748  14.713 -0.0468  0.4794 -0.0119
   11TCq1    H3  177   1.858   0.858  14.703  1.3935  1.3964  0.6721
   11TCq1    H4  178   1.992   0.553  14.459  1.2622  0.1004  1.8619
   12MPD2     C  179   1.519   0.682  14.358  0.2495  0.5177 -0.8465
   12MPD2    C1  180   1.642   0.651  14.303 -0.3423 -0.1947 -0.1271
   12MPD2    C2  181   1.649   0.601  14.177  0.4479  0.4148 -0.0850
   12MPD2    C3  182   1.528   0.573  14.110 -0.8524  0.0786 -0.6066
   12MPD2    C4  183   1.404   0.608  14.162  0.0376  0.4995  0.4219
   12MPD2    C5  184   1.402   0.665  14.288 -0.0892 -0.3516  0.4446
   12MPD2     H  185   1.742   0.580  14.125  0.3113 -1.4141  0.3970
   12MPD2    H1  186   1.313   0.577  14.112  0.1148  0.6030  0.2165
   12MPD2    H2  187   1.508   0.727  14.456  0.4129 -0.1722 -0.5168
   12MPD2    H3  188   1.304   0.668  14.335 -1.1789 -2.2277 -1.7322
   12MPD2     N  189   1.522   0.507  13.983 -0.3439  0.9607  0.2995
   12MPD2    H5  190   1.427   0.493  13.950  0.1755  2.3110 -1.8063
   12MPD2    N1  191   1.767   0.671  14.378  0.4293 -0.1348 -0.3728
   12MPD2    H7  192   1.857   0.646  14.338  0.8825  1.3982 -0.3324
   13TCq1    O1  193   1.288   1.452  11.488  0.2682  0.7483  0.4849
   13TCq1    C1  194   1.374   1.380  11.561 -0.2196  0.2779  0.3744
   13TCq1    O2  195   1.457   1.429  11.631 -0.8806 -0.2005  0.2374
   13TCq1    C2  196   1.344   1.247  11.533  0.8967  0.1434 -0.6626
   13TCq1    C3  197   1.441   1.150  11.563  0.1324  0.2435  0.3952
   13TCq1    C4  198   1.412   1.014  11.544 -0.5069 -0.3003  0.5056
   13TCq1    C5  199   1.297   0.976  11.487  0.0687  0.1264 -0.4542
   13TCq1    C6  200   1.203   1.076  11.452  0.0191 -0.0258  0.5857
   13TCq1    C7  201   1.221   1.207  11.484  0.5583 -0.2061  0.4440
   13TCq1    C8  202   1.062   1.032  11.453  0.1839  0.0240 -0.6515
   13TCq1    O4  203   0.980   1.117  11.480 -0.7308 -0.0850  0.3966
   13TCq1    C9  204   1.517   0.915  11.567  0.9854 -0.4927  0.7427
   13TCq1    O5  205   1.479   0.793  11.552  0.3846 -0.5667 -0.6971
   13TCq1    O6  206   1.632   0.959  11.575 -0.0138  0.4821 -0.2179
   13TCq1    H1  207   1.236   1.395  11.427 -0.7666  2.1494  0.0641
   13TCq1    H2  208   1.537   1.185  11.600  1.8124 -2.0785 -1.7599
   13TCq1    H3  209   1.287   0.870  11.467 -3.1400  0.1286  1.1120
   13TCq1    H4  210   1.146   1.285  11.477  0.0700 -0.6316  0.8560
   14MPD2     C  211   0.940   0.692  11.462  0.0922  0.3557 -0.1538
   14MPD2    C1  212   0.925   0.825  11.450 -0.1965  0.0628  0.1779
   14MPD2    C2  213   0.796   0.878  11.468  0.5705  0.2341  1.1807
   14MPD2    C3  214   0.685   0.796  11.494 -0.4162  0.0217 -0.3429
   14MPD2    C4  215   0.706   0.661  11.499 -0.7624 -0.0842 -0.7673
   14MPD2    C5  216   0.831   0.611  11.476  0.1356 -0.0994 -0.2245
   14MPD2     H  217   0.788   0.986  11.468  0.8713  0.2312 -2.1180
   14MPD2    H1  218   0.624   0.596  11.528  0.4532 -1.4097 -0.2451
   14MPD2    H2  219   1.039   0.647  11.458 -0.8382 -1.5541 -1.2170
   14MPD2    H3  220   0.852   0.505  11.481 -1.4568 -0.4819 -1.7054
   14MPD2     N  221   0.557   0.852  11.510 -0.6212  0.5226  0.2711
   14MPD2    H5  222   0.551   0.951  11.486  0.3589  0.0270 -2.0651
   14MPD2    N1  223   1.047   0.895  11.442 -0.6138  0.0755  0.0023
   14MPD2    H7  224   1.135   0.846  11.429 -0.2944  0.6421 -0.0005
   15TCq1    O1  225   1.762   4.469   0.949  0.0013 -0.0039  0.2872
   15TCq1    C1  226   1.772   4.535   1.070  0.0474 -0.8566 -0.0488
   15TCq1    O2  227   1.696   4.617   1.116 -0.1521  0.7812 -0.0947
   15TCq1    C2  228   1.849   4.444   1.155  0.6730 -0.4130 -0.8509
   15TCq1    C3  229   1.820   4.432   1.286  0.2345 -0.2488  0.2311
   15TCq1    C4  230   1.918   4.394   1.376  0.1923 -0.4511  0.3702
   15TCq1    C5  231   2.035   4.346   1.343  0.3671 -0.2124  0.9969
   15TCq1    C6  232   2.055   4.336   1.198 -0.2537  0.9140  0.1627
   15TCq1    C7  233   1.969   4.395   1.112 -0.4790 -0.4452 -0.4107
   15TCq1    C8  234   2.168   4.254   1.160 -0.0208  0.1984  0.6598
   15TCq1    O4  235   2.249   4.222   1.246  0.3504 -0.1812 -0.0329
   15TCq1    C9  236   1.874   4.379   1.512 -0.5326  0.6600  0.0517
   15TCq1    O5  237   1.752   4.399   1.544  0.5195  0.4903 -0.4523
   15TCq1    O6  238   1.961   4.335   1.595  0.1294  0.0881 -0.9220
   15TCq1    H1  239   1.814   4.387   0.935  1.2745  0.8664 -0.1465
   15TCq1    H2  240   1.728   4.476   1.323 -0.3219 -0.7327 -0.5665
   15TCq1    H3  241   2.095   4.300   1.421  2.3883  0.5722 -0.0941
   15TCq1    H4  242   1.988   4.399   1.006  1.8745  0.2432  0.0204
   16MPD2     C  243   2.242   4.118   0.832  0.2521 -0.0036 -0.0658
   16MPD2    C1  244   2.264   4.137   0.967  0.0570  0.0756 -0.5047
   16MPD2    C2  245   2.385   4.096   1.028 -0.4330  0.3894 -0.4194
   16MPD2    C3  246   2.480   4.028   0.956 -0.5801 -0.6665  0.1490
   16MPD2    C4  247   2.453   4.011   0.824  0.1948  0.5265 -0.1789
   16MPD2    C5  248   2.343   4.060   0.762  0.1920 -0.2333  0.5758
   16MPD2     H  249   2.393   4.109   1.135 -0.3652 -0.7453 -0.2884
   16MPD2    H1  250   2.521   3.955   0.760 -1.4344 -1.1398 -0.4407
   16MPD2    H2  251   2.154   4.145   0.775 -0.1766  0.8854  1.0127
   16MPD2    H3  252   2.337   4.032   0.658 -0.6517  0.5667  0.4166
   16MPD2     N  253   2.592   3.973   1.017 -0.0025  0.1629 -0.1985
   16MPD2    H5  254   2.603   3.992   1.116  0.9591 -0.0907 -0.2617
   16MPD2    N1  255   2.160   4.209   1.029 -0.4572  0.0168  0.0550
   16MPD2    H7  256   2.078   4.226   0.972  0.3904  2.4978 -0.4039
   17TCq1    O1  257   1.471   3.944   9.869  0.0982  0.0624  0.5545
   17TCq1    C1  258   1.385   3.840   9.858 -0.6130 -0.0000 -0.5034
   17TCq1    O2  259   1.336   3.793   9.752  0.2496 -0.5230  0.2704
   17TCq1    C2  260   1.324   3.807   9.987  0.2448  0.8840 -0.0525
   17TCq1    C3  261   1.289   3.675  10.018  0.2048 -0.0147  0.1277
   17TCq1    C4  262   1.236   3.643  10.137 -0.5649  0.3790  0.3706
   17TCq1    C5  263   1.227   3.745  10.236 -0.3785  0.8336 -0.4682
   17TCq1    C6  264   1.271   3.870  10.206 -0.4315 -0.0423  0.1538
   17TCq1    C7  265   1.319   3.908  10.078 -0.0269  0.7414  0.0568
   17TCq1    C8  266   1.240   3.964  10.305  0.5035  0.5139  0.4934
   17TCq1    O4  267   1.131   3.955  10.358 -0.3101 -0.1485  0.2464
   17TCq1    C9  268   1.194   3.508  10.165 -1.3551 -0.1676  0.4547
   17TCq1    O5  269   1.216   3.419  10.080 -0.2648  0.7121 -0.1083
   17TCq1    O6  270   1.137   3.483  10.270 -0.5655 -0.0001  0.1479
   17TCq1    H1  271   1.492   3.969   9.961 -0.8973 -1.2130  1.1040
   17TCq1    H2  272   1.290   3.615   9.927  3.1621 -0.1532  0.2335
   17TCq1    H3  273   1.181   3.735  10.334 -0.0208  0.7443 -0.3095
   17TCq1    H4  274   1.333   4.012  10.051 -0.3096  1.0845  1.2470
   18MPD2     C  275   1.197   4.228  10.430  0.4035  0.5689 -0.4565
   18MPD2    C1  276   1.319   4.180  10.388  0.1076 -0.4221  0.6535
   18MPD2    C2  277   1.426   4.261  10.397  0.4180  0.1853  0.1960
   18MPD2    C3  278   1.414   4.391  10.435  0.5228 -0.3274 -0.0585
   18MPD2    C4  279   1.294   4.447  10.475 -0.3075  0.7621  0.0366
   18MPD2    C5  280   1.190   4.358  10.475 -0.2239 -0.0463 -0.1805
   18MPD2     H  281   1.520   4.215  10.367  0.8056  0.6178  0.7567
   18MPD2    H1  282   1.280   4.550  10.506 -0.7245  0.4559  0.8385
   18MPD2    H2  283   1.109   4.165  10.431  0.2788  0.6932 -2.6461
   18MPD2    H3  284   1.099   4.396  10.518  1.4357  1.7032  1.7968
   18MPD2     N  285   1.518   4.484  10.435 -0.0155  0.4796 -0.8032
   18MPD2    H5  286   1.502   4.582  10.457  1.8624  0.5252  0.4342
   18MPD2    N1  287   1.337   4.053  10.324 -0.0911 -0.1399 -0.1235
   18MPD2    H7  288   1.423   4.029  10.276  0.1771 -0.0722  0.3187
   19TMC2    C1  289   2.206   0.132  14.654  0.2883 -0.3090  0.2119
   19TMC2    C2  290   2.147   0.111  14.774  0.3652 -0.0663 -0.7330
   19TMC2    C3  291   2.023   0.057  14.776 -0.3602  0.2720  0.7969
   19TMC2    C4  292   2.138   0.110  14.536  0.0718  0.1320  0.4292
   19TMC2    C5  293   2.013   0.048  14.542  0.0988  0.1043  0.4982
   19TMC2    C6  294   1.950   0.031  14.664  0.3887  0.1478  0.3198
   19TMC2     C  295   2.345   0.168  14.655 -0.5282 -0.3467  0.3276
   19TMC2     O  296   2.416   0.158  14.754  0.5134 -0.2413  0.2412
   19TMC2     H  297   2.210   0.141  14.857  1.1240 -0.4884 -1.1520
   19TMC2    H1  298   2.193   0.106  14.442 -1.5408  0.3660 -0.5160
   19TMC2    H2  299   1.859   4.698  14.685 -1.1653  1.2016 -3.7070
   19TMC2    C7  300   1.976   4.688  14.431 -0.0877  0.1420 -0.6377
   19TMC2    C8  301   1.954   0.051  14.901  0.2087  0.8478 -0.6585
   19TMC2    O1  302   2.053   4.677  14.336 -0.2027 -0.4731  0.2078
   19TMC2    O2  303   1.833   0.061  14.903  0.1883 -0.1499  0.1716
   19TMC2    O5  304   2.039   0.010  14.998 -0.4220 -0.3032 -0.6584
   19TMC2    H5  305   2.124   4.696  14.968  1.2877  2.5683  0.7090
   20MPD2     C  306   2.533   0.341  14.386 -0.1132  0.1918 -0.3878
   20MPD2    C1  307   2.514   0.257  14.491  0.3389 -0.5189 -1.2473
   20MPD2    C2  308   2.628   0.221  14.564  0.8774 -0.2975  0.0032
   20MPD2    C3  309   2.749   0.252  14.513 -0.0451 -0.0349 -0.1158
   20MPD2    C4  310   2.773   0.339  14.413  0.1403 -0.2088 -0.3017
   20MPD2    C5  311   2.660   0.376  14.349 -0.2865 -0.2563  0.0693
   20MPD2     H  312   2.617   0.149  14.644 -2.3157  0.8445  0.6086
   20MPD2    H1  313   2.871   0.355  14.368 -0.4826  1.8244 -0.9401
   20MPD2    H2  314   2.449   0.370  14.325 -1.8182 -0.9418  1.4075
   20MPD2    H3  315   2.667   0.434  14.258  0.5726  1.3578  1.1759
   20MPD2     N  316   2.862   0.199  14.568  0.5186 -0.0960  0.0505
   20MPD2    H5  317   2.950   0.235  14.530  0.7565 -1.0223 -0.2736
   20MPD2    N1  318   2.382   0.223  14.531  0.4518 -0.6241 -0.6427
   20MPD2    H7  319   2.306   0.250  14.469  0.8874 -1.0472 -1.3637
   21MPD2     C  320   0.841   0.941  14.584 -0.3757 -0.4240  0.4012
   21MPD2    C1  321   0.791   0.849  14.663  1.0835  0.1748 -0.3917
   21MPD2    C2  322   0.653   0.821  14.645  0.5693  0.1807 -0.0688
   21MPD2    C3  323   0.573   0.905  14.560  0.3074 -0.3181  0.0104
   21MPD2    C4  324   0.632   1.008  14.502  0.2192  0.2111  0.0176
   21MPD2    C5  325   0.765   1.027  14.514 -0.0747  0.1423  0.0935
   21MPD2     H  326   0.603   0.740  14.696 -0.4223  0.2612 -0.9194
   21MPD2    H1  327   0.587   1.064  14.421 -0.2267 -2.1902 -1.3971
   21MPD2    H2  328   0.948   0.941  14.565 -1.1430 -0.7921 -3.8545
   21MPD2    H3  329   0.819   1.101  14.457  2.0430 -0.8960  0.7655
   21MPD2     N  330   0.434   0.888  14.544 -0.0246  0.1971 -0.7192
   21MPD2    H5  331   0.386   0.962  14.494  0.0521 -0.3915 -1.6659
   21MPD2    N1  332   0.865   0.756  14.738  0.4197  0.3920 -0.6221
   21MPD2    H7  333   0.821   0.669  14.767 -0.3625  0.9661 -0.0996
   22TCq2    C1  334   0.366   0.782  14.594  0.3260  0.8327 -0.3710
   22TCq2    O2  335   0.409   0.667  14.605  0.2403 -0.5193 -0.4920
   22TCq2    C2  336   0.220   0.803  14.581  0.6713 -0.3082  0.3033
   22TCq2    C3  337   0.151   0.688  14.577 -0.5828 -0.0921  0.3045
   22TCq2    C4  338   0.021   0.699  14.616  0.0185 -0.0163 -0.4992
   22TCq2    C5  339   4.683   0.817  14.644  0.8484 -0.3155  0.3188
   22TCq2    C6  340   0.037   0.932  14.646 -0.4908 -0.1919  0.2178
   22TCq2    C7  341   0.171   0.922  14.630  0.3132 -0.6973  0.3506
   22TCq2    C8  342   4.713   1.053  14.716 -0.5236  0.2054 -0.9316
   22TCq2    O4  343   0.062   1.107  14.801  0.3830  0.3786  0.5321
   22TCq2    C9  344   4.661   0.580  14.631  0.0076  0.0667  0.0762
   22TCq2    O5  345   4.721   0.475  14.683 -0.1002  0.1655  0.4345
   22TCq2    O6  346   4.539   0.592  14.607 -0.3735 -0.2647 -0.0676
   22TCq2    H2  347   0.197   0.592  14.555  0.2909  0.7449 -1.5049
   22TCq2    H3  348   4.581   0.824  14.678  0.4093 -3.9195 -0.3354
   22TCq2    H4  349   0.231   1.008  14.658  0.8941 -0.2577 -2.1789
   23MPD2     C  350   1.609   2.159  14.510 -0.0385  0.5083  0.4587
   23MPD2    C1  351   1.574   2.038  14.569  0.3168  0.0257  0.8344
   23MPD2    C2  352   1.492   1.959  14.488 -0.1046  0.1720 -0.2224
   23MPD2    C3  353   1.456   1.990  14.354  0.6672 -0.0415 -0.1564
   23MPD2    C4  354   1.505   2.106  14.299 -0.1895 -0.2464  0.4923
   23MPD2    C5  355   1.580   2.190  14.377 -0.7074 -0.5529 -0.1646
   23MPD2     H  356   1.456   1.868  14.535  0.9686 -0.9528 -1.5933
   23MPD2    H1  357   1.477   2.138  14.199  0.4484  2.7133  1.2415
   23MPD2    H2  358   1.664   2.232  14.569 -1.0579 -1.3255  3.6863
   23MPD2    H3  359   1.621   2.286  14.347 -1.3110 -0.1991  0.1390
   23MPD2     N  360   1.366   1.910  14.276  0.0401 -0.1847 -0.0628
   23MPD2    H5  361   1.348   1.944  14.182 -2.0392 -2.0333 -0.3469
   23MPD2    N1  362   1.628   1.994  14.694 -0.2582  0.0106 -0.3644
   23MPD2    H7  363   1.702   2.045  14.741  0.2936 -0.7758 -0.3691
   24TCq2    C1  364   1.294   1.796  14.321 -0.4289 -0.4383 -0.5507
   24TCq2    O2  365   1.267   1.757  14.430 -0.1141 -0.2604 -0.0904
   24TCq2    C2  366   1.214   1.737  14.211  0.1664 -0.5559  1.2644
   24TCq2    C3  367   1.242   1.768  14.079  0.2973  0.0674  0.2903
   24TCq2    C4  368   1.166   1.708  13.987  0.2866 -0.1263 -0.1215
   24TCq2    C5  369   1.062   1.627  14.024 -0.1180 -0.5291  0.8364
   24TCq2    C6  370   1.039   1.599  14.156  0.2654 -0.5622 -0.1698
   24TCq2    C7  371   1.114   1.651  14.252 -0.2930 -0.0632  0.4144
   24TCq2    C8  372   0.936   1.519  14.195  0.0143  0.3080 -0.2447
   24TCq2    O4  373   0.952   1.437  14.288  0.9219 -0.1873 -0.0689
   24TCq2    C9  374   1.201   1.731  13.844 -0.4064 -0.7684  0.2052
   24TCq2    O5  375   1.151   1.657  13.756 -0.5294 -0.2502  0.8328
   24TCq2    O6  376   1.238   1.849  13.815  0.3421 -0.3170 -0.4474
   24TCq2    H2  377   1.325   1.829  14.045 -0.6169  1.2293  0.1307
   24TCq2    H3  378   1.014   1.567  13.947  1.0662  0.7124 -0.8704
   24TCq2    H4  379   1.098   1.625  14.356  0.6849 -3.1823 -0.2301
   25TMC2    C1  380   4.632   3.665  11.552  0.0254  0.1236 -0.4709
   25TMC2    C2  381   4.584   3.742  11.447 -0.9375  0.7526 -0.5653
   25TMC2    C3  382   4.558   3.879  11.473 -0.3729 -0.0471 -0.4601
   25TMC2    C4  383   4.660   3.729  11.675  0.8902 -0.2133  0.1861
   25TMC2    C5  384   4.630   3.862  11.693  0.1681  0.0391 -0.4101
   25TMC2    C6  385   4.579   3.939  11.595  0.1490  0.3238  0.0599
   25TMC2     C  386   0.002   3.554  11.509 -0.1623  0.0580  0.1242
   25TMC2     O  387   0.120   3.573  11.500  0.0982 -0.2937 -0.3120
   25TMC2     H  388   4.572   3.706  11.345 -1.4635  1.4506 -0.7555
   25TMC2    H1  389   4.714   3.675  11.752  1.4376 -0.2776 -0.2519
   25TMC2    H2  390   4.523   4.030  11.616  0.4622  0.4481  0.3502
   25TMC2    C7  391   4.643   3.917  11.826  0.1833 -0.3667  0.1188
   25TMC2    C8  392   4.498   3.952  11.363  0.1731 -0.9263  0.0258
   25TMC2    O1  393   4.655   3.833  11.916  0.4187  0.0972 -0.2239
   25TMC2    O2  394   4.442   3.888  11.279  0.5462 -0.4225 -0.1409
   25TMC2    O5  395   4.550   4.079  11.349 -0.2480  0.7066  0.0167
   25TMC2    H5  396   4.591   4.102  11.435  0.4707 -1.3183  0.2372
   26MPD2     C  397   0.023   3.122  11.230 -0.4704  0.9328  0.0075
   26MPD2    C1  398   4.623   3.130  11.283 -0.4730  0.8422 -0.2690
   26MPD2    C2  399   4.595   3.240  11.363  0.1931 -0.0885  0.1841
   26MPD2    C3  400   4.690   3.337  11.388  0.1191  0.1337  0.1306
   26MPD2    C4  401   0.094   3.321  11.336  0.2916  0.1749 -0.0305
   26MPD2    C5  402   0.125   3.212  11.252 -0.2629  0.7143  0.6145
   26MPD2     H  403   4.503   3.239  11.419 -0.3428  0.8214 -0.6815
   26MPD2    H1  404   0.172   3.395  11.351 -0.5690  0.9179  0.8343
   26MPD2    H2  405   0.045   3.039  11.164 -0.5853  0.9221 -0.0168
   26MPD2    H3  406   0.221   3.199  11.203 -0.3256 -0.3615  0.7877
   26MPD2     N  407   4.646   3.449  11.455 -0.1164  0.7474 -0.4055
   26MPD2    H5  408   4.547   3.447  11.478 -0.1895  0.9407 -0.7075
   26MPD2    N1  409   4.531   3.022  11.264 -0.0271  0.1748 -0.2982
   26MPD2    H7  410   4.571   2.940  11.221  0.3601  0.2179 -0.0226
   27TMC2    C1  411   3.859   1.513  11.933  0.0942 -0.2501  1.4283
   27TMC2    C2  412   3.761   1.513  11.837  0.0286  0.5196 -0.0442
   27TMC2    C3  413   3.676   1.618  11.829  0.3699  0.4235 -0.0077
   27TMC2    C4  414   3.878   1.621  12.013  0.5925 -0.0382  0.8693
   27TMC2    C5  415   3.793   1.725  12.002 -0.1952  0.3580 -1.1216
   27TMC2    C6  416   3.687   1.719  11.916 -0.3203 -0.5266  0.0890
   27TMC2     C  417   3.886   1.395  12.004  0.2932  0.2679  0.2557
   27TMC2     O  418   3.890   1.289  11.948  0.3174 -0.0308 -0.4607
   27TMC2     H  419   3.754   1.428  11.770  1.4884  2.3739 -2.5541
   27TMC2    H1  420   3.954   1.605  12.088  2.3082  1.3332 -0.5608
   27TMC2    H2  421   3.625   1.806  11.898  0.3434 -0.1779 -0.5176
   27TMC2    C7  422   3.778   1.804  12.126 -0.0415 -0.4091  0.0382
   27TMC2    C8  423   3.600   1.639  11.706  0.2022 -0.2605 -0.8304
   27TMC2    O1  424   3.832   1.763  12.228 -0.4821 -0.2834 -0.0538
   27TMC2    O2  425   3.512   1.722  11.692 -0.4912  0.1777  0.2885
   27TMC2    O5  426   3.675   1.593  11.609  0.0803  0.5509  0.2534
   27TMC2    H5  427   3.762   1.563  11.641  0.9137  1.6093 -1.0313
   28MPD2     C  428   3.746   1.099  12.400 -0.7494  0.6649 -0.4670
   28MPD2    C1  429   3.685   1.218  12.399  0.1406  0.3408  0.7449
   28MPD2    C2  430   3.721   1.321  12.320  0.1009 -0.2511 -0.6552
   28MPD2    C3  431   3.816   1.296  12.221 -0.0194 -0.7140 -0.9689
   28MPD2    C4  432   3.875   1.173  12.216 -0.6528  0.0891 -0.2107
   28MPD2    C5  433   3.837   1.079  12.305 -0.2492 -0.1985  0.5089
   28MPD2     H  434   3.649   1.402  12.312  0.5338  0.2335  0.4174
   28MPD2    H1  435   3.936   1.135  12.134  0.2736 -0.4937  0.7555
   28MPD2    H2  436   3.705   1.019  12.461  1.6519 -0.6926 -0.6439
   28MPD2    H3  437   3.872   0.978  12.285  0.2658 -0.3420  2.1132
   28MPD2     N  438   3.844   1.405  12.133 -0.1899 -0.3124  0.1405
   28MPD2    H5  439   3.799   1.489  12.170 -0.6735 -0.6373  0.2903
   28MPD2    N1  440   3.580   1.224  12.493  0.3420  0.6243  0.2893
   28MPD2    H7  441   3.571   1.144  12.554 -1.3799 -1.0412 -2.1218
   29MPD2     C  442   3.134   3.507  14.195  0.0968 -0.9531 -0.0561
   29MPD2    C1  443   3.255   3.473  14.238  0.1305  0.3729  0.3410
   29MPD2    C2  444   3.341   3.570  14.285  0.2491 -0.1246  0.3796
   29MPD2    C3  445   3.299   3.700  14.284 -0.5141  0.6966 -0.0108
   29MPD2    C4  446   3.174   3.739  14.243  0.4096  0.1324  0.0734
   29MPD2    C5  447   3.091   3.636  14.196 -0.7448 -0.2051  0.6871
   29MPD2     H  448   3.436   3.542  14.329  0.3394  0.4246  0.5344
   29MPD2    H1  449   3.129   3.837  14.253  1.1869  0.5080 -0.0904
   29MPD2    H2  450   3.071   3.423  14.169 -0.5461 -0.3727 -0.3831
   29MPD2    H3  451   2.991   3.654  14.159 -0.6127 -1.5642 -0.3399
   29MPD2     N  452   3.389   3.803  14.320 -0.2819 -0.3856  0.2189
   29MPD2    H5  453   3.347   3.893  14.299 -3.0803 -1.6179  0.6091
   29MPD2    N1  454   3.312   3.347  14.242  0.5954  0.1914 -0.4495
   29MPD2    H7  455   3.408   3.344  14.277  0.5577  3.2665 -0.1066
   30TCq2    C1  456   3.518   3.794  14.364  0.3504 -0.0813  0.2952
   30TCq2    O2  457   3.593   3.704  14.389 -0.5784 -0.2959  0.3105
   30TCq2    C2  458   3.586   3.926  14.357 -0.2549  1.0917  0.2890
   30TCq2    C3  459   3.721   3.925  14.374  0.2670  0.4261  0.0511
   30TCq2    C4  460   3.805   4.021  14.324 -0.4774 -0.3380 -0.4861
   30TCq2    C5  461   3.751   4.136  14.276 -0.3214 -0.0131 -0.5000
   30TCq2    C6  462   3.611   4.143  14.277 -0.6885  0.1028 -0.1401
   30TCq2    C7  463   3.530   4.037  14.302 -0.4633  0.0568 -0.4499
   30TCq2    C8  464   3.549   4.274  14.285 -0.6846  0.2379  0.4446
   30TCq2    O4  465   3.426   4.280  14.267 -0.2048 -0.2256 -1.0346
   30TCq2    C9  466   3.949   4.003  14.329  0.0446  0.5178 -0.4467
   30TCq2    O5  467   4.021   4.101  14.294  0.4914  0.2945  0.1432
   30TCq2    O6  468   3.987   3.921  14.415  0.2058 -0.4207  0.3706
   30TCq2    H2  469   3.773   3.835  14.407 -0.7505 -0.3228 -0.3900
   30TCq2    H3  470   3.808   4.220  14.239  2.7368 -0.7315  2.5282
   30TCq2    H4  471   3.425   4.061  14.313 -0.1689  1.7125 -1.2505
   31MPD2     C  472   1.355   3.027  14.722 -0.1505  0.1162 -0.1246
   31MPD2    C1  473   1.243   3.069  14.655 -0.2077 -0.1451  0.1219
   31MPD2    C2  474   1.118   3.054  14.719 -0.4201  0.4719 -0.4592
   31MPD2    C3  475   1.116   3.006  14.848 -0.4178  0.2049  0.3872
   31MPD2    C4  476   1.225   2.961  14.914  0.4770 -0.0119 -0.3964
   31MPD2    C5  477   1.351   2.978  14.851  0.1852 -0.5353 -0.0444
   31MPD2     H  478   1.024   3.076  14.670 -0.0581 -3.7138 -3.0457
   31MPD2    H1  479   1.223   2.919  15.014 -1.5343 -0.1259 -0.4916
   31MPD2    H2  480   1.446   3.043  14.666  0.3754  2.1227  1.2708
   31MPD2    H3  481   1.445   2.956  14.901 -1.0289 -4.3677  0.5647
   31MPD2     N  482   0.995   2.986  14.922  0.7452 -0.3153 -0.0803
   31MPD2    H5  483   0.996   2.945  15.015  1.0827  1.9798  0.9378
   31MPD2    N1  484   1.260   3.107  14.520 -0.6747  0.1785 -0.0198
   31MPD2    H7  485   1.357   3.115  14.493 -0.9273 -3.1301 -1.9276
   32TCq2    C1  486   0.868   3.038  14.884  0.6217 -0.0389 -0.5658
   32TCq2    O2  487   0.821   3.116  14.803 -0.3825 -0.1738 -0.1242
   32TCq2    C2  488   0.768   3.000  14.980  0.1671 -0.7509 -0.5797
   32TCq2    C3  489   0.652   3.066  14.987  0.6951  0.7683 -0.7404
   32TCq2    C4  490   0.561   3.034  15.084  0.3762  0.0495 -0.8696
   32TCq2    C5  491   0.589   2.935  15.172 -0.0512 -0.5878  0.2991
   32TCq2    C6  492   0.700   2.854  15.152 -0.1033  0.3200 -0.3217
   32TCq2    C7  493   0.791   2.881  15.056 -0.7178  0.2881  0.0320
   32TCq2    C8  494   0.742   2.747  15.249 -0.1185  0.2172  0.0490
   32TCq2    O4  495   0.863   2.712  15.243 -0.1147 -0.0341  0.2391
   32TCq2    C9  496   0.447   3.118  15.112 -0.0668  0.9674  0.3295
   32TCq2    O5  497   0.435   3.210  15.033  0.0700  0.0037 -0.5501
   32TCq2    O6  498   0.369   3.077  15.201 -0.4061 -0.6560 -0.6513
   32TCq2    H2  499   0.644   3.162  14.937  0.5294  0.4077 -1.4096
   32TCq2    H3  500   0.514   2.911  15.247 -2.2766  2.0374 -1.0941
   32TCq2    H4  501   0.875   2.818  15.029 -1.7923 -0.3173 -1.9180
   33MPD2     C  502   1.885   0.458  10.680  0.1057  0.0124  0.2484
   33MPD2    C1  503   1.805   0.415  10.577  0.0697 -0.1378  0.0661
   33MPD2    C2  504   1.702   0.495  10.532 -0.0061  0.1944 -0.5926
   33MPD2    C3  505   1.676   0.619  10.591 -0.1264 -0.5036  0.2737
   33MPD2    C4  506   1.762   0.666  10.686  0.4702  0.5903  0.4150
   33MPD2    C5  507   1.857   0.585  10.739 -1.0660  0.3641 -0.3872
   33MPD2     H  508   1.637   0.463  10.451  1.7882 -1.4860 -1.3815
   33MPD2    H1  509   1.752   0.758  10.742  0.2385  0.4487  0.6057
   33MPD2    H2  510   1.971   0.398  10.708 -1.1901 -1.2013  1.6809
   33MPD2    H3  511   1.928   0.615  10.815 -2.2017  2.8322 -0.3081
   33MPD2     N  512   1.559   0.689  10.561 -0.0523  0.4008  0.5609
   33MPD2    H5  513   1.552   0.788  10.583 -0.4573  0.0919  1.7939
   33MPD2    N1  514   1.826   0.285  10.534  0.0233 -0.0188 -0.2393
   33MPD2    H7  515   1.912   0.239  10.563  0.7621  2.0123  0.8308
   34TCq2    C1  516   1.452   0.625  10.498 -0.4764  0.1598  0.2161
   34TCq2    O2  517   1.426   0.507  10.473  0.0084  0.4352 -0.6496
   34TCq2    C2  518   1.356   0.719  10.432  0.0557  0.1541  0.2812
   34TCq2    C3  519   1.230   0.681  10.423  0.1434 -0.2682 -0.0632
   34TCq2    C4  520   1.145   0.740  10.332 -0.9262 -0.4470  0.1593
   34TCq2    C5  521   1.200   0.841  10.256  0.1367  0.1501  0.2630
   34TCq2    C6  522   1.332   0.869  10.259  0.3536 -0.1364  0.0145
   34TCq2    C7  523   1.408   0.820  10.354  0.3649 -0.2949 -0.4319
   34TCq2    C8  524   1.402   0.906  10.136  0.1874 -0.2382 -0.1948
   34TCq2    O4  525   1.523   0.916  10.141 -0.7386  0.2712 -0.2666
   34TCq2    C9  526   1.000   0.708  10.326  0.9081 -0.6791 -0.1647
   34TCq2    O5  527   0.926   0.780  10.253  0.4383  0.7560  0.6232
   34TCq2    O6  528   0.967   0.602  10.386  0.0142 -0.0421 -0.5090
   34TCq2    H2  529   1.193   0.610  10.496 -1.4119 -1.4312 -1.9633
   34TCq2    H3  530   1.125   0.886  10.192 -1.3014  0.9390  2.4955
   34TCq2    H4  531   1.513   0.849  10.352  0.3883 -0.2945  1.0656
   35MPD2     C  532   3.178   1.644  11.547  0.1886  0.3085 -0.5882
   35MPD2    C1  533   3.116   1.555  11.629  0.4076  0.3874 -0.1275
   35MPD2    C2  534   2.978   1.574  11.652  0.0345 -0.3864  0.4719
   35MPD2    C3  535   2.904   1.671  11.583  1.0119 -0.5750  0.4261
   35MPD2    C4  536   2.973   1.753  11.494 -0.4492 -0.2270  1.1287
   35MPD2    C5  537   3.113   1.737  11.474 -0.4671 -0.4681 -0.1767
   35MPD2     H  538   2.927   1.517  11.728 -2.1437 -0.3296 -0.9568
   35MPD2    H1  539   2.911   1.800  11.419 -1.1038  1.6046  2.8055
   35MPD2    H2  540   3.282   1.637  11.517  0.3111 -0.3751 -0.0229
   35MPD2    H3  541   3.157   1.790  11.390  0.2031  0.2647  0.6274
   35MPD2     N  542   2.766   1.687  11.599 -0.3489  0.5402 -0.6066
   35MPD2    H5  543   2.715   1.623  11.659  2.2957  0.3796  1.4971
   35MPD2    N1  544   3.199   1.474  11.702 -0.0799 -0.0020  0.1692
   35MPD2    H7  545   3.291   1.459  11.662 -0.4830  1.1781 -1.2203
   36TCq2    C1  546   2.691   1.791  11.542  0.3121  0.3621 -0.2860
   36TCq2    O2  547   2.721   1.898  11.492  0.2222 -0.0892  0.3021
   36TCq2    C2  548   2.551   1.781  11.572 -0.0591  0.3226  0.2405
   36TCq2    C3  549   2.479   1.895  11.565 -0.2376 -0.1711  0.7088
   36TCq2    C4  550   2.348   1.893  11.597 -0.2943  0.0093  0.4972
   36TCq2    C5  551   2.290   1.780  11.636  0.3896 -0.7686 -0.9399
   36TCq2    C6  552   2.367   1.659  11.652 -0.4243 -0.1500  0.8163
   36TCq2    C7  553   2.503   1.657  11.616 -0.2648  0.0348 -0.1184
   36TCq2    C8  554   2.308   1.541  11.708 -0.2012 -0.4030 -0.0558
   36TCq2    O4  555   2.357   1.430  11.683 -0.2420 -0.3231 -0.1076
   36TCq2    C9  556   2.271   2.014  11.581  0.5333 -1.2175 -0.1226
   36TCq2    O5  557   2.143   2.005  11.590 -0.1781  0.7698 -0.4911
   36TCq2    O6  558   2.326   2.122  11.543 -0.4356  0.6821 -0.2984
   36TCq2    H2  559   2.520   1.988  11.528 -1.3384 -0.3486 -0.9689
   36TCq2    H3  560   2.183   1.784  11.648  0.2903 -0.8386 -1.7959
   36TCq2    H4  561   2.557   1.564  11.609  0.0746  0.1291  1.1249
   37TMC2    C1  562   0.458   2.142  11.835  0.4065  0.3678  0.3978
   37TMC2    C2  563   0.508   2.117  11.713 -0.0710 -0.0171 -0.0402
   37TMC2    C3  564   0.646   2.129  11.696  0.4890 -0.2806 -0.3533
   37TMC2    C4  565   0.533   2.201  11.934  0.2120 -0.0685  0.0417
   37TMC2    C5  566   0.668   2.208  11.919  0.5698 -0.4122  0.4963
   37TMC2    C6  567   0.721   2.171  11.799  0.0979  0.7490 -0.2781
   37TMC2     C  568   0.330   2.076  11.875  0.3074  0.2040  0.0958
   37TMC2     O  569   0.271   2.009  11.793 -0.0115  0.4440  0.5997
   37TMC2     H  570   0.445   2.081  11.633 -0.1441 -0.7722  0.3617
   37TMC2    H1  571   0.493   2.258  12.017 -1.0135  1.4002 -1.5614
   37TMC2    H2  572   0.828   2.155  11.792 -0.0526 -0.5228  0.2989
   37TMC2    C7  573   0.754   2.240  12.033 -0.6836  0.2422  0.3658
   37TMC2    C8  574   0.696   2.143  11.561  0.1053 -0.0908  0.2570
   37TMC2    O1  575   0.687   2.232  12.138  0.0295  0.2172 -0.2128
   37TMC2    O2  576   0.819   2.156  11.534  0.1032 -0.2339  0.3467
   37TMC2    O5  577   0.613   2.226  11.507 -0.0778 -0.4235 -0.4234
   37TMC2    H5  578   0.525   2.246  11.547  0.9538  0.2200  1.4769
   38MPD2     C  579   4.689   2.014  12.242  0.5043 -0.1165  0.0612
   38MPD2    C1  580   0.079   2.075  12.299  0.1261 -0.3531  0.1652
   38MPD2    C2  581   0.187   2.108  12.210  0.4401 -0.1034  0.6075
   38MPD2    C3  582   0.185   2.069  12.080  0.0352  0.1387  0.3128
   38MPD2    C4  583   0.072   2.020  12.024 -0.0870  0.5961  0.1532
   38MPD2    C5  584   4.694   1.987  12.109 -0.8494 -0.5583  0.6658
   38MPD2     H  585   0.280   2.144  12.251  1.1023 -0.3487 -0.6705
   38MPD2    H1  586   0.062   1.988  11.921  1.5615 -2.9532  1.1043
   38MPD2    H2  587   4.601   2.003  12.305  0.5065 -2.0702 -0.2987
   38MPD2    H3  588   4.609   1.935  12.067 -0.8923 -0.2190  0.3352
   38MPD2     N  589   0.307   2.095  12.008  0.5184  0.0730 -0.1224
   38MPD2    H5  590   0.371   2.152  12.062  2.2499 -0.1693 -1.9531
   38MPD2    N1  591   0.094   2.096  12.433 -0.3959  0.0032 -0.4953
   38MPD2    H7  592   0.187   2.097  12.473 -1.2786  1.3881  1.5504
   39MPD2     C  593   3.418   3.688   1.329 -0.0335  0.2753  0.1936
   39MPD2    C1  594   3.309   3.720   1.406  0.2461  0.1287  0.9073
   39MPD2    C2  595   3.192   3.655   1.389 -0.2566  0.5205  0.2070
   39MPD2    C3  596   3.176   3.547   1.298 -0.6021  0.0054 -0.5127
   39MPD2    C4  597   3.285   3.504   1.223  0.1225  0.5366 -0.0958
   39MPD2    C5  598   3.393   3.592   1.231  0.0103 -0.1824  0.8820
   39MPD2     H  599   3.107   3.695   1.444 -0.4480 -0.2878  0.5053
   39MPD2    H1  600   3.276   3.436   1.139  2.0799  0.2546 -0.0830
   39MPD2    H2  601   3.516   3.730   1.349 -0.4568  1.7081 -0.7439
   39MPD2    H3  602   3.476   3.569   1.166  0.8617  0.4469  1.7473
   39MPD2     N  603   3.048   3.495   1.276 -0.2770 -0.0329 -0.2979
   39MPD2    H5  604   3.040   3.428   1.200  1.2919 -1.1428  0.5222
   39MPD2    N1  605   3.335   3.808   1.512  0.5868 -0.4106  0.0709
   39MPD2    H7  606   3.430   3.845   1.514  0.6286 -0.2958 -3.2136
   40TCq2    C1  607   3.260   3.844   1.622 -0.1026 -0.3389 -0.2581
   40TCq2    O2  608   3.155   3.799   1.663 -0.6915  0.0204  0.0857
   40TCq2    C2  609   3.335   3.926   1.719 -0.8534  0.0453 -0.6394
   40TCq2    C3  610   3.275   3.987   1.827 -0.2970 -0.5349  0.0076
   40TCq2    C4  611   3.352   4.054   1.917  0.5354 -0.2463  0.4942
   40TCq2    C5  612   3.489   4.068   1.896  0.3446  0.3143 -0.5193
   40TCq2    C6  613   3.548   4.012   1.784  0.0745  0.0610 -0.0403
   40TCq2    C7  614   3.469   3.945   1.692  0.2790 -0.2333 -0.4486
   40TCq2    C8  615   3.686   4.033   1.749 -0.0369 -0.6150  0.4169
   40TCq2    O4  616   3.732   3.948   1.676 -0.9532 -0.6865 -0.2820
   40TCq2    C9  617   3.293   4.097   2.049 -0.4711 -0.5051  0.2904
   40TCq2    O5  618   3.356   4.180   2.114  0.3476  1.0445  0.3617
   40TCq2    O6  619   3.183   4.045   2.086  0.5550  0.0824 -0.0864
   40TCq2    H2  620   3.168   3.980   1.844 -0.4615 -3.2271 -2.0950
   40TCq2    H3  621   3.542   4.135   1.962  1.8907 -1.8741  0.4475
   40TCq2    H4  622   3.516   3.907   1.603  1.5528  0.8122 -0.2187
   41TMC2    C1  623   1.893   1.800  13.398  0.0880  0.6230 -0.6414
   41TMC2    C2  624   1.941   1.916  13.463  0.2037  0.0141 -0.0460
   41TMC2    C3  625   1.916   2.034  13.402 -0.3293  0.5662 -0.1633
   41TMC2    C4  626   1.822   1.809  13.282 -0.3010  0.0979 -0.1084
   41TMC2    C5  627   1.805   1.928  13.221 -0.3139  0.4585  0.6910
   41TMC2    C6  628   1.858   2.042  13.277  0.2123  0.0517 -0.2049
   41TMC2     C  629   1.889   1.676  13.462  0.4815 -0.2145  0.0230
   41TMC2     O  630   1.850   1.583  13.388  0.2714 -0.1914 -0.5494
   41TMC2     H  631   2.033   1.918  13.520 -0.2685 -0.3805  0.7364
   41TMC2    H1  632   1.777   1.723  13.232  3.4295 -3.2894  2.3983
   41TMC2    H2  633   1.851   2.134  13.221 -0.7401  0.6920  0.9551
   41TMC2    C7  634   1.728   1.941  13.100  0.2962 -0.0731  0.5194
   41TMC2    C8  635   1.996   2.145  13.452  0.6725  0.2085  0.0817
   41TMC2    O1  636   1.623   2.006  13.106 -0.1255 -0.1326 -0.3278
   41TMC2    O2  637   2.109   2.132  13.506  0.5216 -0.3567  0.3075
   41TMC2    O5  638   1.911   2.250  13.471 -0.2777  0.0928  0.4461
   41TMC2    H5  639   1.820   2.225  13.444  0.4435  0.1095 -1.9130
   42MPD2     C  640   1.930   1.445  13.657 -0.4839 -0.0563 -0.1707
   42MPD2    C1  641   1.934   1.579  13.694  1.3190 -0.3697  0.1451
   42MPD2    C2  642   1.974   1.610  13.826 -0.1208 -0.0693 -0.0165
   42MPD2    C3  643   1.991   1.507  13.921  0.4112  0.7492  0.5242
   42MPD2    C4  644   1.987   1.377  13.879  0.7505 -0.1450 -0.1320
   42MPD2    C5  645   1.955   1.345  13.752 -0.1552 -0.2667 -0.2048
   42MPD2     H  646   1.991   1.712  13.855 -0.4365 -0.0393  0.0700
   42MPD2    H1  647   2.005   1.301  13.954  0.6543 -0.0681 -0.0316
   42MPD2    H2  648   1.896   1.408  13.561  1.4960 -1.0014 -0.5065
   42MPD2    H3  649   1.937   1.242  13.724 -0.0660 -0.5075  0.6431
   42MPD2     N  650   2.006   1.532  14.064  0.5959  0.3241 -0.1752
   42MPD2    H5  651   1.989   1.449  14.121  2.1470 -0.3729 -0.7291
   42MPD2    N1  652   1.930   1.686  13.598 -0.0242  0.0146 -0.3627
   42MPD2    H7  653   1.943   1.778  13.638  0.1671 -0.1781  0.0155
   43MPD2     C  654   3.570   0.783   0.636  0.1001  0.8037  0.1006
   43MPD2    C1  655   3.566   0.696   0.746  0.3652 -0.4502  0.2681
   43MPD2    C2  656   3.535   0.743   0.870 -0.2915 -0.0004  0.3180
   43MPD2    C3  657   3.475   0.870   0.878 -0.8840 -0.2487 -0.6016
   43MPD2    C4  658   3.462   0.947   0.767 -0.2648  0.6686 -0.1395
   43MPD2    C5  659   3.509   0.907   0.648 -1.0149  0.1568  0.7364
   43MPD2     H  660   3.555   0.682   0.957  0.2936  2.5956  2.0051
   43MPD2    H1  661   3.418   1.046   0.768 -0.2702  0.6754 -1.8270
   43MPD2    H2  662   3.612   0.757   0.540  2.5245  0.4253  1.2667
   43MPD2    H3  663   3.507   0.980   0.568  1.5537  0.9516  1.4127
   43MPD2     N  664   3.425   0.922   1.001 -0.0155  0.0055 -0.0071
   43MPD2    H5  665   3.393   1.018   1.006 -1.3564 -0.4793  0.8111
   43MPD2    N1  666   3.613   0.565   0.740  0.2183  0.8267  0.4327
   43MPD2    H7  667   3.623   0.521   0.830  1.7360  1.3517  0.5200
   44TCq2    C1  668   3.027   1.078   1.253 -0.3256  0.2113  0.7275
   44TCq2    O2  669   2.999   1.077   1.133  0.2084 -0.3387 -0.0005
   44TCq2    C2  670   3.168   1.064   1.274 -0.1506  0.4203 -0.4497
   44TCq2    C3  671   3.211   1.052   1.407  0.4817 -0.0104 -0.4852
   44TCq2    C4  672   3.338   1.003   1.435  0.3332 -0.1425  0.5000
   44TCq2    C5  673   3.402   0.935   1.338  0.2253 -0.6235 -0.4374
   44TCq2    C6  674   3.351   0.947   1.213 -0.8702  0.0825 -0.2508
   44TCq2    C7  675   3.236   1.013   1.169 -0.7316  0.2756  0.2905
   44TCq2    C8  676   3.428   0.863   1.122 -0.3917  0.1413  0.7555
   44TCq2    O4  677   3.448   0.748   1.159 -0.4372  0.5269 -0.2139
   44TCq2    C9  678   3.391   1.003   1.571  0.0719 -0.6484 -0.0367
   44TCq2    O5  679   3.508   0.951   1.589 -0.0566 -0.0096  0.1831
   44TCq2    O6  680   3.321   1.056   1.660  0.5044  0.1462  0.5928
   44TCq2    H2  681   3.150   1.081   1.492 -1.1423 -0.5203 -1.4838
   44TCq2    H3  682   3.497   0.886   1.356  0.2602  0.0696  1.2425
   44TCq2    H4  683   3.197   1.008   1.068 -1.6132 -1.6711  0.7117
   45TMC2    C1  684   4.655   2.243   9.498  0.1452 -0.3490  0.8040
   45TMC2    C2  685   4.708   2.299   9.389 -0.2467  0.2037 -0.4592
   45TMC2    C3  686   0.098   2.373   9.405 -0.2763 -0.1649 -0.0317
   45TMC2    C4  687   4.710   2.266   9.619  0.2084 -0.0765  1.2110
   45TMC2    C5  688   0.102   2.342   9.634 -0.5597  0.6413 -0.4119
   45TMC2    C6  689   0.165   2.387   9.524 -0.1262  0.1260  0.2334
   45TMC2     C  690   4.564   2.131   9.501 -0.5544 -0.0697 -0.6365
   45TMC2     O  691   4.576   2.055   9.594 -0.4697  0.0973 -0.2275
   45TMC2     H  692   4.663   2.275   9.293 -1.6766 -2.0154  0.7598
   45TMC2    H1  693   4.667   2.224   9.710  0.5255 -0.9915  0.9384
   45TMC2    H2  694   0.260   2.438   9.535 -0.1985  0.1505  0.7283
   45TMC2    C7  695   0.207   2.285   9.725 -0.5920  0.2593  0.2148
   45TMC2    C8  696   0.170   2.413   9.293  0.3965 -0.2938 -0.1172
   45TMC2    O1  697   0.325   2.296   9.699  0.1484  0.0868 -0.0336
   45TMC2    O2  698   0.293   2.426   9.303  0.2057  0.2225  0.4416
   45TMC2    O5  699   0.083   2.445   9.186 -0.2447 -0.8422  0.0663
   45TMC2    H5  700   4.713   2.466   9.209  0.7409  4.7891 -1.1332
   46MPD2     C  701   4.388   1.905   9.444  1.0062  0.0887  0.4293
   46MPD2    C1  702   4.380   2.025   9.380 -0.3326 -0.4500  0.2127
   46MPD2    C2  703   4.284   2.041   9.280  0.4463 -0.4117 -0.4558
   46MPD2    C3  704   4.186   1.947   9.261 -0.7310  0.1417  1.0652
   46MPD2    C4  705   4.193   1.832   9.339 -0.2160  0.1620  0.5825
   46MPD2    C5  706   4.308   1.805   9.413  0.0190 -0.1178 -0.3843
   46MPD2     H  707   4.294   2.127   9.215 -0.4163  1.4361  1.8551
   46MPD2    H1  708   4.130   1.745   9.323 -0.3249  0.3301  0.1142
   46MPD2    H2  709   4.475   1.872   9.499  0.5107 -3.4538 -0.9104
   46MPD2    H3  710   4.327   1.707   9.454 -0.2187 -0.0919 -0.2097
   46MPD2     N  711   4.093   1.973   9.162 -0.7134 -0.0474 -0.5049
   46MPD2    H5  712   4.111   2.056   9.106  2.2607  0.4842  1.2449
   46MPD2    N1  713   4.479   2.125   9.396 -0.0605  0.3334 -0.1509
   46MPD2    H7  714   4.469   2.209   9.340 -0.3556  0.0803 -0.4798
   47TMC2    C1  715   2.252   1.441   9.004 -0.9690 -0.2152 -0.3171
   47TMC2    C2  716   2.259   1.346   8.911 -0.4334 -0.1718  0.1504
   47TMC2    C3  717   2.142   1.292   8.861 -0.6549 -0.1729  0.1978
   47TMC2    C4  718   2.128   1.474   9.052 -0.1141  0.1689  0.2220
   47TMC2    C5  719   2.009   1.430   9.001 -0.3234  0.1018  0.8948
   47TMC2    C6  720   2.017   1.340   8.902 -0.4359  0.3337  0.3678
   47TMC2     C  721   2.375   1.517   9.037 -0.4106 -0.2868 -0.3242
   47TMC2     O  722   2.465   1.516   8.953  0.5856 -0.1570  0.0863
   47TMC2     H  723   2.359   1.319   8.878  0.3846  1.1544  1.5588
   47TMC2    H1  724   2.129   1.540   9.138  1.3525 -0.9625  1.0829
   47TMC2    H2  725   1.929   1.318   8.843 -0.8308  1.1856  0.6414
   47TMC2    C7  726   1.886   1.495   9.037  0.3098 -0.1647  0.1712
   47TMC2    C8  727   2.156   1.211   8.742 -0.0420  0.1904 -0.0197
   47TMC2    O1  728   1.898   1.580   9.122 -0.2550  0.3763  0.1493
   47TMC2    O2  729   2.056   1.201   8.674 -0.2564  0.1626  0.3878
   47TMC2    O5  730   2.234   1.111   8.779  0.1417  0.4462 -0.2251
   47TMC2    H5  731   2.270   1.123   8.870  0.3235 -0.1151 -0.2267
   48MPD2     C  732   2.611   1.643   9.158  0.1439 -0.5097 -0.0194
   48MPD2    C1  733   2.495   1.619   9.226  0.3839  0.4021  0.5648
   48MPD2    C2  734   2.508   1.620   9.363 -0.3058 -0.2843 -0.1500
   48MPD2    C3  735   2.629   1.645   9.428  0.1579  0.1691  0.6125
   48MPD2    C4  736   2.745   1.657   9.358 -0.0912  1.1481  0.4868
   48MPD2    C5  737   2.733   1.663   9.228  0.1331  0.3299  0.2918
   48MPD2     H  738   2.420   1.605   9.425  0.3000  0.8731  0.9923
   48MPD2    H1  739   2.843   1.675   9.402  0.4748 -2.0977  0.4902
   48MPD2    H2  740   2.614   1.649   9.049 -2.2479 -2.0438 -0.1744
   48MPD2    H3  741   2.823   1.682   9.171 -0.0733 -0.5183 -0.3124
   48MPD2     N  742   2.623   1.657   9.572  0.8654 -0.2062  0.2775
   48MPD2    H5  743   2.532   1.643   9.615  0.7874 -1.9352 -0.4538
   48MPD2    N1  744   2.376   1.578   9.158 -0.0976 -0.0216  0.5464
   48MPD2    H7  745   2.297   1.554   9.217  1.7698  0.6283  3.2973
   49MPD2     C  746   0.249   0.052   9.991 -0.5696 -0.4041  0.1220
   49MPD2    C1  747   0.133   0.028  10.059  0.3002  0.4774 -0.2477
   49MPD2    C2  748   0.095   0.109  10.162  0.0624  0.1082 -0.7309
   49MPD2    C3  749   0.183   0.214  10.192 -0.2597  0.4646 -0.2209
   49MPD2    C4  750   0.302   0.242  10.123 -0.8233 -0.0816 -0.5823
   49MPD2    C5  751   0.337   0.153  10.024 -0.0968  0.7686 -0.2847
   49MPD2     H  752   0.004   0.075  10.209 -0.0437 -1.3723 -2.0073
   49MPD2    H1  753   0.378   0.317  10.141  0.1813 -0.9961 -1.0242
   49MPD2    H2  754   0.280   4.713   9.907  0.7851 -0.6843  0.8256
   49MPD2    H3  755   0.427   0.169   9.967  1.2963  2.4944  2.4002
   49MPD2     N  756   0.158   0.292  10.304  0.3687  0.2549  0.1704
   49MPD2    H5  757   0.234   0.352  10.333  1.2146  0.5328 -2.6028
   49MPD2    N1  758   0.043   4.640  10.038 -0.8092 -0.0984 -0.4866
   49MPD2    H7  759   4.688   4.630  10.103  1.0183 -0.6539  1.6075
   50TCq2    C1  760   0.069   4.535   9.958 -0.0585  0.6679 -0.7231
   50TCq2    O2  761   0.169   4.515   9.889  0.0474 -0.6202  0.2214
   50TCq2    C2  762   4.706   4.425   9.966 -0.3725  0.4284 -0.2498
   50TCq2    C3  763   4.669   4.365   9.848  0.5203  0.2684  0.3068
   50TCq2    C4  764   4.556   4.281   9.845  0.4818  0.1129 -0.4412
   50TCq2    C5  765   4.498   4.251   9.969  0.6336 -0.1541 -0.1539
   50TCq2    C6  766   4.552   4.296  10.086 -0.6976  0.8417  0.3817
   50TCq2    C7  767   4.649   4.391  10.085 -0.5753 -0.0059 -0.0790
   50TCq2    C8  768   4.503   4.241  10.211 -0.8116  0.0988  0.5782
   50TCq2    O4  769   4.576   4.273  10.308  0.3014 -0.2680  0.0611
   50TCq2    C9  770   4.500   4.236   9.718  0.4808 -0.5655 -0.4243
   50TCq2    O5  771   4.556   4.277   9.614  0.4673 -0.0489  0.0833
   50TCq2    O6  772   4.394   4.164   9.723  0.3243 -0.3333  0.2461
   50TCq2    H2  773   4.721   4.398   9.759  0.7902 -2.8375 -0.6699
   50TCq2    H3  774   4.413   4.186   9.957  1.9169 -1.7984 -0.3533
   50TCq2    H4  775   4.693   4.424  10.179 -0.1259  0.9455 -0.6215
   51MPD2     C  776   0.799   2.796   1.672 -0.6123 -0.5257 -0.2401
   51MPD2    C1  777   0.689   2.866   1.636  0.3433  0.5871 -0.1774
   51MPD2    C2  778   0.608   2.924   1.733 -0.4187  0.4637  0.3234
   51MPD2    C3  779   0.642   2.907   1.867 -0.7861  0.1366 -0.2402
   51MPD2    C4  780   0.748   2.831   1.900 -0.4682 -0.3330 -0.2531
   51MPD2    C5  781   0.821   2.775   1.808 -0.3828 -0.3510 -0.0507
   51MPD2     H  782   0.509   2.961   1.711 -1.5611 -1.4078  2.2998
   51MPD2    H1  783   0.774   2.815   2.004 -0.1345 -0.6125 -0.3798
   51MPD2    H2  784   0.857   2.728   1.611 -0.7733 -0.2638 -0.6803
   51MPD2    H3  785   0.895   2.706   1.847  0.6290  2.6811  3.3243
   51MPD2     N  786   0.564   2.959   1.973 -0.8483  0.3145 -0.6521
   51MPD2    H5  787   0.602   2.936   2.064 -0.2492 -1.8874 -1.4449
   51MPD2    N1  788   0.636   2.864   1.509 -0.2635 -0.3362  0.3004
   51MPD2    H7  789   0.543   2.903   1.501 -0.2429 -0.4352 -0.4292
   52TCq2    C1  790   0.468   3.059   1.971 -0.3384 -0.0764 -0.8312
   52TCq2    O2  791   0.448   3.129   1.871  0.1924  0.7974 -0.5419
   52TCq2    C2  792   0.431   3.106   2.092 -0.8690 -0.6845  0.0321
   52TCq2    C3  793   0.430   3.017   2.198 -0.4871  0.0386  0.2693
   52TCq2    C4  794   0.464   3.071   2.320 -0.2789 -0.2198 -0.2228
   52TCq2    C5  795   0.496   3.205   2.333 -0.1957  0.5679  0.4806
   52TCq2    C6  796   0.506   3.285   2.223 -0.0711  0.1440 -0.4767
   52TCq2    C7  797   0.465   3.241   2.102  0.2801  0.4916  0.5475
   52TCq2    C8  798   0.565   3.415   2.236 -0.0048  0.3107  0.1320
   52TCq2    O4  799   0.595   3.464   2.128  0.4672 -0.4257 -0.3072
   52TCq2    C9  800   0.478   2.985   2.439 -0.2778  0.1734  0.6856
   52TCq2    O5  801   0.458   2.859   2.416 -0.3072 -0.1681 -0.3879
   52TCq2    O6  802   0.520   3.037   2.547  0.1771  0.1060 -0.9987
   52TCq2    H2  803   0.399   2.913   2.193 -0.5190  0.1643 -2.4875
   52TCq2    H3  804   0.540   3.237   2.427 -0.5019 -0.9762  1.1497
   52TCq2    H4  805   0.476   3.311   2.019 -0.4833 -0.1393 -0.0914
   53TMC2    C1  806   0.991   2.398  12.671  0.7526  0.3339  0.2008
   53TMC2    C2  807   1.038   2.437  12.789  0.1218 -0.0604  0.0468
   53TMC2    C3  808   0.951   2.443  12.897  0.1629  0.1304 -0.2358
   53TMC2    C4  809   0.856   2.364  12.655  0.0222  0.2263 -0.6796
   53TMC2    C5  810   0.776   2.358  12.766 -0.6220 -0.1007  0.5979
   53TMC2    C6  811   0.823   2.408  12.888 -0.6993 -0.4851  0.2733
   53TMC2     C  812   1.076   2.426  12.556 -0.2684  0.6974  0.3796
   53TMC2     O  813   1.168   2.505  12.563 -0.2514  0.3071 -0.5265
   53TMC2     H  814   1.143   2.462  12.797 -0.0761  1.2188 -1.2307
   53TMC2    H1  815   0.833   2.315  12.561 -0.2449  1.3965 -1.2205
   53TMC2    H2  816   0.757   2.424  12.973  0.0105 -0.3086  0.7962
   53TMC2    C7  817   0.640   2.335  12.736 -0.0803  0.0377 -0.3290
   53TMC2    C8  818   0.982   2.518  13.014 -0.6520 -0.1354 -0.1219
   53TMC2    O1  819   0.610   2.357  12.618  0.6681  0.2153 -0.0121
   53TMC2    O2  820   0.899   2.571  13.087  0.0773 -0.2330  0.0516
   53TMC2    O5  821   1.098   2.470  13.060 -0.4419  0.7421 -0.6865
   53TMC2    H5  822   1.160   2.428  12.997  0.6411  3.2694 -1.3151
   54MPD2     C  823   1.170   2.432  12.250 -0.3432  0.5510  1.0502
   54MPD2    C1  824   1.060   2.368  12.313 -0.6899  0.9487  0.1569
   54MPD2    C2  825   0.955   2.329  12.220  0.0238 -0.6352 -0.5854
   54MPD2    C3  826   0.976   2.337  12.087  0.2859  0.6774  0.0847
   54MPD2    C4  827   1.094   2.387  12.036  0.5030 -0.2760 -0.3207
   54MPD2    C5  828   1.186   2.437  12.119 -0.2934 -0.2167 -0.3506
   54MPD2     H  829   0.864   2.288  12.262  0.5316 -0.9195  0.2381
   54MPD2    H1  830   1.113   2.370  11.930  1.1360 -0.6797 -0.1345
   54MPD2    H2  831   1.250   2.468  12.313 -0.9945  2.8554  0.5461
   54MPD2    H3  832   1.285   2.453  12.080 -0.4871  0.7805 -0.4164
   54MPD2     N  833   0.878   2.283  11.997 -0.3316 -0.3048  0.1053
   54MPD2    H5  834   0.901   2.285  11.898  1.4267  0.4340  0.5190
   54MPD2    N1  835   1.027   2.357  12.448 -0.3020 -0.6415  0.0837
   54MPD2    H7  836   0.948   2.297  12.471 -0.3401 -0.3359  0.7303
   55MPD2     C  837   1.207   0.400   0.002 -0.4555 -0.0804  0.6266
   55MPD2    C1  838   1.222   0.263   0.040  0.1043 -0.4757 -0.2028
   55MPD2    C2  839   1.195   0.229   0.175 -0.4233  0.6624 -0.4402
   55MPD2    C3  840   1.138   0.317   0.266 -0.5373 -0.3921 -0.8264
   55MPD2    C4  841   1.117   0.444   0.222  0.0666  0.8173  0.1005
   55MPD2    C5  842   1.150   0.480   0.094 -0.7627 -0.4607  0.0407
   55MPD2     H  843   1.205   0.125   0.204 -0.8071  0.3937 -1.2687
   55MPD2    H1  844   1.070   0.521   0.283 -1.4908  0.6586 -0.8830
   55MPD2    H2  845   1.240   0.437  17.597  1.1706  0.3734  1.3604
   55MPD2    H3  846   1.121   0.581   0.069  3.0458  0.9725  1.4321
   55MPD2     N  847   1.118   0.266   0.398  0.1236  0.4512 -0.0642
   55MPD2    H5  848   1.124   0.166   0.417  2.3104  0.6003  0.1282
   55MPD2    N1  849   1.276   0.168  17.641 -0.0935 -0.2547  0.8316
   55MPD2    H7  850   1.313   0.203  17.554  0.0542 -0.5655  0.7684
   56TCq2    C1  851   1.268   0.031  17.657  0.2816 -0.0822 -0.4571
   56TCq2    O2  852   1.225   4.683   0.060  0.1265  0.3693  0.0754
   56TCq2    C2  853   1.318   4.675  17.545  0.4151 -0.3928 -0.1179
   56TCq2    C3  854   1.362   0.008  17.420  0.0968 -0.0238 -0.1506
   56TCq2    C4  855   1.438   4.652  17.337 -0.3494  0.2023 -0.1649
   56TCq2    C5  856   1.434   4.516  17.351 -0.3986  0.1736  0.1284
   56TCq2    C6  857   1.372   4.458  17.462 -0.1063  0.5053 -0.6182
   56TCq2    C7  858   1.319   4.537  17.560  0.3202  0.0978 -0.3630
   56TCq2    C8  859   1.401   4.315  17.483 -1.2572 -0.0178  0.0996
   56TCq2    O4  860   1.464   4.254  17.403  0.1884  0.4043  0.6123
   56TCq2    C9  861   1.510   4.700  17.230  0.4772 -0.2164 -0.5849
   56TCq2    O5  862   1.518   0.103  17.221  0.1889 -0.0945 -0.5807
   56TCq2    O6  863   1.572   4.623  17.151 -0.2902 -0.1610  0.3702
   56TCq2    H2  864   1.374   0.115  17.403  0.4111  0.2667  1.8903
   56TCq2    H3  865   1.501   4.458  17.289 -3.3230 -1.3455 -1.5825
   56TCq2    H4  866   1.285   4.499  17.655  0.8671  1.6157  0.4386
   57TMC2    C1  867   0.858   0.743  13.782 -0.5718 -0.9097 -0.6267
   57TMC2    C2  868   0.935   0.662  13.858 -0.0046  0.1564  0.5340
   57TMC2    C3  869   1.062   0.643  13.816 -0.1785 -0.3121  0.2131
   57TMC2    C4  870   0.907   0.805  13.664  0.1315  0.2227  0.5643
   57TMC2    C5  871   1.036   0.768  13.629 -0.4962  1.2834 -0.4383
   57TMC2    C6  872   1.126   0.703  13.711 -0.3515 -0.0725 -0.0744
   57TMC2     C  873   0.733   0.792  13.843 -0.1404  0.0545 -0.4380
   57TMC2     O  874   0.687   0.896  13.796 -0.3045 -0.0599  0.2132
   57TMC2     H  875   0.903   0.603  13.943 -1.3517 -0.8374 -0.6517
   57TMC2    H1  876   0.839   0.861  13.601 -1.1299  1.0849  2.7105
   57TMC2    H2  877   1.230   0.686  13.689 -0.9082 -1.9828 -1.2725
   57TMC2    C7  878   1.077   0.814  13.501 -0.4241  0.2378  0.5470
   57TMC2    C8  879   1.127   0.534  13.887 -0.0292  0.5475 -0.0855
   57TMC2    O1  880   1.004   0.901  13.457 -0.2986 -0.4450 -0.0581
   57TMC2    O2  881   1.248   0.520  13.891 -0.2501 -0.2661 -0.8351
   57TMC2    O5  882   1.048   0.422  13.876  0.0850 -0.3123  0.2204
   57TMC2    H5  883   0.951   0.438  13.870  0.4048  1.3151 -0.5238
   58MPD2     C  884   0.370   0.858  14.208  0.1606  0.6408  0.2272
   58MPD2    C1  885   0.397   0.928  14.090  0.3470  0.1189  0.4776
   58MPD2    C2  886   0.488   0.879  14.004 -0.0504 -0.1484 -0.0207
   58MPD2    C3  887   0.568   0.766  14.030 -0.6198 -0.1287  0.5052
   58MPD2    C4  888   0.536   0.694  14.148  0.3389  0.3530  0.1707
   58MPD2    C5  889   0.431   0.735  14.221 -0.5696  0.7550  0.0898
   58MPD2     H  890   0.499   0.941  13.916  0.4637  0.3272  0.3725
   58MPD2    H1  891   0.572   0.595  14.174 -0.5078  0.8068  3.0713
   58MPD2    H2  892   0.296   0.885  14.283  2.7666  3.3836  1.8147
   58MPD2    H3  893   0.407   0.673  14.307 -0.4860 -0.1017 -0.5065
   58MPD2     N  894   0.686   0.728  13.951  0.0004  0.0519  0.0592
   58MPD2    H5  895   0.745   0.652  13.983 -0.7841 -0.7911 -0.4968
   58MPD2    N1  896   0.336   1.049  14.046 -0.3334 -0.2209  0.2106
   58MPD2    H7  897   0.377   1.115  13.981 -2.6974  0.6118 -0.4162
   59MPD2     C  898   3.074   0.957  13.102  0.1115  0.2132 -0.4906
   59MPD2    C1  899   3.207   0.944  13.060 -0.2537  0.6621 -0.1108
   59MPD2    C2  900   3.309   1.012  13.121 -0.7529 -0.0580 -0.2825
   59MPD2    C3  901   3.272   1.097  13.226  0.4660  0.7293 -0.6918
   59MPD2    C4  902   3.138   1.118  13.263  0.8730 -0.0481 -0.3065
   59MPD2    C5  903   3.041   1.050  13.193  0.4003 -0.2147  0.1973
   59MPD2     H  904   3.411   0.989  13.094 -0.3821 -0.4756  1.4510
   59MPD2    H1  905   3.104   1.189  13.338  1.3800  1.3680 -1.4169
   59MPD2    H2  906   2.997   0.893  13.061 -0.5008  1.4378 -1.2508
   59MPD2    H3  907   2.939   1.070  13.223  0.3614 -0.3619  0.1604
   59MPD2     N  908   3.363   1.178  13.293 -0.0010  0.4868 -0.2958
   59MPD2    H5  909   3.333   1.249  13.360  3.4738 -0.3033  2.1101
   59MPD2    N1  910   3.235   0.853  12.960 -0.1514 -0.3487 -0.3449
   59MPD2    H7  911   3.333   0.848  12.934 -0.0067 -3.9778  0.9036
   60TCq2    C1  912   3.156   0.745  12.916  0.5056  0.0805 -0.4195
   60TCq2    O2  913   3.041   0.712  12.937 -0.0972 -0.2687  0.7600
   60TCq2    C2  914   3.232   0.654  12.841  0.1189 -0.8848 -0.8855
   60TCq2    C3  915   3.201   0.522  12.855  0.3066  0.0707  0.2696
   60TCq2    C4  916   3.256   0.435  12.766  0.1910 -0.7417 -0.4897
   60TCq2    C5  917   3.348   0.472  12.680 -1.6237 -0.0128 -0.9943
   60TCq2    C6  918   3.375   0.603  12.668 -0.5001 -0.5389  0.4062
   60TCq2    C7  919   3.326   0.695  12.749  0.1067  0.4889  0.7966
   60TCq2    C8  920   3.452   0.650  12.550  0.1494  0.1042 -0.0356
   60TCq2    O4  921   3.549   0.581  12.522 -0.1715  0.2414  0.5747
   60TCq2    C9  922   3.219   0.295  12.777  0.1228  0.0769  0.2083
   60TCq2    O5  923   3.272   0.210  12.705  0.2237 -1.0581  0.0059
   60TCq2    O6  924   3.139   0.267  12.875  0.0247  0.0509  0.1473
   60TCq2    H2  925   3.142   0.492  12.941  0.0734  0.4071  0.2286
   60TCq2    H3  926   3.393   0.399  12.613 -0.5607  0.4997 -0.8396
   60TCq2    H4  927   3.345   0.800  12.728  4.4315 -0.5391 -0.5073
   61MPD2     C  928   2.777   2.315  14.253 -0.1014 -0.0853  0.1862
   61MPD2    C1  929   2.657   2.313  14.320  0.0555 -0.8599 -0.1718
   61MPD2    C2  930   2.546   2.351  14.252 -0.1573  0.0086  0.2720
   61MPD2    C3  931   2.546   2.402  14.121 -0.1395 -0.6054 -0.0472
   61MPD2    C4  932   2.667   2.393  14.054  0.0063  0.2261  0.6967
   61MPD2    C5  933   2.777   2.356  14.122 -0.3839  0.2333  0.8487
   61MPD2     H  934   2.452   2.360  14.304  0.2711  0.5679  0.9461
   61MPD2    H1  935   2.678   2.445  13.959 -1.3008 -1.0821 -0.1603
   61MPD2    H2  936   2.871   2.287  14.298 -1.1936 -1.4391  1.6623
   61MPD2    H3  937   2.874   2.372  14.075 -0.6204  0.6056  0.4862
   61MPD2     N  938   2.440   2.476  14.068  0.0709  0.0860  0.3128
   61MPD2    H5  939   2.459   2.544  13.995 -2.2365  0.1634 -0.2230
   61MPD2    N1  940   2.641   2.276  14.457 -0.2618  0.0148  0.6221
   61MPD2    H7  941   2.548   2.270  14.498 -0.9613  0.5738 -0.8494
   62TCq2    C1  942   2.750   2.270  14.543  0.0605  0.1672  0.0372
   62TCq2    O2  943   2.872   2.264  14.534  0.3441 -0.1916 -0.0811
   62TCq2    C2  944   2.703   2.268  14.678 -0.9365  0.0143  0.3152
   62TCq2    C3  945   2.779   2.200  14.764  0.2686 -0.1720 -0.4532
   62TCq2    C4  946   2.770   2.238  14.900  1.0282 -0.0663  0.1373
   62TCq2    C5  947   2.693   2.339  14.941 -0.1938 -0.5814  0.4047
   62TCq2    C6  948   2.608   2.403  14.856  0.6026 -0.1627  0.2808
   62TCq2    C7  949   2.611   2.365  14.718  0.3724  0.4173 -0.5344
   62TCq2    C8  950   2.531   2.517  14.893 -0.1230  0.4650  0.2112
   62TCq2    O4  951   2.558   2.570  14.999 -0.1930 -0.4734 -0.1479
   62TCq2    C9  952   2.870   2.175  14.983 -0.5800  0.2735 -0.0693
   62TCq2    O5  953   2.952   2.098  14.926  0.2353 -0.6183 -0.2729
   62TCq2    O6  954   2.866   2.180  15.110  0.0608  0.7508  0.6648
   62TCq2    H2  955   2.838   2.115  14.730 -0.7756 -0.7862 -0.7593
   62TCq2    H3  956   2.705   2.364  15.046  1.1287 -0.0549  0.1322
   62TCq2    H4  957   2.569   2.437  14.649 -0.4830 -2.3128 -2.8336
   63TMC2    C1  958   2.564   2.367  10.812 -0.6058 -0.4503  0.2694
   63TMC2    C2  959   2.678   2.421  10.860  0.1762  0.3490  0.4031
   63TMC2    C3  960   2.761   2.477  10.772 -0.6179  0.8256 -0.4135
   63TMC2    C4  961   2.527   2.375  10.678 -0.1272  0.0349 -0.4701
   63TMC2    C5  962   2.622   2.431  10.588  0.0912  0.0874  0.1187
   63TMC2    C6  963   2.736   2.487  10.638 -0.3297  0.3140 -0.5439
   63TMC2     C  964   2.471   2.324  10.911  0.6885  0.1356  0.1114
   63TMC2     O  965   2.464   2.374  11.022 -0.2767  0.3817 -0.0801
   63TMC2     H  966   2.709   2.408  10.963 -1.8993 -4.6000  0.3901
   63TMC2    H1  967   2.434   2.338  10.636 -0.5745  0.9117 -0.2639
   63TMC2    H2  968   2.795   2.547  10.570  2.2585  1.0028  2.3001
   63TMC2    C7  969   2.587   2.421  10.450 -0.3076 -0.4141 -0.0997
   63TMC2    C8  970   2.875   2.545  10.830  0.5219  0.2930  0.9649
   63TMC2    O1  971   2.485   2.364  10.422 -0.6933 -0.2835 -0.2478
   63TMC2    O2  972   2.867   2.600  10.940  0.8157 -0.1117 -0.2557
   63TMC2    O5  973   2.976   2.463  10.792 -0.3826  0.2362 -0.0642
   63TMC2    H5  974   2.971   2.419  10.704  1.2283  1.1386 -0.6005
   64MPD2     C  975   2.050   2.023  10.987 -0.0307 -0.1076  0.2135
   64MPD2    C1  976   2.079   2.036  10.858 -0.9013  0.1758 -0.0757
   64MPD2    C2  977   2.181   2.119  10.814 -0.6968 -0.7575 -0.4778
   64MPD2    C3  978   2.265   2.185  10.900  0.5016 -0.0039  0.7887
   64MPD2    C4  979   2.236   2.175  11.035  0.2940 -0.7838  0.1515
   64MPD2    C5  980   2.133   2.091  11.071 -0.2320  0.1437  0.1544
   64MPD2     H  981   2.201   2.125  10.708  2.2231 -2.7856 -0.0348
   64MPD2    H1  982   2.308   2.211  11.108  1.8730 -1.3332 -1.1236
   64MPD2    H2  983   1.971   1.966  11.035 -2.1151  2.3328 -0.3315
   64MPD2    H3  984   2.107   2.068  11.173  0.2255  3.2024  0.9387
   64MPD2     N  985   2.371   2.250  10.844 -0.0795  0.0708  0.9196
   64MPD2    H5  986   2.382   2.234  10.745  1.9253 -2.2831  1.5376
   64MPD2    N1  987   2.006   1.970  10.758 -0.5992 -0.3266 -0.2871
   64MPD2    H7  988   2.029   1.995  10.662  0.6515  0.9410  0.3440
   65MPD2     C  989   3.442   1.861  15.876  0.4937 -0.4118 -0.0006
   65MPD2    C1  990   3.406   1.865  15.741 -0.1237  0.1193 -0.4796
   65MPD2    C2  991   3.385   1.744  15.681  0.6949 -0.2122  0.5676
   65MPD2    C3  992   3.362   1.625  15.749 -0.3303 -0.5129  0.8650
   65MPD2    C4  993   3.385   1.628  15.886  0.4092 -0.3306  0.7339
   65MPD2    C5  994   3.426   1.745  15.950 -0.3995  0.0831  0.4030
   65MPD2     H  995   3.360   1.752  15.575 -0.3675  1.1840  0.9187
   65MPD2    H1  996   3.378   1.535  15.941  0.4482 -1.0144 -0.4155
   65MPD2    H2  997   3.453   1.957  15.925 -0.1283 -0.6852  0.6806
   65MPD2    H3  998   3.462   1.750  16.052 -0.6642  0.5209  0.4754
   65MPD2     N  999   3.315   1.507  15.696  0.2658 -0.0507 -0.1921
   65MPD2    H5 1000   3.295   1.431  15.759  0.4919  1.5723  1.8257
   65MPD2    N1 1001   3.377   1.982  15.668  0.1919  0.3465  0.1154
   65MPD2    H7 1002   3.307   1.973  15.595 -0.4033 -2.9982  1.1173
   66TCq2    C1 1003   3.428   2.112  15.694 -0.8714  0.1960 -0.8067
   66TCq2    O2 1004   3.510   2.153  15.778 -0.3595 -0.0496 -0.1021
   66TCq2    C2 1005   3.368   2.216  15.610  0.1838 -0.1346  0.0991
   66TCq2    C3 1006   3.320   2.178  15.491  0.0035  0.5956  0.2585
   66TCq2    C4 1007   3.246   2.272  15.419 -0.3085 -0.3719  0.5104
   66TCq2    C5 1008   3.238   2.398  15.461  0.4164  0.3729  0.4337
   66TCq2    C6 1009   3.292   2.434  15.576 -0.1699 -1.6064  0.1182
   66TCq2    C7 1010   3.362   2.346  15.658  0.3162  0.3667 -0.3681
   66TCq2    C8 1011   3.316   2.575  15.588 -0.6705 -0.6436 -0.2268
   66TCq2    O4 1012   3.354   2.637  15.489 -0.4459 -0.1406 -0.5913
   66TCq2    C9 1013   3.188   2.229  15.295 -0.2560  0.0373  0.5397
   66TCq2    O5 1014   3.111   2.308  15.234  0.6849  0.1705  0.3949
   66TCq2    O6 1015   3.186   2.104  15.274  0.3316 -0.3135  0.0207
   66TCq2    H2 1016   3.338   2.079  15.449 -2.3300  0.0253  0.5872
   66TCq2    H3 1017   3.183   2.472  15.402 -1.3984 -0.6375  0.8646
   66TCq2    H4 1018   3.422   2.375  15.744 -3.2198  2.4310  1.4607
   67MPD2     C 1019   3.253   0.874  13.959 -0.2591  0.0288 -0.3648
   67MPD2    C1 1020   3.165   0.914  14.060 -0.9329 -0.1950 -0.2122
   67MPD2    C2 1021   3.031   0.925  14.024  0.0674 -0.7793  0.2423
   67MPD2    C3 1022   2.991   0.888  13.896 -0.3862  0.5924 -0.2241
   67MPD2    C4 1023   3.081   0.860  13.795 -0.4929  0.1203 -0.1562
   67MPD2    C5 1024   3.210   0.847  13.830  0.9986  0.1614 -0.2661
   67MPD2     H 1025   2.966   0.951  14.106 -1.9638 -4.2094 -0.2512
   67MPD2    H1 1026   3.039   0.844  13.696  0.7106  0.6441 -0.7517
   67MPD2    H2 1027   3.359   0.874  13.981 -0.3971 -0.5520  0.2875
   67MPD2    H3 1028   3.277   0.808  13.754  1.6956  2.0046 -0.5948
   67MPD2     N 1029   2.853   0.891  13.855  0.3856 -0.1592 -0.1479
   67MPD2    H5 1030   2.835   0.883  13.756  1.1098  2.7303 -0.5057
   67MPD2    N1 1031   3.202   0.937  14.197  0.5574 -0.3159  0.2707
   67MPD2    H7 1032   3.134   0.983  14.258  1.8579 -0.7334  2.0409
   68TCq2    C1 1033   3.319   0.900  14.258  1.1288  0.5870  0.2199
   68TCq2    O2 1034   3.401   0.820  14.217 -0.0078 -0.5017  0.4315
   68TCq2    C2 1035   3.349   0.988  14.364  0.7987 -0.9288 -0.1835
   68TCq2    C3 1036   3.257   1.089  14.398  0.2225  0.1082 -0.0613
   68TCq2    C4 1037   3.292   1.181  14.495 -0.4889  0.2010  0.0139
   68TCq2    C5 1038   3.416   1.190  14.547  0.5593 -0.4613  0.0801
   68TCq2    C6 1039   3.505   1.086  14.515 -0.3751  0.4211  0.2227
   68TCq2    C7 1040   3.475   0.987  14.417  0.1028 -0.0039 -0.0356
   68TCq2    C8 1041   3.610   1.041  14.605 -0.4096 -0.8047 -0.4615
   68TCq2    O4 1042   3.702   0.980  14.555  0.3329  0.3854 -0.0929
   68TCq2    C9 1043   3.196   1.288  14.526 -0.1634  0.4310  0.1886
   68TCq2    O5 1044   3.222   1.358  14.629  0.5556 -0.1109 -0.0942
   68TCq2    O6 1045   3.108   1.313  14.443  0.7116  0.3654  0.7778
   68TCq2    H2 1046   3.158   1.104  14.355  0.8090  0.2300 -1.3855
   68TCq2    H3 1047   3.444   1.275  14.608 -0.1669  1.5015 -2.3078
   68TCq2    H4 1048   3.530   0.893  14.414  1.7413  0.9917 -0.8603
   69TMC2    C1 1049   4.542   2.751  12.042  0.0160  0.3623 -0.1323
   69TMC2    C2 1050   4.445   2.688  11.973 -0.0068 -0.4041 -0.5597
   69TMC2    C3 1051   4.478   2.642  11.849 -0.1297  0.2695  0.2619
   69TMC2    C4 1052   4.669   2.759  11.995  0.2638  0.7517 -1.0046
   69TMC2    C5 1053   4.690   2.712  11.871 -0.1989  0.0168 -0.0338
   69TMC2    C6 1054   4.601   2.648  11.794 -0.2927 -0.0722 -0.1179
   69TMC2     C 1055   4.512   2.801  12.174 -0.1113  0.3196 -0.2042
   69TMC2     O 1056   4.437   2.738  12.245 -0.6703 -0.0860  0.3412
   69TMC2     H 1057   4.346   2.683  12.016 -0.2736 -1.2309 -1.2686
   69TMC2    H1 1058   0.037   2.795  12.043  0.1844 -1.2124  0.6440
   69TMC2    H2 1059   4.617   2.619  11.691  1.3111 -2.1880  0.7345
   69TMC2    C7 1060   0.096   2.735  11.808  0.0332  0.2268 -0.5828
   69TMC2    C8 1061   4.375   2.607  11.753  0.2925 -0.0098 -0.5759
   69TMC2    O1 1062   0.196   2.738  11.875  0.8444  0.5843 -0.3401
   69TMC2    O2 1063   4.397   2.654  11.643 -0.1218 -0.3196  0.1890
   69TMC2    O5 1064   4.259   2.602  11.819 -0.1100 -0.5196  0.5331
   69TMC2    H5 1065   4.273   2.548  11.899  0.7490  0.1183  0.8131
   70MPD2     C 1066   4.630   3.127  12.313  0.1430 -0.2028  0.0305
   70MPD2    C1 1067   4.585   2.996  12.317  0.2279 -0.0025 -0.6736
   70MPD2    C2 1068   4.542   2.951  12.437  0.4608  0.1099 -0.5874
   70MPD2    C3 1069   4.553   3.026  12.551 -0.4661 -0.9382 -0.4393
   70MPD2    C4 1070   4.610   3.147  12.551 -0.2660  0.7130 -0.1116
   70MPD2    C5 1071   4.656   3.197  12.431  0.3912 -0.4878 -0.2792
   70MPD2     H 1072   4.499   2.852  12.444  1.5495 -0.3607 -0.4830
   70MPD2    H1 1073   4.627   3.198  12.645 -0.6026  0.4524  0.0935
   70MPD2    H2 1074   4.671   3.165  12.220 -0.4637 -0.1547 -0.2168
   70MPD2    H3 1075   4.698   3.297  12.435  0.0216 -0.3607  0.3699
   70MPD2     N 1076   4.512   2.981  12.678 -0.3670 -0.1082 -0.8693
   70MPD2    H5 1077   4.544   3.036  12.757 -1.8888 -0.6965  0.1744
   70MPD2    N1 1078   4.585   2.918  12.198  0.7410 -0.2371  0.3225
   70MPD2    H7 1079   4.645   2.957  12.125 -0.9461  0.9347 -0.4504
   71TMC2    C1 1080   3.212   2.857   1.679  0.3243  0.3545 -0.4245
   71TMC2    C2 1081   3.261   2.780   1.782 -0.3094 -0.5047 -0.7535
   71TMC2    C3 1082   3.166   2.748   1.876  0.4356 -0.1376 -0.0419
   71TMC2    C4 1083   3.079   2.900   1.674 -0.1855  0.3931  0.2443
   71TMC2    C5 1084   2.997   2.863   1.774  0.2452 -0.7306 -0.0741
   71TMC2    C6 1085   3.037   2.789   1.878  0.6014 -0.7336  0.2896
   71TMC2     C 1086   3.296   2.880   1.565 -0.2340  0.5412 -0.5620
   71TMC2     O 1087   3.243   2.878   1.452 -0.0707 -0.8034 -0.1588
   71TMC2     H 1088   3.356   2.728   1.782  0.8747  1.6674 -0.7114
   71TMC2    H1 1089   3.050   2.965   1.592 -1.2704 -1.8151 -1.1246
   71TMC2    H2 1090   2.960   2.731   1.928 -0.7457  0.3962 -0.4899
   71TMC2    C7 1091   2.879   2.941   1.801 -0.0038 -0.5694 -0.2033
   71TMC2    C8 1092   3.198   2.636   1.962 -0.5210  0.1918  0.3817
   71TMC2    O1 1093   2.864   2.988   1.914 -0.4631 -0.1222 -0.2594
   71TMC2    O2 1094   3.286   2.554   1.931 -0.0778 -0.3696 -0.7749
   71TMC2    O5 1095   3.204   2.686   2.083 -0.2617 -0.1571  0.5515
   71TMC2    H5 1096   3.169   2.778   2.088 -0.7840 -0.4591  2.5820
   72MPD2     C 1097   3.777   2.964   1.373  0.1151  0.1938 -0.5595
   72MPD2    C1 1098   3.649   2.967   1.316  0.1239  0.1751  0.4475
   72MPD2    C2 1099   3.535   2.943   1.384 -0.0154  0.7344 -0.0508
   72MPD2    C3 1100   3.540   2.902   1.516 -0.2851  0.0244 -1.0325
   72MPD2    C4 1101   3.667   2.893   1.574  0.2448  0.3683  0.2089
   72MPD2    C5 1102   3.781   2.931   1.506  0.2406  0.4312  0.1252
   72MPD2     H 1103   3.439   2.952   1.335  0.8623  1.9976 -1.5131
   72MPD2    H1 1104   3.676   2.881   1.681  0.6768  1.3796  0.2781
   72MPD2    H2 1105   3.867   2.984   1.317  0.6888 -1.4429 -0.2124
   72MPD2    H3 1106   3.876   2.937   1.557  1.7155  0.2296 -2.5967
   72MPD2     N 1107   3.427   2.897   1.605  0.1453 -0.3228 -0.0589
   72MPD2    H5 1108   3.448   2.886   1.703 -1.8129  0.7810  0.4883
   72MPD2    N1 1109   3.626   2.996   1.180 -0.3943 -0.7608 -0.4288
   72MPD2    H7 1110   3.531   2.997   1.145 -0.2368 -2.1319 -0.8955
   73TMC2    C1 1111   2.359   4.398  14.314  0.0969 -0.4056  0.6244
   73TMC2    C2 1112   2.270   4.423  14.420  0.7124 -0.4825  0.6779
   73TMC2    C3 1113   2.284   4.352  14.537  0.4384  0.9598 -0.2811
   73TMC2    C4 1114   2.456   4.298  14.336  0.2353 -0.2837 -0.7315
   73TMC2    C5 1115   2.485   4.259  14.462 -0.2497 -0.4329 -0.8033
   73TMC2    C6 1116   2.403   4.291  14.569  0.5271 -0.0271 -0.1204
   73TMC2     C 1117   2.395   4.514  14.230 -0.1059 -0.0799  0.3672
   73TMC2     O 1118   2.503   4.492  14.176  0.1073  0.3421 -0.4383
   73TMC2     H 1119   2.180   4.482  14.406  0.0538 -1.7832 -0.6390
   73TMC2    H1 1120   2.516   4.267  14.251  2.7611 -1.8669  1.6174
   73TMC2    H2 1121   2.443   4.272  14.668 -0.5058  1.5877  0.6115
   73TMC2    C7 1122   2.618   4.270  14.495 -0.5233 -0.0362 -0.6094
   73TMC2    C8 1123   2.177   4.373  14.633  0.0428 -0.5383  0.1491
   73TMC2    O1 1124   2.657   4.222  14.600  0.0940 -0.6368  0.0862
   73TMC2    O2 1125   2.090   4.461  14.631  0.4658 -0.0232 -0.5221
   73TMC2    O5 1126   2.165   4.265  14.718 -0.0086 -0.1180  0.7970
   73TMC2    H5 1127   2.226   4.189  14.705 -1.3254 -0.6878 -2.0133
   74MPD2     C 1128   2.392   0.261  14.042 -0.0887 -0.2500 -0.2600
   74MPD2    C1 1129   2.496   0.170  14.071  0.3729 -0.1052  0.0166
   74MPD2    C2 1130   2.463   0.043  14.116 -0.0524  0.6180 -0.8413
   74MPD2    C3 1131   2.334   0.007  14.141  0.9100  0.1481 -0.1527
   74MPD2    C4 1132   2.229   0.094  14.105 -0.3440  0.5537 -0.6227
   74MPD2    C5 1133   2.260   0.216  14.054 -0.2370 -0.9155  0.5847
   74MPD2     H 1134   2.549   4.700  14.120 -0.1357  0.5722  0.0604
   74MPD2    H1 1135   2.128   0.084  14.141  0.8746 -2.4054  1.9593
   74MPD2    H2 1136   2.412   0.365  14.021 -2.8674  0.3970  0.2990
   74MPD2    H3 1137   2.182   0.291  14.046 -1.3856 -1.9749  1.7556
   74MPD2     N 1138   2.300   4.611  14.208  0.1738 -0.2982  0.1796
   74MPD2    H5 1139   2.204   4.589  14.235  0.0055 -3.3078 -2.8540
   74MPD2    N1 1140   2.633   0.210  14.063  0.3472 -0.0387 -0.7747
   74MPD2    H7 1141   2.635   0.309  14.040  1.5053 -0.5143 -2.6882
   75TCq2    C1 1142   2.749   0.882  13.943 -0.4396 -0.1915  0.0491
   75TCq2    O2 1143   2.765   0.854  14.064  0.0312 -0.6001 -0.1308
   75TCq2    C2 1144   2.608   0.889  13.888  0.1843 -0.4274 -1.0428
   75TCq2    C3 1145   2.503   0.877  13.978  0.0895  0.6809  0.1673
   75TCq2    C4 1146   2.377   0.905  13.935  0.2789 -0.4399  0.7468
   75TCq2    C5 1147   2.355   0.933  13.801  0.0795  0.6774 -0.3470
   75TCq2    C6 1148   2.462   0.931  13.713  0.3273  0.1318 -0.0708
   75TCq2    C7 1149   2.586   0.913  13.759  0.0728 -0.7092  0.2415
   75TCq2    C8 1150   2.440   0.999  13.586 -0.0428  0.4892 -0.1784
   75TCq2    O4 1151   2.510   0.978  13.492 -0.4809  0.2661  0.6784
   75TCq2    C9 1152   2.269   0.865  14.028 -0.0896 -0.1098 -0.0744
   75TCq2    O5 1153   2.280   0.878  14.154  0.1309  0.3221 -0.3194
   75TCq2    O6 1154   2.154   0.845  13.971  0.3148  0.4925  0.1192
   75TCq2    H2 1155   2.508   0.841  14.080  0.9776  0.8896  0.1990
   75TCq2    H3 1156   2.253   0.931  13.764 -0.3916  2.2673  0.8406
   75TCq2    H4 1157   2.670   0.941  13.696 -3.1065  0.7351 -3.3713
   76MPD2     C 1158   1.134   2.153  11.662 -0.0233  0.0335  0.0763
   76MPD2    C1 1159   1.166   2.260  11.574 -0.2138 -0.4257  0.3887
   76MPD2    C2 1160   1.281   2.248  11.491 -0.3286 -0.0842 -0.0243
   76MPD2    C3 1161   1.368   2.140  11.497  0.6248 -0.2228 -0.7718
   76MPD2    C4 1162   1.339   2.042  11.587  0.6521 -0.4625 -0.3137
   76MPD2    C5 1163   1.228   2.050  11.667 -0.0917  0.0195  0.2197
   76MPD2     H 1164   1.294   2.327  11.418 -2.3563 -2.5321 -3.0362
   76MPD2    H1 1165   1.402   1.955  11.605  2.3485  0.7804 -0.2166
   76MPD2    H2 1166   1.046   2.149  11.726  1.2587  0.6269  1.8997
   76MPD2    H3 1167   1.204   1.983  11.750  1.4539  1.2712  1.6681
   76MPD2     N 1168   1.493   2.132  11.425 -0.0814  0.1212 -0.2852
   76MPD2    H5 1169   1.550   2.048  11.426  2.6070  2.0010  2.7439
   76MPD2    N1 1170   1.080   2.365  11.546  0.3526 -0.2570 -0.1623
   76MPD2    H7 1171   1.098   2.417  11.460 -2.9914  0.6491 -0.3019
   77TCq2    C1 1172   1.528   2.211  11.324 -0.7412  0.2172  0.0533
   77TCq2    O2 1173   1.482   2.322  11.298 -0.1232  0.6203 -0.5859
   77TCq2    C2 1174   1.662   2.191  11.275  0.4941  0.0201 -0.1051
   77TCq2    C3 1175   1.750   2.290  11.315  0.4101 -0.2201  0.4534
   77TCq2    C4 1176   1.859   2.268  11.387 -0.1905 -0.7730 -0.4872
   77TCq2    C5 1177   1.898   2.137  11.402 -0.4204  0.3711  0.3653
   77TCq2    C6 1178   1.811   2.033  11.366  0.6683  0.5765 -0.1418
   77TCq2    C7 1179   1.702   2.062  11.292 -0.0818 -0.1664 -0.2732
   77TCq2    C8 1180   1.801   1.926  11.464 -0.2544  0.2893 -0.5946
   77TCq2    O4 1181   1.699   1.852  11.447  0.5516  0.2152 -0.2299
   77TCq2    C9 1182   1.946   2.372  11.418  0.0742 -0.1249 -0.3272
   77TCq2    O5 1183   2.058   2.339  11.470  0.5434  0.1157 -0.2703
   77TCq2    O6 1184   1.912   2.490  11.388 -0.6982 -0.1013 -0.2970
   77TCq2    H2 1185   1.717   2.391  11.292 -0.4872 -0.4316  0.8082
   77TCq2    H3 1186   1.998   2.115  11.438 -0.8509 -0.9445  0.7300
   77TCq2    H4 1187   1.634   1.980  11.272 -0.4515 -0.3198  1.6143
   78MPD1     C 1188   1.780   2.820   1.512 -0.0134  0.4800  0.6569
   78MPD1    C1 1189   1.827   2.690   1.518 -0.2836 -0.2611  0.3823
   78MPD1    C2 1190   1.945   2.676   1.587  0.2735  0.2742  0.1813
   78MPD1    C3 1191   2.016   2.780   1.648 -0.2380  0.4688 -0.6747
   78MPD1    C4 1192   1.969   2.905   1.632  0.2478 -1.0869  0.0647
   78MPD1    C5 1193   1.857   2.918   1.564 -0.0297  0.3815 -0.4148
   78MPD1     H 1194   1.981   2.575   1.605  0.7134  0.6186  1.2369
   78MPD1    H1 1195   2.024   2.991   1.668  1.3295 -1.2578 -1.1817
   78MPD1    H2 1196   1.690   2.860   1.465  0.8194 -0.1083 -1.4653
   78MPD1    H3 1197   1.813   3.017   1.553 -0.7444  0.2029  0.8194
   78MPD1     N 1198   2.132   2.760   1.730  0.3381 -0.2801  0.4768
   78MPD1    H5 1199   2.168   2.831   1.792  0.2353  0.6734 -0.5441
   78MPD1    N1 1200   1.763   2.582   1.456 -0.0965  1.1054  0.3314
   78MPD1    H6 1201   1.789   2.492   1.496 -0.0461  0.9710 -0.0069
   78MPD1    H7 1202   1.662   2.586   1.442 -0.2106  0.0745  0.8087
   79TCq2    C1 1203   2.206   2.646   1.733 -0.4729 -0.0136 -0.4803
   79TCq2    O2 1204   2.206   2.541   1.666 -0.4093 -0.5925  0.0654
   79TCq2    C2 1205   2.336   2.681   1.777  0.2077  0.5508  0.0011
   79TCq2    C3 1206   2.339   2.740   1.903 -0.5124 -0.6485 -1.0033
   79TCq2    C4 1207   2.466   2.759   1.953  0.3376  0.1382  1.0678
   79TCq2    C5 1208   2.575   2.708   1.892 -0.1971  0.1311  0.2448
   79TCq2    C6 1209   2.567   2.664   1.763  0.6236  0.1739 -0.8674
   79TCq2    C7 1210   2.446   2.653   1.706 -0.0380  0.3942  0.6215
   79TCq2    C8 1211   2.695   2.633   1.693  0.0456 -0.1161  0.3786
   79TCq2    O4 1212   2.792   2.629   1.766 -0.1785 -0.0913  0.6006
   79TCq2    C9 1213   2.486   2.807   2.085 -0.3556 -1.3419 -0.0363
   79TCq2    O5 1214   2.602   2.842   2.120  0.0034  0.5572  0.3325
   79TCq2    O6 1215   2.393   2.792   2.170 -0.1633 -0.3234  0.1474
   79TCq2    H2 1216   2.253   2.780   1.954 -1.3816 -1.8344 -1.5314
   79TCq2    H3 1217   2.673   2.728   1.934  0.3058  0.2594 -0.9949
   79TCq2    H4 1218   2.437   2.606   1.609  0.4783 -1.6072  1.5324
   80MPD2     C 1219   0.925   2.007  12.929  0.0539  0.2672 -0.4110
   80MPD2    C1 1220   0.888   2.019  12.797 -0.2400  0.9031  0.0346
   80MPD2    C2 1221   0.751   2.014  12.772 -0.1903  0.2823  0.4282
   80MPD2    C3 1222   0.651   1.991  12.872  0.3336  0.3067 -0.0710
   80MPD2    C4 1223   0.699   1.976  13.000 -0.0979 -0.1235  0.3965
   80MPD2    C5 1224   0.835   1.988  13.028 -1.1084 -0.0017 -0.7794
   80MPD2     H 1225   0.715   2.014  12.669 -0.5515 -0.0946  0.5562
   80MPD2    H1 1226   0.628   1.948  13.077  0.0677 -0.0306  0.5843
   80MPD2    H2 1227   1.031   2.010  12.949 -0.0772 -0.2234  0.3532
   80MPD2    H3 1228   0.869   1.979  13.131  0.9591 -1.3449 -1.5753
   80MPD2     N 1229   0.512   1.994  12.862 -0.4847  0.1702 -0.1375
   80MPD2    H5 1230   0.459   1.989  12.948  0.4199 -0.1009  0.4042
   80MPD2    N1 1231   0.976   2.027  12.686  0.0492  0.0632 -0.4239
   80MPD2    H7 1232   0.927   2.047  12.600 -0.0442  1.6283  0.0012
   81TCq2    C1 1233   1.111   2.019  12.683 -0.1040 -0.3881 -0.0051
   81TCq2    O2 1234   1.189   2.026  12.779 -0.1453 -0.0494 -0.8462
   81TCq2    C2 1235   1.173   2.031  12.548 -0.7075  0.1404  0.0320
   81TCq2    C3 1236   1.297   2.084  12.549  0.2527 -0.8041  0.0582
   81TCq2    C4 1237   1.352   2.116  12.428  0.3638  0.0533 -0.6074
   81TCq2    C5 1238   1.285   2.085  12.313 -0.2028  0.8726 -0.0750
   81TCq2    C6 1239   1.167   2.024  12.322 -0.0349  0.3512  0.1434
   81TCq2    C7 1240   1.104   1.988  12.443  0.5325  0.1322  0.9756
   81TCq2    C8 1241   1.111   1.984  12.192  0.0831 -0.0460  0.1516
   81TCq2    O4 1242   1.175   1.997  12.088 -0.5928 -0.2846 -0.4703
   81TCq2    C9 1243   1.485   2.165  12.423 -0.3060 -0.3181 -0.1380
   81TCq2    O5 1244   1.547   2.189  12.529  0.4507  0.5381 -0.1542
   81TCq2    O6 1245   1.541   2.165  12.314  0.3280  0.2633 -0.2716
   81TCq2    H2 1246   1.351   2.122  12.635  1.1061 -0.2481 -0.7299
   81TCq2    H3 1247   1.334   2.102  12.218  0.5547 -1.0647 -0.0232
   81TCq2    H4 1248   1.018   1.922  12.452  0.9511 -0.6126 -0.3991
   82MPD2     C 1249   3.776   1.558  10.489  0.3390 -0.8859 -0.8893
   82MPD2    C1 1250   3.750   1.426  10.496 -0.5830 -0.1561 -0.4163
   82MPD2    C2 1251   3.792   1.351  10.615 -0.8779 -0.2941  0.1135
   82MPD2    C3 1252   3.848   1.416  10.722 -0.1609  0.0892  1.1174
   82MPD2    C4 1253   3.856   1.555  10.713 -0.0883  0.1445 -0.1615
   82MPD2    C5 1254   3.818   1.620  10.601  0.1054 -0.2215 -0.3778
   82MPD2     H 1255   3.770   1.245  10.620  3.8095 -1.3076 -1.5664
   82MPD2    H1 1256   3.897   1.606  10.799  0.5637  1.2629 -1.1376
   82MPD2    H2 1257   3.745   1.618  10.404 -0.4187  1.3226  0.9314
   82MPD2    H3 1258   3.828   1.727  10.595  2.9938 -0.4975 -0.2799
   82MPD2     N 1259   3.877   1.348  10.841 -0.5676 -0.3002  0.3358
   82MPD2    H5 1260   3.878   1.408  10.922  1.4245  1.3887 -0.9496
   82MPD2    N1 1261   3.665   1.376  10.397 -0.0871  0.4460 -0.3072
   82MPD2    H7 1262   3.606   1.444  10.351 -0.7068 -0.0566 -0.2488
   83TCq2    C1 1263   3.907   1.220  10.865  0.7544  0.6278  0.4246
   83TCq2    O2 1264   3.932   1.138  10.774  0.2554 -0.8913  0.7735
   83TCq2    C2 1265   3.925   1.176  11.006  0.7260  0.1918 -0.0237
   83TCq2    C3 1266   3.955   1.269  11.104 -0.2674  0.2069  0.2513
   83TCq2    C4 1267   3.948   1.241  11.237 -0.0199  0.2671  0.1667
   83TCq2    C5 1268   3.901   1.111  11.274 -0.1248 -0.2570 -0.8838
   83TCq2    C6 1269   3.875   1.018  11.177 -0.5380  0.1133  0.1180
   83TCq2    C7 1270   3.888   1.049  11.040  0.9330 -0.1265 -0.0916
   83TCq2    C8 1271   3.831   0.890  11.224  0.6880  0.4439  0.1332
   83TCq2    O4 1272   3.838   0.867  11.344 -0.2914  0.2369  0.2610
   83TCq2    C9 1273   3.976   1.346  11.328 -0.5405  0.2035 -0.0449
   83TCq2    O5 1274   4.013   1.455  11.281 -0.1561  0.4189  0.7640
   83TCq2    O6 1275   3.971   1.320  11.452 -0.2657  0.6692 -0.1030
   83TCq2    H2 1276   3.986   1.368  11.070  1.8696  0.4476  2.9074
   83TCq2    H3 1277   3.868   1.100  11.377 -0.6700  1.1659 -0.8949
   83TCq2    H4 1278   3.871   0.975  10.962  0.1496  0.0262 -0.0752
   84TCq2    C1 1279   0.040   0.284  10.380 -0.3422  0.1607  0.2595
   84TCq2    O2 1280   4.664   0.213  10.371 -0.4907  0.4171 -1.1360
   84TCq2    C2 1281   0.048   0.366  10.502 -0.1716  0.4594 -0.3988
   84TCq2    C3 1282   0.168   0.412  10.548 -0.0613  0.0617  0.3631
   84TCq2    C4 1283   0.199   0.408  10.680 -0.6884  0.1809 -0.2942
   84TCq2    C5 1284   0.107   0.363  10.773  0.3193  0.0975 -0.7815
   84TCq2    C6 1285   4.707   0.332  10.728  0.1113 -0.1409 -0.3010
   84TCq2    C7 1286   4.679   0.327  10.597  0.3386  1.2458  0.5417
   84TCq2    C8 1287   4.610   0.303  10.831  0.6004 -0.2360  0.3212
   84TCq2    O4 1288   4.657   0.308  10.946 -0.2805  0.2630 -0.0907
   84TCq2    C9 1289   0.332   0.455  10.729 -0.5616  0.2667 -0.4036
   84TCq2    O5 1290   0.355   0.448  10.858 -0.0193  0.0332  0.0225
   84TCq2    O6 1291   0.418   0.500  10.652  0.3050  0.1399 -0.2509
   84TCq2    H2 1292   0.246   0.437  10.476 -1.0858 -0.3249 -0.8848
   84TCq2    H3 1293   0.135   0.369  10.877 -3.7877 -0.6745  0.3592
   84TCq2    H4 1294   4.583   0.297  10.556  0.3513  0.5464  1.0222
   85MPD2     C 1295   0.720   2.631  16.296  0.0415 -0.0976 -0.2627
   85MPD2    C1 1296   0.664   2.666  16.171  0.1633 -0.1197 -0.2335
   85MPD2    C2 1297   0.743   2.728  16.074  0.8025 -0.3576 -0.5272
   85MPD2    C3 1298   0.872   2.758  16.097 -0.2157 -0.5322 -0.0731
   85MPD2    C4 1299   0.926   2.719  16.219  0.1620  0.2619  0.3895
   85MPD2    C5 1300   0.859   2.651  16.316 -0.4879  0.1994  0.5414
   85MPD2     H 1301   0.696   2.764  15.983 -0.3952  0.0600  0.2466
   85MPD2    H1 1302   1.026   2.751  16.242  1.5855 -1.6870 -3.1397
   85MPD2    H2 1303   0.667   2.571  16.369  0.4455 -2.2128 -1.7217
   85MPD2    H3 1304   0.907   2.622  16.408  1.1024  1.4043  0.0883
   85MPD2     N 1305   0.946   2.826  15.995  0.1124  0.6668 -0.5863
   85MPD2    H5 1306   0.897   2.853  15.911 -1.9062  0.2562  0.4693
   85MPD2    N1 1307   0.533   2.634  16.129 -0.7473 -0.1202 -0.6476
   85MPD2    H7 1308   0.512   2.640  16.030  1.5200  1.2580 -1.0405
   86TCq2    C1 1309   1.073   2.872  16.003 -0.7533 -0.1203  0.3123
   86TCq2    O2 1310   1.162   2.859  16.086  0.1437 -0.4828  0.3978
   86TCq2    C2 1311   1.086   2.981  15.899  1.3242 -0.0745 -0.4440
   86TCq2    C3 1312   0.981   3.062  15.887  0.0126 -0.4055 -0.5308
   86TCq2    C4 1313   0.992   3.169  15.805 -0.4660  0.1680 -0.6422
   86TCq2    C5 1314   1.108   3.193  15.738 -0.5947 -0.1934 -0.1779
   86TCq2    C6 1315   1.219   3.111  15.751  0.1801 -0.1132  0.3636
   86TCq2    C7 1316   1.207   3.008  15.840 -0.2273  0.0750  0.3577
   86TCq2    C8 1317   1.313   3.103  15.642  0.2078  0.3798  0.7278
   86TCq2    O4 1318   1.403   3.021  15.645  0.4503  0.6415 -0.3639
   86TCq2    C9 1319   0.886   3.262  15.775 -0.3197 -0.4220 -0.2780
   86TCq2    O5 1320   0.775   3.219  15.804  0.0919  0.3578  0.4785
   86TCq2    O6 1321   0.912   3.362  15.705  0.2693 -0.0830  0.1578
   86TCq2    H2 1322   0.879   3.050  15.923  0.8681  2.2771  2.8942
   86TCq2    H3 1323   1.103   3.275  15.668 -1.2426 -0.1482 -0.0839
   86TCq2    H4 1324   1.284   2.933  15.850  0.4920  0.5783 -1.4142
   87MPD2     C 1325   2.118   1.499   1.284 -0.3437 -0.0785 -0.0554
   87MPD2    C1 1326   2.035   1.469   1.181 -0.2177  0.3582  0.3522
   87MPD2    C2 1327   1.922   1.545   1.155 -0.3123  0.1886  0.6581
   87MPD2    C3 1328   1.896   1.663   1.221  0.1354 -0.7037  0.2926
   87MPD2    C4 1329   1.988   1.694   1.320  0.1461  0.0145  0.7265
   87MPD2    C5 1330   2.100   1.619   1.349  0.1586  0.1278  0.0322
   87MPD2     H 1331   1.855   1.517   1.075 -0.7960  0.9974  0.7794
   87MPD2    H1 1332   1.980   1.791   1.367  1.0266  0.7708 -0.6891
   87MPD2    H2 1333   2.203   1.442   1.319 -0.1488 -0.7382 -1.6494
   87MPD2    H3 1334   2.185   1.652   1.407  0.9641 -0.4294 -0.8172
   87MPD2     N 1335   1.793   1.754   1.194 -0.1325  0.4625  0.0446
   87MPD2    H5 1336   1.788   1.837   1.251 -0.3049 -0.0180  0.7224
   87MPD2    N1 1337   2.052   1.339   1.129  0.1548 -1.2086  0.1716
   87MPD2    H7 1338   2.144   1.296   1.133  1.0866  0.7834  0.1252
   88TCq2    C1 1339   1.962   1.277   1.045 -0.2614  0.4025  0.0738
   88TCq2    O2 1340   1.838   1.278   1.058  0.2017  0.1722  0.7921
   88TCq2    C2 1341   2.018   1.185   0.948  0.0080  0.2629  0.6833
   88TCq2    C3 1342   1.935   1.078   0.909  0.1961  0.0004 -0.2361
   88TCq2    C4 1343   1.989   0.978   0.837  0.2739  0.8877 -0.3047
   88TCq2    C5 1344   2.117   0.974   0.802 -0.1165 -0.1286  0.0277
   88TCq2    C6 1345   2.197   1.085   0.838 -0.1944  0.1457  0.6803
   88TCq2    C7 1346   2.154   1.190   0.919 -0.5539 -0.2382 -0.5336
   88TCq2    C8 1347   2.337   1.090   0.795  0.0134 -0.8108 -0.0252
   88TCq2    O4 1348   2.359   1.193   0.729  0.5818  0.2124  0.0978
   88TCq2    C9 1349   1.904   0.864   0.814  0.5413  1.2065  0.6849
   88TCq2    O5 1350   1.924   0.805   0.705  0.2076 -0.1688 -0.2728
   88TCq2    O6 1351   1.836   0.822   0.910 -0.6713 -0.2771  0.8063
   88TCq2    H2 1352   1.832   1.076   0.943  0.2785  2.2029  0.1604
   88TCq2    H3 1353   2.160   0.889   0.750  0.8878  1.6260 -2.0329
   88TCq2    H4 1354   2.214   1.278   0.942  1.5529 -1.6124 -0.8008
   89MPD2     C 1355   3.980   4.035   1.765  0.3927 -0.1830 -0.0244
   89MPD2    C1 1356   3.898   4.132   1.815  0.3025  0.2951 -0.1506
   89MPD2    C2 1357   3.957   4.251   1.860 -0.0777 -0.1562 -0.5816
   89MPD2    C3 1358   4.095   4.269   1.847 -0.5724  0.5990  0.1852
   89MPD2    C4 1359   4.170   4.170   1.788  1.0269 -0.7419 -0.2749
   89MPD2    C5 1360   4.114   4.053   1.750 -0.8207  0.1770  0.9120
   89MPD2     H 1361   3.889   4.326   1.898 -1.0303 -0.3120 -2.0039
   89MPD2    H1 1362   4.277   4.177   1.772  0.8022 -0.4365 -1.5953
   89MPD2    H2 1363   3.949   3.937   1.732 -2.6024  0.5674  0.5915
   89MPD2    H3 1364   4.173   3.973   1.708 -1.4520 -0.1135  0.5832
   89MPD2     N 1365   4.153   4.394   1.878  0.1403  0.1115 -0.0528
   89MPD2    H5 1366   4.087   4.464   1.909 -1.2388 -1.1641 -0.0726
   89MPD2    N1 1367   3.757   4.122   1.826 -0.0743  0.4904  0.2111
   89MPD2    H7 1368   3.717   4.194   1.886 -0.0189  0.0337  0.8000
   90TCq2    C1 1369   4.292   4.426   1.890 -0.0506 -0.2486  0.5238
   90TCq2    O2 1370   4.388   4.355   1.870  0.2293  0.0903 -0.0298
   90TCq2    C2 1371   4.310   4.567   1.936 -0.3159 -0.2500  0.4491
   90TCq2    C3 1372   4.427   4.585   1.983 -0.3928 -0.1838 -0.2212
   90TCq2    C4 1373   4.479   4.713   1.981 -0.2361  0.6270 -0.4876
   90TCq2    C5 1374   4.407   0.099   1.925 -0.0851 -0.0897  0.2684
   90TCq2    C6 1375   4.284   0.072   1.867 -0.6127 -0.2716 -0.2670
   90TCq2    C7 1376   4.231   4.667   1.875 -0.5275  1.1657 -0.0656
   90TCq2    C8 1377   4.209   0.182   1.799 -0.2427  0.7359  0.2980
   90TCq2    O4 1378   4.089   0.162   1.774 -0.2908  0.6251 -0.3120
   90TCq2    C9 1379   4.606   0.015   2.036 -0.1040 -0.1289 -0.0597
   90TCq2    O5 1380   4.663   4.638   2.092  0.0080  0.0048 -0.0981
   90TCq2    O6 1381   4.660   0.121   2.003 -0.0208  0.2981 -0.7033
   90TCq2    H2 1382   4.486   4.506   2.028  0.2763  0.3276 -0.1982
   90TCq2    H3 1383   4.444   0.200   1.936 -1.5003  0.2403  1.9834
   90TCq2    H4 1384   4.173   4.635   1.790  0.7988  2.5831 -1.5025
   91TMC2    C1 1385   0.646   3.726  16.605  0.1695  0.0883  0.0752
   91TMC2    C2 1386   0.647   3.855  16.560 -0.3280  0.5448 -0.1995
   91TMC2    C3 1387   0.526   3.918  16.529  0.4634 -0.7409 -0.6077
   91TMC2    C4 1388   0.527   3.659  16.618  0.3110 -0.4770  0.2136
   91TMC2    C5 1389   0.409   3.734  16.603 -0.4033  0.9841  0.0551
   91TMC2    C6 1390   0.402   3.860  16.548 -0.7596  0.1036  0.1004
   91TMC2     C 1391   0.764   3.645  16.607 -0.2410  0.3603 -0.0753
   91TMC2     O 1392   0.749   3.528  16.639 -0.2186 -0.4665  0.3310
   91TMC2     H 1393   0.735   3.916  16.542 -1.2642  1.8676 -0.2917
   91TMC2    H1 1394   0.520   3.558  16.656  0.0806 -0.3652  0.4680
   91TMC2    H2 1395   0.309   3.912  16.530 -1.5778 -0.8983  1.4861
   91TMC2    C7 1396   0.284   3.656  16.584 -0.0220  0.6485  0.8075
   91TMC2    C8 1397   0.538   4.054  16.478 -0.3650 -0.6954 -0.8774
   91TMC2    O1 1398   0.254   3.574  16.672 -0.9114  0.3117 -0.5964
   91TMC2    O2 1399   0.633   4.086  16.408 -0.6617 -0.0623 -0.0373
   91TMC2    O5 1400   0.426   4.126  16.490 -0.2757  0.0825 -0.3394
   91TMC2    H5 1401   0.381   4.093  16.571 -0.6750  2.1008  0.2548
   92MPD2     C 1402   1.043   3.521  16.620 -0.3199  0.1516 -0.0812
   92MPD2    C1 1403   1.013   3.654  16.601  0.5401  0.6102 -0.0931
   92MPD2    C2 1404   1.118   3.743  16.568 -0.5070  0.6121  0.4981
   92MPD2    C3 1405   1.249   3.695  16.549 -0.1237 -0.4243 -0.3523
   92MPD2    C4 1406   1.273   3.556  16.565  0.1692 -0.4108 -0.1327
   92MPD2    C5 1407   1.172   3.471  16.602 -0.5623  0.2996  0.0978
   92MPD2     H 1408   1.093   3.849  16.571  0.6255  0.8640  1.1788
   92MPD2    H1 1409   1.374   3.516  16.555  0.8355  1.5177 -1.0392
   92MPD2    H2 1410   0.963   3.454  16.650 -0.7854 -0.0241 -1.7323
   92MPD2    H3 1411   1.193   3.364  16.604 -0.8897  0.2725  2.3153
   92MPD2     N 1412   1.353   3.788  16.522  1.2999  0.3230  0.6156
   92MPD2    H5 1413   1.330   3.885  16.502  0.5663 -0.4336 -2.2215
   92MPD2    N1 1414   0.881   3.713  16.584 -0.2381 -0.9809 -0.3874
   92MPD2    H7 1415   0.871   3.813  16.570  0.4911 -0.8784 -0.1672
   93MPD2     C 1416   2.230   3.547  13.171  0.2727  0.0457 -0.5948
   93MPD2    C1 1417   2.183   3.621  13.275  0.1364 -0.5257  0.4782
   93MPD2    C2 1418   2.048   3.650  13.282 -0.5666  0.5211 -0.0229
   93MPD2    C3 1419   1.970   3.619  13.169 -0.6835  0.1090 -0.2092
   93MPD2    C4 1420   2.014   3.557  13.062  0.2084 -0.1330 -0.5777
   93MPD2    C5 1421   2.149   3.515  13.060 -0.7566 -0.3943  0.6499
   93MPD2     H 1422   2.007   3.716  13.357 -1.6052 -0.3921  0.2236
   93MPD2    H1 1423   1.949   3.532  12.979  1.4447 -0.0483 -1.5889
   93MPD2    H2 1424   2.334   3.517  13.159  1.4533  2.9392  2.4885
   93MPD2    H3 1425   2.197   3.474  12.972 -0.3779 -0.5784  0.9449
   93MPD2     N 1426   1.834   3.669  13.161 -0.6722  0.5915 -0.3315
   93MPD2    H5 1427   1.791   3.662  13.069 -1.0765  0.7030 -0.1514
   93MPD2    N1 1428   2.268   3.675  13.378  0.5780  0.3207 -0.3702
   93MPD2    H7 1429   2.224   3.742  13.441  1.2952  1.9953 -1.6520
   94TCq2    C1 1430   2.402   3.659  13.387 -0.1767 -0.3614 -0.4769
   94TCq2    O2 1431   2.470   3.555  13.369 -0.3321  0.1122 -0.1832
   94TCq2    C2 1432   2.463   3.765  13.462  0.4780 -0.3686  0.2063
   94TCq2    C3 1433   2.392   3.889  13.469  0.3205  0.1544  0.0572
   94TCq2    C4 1434   2.441   3.994  13.539  0.1924 -0.8701  0.2473
   94TCq2    C5 1435   2.553   3.977  13.616  0.7522  0.1848  0.0603
   94TCq2    C6 1436   2.623   3.859  13.607  0.5227 -0.0942  0.2937
   94TCq2    C7 1437   2.585   3.750  13.529 -0.3975 -0.5379 -0.2325
   94TCq2    C8 1438   2.753   3.844  13.669  0.7135 -0.0050 -0.6912
   94TCq2    O4 1439   2.809   3.739  13.658  0.3276 -0.1016 -0.4615
   94TCq2    C9 1440   2.370   4.121  13.543 -0.6329  0.5916 -0.2816
   94TCq2    O5 1441   2.425   4.212  13.608  0.2063  0.2663  0.1545
   94TCq2    O6 1442   2.259   4.131  13.477 -1.0181 -0.0478  0.2909
   94TCq2    H2 1443   2.304   3.907  13.409 -0.0454 -0.8582  0.2878
   94TCq2    H3 1444   2.592   4.064  13.666  0.9236  1.3055 -2.0115
   94TCq2    H4 1445   2.639   3.657  13.519 -0.0635 -0.1763 -1.7885
   95TMC2    C1 1446   2.458   1.383  15.936  0.0998 -0.3415  0.6006
   95TMC2    C2 1447   2.420   1.312  16.046  0.0940 -0.0820  0.1130
   95TMC2    C3 1448   2.436   1.379  16.165 -0.3660 -0.0761  0.3812
   95TMC2    C4 1449   2.488   1.513  15.941  0.0400  0.3938 -0.5569
   95TMC2    C5 1450   2.505   1.574  16.058  0.1440  0.3332 -0.0884
   95TMC2    C6 1451   2.481   1.511  16.178  0.4819 -0.4404 -0.1607
   95TMC2     C 1452   2.504   1.314  15.820 -0.1603  0.3405 -0.6684
   95TMC2     O 1453   2.567   1.379  15.738 -0.9286 -0.0939  0.2139
   95TMC2     H 1454   2.370   1.218  16.027 -1.2300  0.9956 -1.7460
   95TMC2    H1 1455   2.506   1.561  15.846 -1.1275  0.3426 -0.8040
   95TMC2    H2 1456   2.503   1.558  16.273  0.9028  0.1472 -0.5498
   95TMC2    C7 1457   2.554   1.712  16.053  0.0970  0.4232  0.1891
   95TMC2    C8 1458   2.384   1.322  16.284 -0.0356 -0.1759 -1.1183
   95TMC2    O1 1459   2.599   1.749  15.948  0.4182  0.4371  0.1203
   95TMC2    O2 1460   2.336   1.208  16.278 -0.5201  0.2469 -0.3840
   95TMC2    O5 1461   2.309   1.421  16.329  0.0862  0.0626  0.0905
   95TMC2    H5 1462   2.335   1.508  16.292 -0.4220 -0.1228 -0.7080
   96MPD2     C 1463   2.721   0.901  15.622  0.0352 -0.9658 -0.0965
   96MPD2    C1 1464   2.771   1.024  15.633  0.6589  0.1526  0.1002
   96MPD2    C2 1465   2.697   1.124  15.701  0.4252  0.1398  0.0536
   96MPD2    C3 1466   2.577   1.089  15.757  0.6029  0.4313 -0.6435
   96MPD2    C4 1467   2.529   0.958  15.758 -0.2782  0.1632 -0.0533
   96MPD2    C5 1468   2.605   0.865  15.693 -0.4758 -0.7466  0.1687
   96MPD2     H 1469   2.735   1.225  15.706  1.9065 -0.4759  0.9964
   96MPD2    H1 1470   2.433   0.925  15.796 -0.5024 -1.3796 -1.9305
   96MPD2    H2 1471   2.773   0.817  15.578 -3.1136 -3.1073  0.3163
   96MPD2    H3 1472   2.563   0.768  15.669 -1.1741 -0.5699  0.7052
   96MPD2     N 1473   2.504   1.177  15.840 -0.5310 -0.3855  0.3793
   96MPD2    H5 1474   2.418   1.144  15.883  0.5568 -0.9955  2.0796
   96MPD2    N1 1475   2.902   1.051  15.579 -0.3074 -0.3232 -0.2174
   96MPD2    H7 1476   2.952   0.978  15.528 -1.1830 -0.1263 -1.3496
   97MPD2     C 1477   4.094   3.086   0.808 -0.1992  0.7470 -0.4834
   97MPD2    C1 1478   4.168   3.194   0.831  0.4669 -0.5949  0.0782
   97MPD2    C2 1479   4.195   3.283   0.724  1.2154  0.6374 -0.6201
   97MPD2    C3 1480   4.165   3.252   0.597  0.0268  0.1129 -0.1543
   97MPD2    C4 1481   4.093   3.131   0.574  0.2075  0.1757  0.4617
   97MPD2    C5 1482   4.062   3.057   0.680  0.6101  0.0798  0.1226
   97MPD2     H 1483   4.257   3.371   0.740  3.2090 -1.2091  1.8393
   97MPD2    H1 1484   4.065   3.093   0.476 -0.1259  0.7315  0.3392
   97MPD2    H2 1485   4.067   3.015   0.884 -0.5313  2.5670  1.1098
   97MPD2    H3 1486   4.012   2.963   0.659  0.6981 -0.2548  1.3776
   97MPD2     N 1487   4.197   3.330   0.481  0.2315  0.5900  0.2465
   97MPD2    H5 1488   4.173   3.289   0.392  0.3100  2.7712 -0.7847
   97MPD2    N1 1489   4.211   3.219   0.964 -0.0242  0.0162 -0.0875
   97MPD2    H7 1490   4.180   3.153   1.035  0.2308  1.1014  1.0215
   98TCq2    C1 1491   4.266   3.455   0.478  0.3985  0.5155  0.0110
   98TCq2    O2 1492   4.310   3.519   0.571  0.1384 -0.3788  0.1673
   98TCq2    C2 1493   4.286   3.514   0.347 -0.7871  0.1325 -0.5956
   98TCq2    C3 1494   4.261   3.443   0.233  0.1930  0.6703 -0.1608
   98TCq2    C4 1495   4.279   3.496   0.106 -0.6219 -0.2500 -0.1960
   98TCq2    C5 1496   4.323   3.625   0.099  0.2153  0.1283 -0.2298
   98TCq2    C6 1497   4.353   3.693   0.206  1.0322 -0.1499  0.3521
   98TCq2    C7 1498   4.339   3.636   0.331  0.1773 -0.5248  0.6530
   98TCq2    C8 1499   4.435   3.811   0.199  0.1046 -0.2822 -1.0047
   98TCq2    O4 1500   4.514   3.813   0.107  0.5492  0.2690  0.4661
   98TCq2    C9 1501   4.233   3.421  17.681  0.0844  0.0049  0.0662
   98TCq2    O5 1502   4.171   3.318   0.020  0.3495 -0.1259  0.3425
   98TCq2    O6 1503   4.239   3.477  17.567  0.4113  0.2528  0.1692
   98TCq2    H2 1504   4.211   3.346   0.231 -2.0445  1.8017  0.4179
   98TCq2    H3 1505   4.342   3.661  17.690 -1.3657  0.9524 -0.2335
   98TCq2    H4 1506   4.376   3.689   0.418 -0.5662 -1.0972  1.3182
   99MPD2     C 1507   2.533   1.008   1.378  0.4210 -0.0168  0.3246
   99MPD2    C1 1508   2.603   1.027   1.494  0.0298  0.3159 -0.0635
   99MPD2    C2 1509   2.738   1.053   1.496  0.8652 -0.4214  0.5328
   99MPD2    C3 1510   2.800   1.067   1.373 -0.2814  0.3697 -1.0251
   99MPD2    C4 1511   2.736   1.047   1.252 -0.1501 -0.2599 -0.2691
   99MPD2    C5 1512   2.601   1.007   1.258 -0.1179 -0.1914 -0.3866
   99MPD2     H 1513   2.799   1.068   1.584  1.7068 -0.7463 -0.0061
   99MPD2    H1 1514   2.780   1.050   1.153  0.0373 -0.5662 -0.1975
   99MPD2    H2 1515   2.427   0.984   1.389  0.6037 -0.5919  0.8255
   99MPD2    H3 1516   2.536   0.985   1.173 -0.8859 -1.2566  0.4731
   99MPD2     N 1517   2.946   1.081   1.364 -0.9978 -0.2518 -0.0300
   99MPD2    H5 1518   2.998   1.061   1.448  1.1399  0.0516 -1.2747
   99MPD2    N1 1519   2.520   1.038   1.609 -0.2754  0.4326 -0.1757
   99MPD2    H7 1520   2.420   1.019   1.601 -0.0476 -1.0615  0.5130
  100TCq2    C1 1521   2.555   1.050   1.741  0.4393  0.0121  0.3754
  100TCq2    O2 1522   2.665   1.051   1.790 -0.7761  0.0773  0.3257
  100TCq2    C2 1523   2.440   1.043   1.834  1.0245 -0.0329  0.3312
  100TCq2    C3 1524   2.467   1.058   1.969 -0.8307  0.2113  0.8073
  100TCq2    C4 1525   2.364   1.059   2.053  0.3359  0.0083  0.0891
  100TCq2    C5 1526   2.238   1.047   2.010 -0.2389 -0.5877  0.3540
  100TCq2    C6 1527   2.212   1.012   1.884  0.0188  0.8001 -0.6378
  100TCq2    C7 1528   2.316   1.009   1.793  0.3800 -1.1804  0.0448
  100TCq2    C8 1529   2.075   1.002   1.839  0.1958 -0.2686 -0.0461
  100TCq2    O4 1530   1.986   1.054   1.913  0.4749 -0.4637 -0.1336
  100TCq2    C9 1531   2.390   1.080   2.193 -0.0324 -0.4145  0.0510
  100TCq2    O5 1532   2.487   1.020   2.239 -0.0346 -0.1317 -0.3020
  100TCq2    O6 1533   2.320   1.171   2.243  0.3275  0.3880  0.1579
  100TCq2    H2 1534   2.567   1.080   2.003 -0.7327 -0.1481  0.7484
  100TCq2    H3 1535   2.161   1.047   2.087 -1.6246 -2.3570 -1.0468
  100TCq2    H4 1536   2.293   0.979   1.691 -2.5582 -1.6573  0.8253
  101MPD2     C 1537   4.089   1.703  12.907  0.3330  0.4343  0.6118
  101MPD2    C1 1538   3.958   1.727  12.923 -0.1862 -0.0965  0.7150
  101MPD2    C2 1539   3.886   1.648  13.012 -0.3338  0.0445  0.4491
  101MPD2    C3 1540   3.946   1.549  13.085  0.8840  0.4326  0.6686
  101MPD2    C4 1541   4.076   1.522  13.074  0.0185 -0.1651  0.4311
  101MPD2    C5 1542   4.144   1.600  12.979  0.0997  0.2061 -0.5903
  101MPD2     H 1543   3.779   1.660  13.027 -0.4069  3.2027 -2.7842
  101MPD2    H1 1544   4.129   1.442  13.124  1.2657  0.7003  0.4836
  101MPD2    H2 1545   4.158   1.760  12.847 -1.9978  0.5055 -1.9677
  101MPD2    H3 1546   4.245   1.570  12.954 -0.1357 -2.3064  1.5119
  101MPD2     N 1547   3.863   1.477  13.174 -0.4009  0.3865  0.0717
  101MPD2    H5 1548   3.765   1.503  13.169 -0.8039 -0.7757  1.7378
  101MPD2    N1 1549   3.910   1.839  12.849  0.6023 -0.8490  0.0361
  101MPD2    H7 1550   3.965   1.897  12.785 -0.9884  2.7692  1.9217
  102TCq2    C1 1551   3.864   2.230  12.554 -0.4012 -0.1183 -0.0608
  102TCq2    O2 1552   3.981   2.209  12.572 -0.3734  0.4216  0.1803
  102TCq2    C2 1553   3.762   2.156  12.621  0.0343 -0.8470  0.3618
  102TCq2    C3 1554   3.644   2.220  12.654 -0.2133 -0.7019 -0.6727
  102TCq2    C4 1555   3.579   2.170  12.764 -0.4955 -0.1600  0.8851
  102TCq2    C5 1556   3.613   2.054  12.831  0.4822 -0.2400  0.0253
  102TCq2    C6 1557   3.728   1.998  12.782 -0.7060 -0.1131 -0.1942
  102TCq2    C7 1558   3.807   2.045  12.681  1.2730 -0.0956  0.1450
  102TCq2    C8 1559   3.779   1.881  12.863  0.1768 -0.0892  0.0490
  102TCq2    O4 1560   3.697   1.845  12.945  0.1493  0.0001 -0.1564
  102TCq2    C9 1561   3.454   2.236  12.805 -0.2032  0.0022 -0.4932
  102TCq2    O5 1562   3.402   2.310  12.715  0.3732  0.2655  0.7133
  102TCq2    O6 1563   3.406   2.214  12.919  0.3162  0.4482 -0.5483
  102TCq2    H2 1564   3.601   2.308  12.607 -1.5327  0.6024  2.9780
  102TCq2    H3 1565   3.557   2.022  12.918 -0.0462  1.1863  0.2196
  102TCq2    H4 1566   3.885   1.993  12.626 -0.0715 -0.0011 -1.8683
  103TMC2    C1 1567   2.149   1.799  12.184 -1.3754 -0.1665  0.0961
  103TMC2    C2 1568   2.281   1.761  12.183  0.1848 -0.3619 -0.6027
  103TMC2    C3 1569   2.338   1.750  12.307  0.3299  0.0131  0.0306
  103TMC2    C4 1570   2.081   1.824  12.299 -0.3831  0.0846 -0.0998
  103TMC2    C5 1571   2.141   1.808  12.420 -0.2897  0.5577  0.1356
  103TMC2    C6 1572   2.275   1.773  12.424 -0.2214 -0.4183  0.6677
  103TMC2     C 1573   2.085   1.797  12.053 -0.3251 -0.2709 -0.3194
  103TMC2     O 1574   2.162   1.814  11.962 -0.2261  0.2996 -0.4709
  103TMC2     H 1575   2.335   1.721  12.099  0.1735  0.9468 -1.2311
  103TMC2    H1 1576   1.974   1.842  12.298 -0.8282 -2.6004 -0.4972
  103TMC2    H2 1577   2.324   1.780  12.520  0.0911 -0.4051  0.5099
  103TMC2    C7 1578   2.074   1.832  12.541  0.0879 -0.0031 -0.0069
  103TMC2    C8 1579   2.455   1.667  12.311  1.0113  0.4889  0.4930
  103TMC2    O1 1580   2.143   1.825  12.640 -0.0581 -0.0592  0.9502
  103TMC2    O2 1581   2.488   1.586  12.404  0.3847  0.5586 -0.5157
  103TMC2    O5 1582   2.540   1.716  12.222  0.6268 -0.0161 -0.3097
  103TMC2    H5 1583   2.510   1.806  12.195  2.3481  0.5884 -0.2310
  104MPD2     C 1584   1.733   1.817  11.949  0.4655  0.2948 -0.4743
  104MPD2    C1 1585   1.866   1.835  11.938  1.1090  0.3805 -0.2133
  104MPD2    C2 1586   1.913   1.876  11.818 -0.2152  0.0827  0.5769
  104MPD2    C3 1587   1.827   1.877  11.708 -0.1996  0.3757  0.4219
  104MPD2    C4 1588   1.689   1.864  11.725 -0.0490  0.7090  0.8000
  104MPD2    C5 1589   1.644   1.823  11.844 -0.7424  0.0461 -0.5449
  104MPD2     H 1590   2.019   1.888  11.798  0.0148 -1.5358  0.7900
  104MPD2    H1 1591   1.613   1.877  11.649  0.6123  1.1070  0.2008
  104MPD2    H2 1592   1.679   1.790  12.039  1.4219  1.4664  0.4438
  104MPD2    H3 1593   1.539   1.805  11.863 -0.4946 -0.2821  0.5051
  104MPD2     N 1594   1.875   1.921  11.579  0.2275  0.0292 -0.0283
  104MPD2    H5 1595   1.970   1.956  11.567  0.2420 -0.1818 -0.5135
  104MPD2    N1 1596   1.949   1.804  12.049 -0.1529 -0.7733 -0.4423
  104MPD2    H7 1597   1.898   1.770  12.131  0.2407  0.1809  0.2006
  105MPD2     C 1598   3.546   1.389  17.589  0.0846  0.1722  0.3931
  105MPD2    C1 1599   3.406   1.397  17.565  0.6058  0.2685 -0.5850
  105MPD2    C2 1600   3.323   1.408  17.672 -0.7056  0.1020  0.1349
  105MPD2    C3 1601   3.372   1.396   0.111 -0.0637 -0.5003  0.5781
  105MPD2    C4 1602   3.506   1.380   0.132  0.7933 -0.0622 -0.8930
  105MPD2    C5 1603   3.595   1.381   0.025 -0.1450  0.1344 -0.3556
  105MPD2     H 1604   3.217   1.427  17.660 -0.8471  0.0757  1.2867
  105MPD2    H1 1605   3.544   1.339   0.225 -0.7989  1.8182  0.5904
  105MPD2    H2 1606   3.609   1.397  17.501 -1.9907  1.6204 -0.9625
  105MPD2    H3 1607   3.702   1.361   0.028  0.1030  1.6091  0.7850
  105MPD2     N 1608   3.271   1.406   0.214 -0.2675 -0.3664 -0.3650
  105MPD2    H5 1609   3.187   1.452   0.179 -0.2509 -0.2875 -0.2996
  105MPD2    N1 1610   3.343   1.406  17.439  0.2117 -0.0450 -0.1553
  105MPD2    H7 1611   3.243   1.414  17.454  0.4017  2.4659 -0.2565
  106TCq2    C1 1612   3.283   1.353   0.340  0.3821  0.4730  0.1334
  106TCq2    O2 1613   3.374   1.285   0.389  0.0386  0.3731  0.0909
  106TCq2    C2 1614   3.157   1.357   0.409  0.2700 -0.1276  0.5004
  106TCq2    C3 1615   3.067   1.451   0.372  0.7567 -0.2271  0.1400
  106TCq2    C4 1616   2.944   1.458   0.434  0.3001 -0.0317  0.1064
  106TCq2    C5 1617   2.913   1.372   0.532  0.0653  0.5224  0.4275
  106TCq2    C6 1618   3.005   1.274   0.565  0.1581 -0.3651 -0.4410
  106TCq2    C7 1619   3.130   1.264   0.505  0.3010  0.9922 -0.3638
  106TCq2    C8 1620   2.971   1.170   0.656 -0.0069  0.4804  0.2766
  106TCq2    O4 1621   3.058   1.099   0.704 -0.1508 -0.3591 -0.3107
  106TCq2    C9 1622   2.839   1.545   0.379 -0.1462 -0.5789 -0.7517
  106TCq2    O5 1623   2.721   1.519   0.409  0.2410 -0.0468 -0.0320
  106TCq2    O6 1624   2.873   1.607   0.274  0.3914 -0.0491 -0.1448
  106TCq2    H2 1625   3.086   1.530   0.300 -0.6644 -1.3539 -1.4844
  106TCq2    H3 1626   2.827   1.392   0.594 -0.0471  0.3765  0.3178
  106TCq2    H4 1627   3.192   1.179   0.531 -0.8727  0.5129  0.8354
  107TMC2    C1 1628   4.261   0.086  11.687 -0.1654 -0.6128  0.2055
  107TMC2    C2 1629   4.336   0.197  11.703  0.2816  0.1718  0.3053
  107TMC2    C3 1630   4.380   0.277  11.595  0.1623  0.1797  0.3705
  107TMC2    C4 1631   4.207   0.060  11.563 -0.0660  0.5962  0.1469
  107TMC2    C5 1632   4.254   0.132  11.461  0.0720  0.2473  0.7030
  107TMC2    C6 1633   4.336   0.238  11.472  0.1008  0.0800  0.2736
  107TMC2     C 1634   4.222   4.718  11.795  0.0440  0.6274  0.2291
  107TMC2     O 1635   4.245   0.035  11.905 -0.8103  0.0140 -0.4222
  107TMC2     H 1636   4.381   0.200  11.802  1.4978 -0.4204 -0.2435
  107TMC2    H1 1637   4.143   4.701  11.531  0.4685  1.0742 -2.1465
  107TMC2    H2 1638   4.373   0.299  11.391 -2.0996  0.2589 -0.5807
  107TMC2    C7 1639   4.216   0.097  11.323  0.1724  0.2738 -0.5569
  107TMC2    C8 1640   4.508   0.344  11.607  0.7013 -0.7759 -0.6409
  107TMC2    O1 1641   4.113   0.036  11.298  0.2318 -0.2708  0.4335
  107TMC2    O2 1642   4.577   0.363  11.508 -0.3252 -0.2016 -0.6641
  107TMC2    O5 1643   4.503   0.421  11.714 -0.0998 -0.4007  0.6150
  107TMC2    H5 1644   4.423   0.408  11.771 -1.7997 -0.1519 -1.7060
  108MPD2     C 1645   4.009   4.410  11.796 -0.5281  0.3491 -0.5380
  108MPD2    C1 1646   4.100   4.506  11.846  0.4238 -0.0516 -0.3570
  108MPD2    C2 1647   4.128   4.505  11.984 -0.7407  0.2349 -0.3669
  108MPD2    C3 1648   4.073   4.404  12.064  0.1647 -0.5761  0.0837
  108MPD2    C4 1649   3.992   4.313  12.012 -0.1914  0.3155  0.3817
  108MPD2    C5 1650   3.950   4.315  11.878 -0.7100 -0.1318  0.5832
  108MPD2     H 1651   4.183   4.587  12.029 -1.7229  0.1263  1.0200
  108MPD2    H1 1652   3.944   4.237  12.073 -2.0698 -0.3413 -1.9142
  108MPD2    H2 1653   3.963   4.419  11.698 -0.6218  0.4251 -0.4878
  108MPD2    H3 1654   3.891   4.234  11.838  0.8632  0.1942 -2.4233
  108MPD2     N 1655   4.090   4.406  12.207 -0.0728 -0.4352 -0.1129
  108MPD2    H5 1656   4.025   4.348  12.259 -1.2055 -0.2940 -1.3757
  108MPD2    N1 1657   4.156   4.603  11.756 -0.5156  0.3906 -0.3009
  108MPD2    H7 1658   4.123   4.587  11.661 -0.3073  1.2613 -0.5159
  109MPD2     C 1659   3.531   2.509   2.118  0.1327 -0.1929  0.4264
  109MPD2    C1 1660   3.602   2.533   2.012  0.7882 -0.6625  0.0620
  109MPD2    C2 1661   3.736   2.571   2.027  0.1467  0.5820 -0.3918
  109MPD2    C3 1662   3.792   2.580   2.146 -0.4513 -0.5033 -0.0168
  109MPD2    C4 1663   3.726   2.553   2.254 -0.4105 -0.3044  1.1369
  109MPD2    C5 1664   3.590   2.513   2.245  0.0022 -0.3945  0.1398
  109MPD2     H 1665   3.776   2.625   1.942 -1.2059  0.4506 -1.1114
  109MPD2    H1 1666   3.773   2.547   2.352 -0.2489  1.8143  1.2037
  109MPD2    H2 1667   3.429   2.474   2.107  0.0920  0.0600 -0.0121
  109MPD2    H3 1668   3.538   2.480   2.334 -2.1045  0.1528 -0.8903
  109MPD2     N 1669   3.919   2.628   2.142 -0.0695 -0.0676 -0.3182
  109MPD2    H5 1670   3.966   2.602   2.056 -1.9703  0.9102 -1.6294
  109MPD2    N1 1671   3.551   2.514   1.880 -0.0401  0.4982  0.2021
  109MPD2    H7 1672   3.450   2.500   1.874 -0.0706  0.5480  0.6021
  110TCq2    C1 1673   4.006   2.667   2.245 -0.2594  0.4859 -0.1910
  110TCq2    O2 1674   3.994   2.676   2.367  0.1593  0.1512  0.0105
  110TCq2    C2 1675   4.138   2.674   2.200 -0.3287  0.6519  0.2893
  110TCq2    C3 1676   4.241   2.655   2.289  0.5734  0.2523 -0.3305
  110TCq2    C4 1677   4.370   2.690   2.247  0.0029 -0.2259 -0.6413
  110TCq2    C5 1678   4.390   2.752   2.127 -0.1372 -0.7441  0.1524
  110TCq2    C6 1679   4.283   2.764   2.039 -0.0776  0.4033 -0.4585
  110TCq2    C7 1680   4.160   2.732   2.079  0.2269 -0.7696 -0.0749
  110TCq2    C8 1681   4.310   2.815   1.908  0.1141 -0.4383  0.2864
  110TCq2    O4 1682   4.425   2.843   1.876 -0.0320  0.4209  0.0926
  110TCq2    C9 1683   4.486   2.677   2.328  0.0093 -0.8047 -0.4355
  110TCq2    O5 1684   4.594   2.732   2.294 -0.2098 -0.5926  0.0567
  110TCq2    O6 1685   4.475   2.610   2.436  0.3025  0.6136 -0.1967
  110TCq2    H2 1686   4.229   2.623   2.391 -0.4995  0.4173 -0.4038
  110TCq2    H3 1687   4.484   2.796   2.094 -0.2089 -0.1193  0.8053
  110TCq2    H4 1688   4.081   2.744   2.006  0.8476 -1.2844 -0.8361
  111TMC2    C1 1689   4.535   2.462  11.324 -0.2301  0.0883  0.3099
  111TMC2    C2 1690   4.640   2.473  11.237 -0.6690  0.3593 -0.4388
  111TMC2    C3 1691   0.039   2.427  11.271  0.3892 -0.1792 -0.0195
  111TMC2    C4 1692   4.543   2.399  11.441 -0.2983 -0.0051 -0.1732
  111TMC2    C5 1693   4.669   2.365  11.481 -0.4103 -0.2637 -0.0679
  111TMC2    C6 1694   0.054   2.368  11.391  0.1497  0.7044 -0.1276
  111TMC2     C 1695   4.413   2.535  11.287 -0.3700 -0.6299  0.4328
  111TMC2     O 1696   4.408   2.569  11.171  0.3439 -0.6727 -0.0824
  111TMC2     H 1697   4.628   2.532  11.146 -0.4879  2.3867  0.8392
  111TMC2    H1 1698   4.466   2.396  11.517 -0.5125 -2.1492 -0.4752
  111TMC2    H2 1699   0.147   2.320  11.421 -0.5052 -0.5740 -0.1686
  111TMC2    C7 1700   4.694   2.358  11.628  0.9898 -0.0487 -0.0843
  111TMC2    C8 1701   0.143   2.447  11.168  0.1914  0.0512  0.2896
  111TMC2    O1 1702   4.601   2.354  11.703  0.1254 -0.4967  0.2332
  111TMC2    O2 1703   0.161   2.542  11.095  0.3937 -0.2251 -0.3214
  111TMC2    O5 1704   0.220   2.337  11.159  0.6800 -0.6459 -0.2046
  111TMC2    H5 1705   0.174   2.256  11.189  2.1645 -1.5817 -0.4672
  112MPD2     C 1706   3.949   2.741  11.343  0.2656  0.8895  0.4493
  112MPD2    C1 1707   4.009   2.695  11.231  0.1020 -0.6933  0.5072
  112MPD2    C2 1708   4.133   2.632  11.241 -0.5767 -0.1992 -0.5069
  112MPD2    C3 1709   4.191   2.617  11.370 -0.3639  0.3879  0.1563
  112MPD2    C4 1710   4.118   2.665  11.477 -0.3226 -0.2344 -0.1582
  112MPD2    C5 1711   3.998   2.719  11.467 -0.1551  0.3039  0.7549
  112MPD2     H 1712   4.181   2.591  11.153  0.6341 -0.8751  0.4779
  112MPD2    H1 1713   4.167   2.659  11.574  0.1956 -0.1932 -0.4203
  112MPD2    H2 1714   3.850   2.784  11.337  0.0161  0.1683 -0.6759
  112MPD2    H3 1715   3.954   2.764  11.555  0.0768 -1.5301  1.8099
  112MPD2     N 1716   4.316   2.555  11.389 -0.1850  0.3509  0.2674
  112MPD2    H5 1717   4.343   2.543  11.487 -0.8310  0.9154  0.5139
  112MPD2    N1 1718   3.948   2.704  11.104 -0.8170  0.1503 -0.3659
  112MPD2    H7 1719   4.002   2.665  11.028 -2.4417  0.1248 -1.5099
  113MPD2     C 1720   2.139   0.500   1.144 -0.0797 -0.1934 -0.4265
  113MPD2    C1 1721   2.039   0.562   1.080  0.6503 -0.5338 -1.2990
  113MPD2    C2 1722   1.987   0.511   0.966  0.4893 -0.8446  0.1823
  113MPD2    C3 1723   2.027   0.387   0.916  0.4531  0.3989 -0.4028
  113MPD2    C4 1724   2.129   0.320   0.986 -0.2382 -1.2283  0.1291
  113MPD2    C5 1725   2.183   0.380   1.097  0.3105  0.6855 -0.2207
  113MPD2     H 1726   1.916   0.573   0.912  1.5696  1.2790  1.1899
  113MPD2    H1 1727   2.164   0.220   0.965 -0.4967 -1.6502  1.7073
  113MPD2    H2 1728   2.182   0.535   1.238 -0.2333 -0.0837 -0.3976
  113MPD2    H3 1729   2.253   0.319   1.153 -0.7689 -1.3665 -1.1109
  113MPD2     N 1730   1.957   0.337   0.807 -0.0665 -0.3255  0.0832
  113MPD2    H5 1731   1.914   0.412   0.754 -0.8579 -0.4740  0.5132
  113MPD2    N1 1732   1.993   0.685   1.119 -0.0591  0.2818 -0.1028
  113MPD2    H7 1733   1.919   0.720   1.059 -1.5597  0.6932  2.0101
  114TCq2    C1 1734   1.951   0.211   0.762  0.1072  0.4164 -0.2044
  114TCq2    O2 1735   1.990   0.111   0.821 -0.3340  0.4649 -0.3183
  114TCq2    C2 1736   1.873   0.195   0.639  0.6216 -0.8181 -0.0792
  114TCq2    C3 1737   1.881   0.287   0.540 -0.1892  0.1609  0.1923
  114TCq2    C4 1738   1.819   0.252   0.429 -0.2610  0.1331 -0.9265
  114TCq2    C5 1739   1.765   0.132   0.405  0.6027 -0.6968  0.3455
  114TCq2    C6 1740   1.785   0.029   0.497  0.0517  0.5552  0.0115
  114TCq2    C7 1741   1.838   0.064   0.618 -0.2985 -0.3734  0.3476
  114TCq2    C8 1742   1.717   4.622   0.467  0.2967 -0.2095  0.1451
  114TCq2    O4 1743   1.658   4.618   0.361 -0.3792  0.0270  0.1136
  114TCq2    C9 1744   1.800   0.355   0.331 -0.1749  0.3824  0.3113
  114TCq2    O5 1745   1.861   0.468   0.346 -0.2569  0.4050 -0.2009
  114TCq2    O6 1746   1.765   0.321   0.212 -0.0878 -0.0762 -0.0637
  114TCq2    H2 1747   1.942   0.376   0.552  0.5765 -0.5349  1.4527
  114TCq2    H3 1748   1.705   0.121   0.315  0.3482 -0.3392  0.4730
  114TCq2    H4 1749   1.850   4.712   0.696  0.5462  1.4999  1.9892
  115TMC2    C1 1750   3.328   3.570  17.446 -0.0728  0.2132 -0.1201
  115TMC2    C2 1751   3.318   3.618  17.321  0.7447  0.4389  0.5774
  115TMC2    C3 1752   3.356   3.748  17.307 -0.4691  0.4425 -0.4954
  115TMC2    C4 1753   3.383   3.638  17.552 -1.1796  0.6452 -0.3217
  115TMC2    C5 1754   3.414   3.768  17.530 -0.6133 -0.1949  0.0023
  115TMC2    C6 1755   3.412   3.824  17.407 -0.1327 -0.2405  0.4129
  115TMC2     C 1756   3.248   3.446  17.470 -0.1114 -0.0347 -0.8586
  115TMC2     O 1757   3.169   3.409  17.379 -0.0013 -0.1146  0.1391
  115TMC2     H 1758   3.271   3.562  17.240 -0.5424  1.8025  0.3705
  115TMC2    H1 1759   3.372   3.612  17.656  2.0743 -1.4547 -0.5192
  115TMC2    H2 1760   3.438   3.928  17.388 -2.1710  0.6016  2.2535
  115TMC2    C7 1761   3.499   3.830  17.628 -0.8661 -0.4677  0.7617
  115TMC2    C8 1762   3.356   3.805  17.175 -0.4904 -0.3993 -0.3467
  115TMC2    O1 1763   3.485   3.804   0.058  0.4334  0.0130 -0.4544
  115TMC2    O2 1764   3.280   3.758  17.091 -0.2918 -0.0671 -0.6620
  115TMC2    O5 1765   3.481   3.830  17.150  0.3743  0.0744 -0.2877
  115TMC2    H5 1766   3.543   3.820  17.227  1.1619  2.1000 -0.6729
  116MPD2     C 1767   3.086   3.053   0.060 -0.0970 -0.2625  0.2435
  116MPD2    C1 1768   3.099   3.071  17.615  0.1312  0.0566  0.1497
  116MPD2    C2 1769   3.157   3.186  17.569 -1.3719 -0.0728  0.3748
  116MPD2    C3 1770   3.198   3.282  17.657 -0.7308 -0.4663 -0.3232
  116MPD2    C4 1771   3.171   3.269   0.101  0.0845 -0.2815 -0.3256
  116MPD2    C5 1772   3.113   3.154   0.147 -0.3284  0.0228 -0.8224
  116MPD2     H 1773   3.175   3.195  17.462  0.1400  0.5712  0.6844
  116MPD2    H1 1774   3.209   3.343   0.170  1.1145 -1.0151 -0.1036
  116MPD2    H2 1775   3.048   2.963   0.108 -0.8751  0.2994  0.6992
  116MPD2    H3 1776   3.105   3.132   0.252 -0.0285 -1.1058 -1.0394
  116MPD2     N 1777   3.257   3.403  17.604 -0.6289  0.4430 -0.3012
  116MPD2    H5 1778   3.299   3.464  17.674 -0.8056 -0.7982  0.8698
  116MPD2    N1 1779   3.051   2.974  17.529 -0.1646 -0.7610  0.2793
  116MPD2    H7 1780   3.052   2.996  17.430 -0.0392  1.3665  0.7542
  117TMC2    C1 1781   1.931   4.110  13.761 -0.8585 -0.1604 -0.3671
  117TMC2    C2 1782   2.033   4.018  13.756  0.1253  0.5661  0.5347
  117TMC2    C3 1783   2.129   4.021  13.853  0.6337  0.0121 -0.0230
  117TMC2    C4 1784   1.920   4.195  13.864  0.1443 -0.4943  0.4427
  117TMC2    C5 1785   2.017   4.200  13.957  0.9936  1.0261  0.0591
  117TMC2    C6 1786   2.122   4.111  13.955  0.3035 -0.1792 -1.0036
  117TMC2     C 1787   1.884   4.159  13.637  0.0763 -0.5201 -0.0922
  117TMC2     O 1788   1.881   4.087  13.542 -0.1600  0.2620  0.3927
  117TMC2     H 1789   2.043   3.951  13.671 -2.7050  0.5045  0.2451
  117TMC2    H1 1790   1.831   4.256  13.877  2.3236  2.4473  1.5857
  117TMC2    H2 1791   2.200   4.106  14.030 -1.6841 -1.4690  0.9501
  117TMC2    C7 1792   2.000   4.284  14.071  0.7578  0.3504 -0.1735
  117TMC2    C8 1793   2.256   3.944  13.848 -0.2388  0.3570  0.2343
  117TMC2    O1 1794   2.098   4.328  14.134 -0.2728  0.2474  0.4884
  117TMC2    O2 1795   2.356   3.979  13.911 -0.0254 -0.2092 -0.5149
  117TMC2    O5 1796   2.233   3.842  13.764 -0.8014 -0.1448  0.6007
  117TMC2    H5 1797   2.141   3.835  13.729  0.0275  0.6494 -1.7451
  118MPD2     C 1798   1.678   4.329  14.217 -0.0047 -0.5946  0.6764
  118MPD2    C1 1799   1.810   4.341  14.204  0.0833  0.5261 -0.6904
  118MPD2    C2 1800   1.875   4.440  14.280  0.6943  0.1487 -1.0880
  118MPD2    C3 1801   1.804   4.514  14.371  0.7562 -0.3718  0.1691
  118MPD2    C4 1802   1.670   4.496  14.384 -0.2782 -0.1091 -0.0901
  118MPD2    C5 1803   1.611   4.401  14.307  0.6678  0.2417 -0.1493
  118MPD2     H 1804   1.980   4.465  14.266  0.6159  0.9429 -0.2962
  118MPD2    H1 1805   1.603   4.557  14.442 -0.6567  0.2662 -0.9283
  118MPD2    H2 1806   1.636   4.258  14.147 -0.1083  0.5633 -0.4408
  118MPD2    H3 1807   1.504   4.383  14.312  0.4640  1.8145  1.0193
  118MPD2     N 1808   1.848   4.624  14.443 -0.6124  0.5426  0.8196
  118MPD2    H5 1809   1.781   4.656  14.512  0.5442  1.9704  1.2796
  118MPD2    N1 1810   1.872   4.263  14.111  0.7178 -0.7468  0.4131
  118MPD2    H7 1811   1.820   4.186  14.071 -0.5535  1.0351 -1.4026
  119MPD2     C 1812   0.404   1.539  13.513 -0.2272 -0.1181  0.1874
  119MPD2    C1 1813   0.272   1.491  13.524  0.6360 -0.0000 -0.3611
  119MPD2    C2 1814   0.191   1.492  13.412 -0.3707  0.2260  0.2424
  119MPD2    C3 1815   0.251   1.504  13.290  0.6063  0.5125  0.0192
  119MPD2    C4 1816   0.390   1.522  13.277 -0.0033 -0.0487 -0.0496
  119MPD2    C5 1817   0.462   1.550  13.392  0.6283 -0.0536 -0.1526
  119MPD2     H 1818   0.091   1.451  13.423 -0.4192 -0.4511 -2.6109
  119MPD2    H1 1819   0.435   1.542  13.180  1.8078  0.3912  0.8811
  119MPD2    H2 1820   0.472   1.549  13.597  0.8550 -1.7946 -0.4779
  119MPD2    H3 1821   0.566   1.579  13.384  0.1266  1.6907 -0.3871
  119MPD2     N 1822   0.179   1.494  13.173 -0.2402  0.1390 -0.1572
  119MPD2    H5 1823   0.240   1.494  13.092  0.0054 -0.5418  0.0263
  119MPD2    N1 1824   0.215   1.453  13.648 -1.0179 -0.4855  0.3442
  119MPD2    H7 1825   0.115   1.436  13.644 -1.1886 -0.3419  3.6645
  120TCq2    C1 1826   0.042   1.493  13.164 -0.5179 -0.2176 -0.4236
  120TCq2    O2 1827   4.678   1.506  13.250  0.6485 -0.3346 -0.0486
  120TCq2    C2 1828   4.714   1.423  13.044 -0.5779 -0.3499 -0.6365
  120TCq2    C3 1829   0.073   1.367  12.948 -0.1588 -0.2247  0.1762
  120TCq2    C4 1830   0.012   1.300  12.849  0.4677 -0.2322  0.4576
  120TCq2    C5 1831   4.600   1.297  12.835 -0.2886  0.2883 -0.2137
  120TCq2    C6 1832   4.521   1.354  12.930 -0.4888  0.1230  0.3301
  120TCq2    C7 1833   4.579   1.417  13.031  0.1642 -0.8203 -0.3290
  120TCq2    C8 1834   4.393   1.287  12.944  0.3339 -0.1580  0.7077
  120TCq2    O4 1835   4.341   1.234  12.847 -0.5606  0.0217  0.1434
  120TCq2    C9 1836   0.096   1.257  12.741  0.3043  0.6033  0.5271
  120TCq2    O5 1837   0.049   1.175  12.658 -0.9664  0.0245 -0.0773
  120TCq2    O6 1838   0.217   1.275  12.761  0.5408 -0.5915  0.2648
  120TCq2    H2 1839   0.179   1.351  12.964 -0.8516 -3.3103  1.6491
  120TCq2    H3 1840   4.556   1.249  12.749  1.3732 -2.4903  0.4634
  120TCq2    H4 1841   4.510   1.468  13.098  0.8942 -0.8546  0.4402
  121TMC2    C1 1842   1.272   2.735  14.090 -0.5895 -0.2342  0.1615
  121TMC2    C2 1843   1.319   2.614  14.055 -0.0847 -0.7599 -0.1775
  121TMC2    C3 1844   1.247   2.500  14.087 -0.4511 -0.1554  0.6893
  121TMC2    C4 1845   1.145   2.757  14.106  0.5876  0.0822 -0.2450
  121TMC2    C5 1846   1.064   2.642  14.110 -0.1934  0.3973  0.6827
  121TMC2    C6 1847   1.111   2.512  14.113  0.0237 -0.4884 -0.5523
  121TMC2     C 1848   1.358   2.849  14.092  0.6520  0.2491  0.6783
  121TMC2     O 1849   1.436   2.874  14.181 -0.5540 -0.2089  0.0104
  121TMC2     H 1850   1.425   2.601  14.038  0.6051  1.6983  2.1042
  121TMC2    H1 1851   1.102   2.856  14.110  1.3777  0.3863  0.7529
  121TMC2    H2 1852   1.051   2.422  14.123 -0.5215  0.1054  1.5532
  121TMC2    C7 1853   0.932   2.674  14.146 -0.1642 -0.0959 -0.3879
  121TMC2    C8 1854   1.303   2.371  14.062 -0.6303  0.8501  0.1555
  121TMC2    O1 1855   0.896   2.792  14.144  0.2743  0.2924  0.1060
  121TMC2    O2 1856   1.239   2.278  14.018 -0.1277 -0.0693  0.3175
  121TMC2    O5 1857   1.442   2.371  14.086  0.0485 -0.5132  0.3260
  121TMC2    H5 1858   1.459   2.443  14.151 -0.8747  0.3230 -0.3536
  122MPD2     C 1859   1.520   3.083  14.000 -0.4539  0.7866  0.0172
  122MPD2    C1 1860   1.435   3.010  13.917 -0.1725  1.5415  0.0547
  122MPD2    C2 1861   1.436   3.032  13.779  0.3364  0.3388 -0.0586
  122MPD2    C3 1862   1.520   3.126  13.728  1.3457  0.1239  0.6306
  122MPD2    C4 1863   1.598   3.208  13.811 -0.4981 -0.6407  0.3929
  122MPD2    C5 1864   1.594   3.185  13.948 -0.1552 -0.4999 -0.5127
  122MPD2     H 1865   1.378   2.970  13.713  0.3961 -0.9357  1.0747
  122MPD2    H1 1866   1.666   3.280  13.766 -0.8379  1.3308  2.9985
  122MPD2    H2 1867   1.534   3.067  14.106  1.2195 -0.9466 -0.4648
  122MPD2    H3 1868   1.653   3.249  14.012  1.9120 -0.6033 -2.3376
  122MPD2     N 1869   1.527   3.154  13.588  0.0319  0.5756 -0.5050
  122MPD2    H5 1870   1.481   3.084  13.530 -0.7936  1.3758 -0.8160
  122MPD2    N1 1871   1.353   2.904  13.965 -0.6175 -0.4376  0.3867
  122MPD2    H7 1872   1.296   2.849  13.901  0.9937 -0.3830 -1.0755
  123MPD2     C 1873   0.207   1.186  10.654  0.2814  0.2373 -0.7559
  123MPD2    C1 1874   0.214   1.128  10.528  0.4955 -0.0350 -0.2348
  123MPD2    C2 1875   0.276   1.191  10.424  0.6447 -0.5249 -0.3464
  123MPD2    C3 1876   0.328   1.317  10.441  0.6619  0.0853 -0.2243
  123MPD2    C4 1877   0.311   1.380  10.563 -0.1475 -0.3281  0.1582
  123MPD2    C5 1878   0.257   1.310  10.668  0.2045  0.0022 -0.8283
  123MPD2     H 1879   0.286   1.142  10.328 -0.4781 -0.4328 -0.4983
  123MPD2    H1 1880   0.345   1.482  10.573  2.4317 -1.1398 -0.4451
  123MPD2    H2 1881   0.160   1.131  10.735  1.6928  0.7843  0.4376
  123MPD2    H3 1882   0.245   1.367  10.760 -0.6912 -0.4247 -0.6779
  123MPD2     N 1883   0.391   1.381  10.328  0.5366  0.4555  0.0867
  123MPD2    H5 1884   0.388   1.341  10.235 -0.0794  2.2197 -0.6510
  123MPD2    N1 1885   0.159   0.997  10.513 -0.4010  0.3367  0.3867
  123MPD2    H7 1886   0.108   0.966  10.595  2.1562 -0.2829  1.7244
  124TCq2    C1 1887   0.456   1.508  10.330  0.5855 -0.8596  0.3309
  124TCq2    O2 1888   0.485   1.576  10.426  0.0020 -0.7796  0.6000
  124TCq2    C2 1889   0.497   1.543  10.197 -0.1262  0.1510 -0.4783
  124TCq2    C3 1890   0.601   1.625  10.179 -0.2612 -0.1505  0.0227
  124TCq2    C4 1891   0.639   1.671  10.053 -0.3259  0.3938  0.0134
  124TCq2    C5 1892   0.573   1.624   9.941  0.0285  0.9346 -0.6516
  124TCq2    C6 1893   0.467   1.539   9.966  0.0340 -0.0089  0.1951
  124TCq2    C7 1894   0.422   1.492  10.092  0.4096 -0.0354  0.2045
  124TCq2    C8 1895   0.395   1.475   9.854  0.2115  0.4083 -0.1822
  124TCq2    O4 1896   0.317   1.387   9.884 -0.6235 -0.2723  0.5378
  124TCq2    C9 1897   0.757   1.746  10.034  0.6239  0.8622  0.3561
  124TCq2    O5 1898   0.786   1.820  10.129 -0.1754  0.1188 -0.1718
  124TCq2    O6 1899   0.821   1.736   9.922  0.1344  0.1153 -0.3914
  124TCq2    H2 1900   0.670   1.650  10.259 -0.0142 -1.0613  0.0923
  124TCq2    H3 1901   0.613   1.651   9.844  2.5685 -2.5654 -0.5616
  124TCq2    H4 1902   0.327   1.441  10.104 -0.8790  2.0532 -1.1129
  125TMC2    C1 1903   1.404   1.882   9.576  0.8046  0.7274  0.2737
  125TMC2    C2 1904   1.343   1.832   9.693  0.6209 -0.4254  0.1519
  125TMC2    C3 1905   1.278   1.714   9.692 -0.4912  0.2981  0.5176
  125TMC2    C4 1906   1.399   1.813   9.463 -0.3401  0.1442  1.0718
  125TMC2    C5 1907   1.326   1.694   9.467  0.0615 -0.6787  0.1449
  125TMC2    C6 1908   1.263   1.643   9.580 -0.0755  0.0064  0.2577
  125TMC2     C 1909   1.502   1.984   9.590  0.1572 -0.5065 -0.0419
  125TMC2     O 1910   1.580   1.992   9.494  0.0006 -0.3231  0.3345
  125TMC2     H 1911   1.369   1.872   9.790 -0.5398  2.1865 -0.6172
  125TMC2    H1 1912   1.449   1.855   9.376 -3.1772 -0.2587 -0.7429
  125TMC2    H2 1913   1.206   1.551   9.571 -0.9698  0.4483  1.4393
  125TMC2    C7 1914   1.329   1.612   9.351  0.0792  0.7431 -0.0992
  125TMC2    C8 1915   1.192   1.694   9.802  0.5264 -0.2883 -0.3625
  125TMC2    O1 1916   1.237   1.532   9.322  0.3576 -0.1920  0.0335
  125TMC2    O2 1917   1.153   1.794   9.858  0.0596 -0.4366 -0.1577
  125TMC2    O5 1918   1.113   1.587   9.772  0.2056  0.3337  0.5657
  125TMC2    H5 1919   1.162   1.519   9.720  2.4460  2.5263 -0.1820
  126MPD1     C 1920   1.748   2.347   9.841 -0.2346  0.0967  0.3415
  126MPD1    C1 1921   1.645   2.314   9.922 -0.1254  0.0776 -0.9705
  126MPD1    C2 1922   1.559   2.214   9.880 -0.2230 -0.1574 -0.0242
  126MPD1    C3 1923   1.580   2.157   9.752  1.0882 -0.0659  0.1035
  126MPD1    C4 1924   1.694   2.194   9.679  0.3627 -0.0947 -0.0552
  126MPD1    C5 1925   1.776   2.289   9.721  0.3102 -0.4460 -0.2814
  126MPD1     H 1926   1.477   2.187   9.946  0.4159  1.8411  1.5777
  126MPD1    H1 1927   1.723   2.145   9.586  2.7949 -0.4781  0.9099
  126MPD1    H2 1928   1.818   2.420   9.880 -0.3629  0.4067 -0.0182
  126MPD1    H3 1929   1.864   2.318   9.665 -1.7897  0.5837 -3.0764
  126MPD1     N 1930   1.489   2.057   9.706 -0.0314 -0.0057 -0.2666
  126MPD1    H5 1931   1.413   2.043   9.773  0.4122 -1.5364 -0.0853
  126MPD1    N1 1932   1.631   2.379  10.048  0.3372 -0.0899 -0.0777
  126MPD1    H6 1933   1.670   2.473  10.055  0.5661 -0.2560  0.9994
  126MPD1    H7 1934   1.557   2.350  10.111  0.3171  1.4573  0.5973
  127MPD2     C 1935   2.082   1.200  10.035 -0.3541  0.8558  0.4171
  127MPD2    C1 1936   2.159   1.170   9.925  0.7007  0.3469 -0.1496
  127MPD2    C2 1937   2.270   1.249   9.907 -0.2116  0.1256 -0.1275
  127MPD2    C3 1938   2.315   1.339  10.002  0.3132 -0.0373  0.0741
  127MPD2    C4 1939   2.233   1.363  10.115 -0.2387 -0.1866  0.0045
  127MPD2    C5 1940   2.118   1.291  10.125  0.0803 -0.0941  0.1201
  127MPD2     H 1941   2.338   1.242   9.822  1.2776 -1.3076  1.1791
  127MPD2    H1 1942   2.262   1.426  10.198 -1.5591 -1.2138  1.2346
  127MPD2    H2 1943   1.987   1.151  10.051 -0.4546  1.6718  2.3623
  127MPD2    H3 1944   2.048   1.307  10.207 -0.1010 -0.3835  0.0228
  127MPD2     N 1945   2.428   1.414   9.963  0.0587  0.2876  0.6475
  127MPD2    H5 1946   2.479   1.391   9.879 -0.2949 -0.7256  0.7162
  127MPD2    N1 1947   2.109   1.084   9.822  0.0991  0.1701  0.4512
  127MPD2    H7 1948   2.018   1.042   9.839  0.2539 -0.7069 -0.8618
  128TCq2    C1 1949   2.162   1.071   9.691 -0.3477  0.3869 -0.3297
  128TCq2    O2 1950   2.275   1.090   9.650 -0.7687  0.8212 -0.1570
  128TCq2    C2 1951   2.071   0.990   9.608  1.1809 -0.2374  0.1568
  128TCq2    C3 1952   2.117   0.903   9.521  0.0548  0.1214 -0.4769
  128TCq2    C4 1953   2.031   0.836   9.444 -0.0833  0.5712  0.2107
  128TCq2    C5 1954   1.896   0.843   9.458  0.2762 -0.1270 -0.2421
  128TCq2    C6 1955   1.854   0.926   9.561  0.5779  0.4826 -0.4729
  128TCq2    C7 1956   1.935   1.006   9.634 -0.0802  0.4114  0.1205
  128TCq2    C8 1957   1.710   0.950   9.569  0.3566 -0.2371  0.1045
  128TCq2    O4 1958   1.641   0.929   9.472 -0.5613  0.1271  0.2460
  128TCq2    C9 1959   2.086   0.757   9.339 -0.6551  0.4640  0.2561
  128TCq2    O5 1960   2.197   0.797   9.293  0.1801 -0.7631  0.3797
  128TCq2    O6 1961   2.014   0.670   9.280  0.0496 -0.1609  0.0119
  128TCq2    H2 1962   2.223   0.891   9.499 -0.0722 -1.3656 -0.2785
  128TCq2    H3 1963   1.829   0.787   9.393 -0.3222  0.3577 -0.0492
  128TCq2    H4 1964   1.895   1.082   9.700  1.0699  2.2305 -1.2775
  129MPD2     C 1965   4.510   2.673   1.453 -0.1853  0.0282  0.1573
  129MPD2    C1 1966   4.613   2.644   1.545 -0.0432 -0.3175  0.4537
  129MPD2    C2 1967   0.023   2.661   1.497  0.0812 -0.2836  0.2194
  129MPD2    C3 1968   0.052   2.723   1.375  0.1232 -0.5631  0.1642
  129MPD2    C4 1969   4.667   2.749   1.296 -0.6634  0.1800  0.1581
  129MPD2    C5 1970   4.540   2.722   1.328  0.7134 -0.5356 -0.7492
  129MPD2     H 1971   0.103   2.653   1.569  2.0491  2.7686 -1.6236
  129MPD2    H1 1972   4.685   2.799   1.201  0.3772 -0.9156 -0.2188
  129MPD2    H2 1973   4.406   2.661   1.482 -0.1518  2.6890  1.3900
  129MPD2    H3 1974   4.465   2.761   1.259  0.1364 -0.8188 -0.2842
  129MPD2     N 1975   0.186   2.767   1.348 -0.4627 -0.4536 -0.9386
  129MPD2    H5 1976   0.254   2.725   1.410  0.5210  0.3161 -1.5135
  129MPD2    N1 1977   4.596   2.591   1.673 -1.2519 -0.1736  0.1523
  129MPD2    H7 1978   4.680   2.570   1.726 -1.5557 -1.2587  0.2054
  130TCq2    C1 1979   4.469   2.545   1.717  0.2509  0.4084  0.3818
  130TCq2    O2 1980   4.369   2.539   1.654 -0.0131 -0.5245  0.0371
  130TCq2    C2 1981   4.472   2.494   1.853 -0.0444  0.2873  0.4877
  130TCq2    C3 1982   4.578   2.510   1.935  0.0308  0.4383 -0.4039
  130TCq2    C4 1983   4.584   2.453   2.055 -0.3048 -0.9961  0.3131
  130TCq2    C5 1984   4.476   2.384   2.101 -0.0227 -0.1023  0.3834
  130TCq2    C6 1985   4.365   2.377   2.024  0.2277 -0.3812  0.0751
  130TCq2    C7 1986   4.361   2.426   1.896 -0.1203 -0.1688  0.0002
  130TCq2    C8 1987   4.238   2.341   2.086  0.3478  0.5315 -0.0358
  130TCq2    O4 1988   4.143   2.351   2.012  0.4449 -0.2421  0.5334
  130TCq2    C9 1989   4.700   2.460   2.137 -0.1857 -0.5130 -0.6109
  130TCq2    O5 1990   4.690   2.431   2.256  0.2409 -0.4935  0.0023
  130TCq2    O6 1991   0.083   2.498   2.080  0.4673  0.3368  0.0343
  130TCq2    H2 1992   4.659   2.579   1.912  0.8758 -1.0586 -1.9096
  130TCq2    H3 1993   4.480   2.329   2.194  2.0634 -0.8101 -0.1270
  130TCq2    H4 1994   4.270   2.434   1.838 -0.1742 -0.2603  0.0738
  131MPD2     C 1995   4.382   0.891   9.736  0.5889  0.2566 -0.0167
  131MPD2    C1 1996   4.472   0.988   9.794 -0.4052 -0.0675  0.1541
  131MPD2    C2 1997   4.548   0.945   9.901 -0.6349  0.4483  0.4993
  131MPD2    C3 1998   4.517   0.822   9.953  0.0061 -0.5465 -0.4696
  131MPD2    C4 1999   4.418   0.742   9.903 -0.4052 -0.2282 -0.0952
  131MPD2    C5 2000   4.353   0.776   9.794 -0.0894 -0.4824  0.6953
  131MPD2     H 2001   4.617   1.013   9.949  0.8302 -1.0210  0.4815
  131MPD2    H1 2002   4.404   0.639   9.932  0.8277 -1.0232 -2.3524
  131MPD2    H2 2003   4.331   0.926   9.647 -0.5636  2.1709  1.3865
  131MPD2    H3 2004   4.276   0.709   9.757 -0.3893  0.5020 -0.4376
  131MPD2     N 2005   4.595   0.781  10.068  0.0316 -0.1233  0.1268
  131MPD2    H5 2006   4.674   0.842  10.088  0.9119 -1.0084 -0.6563
  131MPD2    N1 2007   4.479   1.117   9.734 -0.1550  0.0637  0.0657
  131MPD2    H7 2008   4.414   1.132   9.657 -0.5107  1.3825  0.6154
  132TCq2    C1 2009   4.609   1.546   9.415  0.3801  0.0120 -0.5023
  132TCq2    O2 2010   4.578   1.468   9.321  0.0699 -0.3092  0.1510
  132TCq2    C2 2011   4.558   1.509   9.551 -0.1951 -0.3061  0.6525
  132TCq2    C3 2012   4.541   1.611   9.641 -0.1506  0.6644  0.3116
  132TCq2    C4 2013   4.501   1.584   9.770 -0.2304 -0.2552 -0.9152
  132TCq2    C5 2014   4.487   1.454   9.809  0.7548 -0.2286  0.4976
  132TCq2    C6 2015   4.509   1.353   9.721 -0.3767  0.2048 -0.6058
  132TCq2    C7 2016   4.538   1.372   9.586  0.2366 -0.7853 -0.0701
  132TCq2    C8 2017   4.545   1.228   9.783 -0.5572  1.0795  0.6751
  132TCq2    O4 2018   4.606   1.238   9.888 -0.0133 -0.0782  0.6951
  132TCq2    C9 2019   4.482   1.692   9.851 -0.4706 -0.5721  0.2746
  132TCq2    O5 2020   4.431   1.668   9.966 -0.1937  0.1099 -0.1453
  132TCq2    O6 2021   4.528   1.805   9.824 -0.4351  0.0819 -0.2469
  132TCq2    H2 2022   4.547   1.715   9.610 -3.1832  0.8967  0.5567
  132TCq2    H3 2023   4.450   1.433   9.909 -0.5248  1.3515  0.3525
  132TCq2    H4 2024   4.558   1.291   9.518  1.2849 -0.1276 -0.5505
  133MPD2     C 2025   3.807   2.793   8.937 -0.2895 -0.1683  0.8279
  133MPD2    C1 2026   3.918   2.722   8.969  0.2500  0.0635  0.5275
  133MPD2    C2 2027   3.910   2.586   8.942 -0.3245  0.4495  0.4307
  133MPD2    C3 2028   3.796   2.526   8.883  0.4054 -0.4867 -0.6357
  133MPD2    C4 2029   3.687   2.604   8.849 -0.1856  0.2101  0.3726
  133MPD2    C5 2030   3.697   2.740   8.873 -1.1996  0.1745  0.8611
  133MPD2     H 2031   3.982   2.518   8.983  0.0516  0.8458  0.4269
  133MPD2    H1 2032   3.597   2.568   8.801  1.1043 -1.3334 -0.8921
  133MPD2    H2 2033   3.799   2.899   8.958  1.2437  0.2977 -0.8593
  133MPD2    H3 2034   3.610   2.802   8.855 -0.6983  0.8699  0.8104
  133MPD2     N 2035   3.783   2.381   8.876 -0.0523  0.3253  0.2543
  133MPD2    H5 2036   3.691   2.344   8.858  0.0617 -1.2632  2.9695
  133MPD2    N1 2037   4.020   2.778   9.045 -0.6224 -0.8331 -0.1934
  133MPD2    H7 2038   4.006   2.874   9.073 -0.4157 -0.7494 -0.3703
  134TCq2    C1 2039   4.140   2.721   9.065 -0.4182  0.7724  0.5092
  134TCq2    O2 2040   4.182   2.614   9.026  0.7432 -0.4462  0.7629
  134TCq2    C2 2041   4.244   2.794   9.145 -0.9347  0.0500 -0.3000
  134TCq2    C3 2042   4.368   2.732   9.153  0.1291  0.7413  0.3252
  134TCq2    C4 2043   4.450   2.739   9.266  0.0460  0.1403 -0.4480
  134TCq2    C5 2044   4.412   2.811   9.366  0.1740  0.1862 -0.0913
  134TCq2    C6 2045   4.292   2.885   9.363  0.5397  1.1051  0.4013
  134TCq2    C7 2046   4.202   2.864   9.257  0.3959 -0.0595  0.4235
  134TCq2    C8 2047   4.236   2.922   9.489 -0.0817  0.3825  0.1239
  134TCq2    O4 2048   4.256   2.853   9.588  0.2570  0.0981  0.0928
  134TCq2    C9 2049   4.561   2.650   9.280  0.2870  0.3654 -0.6412
  134TCq2    O5 2050   4.618   2.643   9.388  0.2603 -0.5694 -0.0755
  134TCq2    O6 2051   4.576   2.561   9.194  1.0371 -0.7801  0.4311
  134TCq2    H2 2052   4.403   2.677   9.065  0.8451  2.0791 -0.2230
  134TCq2    H3 2053   4.468   2.808   9.459 -1.5097 -1.4718  0.8839
  134TCq2    H4 2054   4.101   2.901   9.265 -0.7929 -2.8741 -1.6377
  135MPD2     C 2055   1.640   3.051   8.729  0.5168 -0.6249  0.8104
  135MPD2    C1 2056   1.724   3.157   8.758  0.2803 -0.3915 -0.2343
  135MPD2    C2 2057   1.848   3.160   8.697  0.5445 -0.3104 -0.0860
  135MPD2    C3 2058   1.891   3.064   8.606 -0.4707 -0.2033  0.0214
  135MPD2    C4 2059   1.802   2.968   8.581 -0.4266  0.0391 -0.3570
  135MPD2    C5 2060   1.685   2.960   8.644 -0.9072  0.1230 -0.6960
  135MPD2     H 2061   1.912   3.243   8.724 -1.8429  0.6848  2.4969
  135MPD2    H1 2062   1.834   2.888   8.514 -2.0189 -0.1683 -0.8770
  135MPD2    H2 2063   1.537   3.039   8.760  0.3467 -0.5291  0.2790
  135MPD2    H3 2064   1.607   2.889   8.617 -0.4913 -0.3788 -0.5891
  135MPD2     N 2065   2.019   3.059   8.543  0.2870 -0.2087 -0.1283
  135MPD2    H5 2066   2.037   2.985   8.476 -0.6794  0.0216 -0.6432
  135MPD2    N1 2067   1.677   3.263   8.845 -0.0701 -0.2665  0.0978
  135MPD2    H7 2068   1.740   3.342   8.853 -1.1847  0.6212  0.2461
  136TCq2    C1 2069   1.559   3.272   8.909  0.5941 -0.0256  0.9934
  136TCq2    O2 2070   1.471   3.190   8.920 -0.2581 -0.2176  0.1483
  136TCq2    C2 2071   1.544   3.402   8.968  0.0664  0.3468 -0.9074
  136TCq2    C3 2072   1.593   3.511   8.894  0.1403  0.1790  0.4636
  136TCq2    C4 2073   1.570   3.631   8.949  0.3564  0.1920 -0.5930
  136TCq2    C5 2074   1.506   3.642   9.069 -0.1222  0.3902 -0.8882
  136TCq2    C6 2075   1.460   3.530   9.133 -0.3336 -0.4830  0.3524
  136TCq2    C7 2076   1.474   3.407   9.085  0.3327  0.2856 -0.0846
  136TCq2    C8 2077   1.419   3.558   9.271  0.2723 -0.7624  0.1073
  136TCq2    O4 2078   1.426   3.665   9.333  0.1085  0.8964  0.4515
  136TCq2    C9 2079   1.605   3.757   8.874 -0.4879  0.0205 -0.4181
  136TCq2    O5 2080   1.574   3.861   8.935 -0.1343  0.2587 -0.4119
  136TCq2    O6 2081   1.665   3.748   8.761 -0.1549  0.2880 -0.1694
  136TCq2    H2 2082   1.646   3.503   8.800 -0.9143 -1.6020  0.0128
  136TCq2    H3 2083   1.504   3.740   9.116 -1.9304  1.1427 -2.5361
  136TCq2    H4 2084   1.449   3.310   9.126  2.2822  0.3528  1.2629
  137MPD2     C 2085   0.749   1.298  10.221 -0.0797  0.6665  0.5500
  137MPD2    C1 2086   0.780   1.352  10.102 -0.0712  0.2707  0.1539
  137MPD2    C2 2087   0.886   1.446  10.098  0.0448 -0.3790  0.0513
  137MPD2    C3 2088   0.954   1.485  10.212 -0.5258 -0.0748  0.7274
  137MPD2    C4 2089   0.910   1.435  10.335  0.2483  0.3722 -0.0951
  137MPD2    C5 2090   0.809   1.342  10.337  0.1926 -0.1418  0.1293
  137MPD2     H 2091   0.918   1.490  10.003 -2.9605 -2.6143 -1.9901
  137MPD2    H1 2092   0.962   1.464  10.426  1.4770 -1.9286 -0.0372
  137MPD2    H2 2093   0.671   1.223  10.225 -1.1094  1.7808  1.6200
  137MPD2    H3 2094   0.781   1.295  10.430  0.4246  2.0128  1.2862
  137MPD2     N 2095   1.050   1.581  10.199 -0.5435 -0.0392 -0.5899
  137MPD2    H5 2096   1.083   1.599  10.105  0.3463  1.0145 -0.0743
  137MPD2    N1 2097   0.714   1.304   9.985  0.2599 -0.7596 -0.9726
  137MPD2    H7 2098   0.638   1.237   9.993  0.7889 -1.1460  0.6707
  138TCq2    C1 2099   0.740   1.340   9.856  0.4390 -0.8044  0.5388
  138TCq2    O2 2100   0.824   1.419   9.810  0.0673 -0.3314  0.5204
  138TCq2    C2 2101   0.663   1.262   9.758 -0.0677  0.5807  0.0163
  138TCq2    C3 2102   0.613   1.133   9.785  0.6544 -0.7876  0.2074
  138TCq2    C4 2103   0.558   1.057   9.678  0.0197 -0.3918 -0.2587
  138TCq2    C5 2104   0.557   1.113   9.555 -0.5523  0.3887  0.1926
  138TCq2    C6 2105   0.624   1.228   9.535  0.4613 -0.1188  0.1078
  138TCq2    C7 2106   0.675   1.312   9.633 -0.6538 -0.1755  0.8007
  138TCq2    C8 2107   0.637   1.265   9.401 -0.3558  0.0618 -0.2556
  138TCq2    O4 2108   0.633   1.180   9.314 -0.1195  0.4311 -0.2677
  138TCq2    C9 2109   0.519   0.924   9.706  0.8461 -0.4178 -0.7333
  138TCq2    O5 2110   0.487   0.890   9.824  0.1674 -0.3340 -0.4604
  138TCq2    O6 2111   0.518   0.840   9.608 -0.1129  0.7064 -0.2287
  138TCq2    H2 2112   0.601   1.097   9.887  0.4335  1.6425  1.0417
  138TCq2    H3 2113   0.521   1.050   9.474  0.8725  0.8101 -0.7928
  138TCq2    H4 2114   0.724   1.405   9.606  0.5298 -0.8096  0.7749
  139TMC2    C1 2115   1.589   0.775  13.039  0.1672  0.1483  0.0022
  139TMC2    C2 2116   1.546   0.853  12.932 -0.0106  0.0512  0.1808
  139TMC2    C3 2117   1.492   0.976  12.946  0.5432 -0.2813  0.1634
  139TMC2    C4 2118   1.576   0.832  13.161 -0.3040 -0.0866  0.1218
  139TMC2    C5 2119   1.519   0.958  13.179  0.4921  0.0058  0.0600
  139TMC2    C6 2120   1.479   1.030  13.070 -0.1283 -0.0253 -0.3560
  139TMC2     C 2121   1.630   0.640  13.013 -1.3679 -0.1062  0.4685
  139TMC2     O 2122   1.654   0.614  12.896  0.3456 -0.4235 -0.3508
  139TMC2     H 2123   1.539   0.810  12.832  1.1299 -1.2231  0.6597
  139TMC2    H1 2124   1.603   0.773  13.248 -2.6080 -0.3495  0.6589
  139TMC2    H2 2125   1.427   1.125  13.077 -0.6225 -0.2349 -1.2508
  139TMC2    C7 2126   1.460   1.002  13.299 -0.1097 -0.5450  0.1233
  139TMC2    C8 2127   1.412   1.031  12.838 -0.6225  0.6684  0.2948
  139TMC2    O1 2128   1.361   1.077  13.281  0.2360 -0.4075 -0.1129
  139TMC2    O2 2129   1.338   0.948  12.784  0.0548  0.3328 -0.3052
  139TMC2    O5 2130   1.396   1.165  12.850 -0.5990  0.2700  0.2856
  139TMC2    H5 2131   1.467   1.209  12.900 -0.0642 -0.8000  0.4622
  140MPD2     C 2132   1.683   0.336  13.227 -0.1064  0.1717 -0.0287
  140MPD2    C1 2133   1.696   0.425  13.118  0.2465 -0.0358 -0.7009
  140MPD2    C2 2134   1.772   0.376  13.012  0.2659  0.5574 -0.5817
  140MPD2    C3 2135   1.838   0.256  13.013  0.1451 -0.2195  0.4607
  140MPD2    C4 2136   1.838   0.188  13.131 -0.0536 -0.0570 -0.8362
  140MPD2    C5 2137   1.756   0.223  13.238 -0.2406 -1.1387 -0.3260
  140MPD2     H 2138   1.799   0.438  12.927 -0.4531  1.3900 -0.2073
  140MPD2    H1 2139   1.902   0.101  13.145  0.6555  0.7634  1.0513
  140MPD2    H2 2140   1.644   0.371  13.322  0.2215  1.2348 -0.2756
  140MPD2    H3 2141   1.768   0.164  13.328  2.0092  2.4320  1.6787
  140MPD2     N 2142   1.902   0.205  12.889  0.5270 -0.1638 -0.0636
  140MPD2    H5 2143   1.892   0.259  12.804  0.2694 -1.5788 -0.9329
  140MPD2    N1 2144   1.643   0.552  13.122  0.3473 -0.5786 -0.3829
  140MPD2    H7 2145   1.598   0.576  13.210  1.0749  0.2167 -0.2257
  141TCq2    C1 2146   2.032   1.650  14.126  0.2558 -0.5980  0.6536
  141TCq2    O2 2147   2.020   1.767  14.093 -0.2281  0.2202  0.4545
  141TCq2    C2 2148   2.058   1.625  14.271 -0.0914 -0.1830 -0.2733
  141TCq2    C3 2149   2.140   1.524  14.313 -0.7636  0.0552  0.5632
  141TCq2    C4 2150   2.185   1.523  14.440  0.0899  0.5863  0.8558
  141TCq2    C5 2151   2.158   1.621  14.526 -0.8761 -0.1523 -0.1289
  141TCq2    C6 2152   2.077   1.723  14.487 -0.6520  0.2853  0.2939
  141TCq2    C7 2153   2.029   1.724  14.356 -0.2094  0.2455 -0.3449
  141TCq2    C8 2154   2.055   1.834  14.575 -0.3504  0.7962 -0.3681
  141TCq2    O4 2155   2.083   1.821  14.693  0.2854 -0.0696 -0.0415
  141TCq2    C9 2156   2.279   1.417  14.484  0.2907  0.3210  0.1925
  141TCq2    O5 2157   2.356   1.444  14.583 -0.2212 -0.4442 -0.1617
  141TCq2    O6 2158   2.290   1.320  14.407 -0.1953 -0.2156  0.1868
  141TCq2    H2 2159   2.172   1.447  14.244  1.8758  0.1876  1.6408
  141TCq2    H3 2160   2.201   1.623  14.625 -1.1668  0.9564 -0.0288
  141TCq2    H4 2161   1.961   1.802  14.324 -3.0909 -1.6901  1.0541
  142MPD2     C 2162   4.696   0.355   9.910  0.5993  0.0305  0.3530
  142MPD2    C1 2163   4.626   0.348   9.792  0.1595 -0.3967  0.5926
  142MPD2    C2 2164   4.625   0.462   9.714  0.3406  0.1257 -0.2729
  142MPD2    C3 2165   4.700   0.577   9.744 -0.0319  0.2054  0.2183
  142MPD2    C4 2166   0.051   0.584   9.865 -0.3671 -0.1183 -0.7215
  142MPD2    C5 2167   0.050   0.468   9.938  0.3777 -0.4552  0.0435
  142MPD2     H 2168   4.567   0.448   9.624 -0.2281  1.0146 -0.0529
  142MPD2    H1 2169   0.116   0.666   9.893  0.2662 -1.0063  0.4065
  142MPD2    H2 2170   4.701   0.270   9.977 -2.3670  0.5821  1.2599
  142MPD2    H3 2171   0.115   0.472  10.025 -1.1033  0.4338  1.1049
  142MPD2     N 2172   4.695   0.692   9.660 -0.0430  0.0406 -0.3666
  142MPD2    H5 2173   0.019   0.773   9.699  1.3999 -0.6561 -0.6269
  142MPD2    N1 2174   4.575   0.215   9.765  0.7913 -0.3743 -0.1278
  142MPD2    H7 2175   4.561   0.153   9.844 -2.6479  1.6285  0.8388
  143TCq2    C1 2176   4.629   0.710   9.540 -0.4438  0.5311  0.3655
  143TCq2    O2 2177   4.564   0.639   9.468 -0.0501  0.2860 -0.2245
  143TCq2    C2 2178   4.636   0.851   9.491 -0.7467  0.2119 -0.1037
  143TCq2    C3 2179   4.552   0.881   9.385  1.1073  0.3895 -0.2813
  143TCq2    C4 2180   4.574   0.999   9.318 -0.6878 -0.4690 -0.4529
  143TCq2    C5 2181   4.673   1.088   9.350 -0.3193  0.9168 -0.3433
  143TCq2    C6 2182   0.030   1.051   9.455 -0.1052  0.9102 -0.2443
  143TCq2    C7 2183   0.017   0.929   9.522  0.9700 -0.1113 -0.1612
  143TCq2    C8 2184   0.137   1.140   9.517  0.0297  0.3580 -0.3846
  143TCq2    O4 2185   0.173   1.114   9.631  0.2803 -0.2524  0.4906
  143TCq2    C9 2186   4.474   1.030   9.221 -0.6411 -0.1108 -0.1675
  143TCq2    O5 2187   4.390   0.944   9.185 -0.1935 -0.0613  0.4615
  143TCq2    O6 2188   4.453   1.154   9.226 -0.4892  0.4333 -0.7254
  143TCq2    H2 2189   4.459   0.826   9.381  1.2406  0.0986  0.5228
  143TCq2    H3 2190   4.684   1.182   9.297 -0.6129  1.4506  0.5397
  143TCq2    H4 2191   0.074   0.918   9.614 -1.4045  0.6297  1.3929
  144MPD2     C 2192   2.134   4.680   0.451 -0.1994 -0.1566  0.5725
  144MPD2    C1 2193   2.161   4.542   0.455  0.0900  0.0183 -0.0182
  144MPD2    C2 2194   2.265   4.500   0.537 -0.0416  0.1246 -0.3693
  144MPD2    C3 2195   2.330   4.586   0.625 -0.0675 -0.7413  0.8648
  144MPD2    C4 2196   2.288   4.720   0.627 -0.0520 -0.3982 -0.1135
  144MPD2    C5 2197   2.189   0.035   0.545 -0.5634  0.5046  0.5246
  144MPD2     H 2198   2.296   4.397   0.549  0.1864  0.1754 -0.5169
  144MPD2    H1 2199   2.322   0.080   0.689  1.4704 -1.3896  0.3672
  144MPD2    H2 2200   2.046   4.722   0.403 -1.1681 -1.7231  0.9895
  144MPD2    H3 2201   2.156   0.134   0.575 -1.1297  0.6378 -0.5395
  144MPD2     N 2202   2.421   4.530   0.716 -0.5384 -0.6774  0.6669
  144MPD2    H5 2203   2.435   4.587   0.799  5.4391  1.5281 -1.8434
  144MPD2    N1 2204   2.094   4.441   0.388 -0.5175 -0.3059 -0.0609
  144MPD2    H7 2205   2.111   4.344   0.415  0.2284 -0.4904 -1.1621
  145TCq2    C1 2206   2.496   4.414   0.693  0.3622 -0.0037  0.2240
  145TCq2    O2 2207   2.495   4.342   0.594 -0.1732  0.3740 -0.5799
  145TCq2    C2 2208   2.568   4.358   0.807  0.0120  0.8027 -0.3437
  145TCq2    C3 2209   2.692   4.309   0.777 -0.0091 -0.3103 -0.2694
  145TCq2    C4 2210   2.779   4.307   0.887 -0.2496 -0.0607 -0.7654
  145TCq2    C5 2211   2.741   4.338   1.009 -0.4074 -0.3997 -0.2355
  145TCq2    C6 2212   2.612   4.386   1.032  0.2961 -0.0452  0.1639
  145TCq2    C7 2213   2.522   4.399   0.931  0.0756 -0.7666  0.2418
  145TCq2    C8 2214   2.578   4.419   1.169 -0.1956  0.1264 -0.2240
  145TCq2    O4 2215   2.645   4.364   1.262 -0.7193 -0.2435 -0.9054
  145TCq2    C9 2216   2.919   4.259   0.872 -0.1769 -0.3057 -0.2136
  145TCq2    O5 2217   2.994   4.268   0.976  0.6466 -0.1975  0.2398
  145TCq2    O6 2218   2.957   4.222   0.757  0.2334 -0.1701  0.3046
  145TCq2    H2 2219   2.729   4.299   0.676  2.2927 -1.0447  0.6237
  145TCq2    H3 2220   2.812   4.329   1.091 -0.3334 -0.5699 -0.3181
  145TCq2    H4 2221   2.420   4.433   0.949  0.2091  1.2379 -2.7314
  146TMC2    C1 2222   3.080   2.954  12.766 -0.3228  0.4263 -0.0185
  146TMC2    C2 2223   2.961   2.937  12.700 -0.1838  0.6855  0.7269
  146TMC2    C3 2224   2.943   2.826  12.624 -0.5090  0.0310 -0.3843
  146TMC2    C4 2225   3.179   2.864  12.752  0.2297 -0.1399 -0.3563
  146TMC2    C5 2226   3.155   2.749  12.681 -0.4787 -0.6798  0.4365
  146TMC2    C6 2227   3.045   2.740  12.613  0.1293 -0.5402 -0.3341
  146TMC2     C 2228   3.112   3.063  12.848 -0.5751  0.0090  0.4760
  146TMC2     O 2229   3.099   3.181  12.807 -0.5370  0.1335  0.1883
  146TMC2     H 2230   2.884   3.011  12.718 -0.1209  1.0034 -0.3002
  146TMC2    H1 2231   3.283   2.887  12.772  0.4236 -2.2955  1.1722
  146TMC2    H2 2232   3.047   2.653  12.548 -0.7350 -2.2702  1.9687
  146TMC2    C7 2233   3.268   2.680  12.637  0.2793  0.0573  0.2597
  146TMC2    C8 2234   2.838   2.824  12.527  0.0129  0.7073  0.6298
  146TMC2    O1 2235   3.283   2.673  12.515 -0.9877  0.9722 -0.4441
  146TMC2    O2 2236   2.769   2.920  12.493  0.3669 -0.3077  0.6623
  146TMC2    O5 2237   2.789   2.694  12.534  0.1362 -0.5624 -0.0291
  146TMC2    H5 2238   2.855   2.647  12.587 -0.1096 -1.0460 -0.1526
  147MPD2     C 2239   3.754   2.596  12.749  0.4893 -0.6838 -0.3464
  147MPD2    C1 2240   3.680   2.578  12.864 -0.7528  0.4122  0.2898
  147MPD2    C2 2241   3.545   2.601  12.861 -0.6964 -0.0804 -0.8550
  147MPD2    C3 2242   3.486   2.638  12.741  0.1078  0.3468  0.3211
  147MPD2    C4 2243   3.567   2.660  12.627 -0.0093  0.5505 -0.2751
  147MPD2    C5 2244   3.692   2.628  12.627  0.4541  0.0728  0.7862
  147MPD2     H 2245   3.490   2.589  12.954  0.1701  0.2925 -0.3004
  147MPD2    H1 2246   3.518   2.689  12.535  1.0461  1.3318 -0.5899
  147MPD2    H2 2247   3.862   2.588  12.749  0.3336 -2.5608 -0.1629
  147MPD2    H3 2248   3.755   2.653  12.543 -0.8317  4.4807  1.1203
  147MPD2     N 2249   3.348   2.658  12.743 -0.1387 -0.9752  0.6844
  147MPD2    H5 2250   3.302   2.650  12.833 -0.1436 -1.1695  0.6642
  147MPD2    N1 2251   3.755   2.539  12.980 -0.1196 -0.1403 -0.4764
  147MPD2    H7 2252   3.856   2.541  12.971 -0.1397 -1.6355 -1.0528
  148MPD2     C 2253   4.443   1.508  11.020 -0.2430  0.2860 -0.4785
  148MPD2    C1 2254   4.466   1.540  10.889 -0.1623 -0.3706  0.5295
  148MPD2    C2 2255   4.388   1.493  10.787  1.0418 -0.0260 -0.4986
  148MPD2    C3 2256   4.292   1.399  10.812 -0.3694 -0.1678  0.4716
  148MPD2    C4 2257   4.277   1.353  10.941 -0.1895  0.3323 -0.6097
  148MPD2    C5 2258   4.344   1.416  11.048  0.1115  0.0641 -0.2551
  148MPD2     H 2259   4.415   1.517  10.685  3.5267  0.0189  0.1714
  148MPD2    H1 2260   4.206   1.273  10.960  0.1269  0.2727  0.3377
  148MPD2    H2 2261   4.489   1.566  11.099  1.9609 -1.1621 -0.6969
  148MPD2    H3 2262   4.328   1.382  11.150  0.2136 -0.4868 -0.4190
  148MPD2     N 2263   4.221   1.330  10.708 -0.1184 -0.0680  0.9124
  148MPD2    H5 2264   4.177   1.243  10.736 -1.2397  0.1124 -0.3065
  148MPD2    N1 2265   4.565   1.639  10.859 -0.1270  0.4018 -0.4870
  148MPD2    H7 2266   4.584   1.647  10.760 -1.6944  0.2161 -0.7920
  149TCq2    C1 2267   4.658   1.693  10.948 -0.1275  0.1017 -0.3892
  149TCq2    O2 2268   4.691   1.652  11.059  0.3429  0.0096  0.2708
  149TCq2    C2 2269   0.034   1.769  10.864 -1.1531 -0.4403 -0.8251
  149TCq2    C3 2270   0.165   1.774  10.911 -0.0579 -0.2679 -1.1439
  149TCq2    C4 2271   0.266   1.751  10.818  0.2166 -0.2496  0.2129
  149TCq2    C5 2272   0.239   1.722  10.686  0.1254 -0.6441 -0.1820
  149TCq2    C6 2273   0.103   1.740  10.648  0.1442  0.0578  0.1661
  149TCq2    C7 2274   0.009   1.766  10.732 -0.0093 -0.4880  0.0154
  149TCq2    C8 2275   0.057   1.665  10.536  0.4294 -0.0009 -0.1705
  149TCq2    O4 2276   4.694   1.581  10.562 -0.0302 -0.4035  0.2597
  149TCq2    C9 2277   0.398   1.727  10.868  0.1499  0.4137  0.2944
  149TCq2    O5 2278   0.460   1.639  10.801 -0.4101  0.3936 -0.4091
  149TCq2    O6 2279   0.421   1.772  10.979 -0.3582 -0.0870 -0.3592
  149TCq2    H2 2280   0.189   1.786  11.016  1.5498  1.2349 -1.6790
  149TCq2    H3 2281   0.318   1.702  10.615 -0.9564 -0.5009 -1.4130
  149TCq2    H4 2282   4.632   1.783  10.693 -0.4818 -2.4190  0.3872
  150MPD2     C 2283   1.260   1.026  11.897  0.0314  0.9821  0.3593
  150MPD2    C1 2284   1.255   1.162  11.879 -0.3083 -0.3314  0.4821
  150MPD2    C2 2285   1.353   1.239  11.934 -0.0035  0.1838  0.1024
  150MPD2    C3 2286   1.458   1.182  11.999 -0.2166  0.6037 -0.5490
  150MPD2    C4 2287   1.465   1.045  12.005  0.3176  0.4145  0.3098
  150MPD2    C5 2288   1.365   0.967  11.958  0.7236  0.5684 -0.3265
  150MPD2     H 2289   1.340   1.345  11.916  0.2742  0.2225  0.1236
  150MPD2    H1 2290   1.549   0.993  12.048  0.1229 -0.0267  0.1514
  150MPD2    H2 2291   1.179   0.966  11.858  0.5585  1.6952 -1.8182
  150MPD2    H3 2292   1.362   0.859  11.958 -0.9424  0.6149  0.3299
  150MPD2     N 2293   1.560   1.262  12.058  0.6707  0.1895  0.0942
  150MPD2    H5 2294   1.560   1.363  12.046 -0.2888 -0.0126 -1.6474
  150MPD2    N1 2295   1.133   1.210  11.824 -0.2979  0.3056 -0.0249
  150MPD2    H7 2296   1.064   1.138  11.808 -0.5815  0.3066  1.1601
  151TCq2    C1 2297   1.673   1.215  12.127  0.6630 -0.3715 -0.6179
  151TCq2    O2 2298   1.713   1.100  12.149 -0.5022 -0.4623 -0.4290
  151TCq2    C2 2299   1.724   1.315  12.213  0.1202 -0.5451 -0.2536
  151TCq2    C3 2300   1.672   1.443  12.211  1.0166  0.1853 -0.3215
  151TCq2    C4 2301   1.749   1.538  12.270 -0.3793 -0.2427 -0.6105
  151TCq2    C5 2302   1.875   1.525  12.314 -0.3117  0.4695 -0.5661
  151TCq2    C6 2303   1.919   1.396  12.320 -0.7443  0.7468 -0.8910
  151TCq2    C7 2304   1.846   1.293  12.273 -0.9835 -0.2987  0.4745
  151TCq2    C8 2305   2.055   1.391  12.292 -0.0337 -0.5115  0.8144
  151TCq2    O4 2306   2.111   1.494  12.275  0.7554  0.4440  0.0849
  151TCq2    C9 2307   1.701   1.672  12.276 -0.0341  0.0344  0.1046
  151TCq2    O5 2308   1.787   1.761  12.289 -0.5279  0.2043  0.1969
  151TCq2    O6 2309   1.581   1.691  12.244 -0.2959 -0.1161  0.2734
  151TCq2    H2 2310   1.574   1.465  12.170  0.8604 -0.7952 -0.4764
  151TCq2    H3 2311   1.935   1.602  12.361 -0.4749  1.3560 -1.8191
  151TCq2    H4 2312   1.883   1.191  12.270  0.8453  0.3806 -0.0448
  152MPD2     C 2313   0.678   0.976  12.200 -0.1696 -0.9525 -0.3710
  152MPD2    C1 2314   0.745   1.095  12.180  0.0900 -1.1523  0.3077
  152MPD2    C2 2315   0.669   1.220  12.168 -0.3184  0.3611 -0.3091
  152MPD2    C3 2316   0.534   1.227  12.190 -0.2997 -0.1100  0.0742
  152MPD2    C4 2317   0.478   1.105  12.214 -0.2619  0.2185  0.7026
  152MPD2    C5 2318   0.540   0.980  12.206  0.2264  0.0023 -0.1278
  152MPD2     H 2319   0.724   1.311  12.147 -0.7777  0.5519 -0.6841
  152MPD2    H1 2320   0.372   1.097  12.234 -0.1214 -1.7895  0.7052
  152MPD2    H2 2321   0.739   0.890  12.227  0.5101 -0.6150 -0.8342
  152MPD2    H3 2322   0.484   0.888  12.220 -1.5458  1.1274  0.2651
  152MPD2     N 2323   0.466   1.357  12.191  0.2757  0.2313  0.9343
  152MPD2    H5 2324   0.517   1.434  12.149 -0.5736  0.5427  0.4791
  152MPD2    N1 2325   0.881   1.087  12.170 -0.1171  0.8900 -0.2491
  152MPD2    H7 2326   0.922   0.995  12.175  0.8269  1.4894  2.5743
  153TCq2    C1 2327   0.965   1.190  12.161  0.3039  0.7370 -0.1891
  153TCq2    O2 2328   0.954   1.306  12.130 -0.4116 -0.3691 -0.1269
  153TCq2    C2 2329   1.100   1.144  12.193  0.2049 -0.2401  0.0361
  153TCq2    C3 2330   1.119   1.008  12.209  0.0116 -0.0343  0.2847
  153TCq2    C4 2331   1.230   0.964  12.277  0.0935 -0.1106 -0.7920
  153TCq2    C5 2332   1.311   1.048  12.350 -0.7193  0.2646 -0.2194
  153TCq2    C6 2333   1.278   1.178  12.338  0.0341  0.3333  0.2014
  153TCq2    C7 2334   1.185   1.231  12.254 -0.0467 -0.1483  0.2371
  153TCq2    C8 2335   1.365   1.281  12.400  0.2421  0.3142  0.0860
  153TCq2    O4 2336   1.327   1.399  12.385 -0.0266  0.1122  0.7435
  153TCq2    C9 2337   1.240   0.819  12.291 -0.3582  0.4794  0.1585
  153TCq2    O5 2338   1.186   0.745  12.208 -0.3118  0.3071  0.3464
  153TCq2    O6 2339   1.318   0.785  12.383  0.2461 -0.3870 -0.2044
  153TCq2    H2 2340   1.057   0.924  12.181 -0.8150  0.8612 -0.5622
  153TCq2    H3 2341   1.374   1.002  12.424 -1.3529 -0.1009  0.0952
  153TCq2    H4 2342   1.173   1.339  12.250  3.0306  0.2174  0.7771
  154MPD2     C 2343   2.244   0.911   0.076  0.7441  0.3486  0.0242
  154MPD2    C1 2344   2.223   0.902   0.207  0.1386  0.6053  0.2293
  154MPD2    C2 2345   2.100   0.944   0.251 -0.2437  0.1602  0.0105
  154MPD2    C3 2346   2.004   0.991   0.165 -0.0324  0.2421  0.5128
  154MPD2    C4 2347   2.027   1.010   0.032  0.0573  0.2424 -1.0221
  154MPD2    C5 2348   2.150   0.961  17.684  0.3168  1.0104  0.0221
  154MPD2     H 2349   2.082   0.939   0.358  0.7188 -1.5464  0.0802
  154MPD2    H1 2350   1.952   1.037  17.651  0.8403 -1.6563 -2.5468
  154MPD2    H2 2351   2.340   0.881   0.036  0.3671 -1.4944  0.5042
  154MPD2    H3 2352   2.165   0.943  17.578  0.6197 -0.3197  0.2957
  154MPD2     N 2353   1.882   1.028   0.223  0.6210 -0.7815 -0.3904
  154MPD2    H5 2354   1.877   1.013   0.323  1.2911 -0.0832 -0.2554
  154MPD2    N1 2355   2.333   0.866   0.285 -0.7207 -0.3605 -0.3429
  154MPD2    H7 2356   2.411   0.830   0.231 -0.2136 -0.3198  0.3651
  155TCq2    C1 2357   2.332   0.845   0.420 -0.2242  0.3283 -0.4338
  155TCq2    O2 2358   2.228   0.836   0.487 -0.2491 -0.8919  0.5312
  155TCq2    C2 2359   2.453   0.816   0.475 -0.2268 -0.2013  0.7530
  155TCq2    C3 2360   2.451   0.710   0.564 -0.3779 -0.2028  0.8037
  155TCq2    C4 2361   2.573   0.679   0.624  0.7343  0.2643 -0.8743
  155TCq2    C5 2362   2.692   0.737   0.595  0.1053 -0.2710  0.7005
  155TCq2    C6 2363   2.685   0.819   0.485 -0.0531 -0.5123  0.3606
  155TCq2    C7 2364   2.571   0.856   0.428 -0.4310  0.3175  0.2030
  155TCq2    C8 2365   2.805   0.864   0.421 -0.8113  0.2693 -0.7701
  155TCq2    O4 2366   2.797   0.941   0.327 -0.2616 -0.4243 -0.2188
  155TCq2    C9 2367   2.573   0.592   0.734  0.4770 -0.1401 -0.3866
  155TCq2    O5 2368   2.686   0.548   0.764  0.2951 -0.2263 -0.4764
  155TCq2    O6 2369   2.460   0.562   0.785  0.7514 -0.5988  0.4799
  155TCq2    H2 2370   2.361   0.658   0.593 -0.7360  0.7804  1.4484
  155TCq2    H3 2371   2.774   0.725   0.665  0.4569  0.3433  0.3927
  155TCq2    H4 2372   2.574   0.922   0.342  3.4056 -2.1411 -1.5237
  156MPD2     C 2373   1.764   3.254  12.130  0.5225 -0.0941 -0.2050
  156MPD2    C1 2374   1.684   3.275  12.023  0.7675  0.0034  0.0042
  156MPD2    C2 2375   1.557   3.332  12.047 -0.2637 -0.1910 -0.4071
  156MPD2    C3 2376   1.514   3.371  12.171  1.0026  0.0279  0.3492
  156MPD2    C4 2377   1.607   3.365  12.271  0.0009  0.6561  0.0851
  156MPD2    C5 2378   1.732   3.308  12.254  0.0306 -0.4205 -0.2294
  156MPD2     H 2379   1.478   3.335  11.972 -2.4565 -1.1147  1.8728
  156MPD2    H1 2380   1.586   3.396  12.372 -2.3818 -0.5952 -0.0523
  156MPD2    H2 2381   1.864   3.213  12.122 -0.2987 -2.1728  0.1132
  156MPD2    H3 2382   1.799   3.282  12.335 -2.5797 -1.0965  1.7168
  156MPD2     N 2383   1.375   3.396  12.185  0.6773  0.2213  0.4431
  156MPD2    H5 2384   1.315   3.387  12.103  1.6658 -1.1713 -0.1445
  156MPD2    N1 2385   1.735   3.242  11.901  0.5238  0.6041 -0.4878
  156MPD2    H7 2386   1.827   3.201  11.895 -0.0246 -0.8267  0.6983
  157TCq2    C1 2387   1.674   3.266  11.782 -0.1230  0.2742  0.2591
  157TCq2    O2 2388   1.560   3.303  11.755  0.1753  0.4596  0.0368
  157TCq2    C2 2389   1.752   3.229  11.668 -0.5110 -0.3169  0.1773
  157TCq2    C3 2390   1.872   3.159  11.683 -0.0217 -0.5276  0.1904
  157TCq2    C4 2391   1.931   3.125  11.558  0.0646 -0.1095  0.8267
  157TCq2    C5 2392   1.874   3.151  11.436  0.6128  0.5214 -0.5380
  157TCq2    C6 2393   1.753   3.219  11.435  0.2472  0.1742 -0.1787
  157TCq2    C7 2394   1.694   3.271  11.548 -0.2872  0.1322  0.7454
  157TCq2    C8 2395   1.690   3.262  11.312  0.1560  0.4705 -0.5658
  157TCq2    O4 2396   1.614   3.356  11.316 -0.1899  0.2263 -0.1209
  157TCq2    C9 2397   2.055   3.062  11.575  0.5100 -0.0080 -0.3646
  157TCq2    O5 2398   2.081   3.013  11.687 -0.0043  0.6401  0.6840
  157TCq2    O6 2399   2.122   3.054  11.465  0.2334 -0.3236  0.0893
  157TCq2    H2 2400   1.919   3.132  11.777  2.1012  2.2181 -0.0693
  157TCq2    H3 2401   1.933   3.152  11.345  0.8241  0.0919 -0.4067
  157TCq2    H4 2402   1.603   3.330  11.539  0.3833  0.8997 -1.1730
  158TMC2    C1 2403   1.455   2.155  13.365  0.2692 -0.7399 -0.5978
  158TMC2    C2 2404   1.485   2.212  13.246 -0.6858 -0.0102 -0.6274
  158TMC2    C3 2405   1.377   2.252  13.169 -0.4112 -0.3485 -0.1488
  158TMC2    C4 2406   1.328   2.124  13.404  0.2276  0.0770 -0.5586
  158TMC2    C5 2407   1.225   2.152  13.318  0.9431  0.3010 -0.6086
  158TMC2    C6 2408   1.247   2.218  13.203 -0.0046 -0.4569  0.1661
  158TMC2     C 2409   1.561   2.128  13.455  0.7965  0.0257  0.4398
  158TMC2     O 2410   1.664   2.194  13.455  0.1484 -0.0815 -0.1846
  158TMC2     H 2411   1.587   2.242  13.226 -0.6724  1.3158  1.4510
  158TMC2    H1 2412   1.309   2.085  13.503  0.2163  0.8609 -0.2452
  158TMC2    H2 2413   1.173   2.230  13.125 -2.4141  0.3199  2.5818
  158TMC2    C7 2414   1.090   2.126  13.348  0.2279 -0.5016 -0.4161
  158TMC2    C8 2415   1.399   2.292  13.030 -0.0684  0.4618  0.1310
  158TMC2    O1 2416   1.000   2.184  13.290 -0.5464  0.0479  0.1071
  158TMC2    O2 2417   1.315   2.355  12.965 -0.1956 -0.3610  0.2513
  158TMC2    O5 2418   1.501   2.216  12.983 -0.3052  0.0421  0.1809
  158TMC2    H5 2419   1.540   2.169  13.059 -2.2315  0.1695  1.2610
  159MPD2     C 2420   1.768   1.902  13.871  0.2450  0.1231  0.3651
  159MPD2    C1 2421   1.666   1.819  13.822 -0.6342  0.3140 -0.4822
  159MPD2    C2 2422   1.599   1.850  13.705  0.4259  0.3347  0.5521
  159MPD2    C3 2423   1.616   1.980  13.651  0.5063  0.1367  0.2038
  159MPD2    C4 2424   1.709   2.064  13.702  0.4854 -0.1099  0.1419
  159MPD2    C5 2425   1.778   2.029  13.816 -0.6835 -0.3972  0.0744
  159MPD2     H 2426   1.524   1.783  13.664 -0.1092 -0.0927  2.2472
  159MPD2    H1 2427   1.731   2.164  13.666 -0.3294 -0.1127 -0.3528
  159MPD2    H2 2428   1.834   1.870  13.950 -0.3421 -0.0860  0.7684
  159MPD2    H3 2429   1.850   2.105  13.844 -2.1557  1.4941 -1.2258
  159MPD2     N 2430   1.539   2.013  13.536 -0.2661  0.4378 -0.2024
  159MPD2    H5 2431   1.455   1.958  13.521 -0.2955  0.3919  0.1255
  159MPD2    N1 2432   1.631   1.707  13.902 -0.8178 -0.5804 -0.2675
  159MPD2    H7 2433   1.665   1.697  13.997  3.4206  2.3374 -1.4514
  160TMC2    C1 2434   0.456   0.512   1.167 -1.0237  0.1971  0.3502
  160TMC2    C2 2435   0.448   0.382   1.118  0.4307 -0.1860  0.1316
  160TMC2    C3 2436   0.523   0.359   1.002  0.4376 -1.0512 -0.3051
  160TMC2    C4 2437   0.526   0.619   1.112  0.7913 -0.2781  0.1295
  160TMC2    C5 2438   0.603   0.585   1.003  0.3863  0.2077  0.5889
  160TMC2    C6 2439   0.599   0.458   0.944  0.2281  0.0551 -0.1057
  160TMC2     C 2440   0.380   0.546   1.286 -0.2329  0.0586  0.6294
  160TMC2     O 2441   0.364   0.460   1.368 -0.1020  0.3354  0.1726
  160TMC2     H 2442   0.391   0.307   1.171  1.3837 -1.5883 -0.8175
  160TMC2    H1 2443   0.543   0.709   1.170  0.5050  1.1842 -2.0429
  160TMC2    H2 2444   0.653   0.441   0.852 -0.3671  0.7433 -0.5813
  160TMC2    C7 2445   0.667   0.702   0.937 -0.5899  0.7903  0.4458
  160TMC2    C8 2446   0.515   0.235   0.929 -0.5720  0.3144  0.8179
  160TMC2    O1 2447   0.629   0.812   0.969  0.3818  0.0951 -0.2137
  160TMC2    O2 2448   0.522   0.245   0.806 -0.5960 -0.4520 -0.3512
  160TMC2    O5 2449   0.518   0.127   1.006  0.0566  0.2635  0.4727
  160TMC2    H5 2450   0.544   0.147   1.098  0.1800  4.6479 -0.5224
  161MPD2     C 2451   0.167   0.653   1.464 -0.0274 -0.2609 -0.2744
  161MPD2    C1 2452   0.232   0.730   1.369 -0.0000 -0.4402 -0.3308
  161MPD2    C2 2453   0.182   0.861   1.351 -0.9829 -0.2927  0.1732
  161MPD2    C3 2454   0.060   0.895   1.402 -0.0162 -0.2798  0.4106
  161MPD2    C4 2455   0.001   0.815   1.501 -0.6504  0.4873 -0.0537
  161MPD2    C5 2456   0.055   0.691   1.529  1.0003  0.2714  0.9564
  161MPD2     H 2457   0.223   0.937   1.286 -2.6346 -1.0389 -1.7434
  161MPD2    H1 2458   4.642   0.852   1.562  0.1207  0.2237  1.1316
  161MPD2    H2 2459   0.209   0.558   1.494 -0.7894 -0.3541  0.5167
  161MPD2    H3 2460   0.025   0.629   1.613 -1.0161 -0.6581 -0.4363
  161MPD2     N 2461   0.008   1.026   1.392  0.1962 -0.0854 -0.1505
  161MPD2    H5 2462   4.656   1.053   1.455  2.1449 -0.2984  2.2496
  161MPD2    N1 2463   0.336   0.677   1.284  0.4419 -0.2811 -0.1971
  161MPD2    H7 2464   0.366   0.740   1.211  2.3884 -1.1633 -0.1413
  162TMC2    C1 2465   3.288   2.344   0.910 -0.7241  0.1715  0.6445
  162TMC2    C2 2466   3.162   2.317   0.965  0.0677 -0.7156  0.3369
  162TMC2    C3 2467   3.163   2.264   1.088 -1.4307  0.2136 -0.0465
  162TMC2    C4 2468   3.397   2.306   0.972  0.1068 -0.0118 -0.7352
  162TMC2    C5 2469   3.394   2.257   1.100  0.8309  0.3542 -0.7087
  162TMC2    C6 2470   3.274   2.240   1.161 -0.1438 -0.6842 -0.6249
  162TMC2     C 2471   3.287   2.371   0.767  0.2946  0.4176  0.5812
  162TMC2     O 2472   3.208   2.327   0.687 -0.0437 -0.2284 -0.2351
  162TMC2     H 2473   3.069   2.325   0.911  1.6643 -1.1592 -2.4958
  162TMC2    H1 2474   3.491   2.330   0.924  0.4055 -0.0865 -0.1814
  162TMC2    H2 2475   3.267   2.199   1.261 -1.4024 -0.6279 -0.6874
  162TMC2    C7 2476   3.521   2.264   1.168  0.3869 -0.2998  0.3699
  162TMC2    C8 2477   3.052   2.186   1.117 -0.7020 -0.2420 -0.7521
  162TMC2    O1 2478   3.626   2.274   1.103  0.2049  0.3543  0.3454
  162TMC2    O2 2479   2.935   2.230   1.114  0.2292 -0.3962 -0.1343
  162TMC2    O5 2480   3.091   2.060   1.119  0.2847  0.3998  0.1046
  162TMC2    H5 2481   3.185   2.031   1.115  0.4120  0.7025  0.9730
  163MPD2     C 2482   3.513   2.594   0.370  0.5825 -0.4279  0.6249
  163MPD2    C1 2483   3.442   2.478   0.378  0.3746  1.0796 -0.4354
  163MPD2    C2 2484   3.383   2.443   0.493  0.1472  0.3014 -0.2917
  163MPD2    C3 2485   3.418   2.521   0.606 -0.8566 -0.4055  0.7046
  163MPD2    C4 2486   3.491   2.636   0.592  0.0650  0.2422 -0.6690
  163MPD2    C5 2487   3.532   2.677   0.472  0.0151 -0.0766  0.1301
  163MPD2     H 2488   3.332   2.348   0.498  0.6297  0.0241 -0.6667
  163MPD2    H1 2489   3.517   2.695   0.680 -1.9187  1.6637 -1.0582
  163MPD2    H2 2490   3.568   2.626   0.282 -1.7731  2.3813  0.1982
  163MPD2    H3 2491   3.592   2.768   0.468  0.6335 -0.5783 -2.1404
  163MPD2     N 2492   3.380   2.477   0.735  0.0495 -0.2831 -0.7492
  163MPD2    H5 2493   3.427   2.521   0.813 -0.7674 -1.3436  0.3442
  163MPD2    N1 2494   3.435   2.376   0.277  0.2373 -0.4748 -0.0077
  163MPD2    H7 2495   3.385   2.291   0.299 -0.7780 -0.1358 -0.9918
  164TCq2    C1 2496   4.561   1.644  11.439  0.6044 -0.0775 -0.6825
  164TCq2    O2 2497   4.503   1.622  11.545 -0.2298 -0.0699  0.1125
  164TCq2    C2 2498   4.559   1.778  11.382  1.0993 -0.7149  0.3057
  164TCq2    C3 2499   4.668   1.824  11.316  0.3110  0.5829  0.4241
  164TCq2    C4 2500   4.684   1.955  11.285 -0.2192  0.3176 -0.1698
  164TCq2    C5 2501   4.581   2.041  11.300  0.8063  0.3847 -0.5213
  164TCq2    C6 2502   4.466   1.998  11.357 -1.0271  0.2094 -0.4018
  164TCq2    C7 2503   4.461   1.868  11.404  0.2578 -0.2196 -0.5099
  164TCq2    C8 2504   4.350   2.085  11.362 -0.0067  0.5472  0.3904
  164TCq2    O4 2505   4.335   2.157  11.260  0.7451  0.8170  0.2747
  164TCq2    C9 2506   0.091   2.001  11.236  0.0048  0.6548  0.3478
  164TCq2    O5 2507   0.180   1.913  11.203  0.5125  0.0161 -0.0499
  164TCq2    O6 2508   0.093   2.124  11.211 -0.1367  0.9779 -0.0458
  164TCq2    H2 2509   0.028   1.760  11.286 -1.0272 -1.0128  0.1390
  164TCq2    H3 2510   4.601   2.146  11.278 -0.2313  0.3723 -1.5691
  164TCq2    H4 2511   4.371   1.838  11.456  1.0236  1.1887  1.6351
  165MPD2     C 2512   0.645   3.585   2.548  0.5783 -0.1612 -0.5062
  165MPD2    C1 2513   0.646   3.564   2.411  0.2922 -0.3421 -0.3063
  165MPD2    C2 2514   0.741   3.638   2.342 -0.3854 -0.3337  0.5340
  165MPD2    C3 2515   0.816   3.739   2.399 -0.3097 -0.7693  0.4478
  165MPD2    C4 2516   0.808   3.757   2.538 -0.3147 -0.5995  0.5320
  165MPD2    C5 2517   0.719   3.680   2.608  1.0875 -0.1366  0.1040
  165MPD2     H 2518   0.727   3.625   2.235  1.5630 -1.4916  0.4344
  165MPD2    H1 2519   0.864   3.836   2.586 -0.9719 -0.7752  1.5696
  165MPD2    H2 2520   0.570   3.542   2.613  0.6978  0.9706  0.3928
  165MPD2    H3 2521   0.701   3.711   2.711  0.7121 -0.7446  0.2209
  165MPD2     N 2522   0.909   3.816   2.328 -0.0793  0.0356  0.4072
  165MPD2    H5 2523   0.960   3.890   2.376  1.5389 -0.2037 -0.9491
  165MPD2    N1 2524   0.559   3.458   2.365 -0.1272  0.0882 -0.0063
  165MPD2    H7 2525   0.487   3.418   2.424  1.0157 -0.9438  0.6762
  166TCq2    C1 2526   0.926   3.811   2.192 -0.0221 -0.1981 -0.4330
  166TCq2    O2 2527   0.849   3.759   2.110 -0.2186 -0.4736  0.3645
  166TCq2    C2 2528   1.041   3.885   2.142  0.4736 -0.1375  0.4826
  166TCq2    C3 2529   1.138   3.927   2.234 -0.3468  0.1001 -0.9151
  166TCq2    C4 2530   1.247   3.996   2.186  0.9142 -0.5980  0.0911
  166TCq2    C5 2531   1.261   4.032   2.060  0.0092 -0.3964  0.2440
  166TCq2    C6 2532   1.171   3.984   1.966  0.1446 -0.5049  0.1411
  166TCq2    C7 2533   1.066   3.903   2.006 -0.5050  0.0479 -0.1544
  166TCq2    C8 2534   1.212   4.000   1.824  0.2593 -0.1505 -0.0440
  166TCq2    O4 2535   1.305   4.082   1.807 -0.6568 -0.0953  0.3568
  166TCq2    C9 2536   1.353   4.033   2.273 -0.2790  0.0038 -0.0120
  166TCq2    O5 2537   1.441   4.118   2.234  0.2451 -0.0699 -0.0535
  166TCq2    O6 2538   1.349   3.992   2.392  0.3058 -0.0553 -0.0043
  166TCq2    H2 2539   1.154   3.899   2.338 -1.1299 -0.5175 -0.9594
  166TCq2    H3 2540   1.342   4.098   2.033 -0.4572  0.6130  1.2980
  166TCq2    H4 2541   0.985   3.885   1.936 -2.6154 -1.8268  2.7617
  167TMC2    C1 2542   3.332   1.893  12.719 -0.0581  0.0773  0.5570
  167TMC2    C2 2543   3.266   1.967  12.810  0.1180  0.2644 -0.7634
  167TMC2    C3 2544   3.271   1.925  12.937  0.1862 -0.2188  0.3484
  167TMC2    C4 2545   3.401   1.775  12.750 -0.2202 -0.3101 -1.2666
  167TMC2    C5 2546   3.399   1.744  12.883  0.4651 -0.1935 -0.5685
  167TMC2    C6 2547   3.331   1.812  12.976  0.3072 -0.2752 -0.0092
  167TMC2     C 2548   3.354   1.960  12.589 -0.0717 -0.2259 -0.0938
  167TMC2     O 2549   3.269   2.038  12.554  0.1500  0.1154 -0.7697
  167TMC2     H 2550   3.220   2.060  12.781 -1.7968  0.4005  2.6124
  167TMC2    H1 2551   3.440   1.706  12.677 -1.4461 -4.3965  1.9360
  167TMC2    H2 2552   3.348   1.792  13.082 -0.0594 -0.4256  0.0197
  167TMC2    C7 2553   3.465   1.624  12.934 -0.0166  0.3201  0.3152
  167TMC2    C8 2554   3.180   1.983  13.031 -0.0522  1.3179  0.1961
  167TMC2    O1 2555   3.427   1.575  13.041 -0.6609 -0.1612  0.1037
  167TMC2    O2 2556   3.107   1.918  13.101  0.1229  0.6240 -0.4165
  167TMC2    O5 2557   3.187   2.115  13.020  0.5481  0.2634 -0.8599
  167TMC2    H5 2558   3.271   2.148  12.982  0.5675  2.3711  1.0245
  168MPD2     C 2559   3.451   2.125  12.367  0.0370 -0.3066  0.2992
  168MPD2    C1 2560   3.509   2.010  12.409  0.2246 -0.0810  0.4480
  168MPD2    C2 2561   3.602   1.945  12.328  0.1145 -1.0380 -0.2126
  168MPD2    C3 2562   3.631   1.994  12.202 -0.3921 -0.4074 -0.3054
  168MPD2    C4 2563   3.577   2.117  12.164 -0.8342  0.4042  0.1901
  168MPD2    C5 2564   3.487   2.181  12.248  0.0215  0.0923  0.6177
  168MPD2     H 2565   3.637   1.848  12.360  0.8863 -0.4797  0.6782
  168MPD2    H1 2566   3.593   2.161  12.066 -1.0694  0.2225  0.0699
  168MPD2    H2 2567   3.378   2.183  12.423  0.3025  0.1214  0.2025
  168MPD2    H3 2568   3.441   2.274  12.216 -1.0285 -0.8369 -0.5939
  168MPD2     N 2569   3.707   1.917  12.108  0.1495 -0.5360 -0.3272
  168MPD2    H5 2570   3.698   1.942  12.010  0.9772  0.3797 -0.1716
  168MPD2    N1 2571   3.477   1.945  12.532  0.1082  0.2193  0.7059
  168MPD2    H7 2572   3.530   1.862  12.558 -1.0863  0.0177  2.4863
  169MPD1     C 2573   2.079   3.843   9.458  0.3297 -0.1276  0.2864
  169MPD1    C1 2574   2.186   3.925   9.432 -0.1924  0.5821  0.6066
  169MPD1    C2 2575   2.175   4.058   9.461 -1.0576 -0.9873 -0.2589
  169MPD1    C3 2576   2.053   4.111   9.503 -0.5617 -0.4034  0.0769
  169MPD1    C4 2577   1.944   4.025   9.516  0.1055 -0.0332 -0.0940
  169MPD1    C5 2578   1.961   3.891   9.504 -0.4464 -0.3591  0.2118
  169MPD1     H 2579   2.259   4.127   9.465 -1.5920 -0.3231 -0.5599
  169MPD1    H1 2580   1.843   4.060   9.537  0.8776  1.6249  0.8593
  169MPD1    H2 2581   2.087   3.734   9.460  0.4136 -0.1447 -1.0973
  169MPD1    H3 2582   1.880   3.821   9.520 -0.9847 -0.2485 -2.0185
  169MPD1     N 2583   2.039   4.254   9.529 -0.1353  0.4894  0.0232
  169MPD1    H5 2584   2.122   4.309   9.509 -0.5089  1.3156  0.7401
  169MPD1    N1 2585   2.310   3.862   9.412 -0.6915 -0.3372 -0.2543
  169MPD1    H6 2586   2.298   3.778   9.357 -1.5534 -1.0571  1.0457
  169MPD1    H7 2587   2.368   3.935   9.369 -0.4335 -0.8115 -0.7158
  170MPD1     C 2588   4.036   3.651  13.079 -0.7422  0.2513 -0.3689
  170MPD1    C1 2589   4.108   3.606  13.190  0.8032  0.1919 -0.2257
  170MPD1    C2 2590   4.210   3.693  13.237 -0.0864  0.5711 -0.1448
  170MPD1    C3 2591   4.250   3.803  13.165  0.0918  0.1448  0.6293
  170MPD1    C4 2592   4.183   3.835  13.052  0.0445  0.5055 -0.7460
  170MPD1    C5 2593   4.074   3.757  13.013 -0.3666 -0.6437  0.0063
  170MPD1     H 2594   4.268   3.654  13.319  1.6633 -1.4146 -2.3187
  170MPD1    H1 2595   4.194   3.924  12.990 -0.0881  0.8885 -0.2176
  170MPD1    H2 2596   3.952   3.600  13.034 -0.2516 -1.1101  0.2394
  170MPD1    H3 2597   4.010   3.789  12.931 -2.0079  1.7640  2.2395
  170MPD1     N 2598   4.356   3.872  13.223 -0.0052  0.5763  0.0465
  170MPD1    H5 2599   4.405   3.835  13.304 -1.0318 -0.2155  0.3069
  170MPD1    N1 2600   4.062   3.499  13.265  0.7719 -0.0167 -0.3039
  170MPD1    H6 2601   4.146   3.483  13.321 -0.0083 -0.5256  0.7277
  170MPD1    H7 2602   4.043   3.416  13.209 -0.5281  0.9358 -1.2634
  171MPD1     C 2603   3.878   0.512  15.543  0.4090  0.0004 -0.1385
  171MPD1    C1 2604   3.830   0.418  15.455  0.1781 -0.2512  0.2545
  171MPD1    C2 2605   3.809   0.286  15.499  0.9822 -0.4420  0.5812
  171MPD1    C3 2606   3.867   0.249  15.622 -0.3172 -0.5604  0.4842
  171MPD1    C4 2607   3.917   0.347  15.708  0.2528 -0.1516 -0.2413
  171MPD1    C5 2608   3.921   0.481  15.671  0.0090  0.5233 -0.6470
  171MPD1     H 2609   3.760   0.211  15.438 -1.0646  2.7098 -1.5876
  171MPD1    H1 2610   3.946   0.312  15.806  1.5686 -1.1514 -0.9919
  171MPD1    H2 2611   3.882   0.618  15.522  0.8050  0.0413  0.1351
  171MPD1    H3 2612   3.961   0.552  15.743 -2.0706  2.7513 -1.6492
  171MPD1     N 2613   3.860   0.117  15.673  0.5376 -0.3169 -0.0569
  171MPD1    H5 2614   3.903   0.101  15.763 -1.5003 -0.7126  0.8611
  171MPD1    N1 2615   3.786   0.453  15.330  0.0288  0.3816 -0.2196
  171MPD1    H6 2616   3.769   0.373  15.269 -1.9742  1.0777 -0.5662
  171MPD1    H7 2617   3.835   0.528  15.281 -1.0019  1.1999  0.0180
  172MPD1     C 2618   2.426   3.903   0.239  0.5246  0.7216  0.6361
  172MPD1    C1 2619   2.390   3.996   0.139  0.1277 -0.1244 -0.2168
  172MPD1    C2 2620   2.408   4.127   0.166  0.2725  0.0730 -0.3590
  172MPD1    C3 2621   2.431   4.174   0.296 -0.3041 -0.1238  1.1051
  172MPD1    C4 2622   2.450   4.084   0.396 -0.1847  0.0749 -0.8715
  172MPD1    C5 2623   2.450   3.948   0.368 -0.3372 -0.7068  0.2250
  172MPD1     H 2624   2.394   4.193   0.081  1.1081 -0.4360 -0.8950
  172MPD1    H1 2625   2.469   4.120   0.496 -1.9633 -2.0776  0.2512
  172MPD1    H2 2626   2.412   3.797   0.224 -1.0895  1.3607 -2.4043
  172MPD1    H3 2627   2.490   3.881   0.444  0.3220 -1.2302 -0.5860
  172MPD1     N 2628   2.435   4.314   0.319 -0.1690  0.2507  0.1351
  172MPD1    H5 2629   2.455   4.343   0.415 -0.1364 -0.2579  0.2829
  172MPD1    N1 2630   2.379   3.960   0.002 -0.1950  0.0091  0.4389
  172MPD1    H6 2631   2.323   4.038  17.659  4.8903  2.9507 -1.1442
  172MPD1    H7 2632   2.325   3.875  17.679 -0.6248  0.8152 -2.8056
  173MPD1     C 2633   4.223   4.379  14.760 -0.1013 -0.0892 -0.1365
  173MPD1    C1 2634   4.208   4.333  14.635  0.0528  0.1151 -0.1119
  173MPD1    C2 2635   4.130   4.215  14.602  0.0026  0.0127 -0.0777
  173MPD1    C3 2636   4.057   4.147  14.706  0.3502  0.1975 -0.4739
  173MPD1    C4 2637   4.082   4.203  14.833  0.8924 -0.0100  0.2704
  173MPD1    C5 2638   4.149   4.321  14.860 -0.0643 -0.6515  0.1893
  173MPD1     H 2639   4.132   4.181  14.500 -0.4415  0.8827 -0.3716
  173MPD1    H1 2640   4.047   4.164  14.928  0.1520  0.0700  0.0297
  173MPD1    H2 2641   4.276   4.469  14.788 -0.8124  0.3694 -0.2603
  173MPD1    H3 2642   4.155   4.361  14.961 -0.5710 -0.3863  0.1145
  173MPD1     N 2643   3.979   4.038  14.681 -0.6814  0.5939 -0.3635
  173MPD1    H5 2644   3.966   4.005  14.586 -0.7430 -1.0609  0.2176
  173MPD1    N1 2645   4.270   4.407  14.528  0.4009 -0.4377  0.1950
  173MPD1    H6 2646   4.273   4.364  14.436  0.3969  0.5098 -0.2473
  173MPD1    H7 2647   4.370   4.416  14.546  0.5573  0.1034 -0.9733
  174MPD1     C 2648   4.063   3.534  14.025  0.7448  0.0834 -0.0216
  174MPD1    C1 2649   4.011   3.439  14.102  0.2691 -0.0517  0.4179
  174MPD1    C2 2650   3.977   3.478  14.230  0.1717 -0.7328 -0.3335
  174MPD1    C3 2651   3.996   3.605  14.274  0.0356 -0.3373 -0.1861
  174MPD1    C4 2652   4.061   3.701  14.198  0.5839  1.0018  1.4305
  174MPD1    C5 2653   4.087   3.660  14.070 -0.0637  0.5417 -0.4978
  174MPD1     H 2654   3.931   3.407  14.298  2.1582  0.7694  2.5964
  174MPD1    H1 2655   4.087   3.799  14.236  2.5703  0.6968  0.8620
  174MPD1    H2 2656   4.094   3.498  13.927  2.2535 -1.4893  1.0363
  174MPD1    H3 2657   4.117   3.731  13.993 -1.4672 -0.3866 -1.9099
  174MPD1     N 2658   3.950   3.649  14.399  0.4470 -0.0585 -0.3141
  174MPD1    H5 2659   3.960   3.750  14.409  0.5884 -0.2258  1.2253
  174MPD1    N1 2660   4.001   3.303  14.066  0.0549 -0.6466 -0.2880
  174MPD1    H6 2661   3.918   3.253  14.097  0.5654 -2.2510 -1.5342
  174MPD1    H7 2662   4.019   3.284  13.968  0.5824 -3.1811  0.2981
  175MPD1     C 2663   1.995   0.005  15.303 -0.0023 -0.0078 -0.4385
  175MPD1    C1 2664   2.080   4.662  15.390 -0.0174  0.4070  0.0215
  175MPD1    C2 2665   2.145   0.011  15.486 -0.2034  0.1858 -0.2913
  175MPD1    C3 2666   2.112   0.146  15.505  0.3161 -0.2135  0.2626
  175MPD1    C4 2667   2.024   0.213  15.420 -0.2604  0.0822  0.3083
  175MPD1    C5 2668   1.960   0.137  15.328  0.0984  0.1413 -1.1561
  175MPD1     H 2669   2.209   4.676  15.552 -2.0791 -0.7935  0.6708
  175MPD1    H1 2670   1.994   0.317  15.417  2.0231  0.7966  2.1510
  175MPD1    H2 2671   1.939   4.676  15.225  1.5465  0.3406 -1.7759
  175MPD1    H3 2672   1.884   0.185  15.268 -0.5474  2.7836  1.7909
  175MPD1     N 2673   2.182   0.228  15.600 -0.0920  0.4606 -0.2815
  175MPD1    H5 2674   2.148   0.324  15.596  3.5153  1.7399 -0.0768
  175MPD1    N1 2675   2.122   4.528  15.364  0.1381 -0.6940 -0.0599
  175MPD1    H6 2676   2.161   4.480  15.445 -1.5558  0.0938  1.2214
  175MPD1    H7 2677   2.047   4.480  15.314 -0.1776  2.8393 -2.9612
  176MPD1     C 2678   4.008   2.437   0.448 -0.4679 -1.3009 -0.2780
  176MPD1    C1 2679   3.905   2.414   0.356  0.2545  0.1735 -0.6483
  176MPD1    C2 2680   3.945   2.405   0.227  0.1511  0.2630 -0.3142
  176MPD1    C3 2681   4.074   2.445   0.183  0.5425 -0.4118 -0.6412
  176MPD1    C4 2682   4.166   2.482   0.282 -0.4033  0.8285 -0.4012
  176MPD1    C5 2683   4.130   2.472   0.410 -0.4466 -0.2210  0.6801
  176MPD1     H 2684   3.873   2.388   0.147 -1.9919  0.3369  1.6182
  176MPD1    H1 2685   4.264   2.519   0.256 -0.2624  0.1171 -0.8756
  176MPD1    H2 2686   3.972   2.446   0.550  0.9131 -0.2436  0.1122
  176MPD1    H3 2687   4.204   2.486   0.488 -0.6920 -0.3632  0.9373
  176MPD1     N 2688   4.106   2.426   0.048  0.7032 -0.7743 -0.6788
  176MPD1    H5 2689   4.036   2.388  17.676  1.2265 -0.9475 -1.1490
  176MPD1    N1 2690   3.777   2.380   0.394 -0.1497 -0.4387  0.2828
  176MPD1    H6 2691   3.694   2.404   0.341  1.7766  1.8626 -1.6608
  176MPD1    H7 2692   3.745   2.415   0.484 -0.5886 -0.1389  0.0120
  177MPD1     C 2693   3.187   1.776  10.491  0.6684  0.0093 -0.0794
  177MPD1    C1 2694   3.160   1.651  10.454  0.6147  0.1947  0.2976
  177MPD1    C2 2695   3.075   1.634  10.349 -0.8626 -0.2349  0.4320
  177MPD1    C3 2696   3.018   1.736  10.279 -0.4066  0.3409  0.4738
  177MPD1    C4 2697   3.053   1.865  10.318 -0.3816  0.9004 -0.4707
  177MPD1    C5 2698   3.129   1.883  10.433 -0.9049 -0.3041  0.3129
  177MPD1     H 2699   3.045   1.535  10.317 -1.5558  0.2006 -0.2565
  177MPD1    H1 2700   3.019   1.957  10.272 -1.3299  1.8117  2.0433
  177MPD1    H2 2701   3.249   1.795  10.578 -0.6279  0.4447  0.7518
  177MPD1    H3 2702   3.151   1.983  10.469  0.8425  0.3484 -2.5276
  177MPD1     N 2703   2.939   1.702  10.168 -0.2294 -0.0650 -0.1881
  177MPD1    H5 2704   2.920   1.602  10.164  0.3896 -0.0735 -3.0266
  177MPD1    N1 2705   3.204   1.540  10.523  0.0860  0.0245 -0.2347
  177MPD1    H6 2706   3.214   1.450  10.478 -0.3612 -0.6660  1.0315
  177MPD1    H7 2707   3.275   1.559  10.594 -0.7260 -2.4527  1.2460
  178MPD1     C 2708   0.643   2.764   0.667  0.7023  0.3771  0.2029
  178MPD1    C1 2709   0.555   2.685   0.614 -0.2686  0.2726 -0.0069
  178MPD1    C2 2710   0.518   2.714   0.485 -0.0387 -0.4134 -0.2000
  178MPD1    C3 2711   0.545   2.834   0.418  0.2573  0.3314 -0.7726
  178MPD1    C4 2712   0.622   2.926   0.490  0.3021  0.3758 -0.2884
  178MPD1    C5 2713   0.673   2.884   0.608  0.3867 -0.0096 -0.0927
  178MPD1     H 2714   0.467   2.636   0.429  1.4583 -1.2431 -0.3850
  178MPD1    H1 2715   0.654   3.020   0.445 -0.8953  0.6187 -0.6426
  178MPD1    H2 2716   0.701   2.729   0.751 -0.9257 -0.1425  1.1097
  178MPD1    H3 2717   0.753   2.940   0.653  0.6122 -0.3256 -0.1013
  178MPD1     N 2718   0.513   2.855   0.287 -0.9511 -0.0079  0.0278
  178MPD1    H5 2719   0.567   2.928   0.241 -0.1629  0.1641  1.2461
  178MPD1    N1 2720   0.508   2.570   0.677 -0.3678 -0.1364 -0.0201
  178MPD1    H6 2721   0.416   2.548   0.640 -0.0955  1.1747 -1.4879
  178MPD1    H7 2722   0.510   2.593   0.776  0.4372  0.2730 -0.1287
  179MPD1     C 2723   4.605   1.767  15.916 -0.1442 -0.1283 -0.6111
  179MPD1    C1 2724   4.517   1.729  16.016  0.0063  0.0609 -0.3307
  179MPD1    C2 2725   4.465   1.603  16.015 -0.5873  0.0178  0.1561
  179MPD1    C3 2726   4.501   1.511  15.917 -0.4677  0.1274  0.2834
  179MPD1    C4 2727   4.585   1.551  15.811  0.0727 -0.4883 -0.1602
  179MPD1    C5 2728   4.634   1.677  15.815  0.0297 -0.8489  0.1169
  179MPD1     H 2729   4.391   1.568  16.087  0.8660 -0.9713  1.1580
  179MPD1    H1 2730   4.625   1.483  15.737  0.4788 -0.2854 -0.1318
  179MPD1    H2 2731   4.662   1.860  15.914  1.0255 -0.8321  0.3359
  179MPD1    H3 2732   4.700   1.713  15.736  0.1600  1.3736  1.2565
  179MPD1     N 2733   4.457   1.376  15.932 -0.1662  0.1558 -0.1188
  179MPD1    H5 2734   4.470   1.306  15.859 -0.4464  3.0276 -2.9593
  179MPD1    N1 2735   4.466   1.840  16.089  0.1654 -0.3922 -0.1347
  179MPD1    H6 2736   4.405   1.816  16.167 -1.2277  2.0841 -0.4382
  179MPD1    H7 2737   4.530   1.917  16.106 -0.6376  0.1077  0.6058
  180MPD1     C 2738   0.066   1.746  14.370 -0.0060 -0.3805  0.6884
  180MPD1    C1 2739   4.645   1.738  14.390 -0.5079  0.4412  0.2060
  180MPD1    C2 2740   4.598   1.808  14.495  0.6631 -0.2326 -0.0783
  180MPD1    C3 2741   4.678   1.877  14.586 -0.1033  0.4297  0.0243
  180MPD1    C4 2742   0.096   1.886  14.567 -0.0298 -0.5931 -0.3622
  180MPD1    C5 2743   0.141   1.821  14.455  0.1758  0.0100  0.2781
  180MPD1     H 2744   4.491   1.812  14.510  0.6765  0.3960 -0.1213
  180MPD1    H1 2745   0.161   1.953  14.622  1.7778 -0.5947 -2.4827
  180MPD1    H2 2746   0.134   1.698  14.301 -0.1871  0.1090  0.1692
  180MPD1    H3 2747   0.244   1.839  14.427  0.1335  1.9450  1.3702
  180MPD1     N 2748   4.614   1.945  14.691  0.4955  0.6614 -0.0586
  180MPD1    H5 2749   4.518   1.921  14.712  0.8290 -0.0444  0.7062
  180MPD1    N1 2750   4.556   1.679  14.295  0.1191 -0.2374 -0.4742
  180MPD1    H6 2751   4.464   1.671  14.339  0.4055 -0.1652  0.1336
  180MPD1    H7 2752   4.593   1.587  14.273  0.9287 -0.3077  1.2447
  181MPD1     C 2753   1.145   4.281  10.015  0.1635  0.2099  0.0427
  181MPD1    C1 2754   1.166   4.393  10.089 -0.1461 -0.9297  0.1061
  181MPD1    C2 2755   1.283   4.469  10.064 -0.0052 -0.2195  0.2189
  181MPD1    C3 2756   1.384   4.416   9.985  0.2923 -0.5905 -0.0122
  181MPD1    C4 2757   1.362   4.300   9.918  0.3467  0.5345 -0.5061
  181MPD1    C5 2758   1.237   4.240   9.923 -0.4299  0.4211 -0.3887
  181MPD1     H 2759   1.299   4.567  10.109  0.2304 -0.0820 -0.1684
  181MPD1    H1 2760   1.440   4.251   9.861 -0.4678 -1.0584 -0.2651
  181MPD1    H2 2761   1.059   4.214  10.013  0.2545  0.0891  0.1888
  181MPD1    H3 2762   1.220   4.153   9.860 -2.5437  0.1363  0.5771
  181MPD1     N 2763   1.507   4.481   9.961 -0.1311 -0.2350 -0.2402
  181MPD1    H5 2764   1.560   4.443   9.883  1.4567 -1.2535  1.3434
  181MPD1    N1 2765   1.072   4.436  10.184  0.1600 -0.8207  0.4916
  181MPD1    H6 2766   1.030   4.358  10.235 -1.2916 -2.3526 -3.0504
  181MPD1    H7 2767   1.118   4.500  10.249  0.6511 -2.0830  1.3791
  182MPD1     C 2768   3.292   2.860   0.985  0.7060 -0.1240  0.3008
  182MPD1    C1 2769   3.219   2.831   1.094  0.8182  1.0696  0.4918
  182MPD1    C2 2770   3.085   2.874   1.095 -0.0418 -0.4012 -0.1621
  182MPD1    C3 2771   3.027   2.940   0.997 -0.1474 -0.2453 -0.5002
  182MPD1    C4 2772   3.103   2.966   0.890 -0.0518  0.4372  0.2621
  182MPD1    C5 2773   3.231   2.924   0.883  0.8105  0.5408  0.0953
  182MPD1     H 2774   3.030   2.853   1.186  0.3131  2.4871  0.7245
  182MPD1    H1 2775   3.058   3.023   0.810 -1.5135 -0.5682  0.3679
  182MPD1    H2 2776   3.396   2.830   0.991  0.5853  0.0009  2.7761
  182MPD1    H3 2777   3.287   2.944   0.792  1.5180 -0.4265  0.3171
  182MPD1     N 2778   2.891   2.973   0.986 -0.1968  0.7007 -0.1917
  182MPD1    H5 2779   2.868   3.018   0.898  0.6773  3.4182  0.9498
  182MPD1    N1 2780   3.282   2.753   1.200 -0.2821  0.3133  0.7985
  182MPD1    H6 2781   3.379   2.735   1.173 -0.7028  0.8666 -1.0350
  182MPD1    H7 2782   3.268   2.798   1.290 -0.6444  0.7542  0.5207
  183MPD1     C 2783   3.742   4.315   9.646 -0.2067  0.6773 -0.3495
  183MPD1    C1 2784   3.675   4.220   9.728 -0.2114  0.0138 -0.1324
  183MPD1    C2 2785   3.546   4.235   9.765 -0.1714  0.2438 -0.0019
  183MPD1    C3 2786   3.474   4.334   9.698  0.0380  0.0660 -0.4881
  183MPD1    C4 2787   3.530   4.409   9.598 -0.6030 -0.7315  0.3955
  183MPD1    C5 2788   3.667   4.396   9.568 -0.0576  0.2544 -0.3747
  183MPD1     H 2789   3.499   4.171   9.838  1.2908 -0.6933  0.0889
  183MPD1    H1 2790   3.478   4.480   9.534 -0.1443 -1.2034 -0.4986
  183MPD1    H2 2791   3.845   4.307   9.615  0.1926  0.5589  1.0228
  183MPD1    H3 2792   3.713   4.466   9.500 -1.1266  0.2271 -1.1279
  183MPD1     N 2793   3.345   4.344   9.733 -0.2616  0.1391 -0.1313
  183MPD1    H5 2794   3.313   4.285   9.809 -0.3198 -1.1473 -1.1576
  183MPD1    N1 2795   3.739   4.103   9.775  0.0212  0.4837 -0.3880
  183MPD1    H6 2796   3.834   4.085   9.742 -0.1496 -1.4728  0.2049
  183MPD1    H7 2797   3.683   4.019   9.760 -1.9367  1.2662  2.6152
  184MPD1     C 2798   1.665   1.873  10.396  0.3605 -0.1462  0.0136
  184MPD1    C1 2799   1.641   1.747  10.353  0.1207  0.1474 -0.4652
  184MPD1    C2 2800   1.718   1.677  10.260 -0.0153 -0.3182  0.3672
  184MPD1    C3 2801   1.837   1.737  10.220  0.3536  0.0259 -0.2272
  184MPD1    C4 2802   1.878   1.849  10.292 -0.2723  0.3018  0.4040
  184MPD1    C5 2803   1.794   1.917  10.376 -0.4698 -0.3423  0.1864
  184MPD1     H 2804   1.679   1.582  10.225  2.6872 -0.1280 -3.1714
  184MPD1    H1 2805   1.980   1.885  10.281 -0.1550 -0.1773 -0.0894
  184MPD1    H2 2806   1.615   1.928  10.475  0.1561 -1.2702  0.6680
  184MPD1    H3 2807   1.821   2.011  10.423 -1.6338  0.0493  0.0629
  184MPD1     N 2808   1.929   1.685  10.126 -0.6049  0.3298  0.5381
  184MPD1    H5 2809   2.016   1.736  10.115 -0.9315  0.9181  0.6783
  184MPD1    N1 2810   1.526   1.685  10.393 -0.2739  0.4671 -0.3800
  184MPD1    H6 2811   1.510   1.719  10.488 -2.4342  0.3482 -0.7008
  184MPD1    H7 2812   1.534   1.584  10.401 -3.0978  0.5726  3.7132
  185MPD1     C 2813   1.605   1.249   9.297  0.2384  0.2826 -0.2216
  185MPD1    C1 2814   1.741   1.230   9.292 -0.4430 -0.1666 -0.1280
  185MPD1    C2 2815   1.816   1.242   9.408 -0.4820  0.9773 -0.1635
  185MPD1    C3 2816   1.765   1.303   9.523 -0.4603  0.2658  1.2820
  185MPD1    C4 2817   1.631   1.327   9.525 -0.0061  0.3528  0.4221
  185MPD1    C5 2818   1.553   1.299   9.409  0.2688 -0.5508 -0.7552
  185MPD1     H 2819   1.921   1.213   9.406 -0.6771  0.3861 -1.9023
  185MPD1    H1 2820   1.581   1.362   9.614 -1.5922 -0.9196  0.0167
  185MPD1    H2 2821   1.540   1.227   9.213  2.5868 -0.3894 -1.8418
  185MPD1    H3 2822   1.448   1.327   9.409  0.5516  0.5148 -1.7111
  185MPD1     N 2823   1.843   1.334   9.638 -0.1087  0.7073 -0.2151
  185MPD1    H5 2824   1.787   1.358   9.719  1.4182  1.5038  0.6072
  185MPD1    N1 2825   1.790   1.161   9.181 -0.5662 -0.1979 -0.0653
  185MPD1    H6 2826   1.891   1.165   9.169 -0.3561 -2.3970  0.8816
  185MPD1    H7 2827   1.735   1.179   9.098  0.0312  0.2851 -0.3595
  186MPD1     C 2828   0.059   0.984  15.814 -0.2689 -0.4830 -1.0553
  186MPD1    C1 2829   0.076   1.095  15.741 -0.1027 -0.2591 -0.2852
  186MPD1    C2 2830   0.082   1.215  15.811  0.1344 -0.1557  0.2628
  186MPD1    C3 2831   0.072   1.226  15.951 -0.4007  0.8328 -0.0306
  186MPD1    C4 2832   0.057   1.111  16.016 -0.0160  0.4675  0.3986
  186MPD1    C5 2833   0.060   0.992  15.948  0.5861  0.3123  0.1996
  186MPD1     H 2834   0.083   1.304  15.749 -1.9492 -0.8860 -0.7832
  186MPD1    H1 2835   0.038   1.114  16.123  0.0458  0.6131  0.4050
  186MPD1    H2 2836   0.048   0.888  15.764  0.8664 -0.4695 -1.3242
  186MPD1    H3 2837   0.054   0.897  16.000 -0.4577  1.4196  2.1266
  186MPD1     N 2838   0.091   1.344  16.034  0.3099 -0.4577  0.0221
  186MPD1    H5 2839   0.056   1.343  16.129 -1.0514 -0.1781 -0.4632
  186MPD1    N1 2840   0.060   1.106  15.605  1.0256  0.1098 -0.0070
  186MPD1    H6 2841   0.102   1.026  15.556 -0.7474 -1.5922  1.2721
  186MPD1    H7 2842   0.108   1.190  15.572 -0.5550  0.4771 -1.3700
  187MPD1     C 2843   3.793   3.592   0.864 -0.1827 -0.9431 -0.2796
  187MPD1    C1 2844   3.841   3.487   0.781  0.5481 -0.2402  0.2639
  187MPD1    C2 2845   3.875   3.516   0.650  0.4948 -0.2994 -0.1290
  187MPD1    C3 2846   3.876   3.647   0.601 -0.1897  0.5374  0.2845
  187MPD1    C4 2847   3.833   3.747   0.686 -0.3205 -1.6648 -0.6257
  187MPD1    C5 2848   3.802   3.720   0.815  0.4878 -0.8030 -0.4936
  187MPD1     H 2849   3.911   3.445   0.576  1.7376  0.6082 -0.4093
  187MPD1    H1 2850   3.827   3.852   0.659  1.4500 -1.9984 -2.3143
  187MPD1    H2 2851   3.765   3.575   0.968  0.9435  0.3796  0.2450
  187MPD1    H3 2852   3.780   3.807   0.875  1.3458 -0.9656  0.0588
  187MPD1     N 2853   3.913   3.686   0.471 -0.1387 -0.7355  0.0511
  187MPD1    H5 2854   3.931   3.785   0.454  0.7445 -0.9823 -0.4261
  187MPD1    N1 2855   3.831   3.353   0.834 -0.7115 -0.6307 -0.9096
  187MPD1    H6 2856   3.871   3.274   0.784  2.0009  0.8665 -1.0899
  187MPD1    H7 2857   3.822   3.344   0.935 -1.8827 -1.2081 -1.0670
  188MPD1     C 2858   3.383   3.574  10.015 -0.4394  0.0278  0.9384
  188MPD1    C1 2859   3.411   3.568   9.890 -0.3580 -0.5095 -0.5359
  188MPD1    C2 2860   3.483   3.459   9.840 -0.5287  0.8224 -0.2872
  188MPD1    C3 2861   3.526   3.360   9.929 -0.1963 -0.8447 -0.2818
  188MPD1    C4 2862   3.495   3.371  10.066  0.6741  0.0798 -0.2155
  188MPD1    C5 2863   3.413   3.472  10.110  0.1152  0.4479 -0.6437
  188MPD1     H 2864   3.499   3.446   9.733  1.2343  2.6110 -0.2175
  188MPD1    H1 2865   3.506   3.289  10.137 -1.5773 -0.3751 -0.3743
  188MPD1    H2 2866   3.310   3.649  10.045 -0.6513 -0.0456  0.6063
  188MPD1    H3 2867   3.382   3.457  10.212 -0.0971 -0.3522 -0.8221
  188MPD1     N 2868   3.596   3.242   9.886  0.4160  0.1406 -0.3166
  188MPD1    H5 2869   3.656   3.200   9.957 -0.2933  0.8106  0.6926
  188MPD1    N1 2870   3.355   3.661   9.801 -0.0882 -0.3557  0.0825
  188MPD1    H6 2871   3.337   3.751   9.846 -1.0351 -0.4643 -0.0853
  188MPD1    H7 2872   3.404   3.666   9.712 -2.0804  0.7405 -0.9489
  189MPD1     C 2873   0.942   3.842   0.026 -0.4787  0.9063 -0.2485
  189MPD1    C1 2874   0.823   3.777   0.031  0.4019 -0.3463 -0.3629
  189MPD1    C2 2875   0.703   3.851   0.031  0.7790 -0.0824  0.1063
  189MPD1    C3 2876   0.709   3.989   0.039  0.2447  0.9682  0.1122
  189MPD1    C4 2877   0.837   4.053   0.047  0.0795  0.6609  0.6917
  189MPD1    C5 2878   0.948   3.974   0.039 -0.5178 -0.2332 -0.7109
  189MPD1     H 2879   0.610   3.798   0.014  1.1799 -0.4829 -0.8589
  189MPD1    H1 2880   0.855   4.160   0.050  0.3236  0.6453 -0.0576
  189MPD1    H2 2881   1.033   3.783   0.019 -2.3791 -1.7003 -3.1510
  189MPD1    H3 2882   1.040   4.031   0.027  0.2517 -1.4183 -0.5438
  189MPD1     N 2883   0.590   4.061   0.040 -0.1141  0.7304 -0.1159
  189MPD1    H5 2884   0.503   4.015   0.014  1.3388 -2.3317  0.4858
  189MPD1    N1 2885   0.827   3.650  17.662  0.5285 -0.4660  0.0245
  189MPD1    H6 2886   0.747   3.588  17.674 -1.5615  1.3885 -4.0554
  189MPD1    H7 2887   0.914   3.600  17.677  0.0444 -1.3462 -0.1278
  190MPD1     C 2888   4.188   2.521  15.004  0.2220  0.1481 -0.6482
  190MPD1    C1 2889   4.320   2.563  14.979  0.3743  0.0787  0.2337
  190MPD1    C2 2890   4.412   2.563  15.075 -0.6419  0.1126  0.2546
  190MPD1    C3 2891   4.378   2.515  15.202  0.3677 -0.9833 -0.8404
  190MPD1    C4 2892   4.256   2.459  15.221  0.0620  0.1945  0.2827
  190MPD1    C5 2893   4.158   2.466  15.124  1.4001  0.5059  0.1701
  190MPD1     H 2894   4.515   2.591  15.055 -0.4816 -0.8808 -0.3106
  190MPD1    H1 2895   4.220   2.417  15.314  1.3326 -1.3899  0.0545
  190MPD1    H2 2896   4.101   2.537  14.942 -0.4499 -1.5456 -0.1633
  190MPD1    H3 2897   4.060   2.429  15.151  1.8489 -0.2651  0.7400
  190MPD1     N 2898   4.476   2.522  15.309  0.8657  0.1679 -0.4777
  190MPD1    H5 2899   4.568   2.546  15.273  1.0641  1.3039  0.7820
  190MPD1    N1 2900   4.343   2.637  14.866  0.1876 -0.3887 -0.2143
  190MPD1    H6 2901   4.302   2.592  14.785  0.4009  0.0469 -0.5628
  190MPD1    H7 2902   4.440   2.651  14.838 -0.0377  1.2585 -0.2015
  191MPD1     C 2903   4.283   3.557  11.556  0.0365  0.2834 -0.0842
  191MPD1    C1 2904   4.338   3.544  11.684 -1.0908 -0.1707  1.0940
  191MPD1    C2 2905   4.349   3.662  11.756 -1.0144  0.3037 -0.2146
  191MPD1    C3 2906   4.304   3.782  11.713 -0.5149  0.7352 -0.3057
  191MPD1    C4 2907   4.246   3.790  11.583  0.2885  0.6973  0.5312
  191MPD1    C5 2908   4.231   3.672  11.506  0.1727 -0.3106  0.2182
  191MPD1     H 2909   4.388   3.667  11.857  0.7436 -2.1648 -0.7707
  191MPD1    H1 2910   4.192   3.874  11.542 -0.9082  0.2415  1.1811
  191MPD1    H2 2911   4.262   3.466  11.501 -0.5435  0.7169 -0.5783
  191MPD1    H3 2912   4.174   3.671  11.414  0.8350 -0.0650 -0.2012
  191MPD1     N 2913   4.309   3.891  11.796  0.2906 -0.4448  0.0484
  191MPD1    H5 2914   4.346   3.876  11.889 -0.8553 -0.5621  0.4763
  191MPD1    N1 2915   4.418   3.433  11.708 -0.2654 -0.0892  0.2101
  191MPD1    H6 2916   4.387   3.345  11.667 -0.5241 -0.0429  0.3061
  191MPD1    H7 2917   4.436   3.421  11.807  2.7847  2.0433 -0.0831
  192MPD1     C 2918   4.190   3.799  12.642  0.3780 -0.0389  0.0198
  192MPD1    C1 2919   4.235   3.929  12.636  0.3027  0.1662 -0.1786
  192MPD1    C2 2920   4.260   3.989  12.517 -0.3052 -0.0584  0.0709
  192MPD1    C3 2921   4.263   3.916  12.391 -0.7789  0.0371  0.2336
  192MPD1    C4 2922   4.222   3.785  12.394 -0.0632 -0.5464 -0.0216
  192MPD1    C5 2923   4.180   3.735  12.521 -0.8815  0.4927  0.0698
  192MPD1     H 2924   4.290   4.093  12.517  0.2510 -0.2310  3.0806
  192MPD1    H1 2925   4.233   3.713  12.315 -2.0424  1.2120 -1.9062
  192MPD1    H2 2926   4.167   3.741  12.731  2.3675 -1.7192 -0.5549
  192MPD1    H3 2927   4.153   3.630  12.529  1.0052  0.0028  0.1852
  192MPD1     N 2928   4.291   3.973  12.263 -0.1861  0.0525  0.3982
  192MPD1    H5 2929   4.309   3.907  12.189 -0.1819  0.3122  0.1668
  192MPD1    N1 2930   4.234   4.014  12.749  0.4105  0.5394  0.0720
  192MPD1    H6 2931   4.308   4.083  12.738  0.3775  0.5588 -0.0263
  192MPD1    H7 2932   4.247   3.964  12.837 -1.6907  0.6113  0.4361
  193MPD1     C 2933   3.469   4.405  16.191  0.2232  0.1960 -0.7540
  193MPD1    C1 2934   3.395   4.505  16.250 -0.6425  1.0470  0.8162
  193MPD1    C2 2935   3.451   4.562  16.369 -0.3641 -0.0465  0.1110
  193MPD1    C3 2936   3.579   4.530  16.408 -0.1065  0.1927 -0.1764
  193MPD1    C4 2937   3.645   4.428  16.338  0.1145  0.0542  0.0034
  193MPD1    C5 2938   3.589   4.365  16.232 -0.1482  0.3220  0.4792
  193MPD1     H 2939   3.395   4.644  16.413  0.2634  0.5269 -0.1619
  193MPD1    H1 2940   3.746   4.400  16.363 -0.1603  1.0885  2.2924
  193MPD1    H2 2941   3.436   4.339  16.111  0.6498  0.6399 -1.3019
  193MPD1    H3 2942   3.638   4.282  16.182 -0.4612  0.4699 -0.0710
  193MPD1     N 2943   3.659   4.592  16.508 -0.3461  0.1525 -0.5852
  193MPD1    H5 2944   3.753   4.559  16.525 -1.0960 -2.9352 -2.4357
  193MPD1    N1 2945   3.254   4.507  16.233  0.2270 -0.1895 -0.6824
  193MPD1    H6 2946   3.221   4.490  16.138  0.2424 -1.3698 -0.4748
  193MPD1    H7 2947   3.221   4.601  16.254 -0.8925 -0.6580 -0.3583
  194MPD1     C 2948   1.688   2.674  16.277  0.4869 -0.1539  0.6543
  194MPD1    C1 2949   1.764   2.678  16.393 -0.2745  0.2533  0.0899
  194MPD1    C2 2950   1.817   2.569  16.450 -0.2566 -0.7747 -0.0757
  194MPD1    C3 2951   1.812   2.443  16.384 -0.9523  0.3953  0.1790
  194MPD1    C4 2952   1.746   2.440  16.258  0.4400  0.0913 -0.7296
  194MPD1    C5 2953   1.677   2.551  16.213  0.1254 -0.1458 -0.2208
  194MPD1     H 2954   1.844   2.580  16.554 -1.5875 -0.1631  0.2138
  194MPD1    H1 2955   1.732   2.347  16.204  2.1861  0.2127 -1.3822
  194MPD1    H2 2956   1.621   2.754  16.248  2.2397  1.5241  1.2741
  194MPD1    H3 2957   1.613   2.532  16.128  0.7218 -1.8845 -0.2863
  194MPD1     N 2958   1.842   2.322  16.446  0.1404 -0.0211  0.4050
  194MPD1    H5 2959   1.822   2.240  16.389 -2.2180  1.8677 -1.4893
  194MPD1    N1 2960   1.761   2.793  16.470 -0.3467 -0.1866 -0.0274
  194MPD1    H6 2961   1.837   2.813  16.535 -0.8638 -0.5475  0.6935
  194MPD1    H7 2962   1.733   2.877  16.420  1.4964  0.7003  0.4120
  195MPD1     C 2963   3.558   3.465   0.127 -0.2263  0.6566  0.2035
  195MPD1    C1 2964   3.493   3.414   0.238 -0.6308 -0.7978 -0.0211
  195MPD1    C2 2965   3.464   3.277   0.237  1.0339  0.3630  0.6888
  195MPD1    C3 2966   3.484   3.200   0.126  0.5243 -0.7032  0.7152
  195MPD1    C4 2967   3.544   3.255   0.012  0.2369 -0.0518 -0.9011
  195MPD1    C5 2968   3.576   3.392   0.014 -0.0728  0.0449  0.0506
  195MPD1     H 2969   3.420   3.227   0.322 -2.2847  1.7078 -0.2679
  195MPD1    H1 2970   3.549   3.193  17.615  3.3920  0.2812 -0.9525
  195MPD1    H2 2971   3.597   3.566   0.124 -0.6548  0.7570 -1.9214
  195MPD1    H3 2972   3.622   3.434  17.617  0.6876 -0.7296  0.0754
  195MPD1     N 2973   3.454   3.066   0.120  0.0093  0.2487 -0.3013
  195MPD1    H5 2974   3.459   3.016   0.031  1.7379  1.0498 -0.6626
  195MPD1    N1 2975   3.475   3.490   0.358  0.5169  0.6376  0.3397
  195MPD1    H6 2976   3.382   3.468   0.394  0.8268 -0.4991  0.4582
  195MPD1    H7 2977   3.470   3.588   0.333 -0.6995  0.0053 -1.8775
  196MPD1     C 2978   3.903   2.984   0.128 -0.3569 -0.5359 -0.2939
  196MPD1    C1 2979   3.885   2.881   0.222 -0.0644  0.6597 -0.1302
  196MPD1    C2 2980   3.828   2.909   0.346 -0.8035  0.1333  0.2899
  196MPD1    C3 2981   3.774   3.034   0.374  0.2625 -0.0677  0.9993
  196MPD1    C4 2982   3.789   3.132   0.282 -0.2474  0.0276 -0.1167
  196MPD1    C5 2983   3.855   3.107   0.160  0.2496  0.3774  0.8223
  196MPD1     H 2984   3.826   2.824   0.413 -1.1270 -2.3416 -2.8560
  196MPD1    H1 2985   3.737   3.227   0.287 -2.0711 -0.9433 -0.6697
  196MPD1    H2 2986   3.945   2.970   0.029  0.3808 -0.9725  0.0828
  196MPD1    H3 2987   3.858   3.181   0.081 -1.6971  1.2184  1.5373
  196MPD1     N 2988   3.704   3.071   0.495 -0.4337  0.0492 -0.5496
  196MPD1    H5 2989   3.675   3.167   0.510  0.4945  0.3195 -0.4613
  196MPD1    N1 2990   3.947   2.758   0.198 -0.0472 -0.4836 -0.0819
  196MPD1    H6 2991   3.959   2.735   0.099  1.6819  1.6871 -0.3640
  196MPD1    H7 2992   3.906   2.676   0.243  0.4600 -0.8595 -0.2983
  197MPD1     C 2993   1.453   0.889  17.220  0.0443 -0.4731  0.2128
  197MPD1    C1 2994   1.474   1.021  17.190  0.3616 -0.0912 -0.8014
  197MPD1    C2 2995   1.595   1.065  17.127 -0.1196 -0.6196 -0.1613
  197MPD1    C3 2996   1.686   0.967  17.089  0.3336 -0.4524 -0.1753
  197MPD1    C4 2997   1.661   0.841  17.129  0.2671 -0.1571 -0.3582
  197MPD1    C5 2998   1.552   0.798  17.195 -0.0721 -0.4908 -0.0010
  197MPD1     H 2999   1.602   1.166  17.088  1.8217 -1.1448 -1.1855
  197MPD1    H1 3000   1.735   0.763  17.114 -2.2985 -2.8657  1.0471
  197MPD1    H2 3001   1.359   0.853  17.260 -1.3911  0.1560 -2.5877
  197MPD1    H3 3002   1.550   0.692  17.219 -2.3148 -0.9009 -1.9329
  197MPD1     N 3003   1.810   0.997  17.031 -0.5174 -0.1679  0.0854
  197MPD1    H5 3004   1.866   0.914  17.014 -0.0336  0.3227 -0.7216
  197MPD1    N1 3005   1.361   1.105  17.197  0.6637 -0.2780  0.1302
  197MPD1    H6 3006   1.301   1.082  17.276 -1.9169  1.8527 -1.2167
  197MPD1    H7 3007   1.391   1.201  17.209 -0.2234 -0.1843  1.5891
  198MPD1     C 3008   3.975   4.051  15.954 -0.0750  0.3904 -0.1127
  198MPD1    C1 3009   4.050   4.003  16.054  0.1708  0.2863 -0.1210
  198MPD1    C2 3010   4.145   3.906  16.023 -0.2406 -0.4855  0.3474
  198MPD1    C3 3011   4.162   3.876  15.891 -0.0393 -0.3485  0.6455
  198MPD1    C4 3012   4.078   3.925  15.793 -0.4682 -0.3865  0.3897
  198MPD1    C5 3013   3.990   4.016  15.824  0.6607  0.3357 -0.7554
  198MPD1     H 3014   4.213   3.855  16.090 -0.1597 -0.2605  0.4352
  198MPD1    H1 3015   4.093   3.903  15.687  0.0447 -0.0761  0.3975
  198MPD1    H2 3016   3.897   4.126  15.965  1.0625  1.2913  1.7382
  198MPD1    H3 3017   3.928   4.060  15.747 -0.3809 -1.2533 -0.8096
  198MPD1     N 3018   4.279   3.799  15.871 -0.0722 -0.6873 -0.0523
  198MPD1    H5 3019   4.333   3.777  15.955  1.1794 -1.7073 -1.1194
  198MPD1    N1 3020   4.025   4.033  16.187  0.6810  0.4019 -0.0248
  198MPD1    H6 3021   3.996   4.130  16.191  0.5957  0.3152  1.3974
  198MPD1    H7 3022   4.109   4.031  16.244  2.0270  2.5872 -1.9322
  199MPD1     C 3023   0.903   3.678   9.990 -0.7778 -0.6405  0.3450
  199MPD1    C1 3024   0.962   3.712   9.867 -0.3914 -0.2707  0.2054
  199MPD1    C2 3025   0.963   3.840   9.820 -0.0288 -0.4311 -0.1874
  199MPD1    C3 3026   0.904   3.941   9.902  0.0810  0.5456  0.7419
  199MPD1    C4 3027   0.864   3.903  10.033 -0.5490 -0.0623 -0.4419
  199MPD1    C5 3028   0.863   3.772  10.071 -0.4577 -0.4854 -0.9862
  199MPD1     H 3029   1.012   3.867   9.727  0.4813  1.6007  0.6700
  199MPD1    H1 3030   0.822   3.975  10.102  1.9545  1.7843 -0.8134
  199MPD1    H2 3031   0.901   3.576  10.026  2.2406 -0.6978  0.3438
  199MPD1    H3 3032   0.810   3.745  10.162 -0.0572  2.9222  0.2412
  199MPD1     N 3033   0.870   4.072   9.859 -0.2241  0.6986  1.1882
  199MPD1    H5 3034   0.834   4.127   9.936 -0.1654  2.9187 -0.3709
  199MPD1    N1 3035   1.004   3.601   9.780 -0.3330  0.0945  1.2592
  199MPD1    H6 3036   1.074   3.627   9.711 -2.1293  0.6327 -0.3723
  199MPD1    H7 3037   1.034   3.521   9.836  0.6624  1.3122  2.4674
  200MPD1     C 3038   4.654   0.637  14.210  0.4213  0.3572 -0.5644
  200MPD1    C1 3039   4.582   0.524  14.248  0.0462 -0.0785  0.1178
  200MPD1    C2 3040   4.644   0.401  14.263 -0.0582 -0.0417 -0.3173
  200MPD1    C3 3041   0.056   0.391  14.242 -0.7805  0.9796 -0.4987
  200MPD1    C4 3042   0.127   0.508  14.206  0.6487  0.1030 -0.2514
  200MPD1    C5 3043   0.067   0.630  14.195 -0.2134  0.1934 -0.5934
  200MPD1     H 3044   4.596   0.307  14.288  1.0344 -0.6316 -0.4398
  200MPD1    H1 3045   0.235   0.503  14.196  0.9731  1.2068  2.7989
  200MPD1    H2 3046   4.609   0.735  14.197  1.7386  0.8992 -1.0460
  200MPD1    H3 3047   0.123   0.717  14.163 -2.5137  2.6128  1.8910
  200MPD1     N 3048   0.109   0.262  14.268  0.1011  0.4502  0.0924
  200MPD1    H5 3049   0.045   0.193  14.307 -0.7393  1.5151  0.5889
  200MPD1    N1 3050   4.445   0.535  14.269  0.7158 -0.0411  0.2006
  200MPD1    H6 3051   4.419   0.480  14.350  1.4469  1.7304  1.6452
  200MPD1    H7 3052   4.418   0.631  14.290 -0.8217  0.1862 -2.7671
  201MPD1     C 3053   2.598   3.965  13.234 -0.5315 -0.3735 -0.6612
  201MPD1    C1 3054   2.532   3.871  13.160 -0.0520  0.6924  0.1158
  201MPD1    C2 3055   2.595   3.743  13.148 -0.7580 -0.5314  0.0928
  201MPD1    C3 3056   2.724   3.716  13.191  0.2952  0.4958 -0.2071
  201MPD1    C4 3057   2.787   3.825  13.257  0.1672 -0.4063  0.2823
  201MPD1    C5 3058   2.725   3.945  13.275  0.2148 -0.1726 -0.2387
  201MPD1     H 3059   2.543   3.666  13.092  3.2993 -3.1234 -0.1598
  201MPD1    H1 3060   2.891   3.815  13.285  0.7154  0.2488 -1.4968
  201MPD1    H2 3061   2.550   4.061  13.253 -0.1089 -0.7858  2.4437
  201MPD1    H3 3062   2.778   4.024  13.328  0.0473 -1.3405  1.6719
  201MPD1     N 3063   2.772   3.582  13.177  0.7006  0.1109  0.1102
  201MPD1    H5 3064   2.706   3.513  13.142  0.2443 -0.5908  2.3793
  201MPD1    N1 3065   2.411   3.892  13.089 -0.5863 -0.0871 -0.5338
  201MPD1    H6 3066   2.366   3.978  13.120 -1.0269  0.0301 -1.5239
  201MPD1    H7 3067   2.352   3.810  13.088 -1.0368  0.2322 -0.0394
  202MPD1     C 3068   3.413   3.136   9.077  0.4424  0.5193  0.4401
  202MPD1    C1 3069   3.341   3.248   9.093  0.1408 -0.0084  0.5350
  202MPD1    C2 3070   3.293   3.266   9.219  0.2335  0.3515  0.0859
  202MPD1    C3 3071   3.343   3.199   9.326 -0.2857 -0.2888 -1.2390
  202MPD1    C4 3072   3.432   3.097   9.299  0.2346 -0.3087 -0.4789
  202MPD1    C5 3073   3.461   3.063   9.179  0.4119  0.1047  0.3977
  202MPD1     H 3074   3.212   3.335   9.240  1.8063  2.0080  0.5755
  202MPD1    H1 3075   3.479   3.056   9.388  0.5401 -1.1487 -1.0237
  202MPD1    H2 3076   3.433   3.114   8.973  2.0324 -1.3316  1.1381
  202MPD1    H3 3077   3.536   2.986   9.164  0.7184 -0.1229  3.1129
  202MPD1     N 3078   3.306   3.225   9.459  0.1043  0.7750  0.3243
  202MPD1    H5 3079   3.352   3.166   9.528 -1.8414 -2.3603 -1.0647
  202MPD1    N1 3080   3.263   3.282   8.989  0.0950  0.4927  0.5170
  202MPD1    H6 3081   3.327   3.294   8.910 -0.5968 -2.3135 -0.4832
  202MPD1    H7 3082   3.223   3.375   9.001  0.6503  0.7692  0.2350
  203MPD1     C 3083   0.918   3.805  12.056  0.0147 -0.4797 -0.3361
  203MPD1    C1 3084   1.028   3.812  11.971 -0.0931 -0.6286 -0.3597
  203MPD1    C2 3085   1.158   3.794  12.027 -0.2074 -0.3781 -0.9951
  203MPD1    C3 3086   1.176   3.804  12.166  0.1026  0.3829  0.6350
  203MPD1    C4 3087   1.064   3.802  12.248  0.0379  0.2290 -0.2513
  203MPD1    C5 3088   0.942   3.800  12.191 -0.3749  0.2430  0.4976
  203MPD1     H 3089   1.236   3.782  11.953 -0.3052 -0.3269 -1.1073
  203MPD1    H1 3090   1.077   3.788  12.354  0.2583  1.7204 -0.0809
  203MPD1    H2 3091   0.819   3.804  12.012  0.2150  1.6719 -0.8117
  203MPD1    H3 3092   0.856   3.801  12.257 -1.2160 -0.6386 -0.5813
  203MPD1     N 3093   1.305   3.783  12.228  0.2691  0.2851 -0.0079
  203MPD1    H5 3094   1.302   3.775  12.329 -0.3198  1.0688  0.0308
  203MPD1    N1 3095   1.010   3.810  11.827 -0.0354  0.3389 -0.1456
  203MPD1    H6 3096   1.079   3.865  11.776  0.0843  0.4343  0.1180
  203MPD1    H7 3097   0.925   3.858  11.799  0.1937  0.5112 -0.5394
  204MPD1     C 3098   0.761   0.046  17.691  0.2676 -0.2182 -0.1487
  204MPD1    C1 3099   0.836   0.155  17.648  0.1222  0.4434 -0.0946
  204MPD1    C2 3100   0.928   0.123  17.551  0.1340  0.3576 -0.3930
  204MPD1    C3 3101   0.933   4.722  17.486  0.1256  0.3413 -0.1561
  204MPD1    C4 3102   0.854   4.618  17.525  0.2513 -0.4745  0.6118
  204MPD1    C5 3103   0.766   4.646  17.627  0.4618 -0.2439  0.0975
  204MPD1     H 3104   0.996   0.201  17.517  1.8409 -1.0353 -0.1922
  204MPD1    H1 3105   0.849   4.518  17.484 -0.4189 -0.8410  1.5787
  204MPD1    H2 3106   0.701   0.055   0.089 -0.1147  1.1001 -0.5373
  204MPD1    H3 3107   0.693   4.572  17.659  2.6911 -2.0256  1.0670
  204MPD1     N 3108   1.016   4.722  17.371 -0.2614 -0.2103 -0.2343
  204MPD1    H5 3109   1.060   0.085  17.337 -1.2495  1.0987  1.7437
  204MPD1    N1 3110   0.832   0.270   0.043 -0.2895  0.4960  0.5245
  204MPD1    H6 3111   0.852   0.356  17.684  0.9235 -0.6768 -0.9919
  204MPD1    H7 3112   0.743   0.285   0.090  0.2313 -0.0436  1.6760
  205MPD1     C 3113   2.674   4.053  16.721  0.4415 -0.8453  0.3180
  205MPD1    C1 3114   2.574   4.144  16.687  0.6701 -0.4118 -0.0623
  205MPD1    C2 3115   2.441   4.118  16.724  0.3693 -0.2078  0.1844
  205MPD1    C3 3116   2.418   4.007  16.801  0.1894  0.3416  0.1600
  205MPD1    C4 3117   2.523   3.923  16.844 -0.4920 -0.2057  0.4026
  205MPD1    C5 3118   2.648   3.938  16.793  0.9081  1.0579 -0.3839
  205MPD1     H 3119   2.363   4.180  16.682  0.1806 -0.2749  0.4335
  205MPD1    H1 3120   2.506   3.834  16.903 -2.0477 -1.8578 -2.5757
  205MPD1    H2 3121   2.775   4.059  16.681  0.0482  0.7406 -0.4415
  205MPD1    H3 3122   2.733   3.876  16.817 -0.9449 -1.4630 -0.3470
  205MPD1     N 3123   2.288   3.975  16.850 -0.0761  0.0630  0.0569
  205MPD1    H5 3124   2.270   3.893  16.906 -0.0928  1.5371  2.2270
  205MPD1    N1 3125   2.599   4.235  16.580  0.7003 -0.3585  0.2881
  205MPD1    H6 3126   2.695   4.269  16.578  0.5569 -0.0590 -1.2053
  205MPD1    H7 3127   2.540   4.317  16.590  2.3767  0.5716  2.7154
  206MPD1     C 3128   1.394   2.662  16.581  0.4580 -0.0079 -0.0187
  206MPD1    C1 3129   1.452   2.551  16.528 -0.5109  0.0171  0.3037
  206MPD1    C2 3130   1.407   2.516  16.402 -0.2736 -0.0743 -0.2352
  206MPD1    C3 3131   1.335   2.602  16.326  0.1056  0.5543 -0.3878
  206MPD1    C4 3132   1.269   2.708  16.383 -0.3128 -0.5429  0.5575
  206MPD1    C5 3133   1.296   2.729  16.514  0.3392 -0.9672  0.0172
  206MPD1     H 3134   1.450   2.421  16.373  0.7137  0.4392 -0.4439
  206MPD1    H1 3135   1.201   2.767  16.322 -0.3097  0.1203  1.1927
  206MPD1    H2 3136   1.414   2.693  16.683 -0.3720  0.1735  0.0897
  206MPD1    H3 3137   1.244   2.813  16.560 -0.3777 -1.2152 -0.3304
  206MPD1     N 3138   1.292   2.568  16.196 -0.2082  0.4217  0.0996
  206MPD1    H5 3139   1.234   2.639  16.153 -0.5643  0.6309  0.9315
  206MPD1    N1 3140   1.513   2.463  16.617  0.1076 -0.4340  0.2691
  206MPD1    H6 3141   1.565   2.387  16.572 -1.4729 -0.2356 -1.8892
  206MPD1    H7 3142   1.570   2.507  16.688 -0.1732  0.3773 -0.0165
  207MPD1     C 3143   3.808   4.378   9.219 -0.3550  0.6380  0.2292
  207MPD1    C1 3144   3.845   4.513   9.222 -0.6275 -0.4063 -0.1716
  207MPD1    C2 3145   3.946   4.548   9.308  1.1212  0.1979  0.7708
  207MPD1    C3 3146   4.018   4.453   9.381  0.1745  0.6061 -0.7001
  207MPD1    C4 3147   3.981   4.320   9.370 -0.7938  0.6420 -0.1634
  207MPD1    C5 3148   3.874   4.285   9.296  0.0081  0.9310  0.8919
  207MPD1     H 3149   3.963   4.655   9.301 -1.2359  0.7001  2.7228
  207MPD1    H1 3150   4.039   4.243   9.420 -2.5563 -0.6692 -0.1143
  207MPD1    H2 3151   3.716   4.345   9.171  0.7687 -0.0702 -1.4191
  207MPD1    H3 3152   3.837   4.184   9.302  2.2892 -0.0250 -1.0188
  207MPD1     N 3153   4.121   4.490   9.464 -0.1083 -0.3255  0.5496
  207MPD1    H5 3154   4.164   4.419   9.522 -3.1334 -2.0318  0.7067
  207MPD1    N1 3155   3.760   4.596   9.148  0.2403  0.2149 -0.4162
  207MPD1    H6 3156   3.732   4.555   9.059  1.4763 -0.9129 -0.2934
  207MPD1    H7 3157   3.804   4.687   9.140 -1.3558  1.3617  3.6557
  208MPD1     C 3158   3.126   3.722   0.045 -0.1660 -0.5083 -0.2995
  208MPD1    C1 3159   3.089   3.651   0.162  0.4007 -0.4956 -0.0346
  208MPD1    C2 3160   2.975   3.575   0.159  0.0438 -0.6794 -0.6444
  208MPD1    C3 3161   2.880   3.601   0.063  0.0679 -0.3530  0.1234
  208MPD1    C4 3162   2.914   3.688  17.651  0.3052 -0.0903  0.4246
  208MPD1    C5 3163   3.039   3.748  17.637  0.0938 -0.1828 -0.4393
  208MPD1     H 3164   2.941   3.510   0.239 -1.2089 -0.8198 -1.2813
  208MPD1    H1 3165   2.853   3.709  17.564  0.3887  0.6431  0.5436
  208MPD1    H2 3166   3.225   3.765   0.038 -0.7439  1.2822  2.4605
  208MPD1    H3 3167   3.068   3.798  17.545 -1.6686  0.7297 -0.5006
  208MPD1     N 3168   2.761   3.526   0.064 -0.3035 -0.4255  0.1185
  208MPD1    H5 3169   2.735   3.459   0.135 -0.2986  0.6385  1.1208
  208MPD1    N1 3170   3.189   3.610   0.257  0.4739 -0.1194 -0.0760
  208MPD1    H6 3171   3.258   3.681   0.277  1.4317 -1.2968  0.8021
  208MPD1    H7 3172   3.152   3.577   0.346 -0.6516  0.8466 -0.1822
  209MPD1     C 3173   4.079   4.051  11.348 -0.6799  0.5469  0.8806
  209MPD1    C1 3174   4.060   4.187  11.334  0.1998 -0.2628 -0.7858
  209MPD1    C2 3175   4.099   4.255  11.219  0.1986  0.2094  0.4755
  209MPD1    C3 3176   4.146   4.189  11.107 -0.3295  0.4390  0.1740
  209MPD1    C4 3177   4.150   4.054  11.114 -0.4318 -0.0452 -0.0714
  209MPD1    C5 3178   4.124   3.993  11.233 -0.1624 -0.1640 -0.3343
  209MPD1     H 3179   4.102   4.364  11.220 -2.1620  0.2994 -0.4120
  209MPD1    H1 3180   4.175   3.998  11.025  0.6024 -0.1885  0.3146
  209MPD1    H2 3181   4.040   3.997  11.433 -1.0082 -0.6715 -0.0450
  209MPD1    H3 3182   4.139   3.886  11.233  3.3529  0.3272 -1.3906
  209MPD1     N 3183   4.197   4.262  11.001  0.7028 -0.0690 -0.4822
  209MPD1    H5 3184   4.204   4.363  11.015 -2.3125  0.1462 -0.5082
  209MPD1    N1 3185   4.036   4.255  11.458 -0.3079 -0.5785 -0.4805
  209MPD1    H6 3186   3.964   4.205  11.509 -0.0887 -1.3367 -0.9107
  209MPD1    H7 3187   4.009   4.352  11.445 -0.2997 -0.2513  1.9792
  210MPD1     C 3188   0.269   0.062  10.724 -0.0220  0.2290  0.3579
  210MPD1    C1 3189   0.221   0.023  10.848  0.2804 -0.3831  0.0091
  210MPD1    C2 3190   0.087   4.707  10.854 -0.4590 -0.3014  0.3340
  210MPD1    C3 3191   0.018   4.686  10.734 -0.0295 -0.1493  0.3854
  210MPD1    C4 3192   0.073   4.718  10.613 -1.1784 -0.6810  0.1878
  210MPD1    C5 3193   0.192   0.048  10.611  0.3791  0.2404 -0.2106
  210MPD1     H 3194   0.048   4.673  10.949  0.8968 -1.1082  0.5948
  210MPD1    H1 3195   0.018   4.703  10.521  0.0280  0.2953 -0.6928
  210MPD1    H2 3196   0.372   0.095  10.722 -0.6714  2.1444 -1.1241
  210MPD1    H3 3197   0.222   0.099  10.521  0.0175 -0.2021 -0.5813
  210MPD1     N 3198   4.621   4.615  10.718  0.2811  0.2814  0.0745
  210MPD1    H5 3199   4.585   4.607  10.624 -2.1433 -1.2492  1.1263
  210MPD1    N1 3200   0.293   0.030  10.963 -0.4688 -0.0910  0.5391
  210MPD1    H6 3201   0.393   0.016  10.951 -0.4839 -1.7073  2.2723
  210MPD1    H7 3202   0.268   4.674  11.023 -1.3771 -0.4197 -0.2749
  211MPD1     C 3203   2.379   3.692  16.601 -0.4616  0.3587  0.0213
  211MPD1    C1 3204   2.274   3.628  16.668  0.5691 -0.3760  1.0869
  211MPD1    C2 3205   2.143   3.671  16.627 -0.4780  0.4138  0.0667
  211MPD1    C3 3206   2.120   3.781  16.550  0.1366  0.1619 -0.2276
  211MPD1    C4 3207   2.230   3.847  16.501  0.7498  0.3737  0.0280
  211MPD1    C5 3208   2.356   3.808  16.536 -0.4431 -0.4146 -0.0302
  211MPD1     H 3209   2.057   3.620  16.669 -1.4429  2.9565  1.1866
  211MPD1    H1 3210   2.210   3.936  16.442 -1.5749  0.5048  1.0110
  211MPD1    H2 3211   2.481   3.658  16.606 -0.1894  1.2007  0.2658
  211MPD1    H3 3212   2.432   3.872  16.492 -1.9663  0.4326 -1.4352
  211MPD1     N 3213   1.985   3.820  16.520 -0.4215  0.0672 -0.2524
  211MPD1    H5 3214   1.923   3.751  16.562 -2.0734  2.3057  1.0241
  211MPD1    N1 3215   2.282   3.512  16.748  0.1996 -0.5973  0.7359
  211MPD1    H6 3216   2.374   3.495  16.787  0.1871 -0.6707  0.7342
  211MPD1    H7 3217   2.205   3.494  16.812 -1.2324  0.6368 -0.6384
  212MPD1     C 3218   1.111   2.262  16.513 -0.1715 -0.5445 -0.2801
  212MPD1    C1 3219   1.143   2.270  16.652  0.8065  0.6492  0.1649
  212MPD1    C2 3220   1.052   2.218  16.744 -0.3692 -0.2547  0.3767
  212MPD1    C3 3221   0.937   2.157  16.700  0.0650 -0.2342  0.5365
  212MPD1    C4 3222   0.904   2.163  16.568  0.1285  0.4910  0.0404
  212MPD1    C5 3223   0.989   2.207  16.474  0.2128 -0.3688  0.3899
  212MPD1     H 3224   1.076   2.216  16.849 -0.2769  1.2049  0.3777
  212MPD1    H1 3225   0.807   2.130  16.531  0.5810  0.3531 -1.0332
  212MPD1    H2 3226   1.173   2.288  16.428  1.1105 -2.4134  0.0817
  212MPD1    H3 3227   0.963   2.195  16.369 -0.0733 -2.1168  0.6591
  212MPD1     N 3228   0.846   2.093  16.777  0.1169  0.1142  0.1843
  212MPD1    H5 3229   0.773   2.048  16.722  0.4081  0.6304 -0.6308
  212MPD1    N1 3230   1.267   2.323  16.699 -0.4356 -0.3035 -0.2564
  212MPD1    H6 3231   1.274   2.352  16.797 -0.3528  0.9444 -0.6304
  212MPD1    H7 3232   1.329   2.375  16.636 -1.1217 -1.7876 -2.1400
  213MPD1     C 3233   3.855   2.588  15.774  0.0592 -0.2793 -0.5481
  213MPD1    C1 3234   3.756   2.515  15.700  0.1495  0.6799  0.2216
  213MPD1    C2 3235   3.687   2.588  15.608 -0.6200  0.0403 -0.6811
  213MPD1    C3 3236   3.728   2.711  15.565  0.2157 -0.2806 -0.8331
  213MPD1    C4 3237   3.842   2.763  15.625 -0.0353 -0.4350 -0.1268
  213MPD1    C5 3238   3.907   2.703  15.726 -0.2558 -0.0024 -0.5510
  213MPD1     H 3239   3.598   2.540  15.569 -0.8973 -0.3834  0.4731
  213MPD1    H1 3240   3.874   2.867  15.618  0.1384 -0.4123  0.9440
  213MPD1    H2 3241   3.907   2.539  15.856 -0.3385  2.4056  1.2903
  213MPD1    H3 3242   3.985   2.761  15.775 -2.6950  1.3853  1.6869
  213MPD1     N 3243   3.662   2.776  15.462  0.5047  0.3002  0.1435
  213MPD1    H5 3244   3.598   2.713  15.412 -0.8366  0.8734  1.1387
  213MPD1    N1 3245   3.694   2.406  15.763 -0.0821  0.0429  0.8274
  213MPD1    H6 3246   3.752   2.348  15.823  0.7683 -0.1162 -0.1392
  213MPD1    H7 3247   3.659   2.333  15.701 -0.7505  0.9137  0.1812
  214MPD1     C 3248   2.876   2.645  15.336 -0.2096  0.1216 -0.2848
  214MPD1    C1 3249   2.908   2.647  15.202  0.0786  0.1046  0.1481
  214MPD1    C2 3250   3.031   2.701  15.172  0.3224 -0.5876  0.0320
  214MPD1    C3 3251   3.113   2.753  15.272 -0.3781 -0.0449  0.3981
  214MPD1    C4 3252   3.076   2.760  15.399 -0.3790 -0.6732 -0.4868
  214MPD1    C5 3253   2.951   2.708  15.432 -0.4326 -0.1383 -0.3696
  214MPD1     H 3254   3.079   2.682  15.077  2.9901 -0.1498  1.2865
  214MPD1    H1 3255   3.138   2.809  15.474 -0.8103  0.2559 -0.7426
  214MPD1    H2 3256   2.795   2.584  15.373  0.4987 -0.8629 -0.3591
  214MPD1    H3 3257   2.929   2.699  15.537  3.0655 -2.6706  0.1112
  214MPD1     N 3258   3.244   2.782  15.244  0.4770  0.0171  0.4102
  214MPD1    H5 3259   3.294   2.779  15.332 -2.3608 -0.6994  1.9952
  214MPD1    N1 3260   2.846   2.571  15.104 -0.1040 -0.5487  0.6737
  214MPD1    H6 3261   2.866   2.607  15.010 -2.0256 -1.9902 -0.2894
  214MPD1    H7 3262   2.746   2.566  15.119 -0.1098  0.7060  1.0532
  215MPD1     C 3263   3.360   3.592  10.492  0.2489  0.3715 -0.2602
  215MPD1    C1 3264   3.294   3.668  10.582  0.1295 -0.0151 -0.0891
  215MPD1    C2 3265   3.367   3.736  10.677  0.2879 -0.5255 -0.5894
  215MPD1    C3 3266   3.509   3.732  10.678  0.2480  0.6312 -0.1273
  215MPD1    C4 3267   3.574   3.656  10.585 -0.1291  0.0101  0.0422
  215MPD1    C5 3268   3.497   3.578  10.501 -0.0704  0.2564  0.2016
  215MPD1     H 3269   3.315   3.796  10.751 -2.3045 -0.8318 -2.1876
  215MPD1    H1 3270   3.681   3.644  10.584 -0.1350 -0.0338 -0.3018
  215MPD1    H2 3271   3.314   3.531  10.415  1.6147 -1.4486  0.3655
  215MPD1    H3 3272   3.546   3.520  10.425  1.0053  1.9299 -0.3819
  215MPD1     N 3273   3.581   3.803  10.774  0.0252 -0.2161  1.0927
  215MPD1    H5 3274   3.525   3.839  10.850  0.0622  0.2366  0.9034
  215MPD1    N1 3275   3.156   3.675  10.572 -1.4511  0.8340 -0.1116
  215MPD1    H6 3276   3.108   3.729  10.644 -1.7585 -1.9022  1.7570
  215MPD1    H7 3277   3.124   3.697  10.478  1.3192 -2.0080 -1.7206
  216MPD1     C 3278   1.215   1.403  15.864 -0.4451 -0.3570  0.0132
  216MPD1    C1 3279   1.244   1.286  15.933  0.0733  0.5073 -0.3647
  216MPD1    C2 3280   1.236   1.289  16.068 -0.5671  0.8709 -0.6137
  216MPD1    C3 3281   1.186   1.393  16.147  0.1603 -0.1598  0.2254
  216MPD1    C4 3282   1.150   1.501  16.078 -0.0656  0.0512  0.9992
  216MPD1    C5 3283   1.170   1.504  15.942  0.6718 -0.3389 -0.6046
  216MPD1     H 3284   1.284   1.214  16.131 -1.4028  0.2311 -0.7491
  216MPD1    H1 3285   1.115   1.590  16.129 -3.5844  0.1154 -1.5216
  216MPD1    H2 3286   1.238   1.412  15.759  0.5266  2.7106  0.5018
  216MPD1    H3 3287   1.137   1.594  15.891 -4.5996 -2.1720 -0.4579
  216MPD1     N 3288   1.176   1.375  16.286  0.1445 -0.7682 -0.0710
  216MPD1    H5 3289   1.216   1.292  16.329 -0.4857 -0.0966  1.8541
  216MPD1    N1 3290   1.323   1.184  15.878  0.2998 -0.1253 -0.0203
  216MPD1    H6 3291   1.291   1.104  15.932  2.8567 -1.7284 -0.8714
  216MPD1    H7 3292   1.292   1.165  15.783  0.2371 -0.2065  0.0169
  217MPD1     C 3293   2.264   2.401   8.104 -0.4717 -0.3453  0.3641
  217MPD1    C1 3294   2.375   2.479   8.085 -0.1717 -0.4790 -0.6602
  217MPD1    C2 3295   2.385   2.601   8.147 -0.2670 -0.9377 -0.1288
  217MPD1    C3 3296   2.280   2.659   8.213 -0.6729  0.3953  0.9348
  217MPD1    C4 3297   2.170   2.577   8.228 -0.3587 -0.0346 -0.2660
  217MPD1    C5 3298   2.163   2.456   8.176 -0.1853  0.1669  0.6739
  217MPD1     H 3299   2.484   2.646   8.143 -0.5253 -0.1113  2.8421
  217MPD1    H1 3300   2.088   2.614   8.289  0.2104 -0.5161  0.7842
  217MPD1    H2 3301   2.259   2.296   8.077 -0.5729 -0.1637 -0.3067
  217MPD1    H3 3302   2.070   2.402   8.194  0.4106 -1.4642 -1.0844
  217MPD1     N 3303   2.273   2.785   8.272  0.1918  0.0699 -0.1732
  217MPD1    H5 3304   2.187   2.800   8.324 -1.1017 -0.4100 -2.1395
  217MPD1    N1 3305   2.490   2.421   8.023 -0.8656 -0.2611 -1.1483
  217MPD1    H6 3306   2.544   2.495   7.979  1.0936 -0.8824  0.1912
  217MPD1    H7 3307   2.452   2.364   7.948 -2.3833 -1.1274  0.2867
  218MPD1     C 3308   4.090   4.554  14.123 -0.3959 -0.6810 -0.1761
  218MPD1    C1 3309   4.105   4.435  14.052  0.0923  0.5523 -1.0083
  218MPD1    C2 3310   3.992   4.369  14.002  0.1827 -0.4643 -0.2469
  218MPD1    C3 3311   3.868   4.414  14.026  0.4955  0.7223  0.5442
  218MPD1    C4 3312   3.847   4.523  14.111  0.1551 -0.0282  0.1319
  218MPD1    C5 3313   3.954   4.595  14.155 -0.0861 -0.4763  0.5767
  218MPD1     H 3314   3.996   4.273  13.952  0.8687  0.0768 -1.2330
  218MPD1    H1 3315   3.747   4.560  14.130  0.2747 -0.1724  1.0899
  218MPD1    H2 3316   4.174   4.601  14.173 -2.7864  0.3011  2.9443
  218MPD1    H3 3317   3.944   4.686  14.214 -1.0452  0.4927 -1.0681
  218MPD1     N 3318   3.765   4.348  13.951 -0.2658 -0.4888  0.1052
  218MPD1    H5 3319   3.796   4.278  13.885  1.4868 -1.8526  2.3713
  218MPD1    N1 3320   4.226   4.366  14.054 -0.2490  0.6293 -0.0788
  218MPD1    H6 3321   4.240   4.297  13.981 -2.0546  2.1309 -1.8058
  218MPD1    H7 3322   4.310   4.424  14.052  0.5968 -0.5912 -0.1783
  219MPD1     C 3323   2.802   4.615  13.775  0.0586  0.2667 -0.8734
  219MPD1    C1 3324   2.887   4.608  13.664 -0.0979  0.8936 -0.3543
  219MPD1    C2 3325   3.002   4.536  13.676 -0.0916 -0.3560 -0.0071
  219MPD1    C3 3326   3.036   4.495  13.797 -0.2738 -0.4590  0.1914
  219MPD1    C4 3327   2.970   4.523  13.912  0.7365 -0.2029  0.0469
  219MPD1    C5 3328   2.842   4.572  13.898 -0.6519  0.5248 -0.3267
  219MPD1     H 3329   3.069   4.523  13.592 -0.0648 -2.0400  0.2663
  219MPD1    H1 3330   3.000   4.497  14.012 -1.3706 -1.1932  0.4379
  219MPD1    H2 3331   2.700   4.651  13.774  0.0479  0.2083 -2.6946
  219MPD1    H3 3332   2.780   4.583  13.986  1.2234  1.0495  0.9142
  219MPD1     N 3333   3.158   4.420  13.818  0.0486 -0.1837  0.2392
  219MPD1    H5 3334   3.196   4.407  13.911 -1.2816 -1.9395  0.5283
  219MPD1    N1 3335   2.847   4.664  13.539 -0.1309 -0.3312  0.0611
  219MPD1    H6 3336   2.770   0.007  13.549  1.4518  1.6769 -1.0277
  219MPD1    H7 3337   2.923   4.685  13.475 -1.2951 -0.0936 -1.2278
  220MPD1     C 3338   3.813   0.271   9.338 -0.1353  0.1188  0.5319
  220MPD1    C1 3339   3.687   0.253   9.386  0.2064 -0.3478 -0.0591
  220MPD1    C2 3340   3.666   0.174   9.495 -0.1848 -0.5014  1.0801
  220MPD1    C3 3341   3.770   0.105   9.563  0.5184 -0.0423 -0.2912
  220MPD1    C4 3342   3.896   0.132   9.520  0.2244 -0.2431 -0.3339
  220MPD1    C5 3343   3.911   0.209   9.407  0.1827 -1.0505 -0.5591
  220MPD1     H 3344   3.561   0.153   9.512 -0.1762 -0.5905  1.0264
  220MPD1    H1 3345   3.983   0.083   9.563  1.4593  1.9889 -0.2922
  220MPD1    H2 3346   3.846   0.328   9.252 -1.8264  0.1995 -0.0646
  220MPD1    H3 3347   4.011   0.234   9.373 -0.4444 -0.2948 -1.8393
  220MPD1     N 3348   3.746   0.015   9.670  0.2815  0.6054 -0.2121
  220MPD1    H5 3349   3.648   0.011   9.695  0.4138 -0.1137  0.1580
  220MPD1    N1 3350   3.573   0.322   9.338 -0.6364  0.6913  0.1434
  220MPD1    H6 3351   3.579   0.338   9.238 -1.4641 -0.0228 -0.0175
  220MPD1    H7 3352   3.483   0.285   9.370 -1.2881  0.2069 -2.3125
  221MPD1     C 3353   0.895   3.302  16.256 -0.0042  0.3263 -0.1345
  221MPD1    C1 3354   0.937   3.408  16.173 -0.4974 -0.2129 -1.5116
  221MPD1    C2 3355   1.075   3.436  16.177 -0.7600 -0.5133  0.1035
  221MPD1    C3 3356   1.163   3.359  16.251  0.1046  0.3340  0.2515
  221MPD1    C4 3357   1.113   3.256  16.321  0.1875  0.1649 -0.4948
  221MPD1    C5 3358   0.978   3.228  16.331 -0.4229  0.0209  0.4203
  221MPD1     H 3359   1.107   3.531  16.134 -2.0644 -0.0903  0.0448
  221MPD1    H1 3360   1.188   3.200  16.377 -1.5548 -2.5055 -0.8453
  221MPD1    H2 3361   0.789   3.279  16.265 -0.1002  0.8893  0.1802
  221MPD1    H3 3362   0.947   3.139  16.385  0.2404 -1.3133 -1.3736
  221MPD1     N 3363   1.299   3.370  16.256  0.3824  0.5774  0.2116
  221MPD1    H5 3364   1.342   3.291  16.302 -0.9894 -0.2079  0.1600
  221MPD1    N1 3365   0.848   3.494  16.098 -0.1098  0.5206  0.2442
  221MPD1    H6 3366   0.898   3.524  16.015 -0.9211 -0.2420 -0.5231
  221MPD1    H7 3367   0.761   3.449  16.069  0.4931 -0.8005  0.4578
  222MPD1     C 3368   0.914   1.760  17.328 -0.1532  0.4855  0.3282
  222MPD1    C1 3369   0.860   1.720  17.448  0.0318  0.4692  0.1391
  222MPD1    C2 3370   0.803   1.820  17.539 -0.1110 -0.3900  0.1871
  222MPD1    C3 3371   0.827   1.961  17.519 -0.7901 -0.0377 -0.1296
  222MPD1    C4 3372   0.900   1.991  17.411  0.3515  0.3496  0.0859
  222MPD1    C5 3373   0.938   1.893  17.314  0.6094  0.2926 -0.3009
  222MPD1     H 3374   0.771   1.781  17.634  0.3488  1.0524  0.9334
  222MPD1    H1 3375   0.924   2.094  17.385 -0.3162  0.2995 -0.7381
  222MPD1    H2 3376   0.956   1.687  17.260 -0.8040 -0.9432  1.4692
  222MPD1    H3 3377   1.004   1.911  17.230  1.9530  2.3446  1.2096
  222MPD1     N 3378   0.782   2.066  17.608  0.3339  0.8608 -0.1585
  222MPD1    H5 3379   0.804   2.163  17.587 -0.5223  1.2311  0.6664
  222MPD1    N1 3380   0.842   1.583  17.464  0.1194  0.1024  0.0022
  222MPD1    H6 3381   0.911   1.542  17.401  1.0411 -0.5357  1.4140
  222MPD1    H7 3382   0.850   1.559  17.563 -1.2029  0.0207  0.0966
  223MPD1     C 3383   0.147   2.492   0.728  0.6081  1.0779 -0.0161
  223MPD1    C1 3384   0.121   2.552   0.609 -0.2680  0.5848 -0.3687
  223MPD1    C2 3385   0.191   2.507   0.495  0.7766  0.2024 -0.0903
  223MPD1    C3 3386   0.288   2.412   0.514 -0.1052  1.0144  0.1628
  223MPD1    C4 3387   0.303   2.343   0.638  0.4566 -0.4459  0.1235
  223MPD1    C5 3388   0.234   2.395   0.741 -0.1667  0.0765  0.5132
  223MPD1     H 3389   0.185   2.554   0.397  0.6239 -0.2159 -0.2800
  223MPD1    H1 3390   0.374   2.261   0.641 -0.0351 -0.8207  1.4321
  223MPD1    H2 3391   0.091   2.513   0.819 -0.7156 -0.1991 -0.5475
  223MPD1    H3 3392   0.237   2.353   0.841  0.4114 -1.3414 -0.1010
  223MPD1     N 3393   0.358   2.383   0.398  0.2201  0.1388  0.6369
  223MPD1    H5 3394   0.350   2.452   0.323  0.1724 -0.0750  0.4444
  223MPD1    N1 3395   0.041   2.665   0.609 -0.4232  0.8752 -0.4064
  223MPD1    H6 3396   0.011   2.701   0.519  0.1157 -0.2092 -1.0253
  223MPD1    H7 3397   0.007   2.717   0.690  1.0255  3.0265 -1.1824
  224MPD1     C 3398   2.971   4.707   9.230  0.4228  0.6194  0.3206
  224MPD1    C1 3399   3.065   4.623   9.290  0.1162 -0.1439 -0.1365
  224MPD1    C2 3400   3.007   4.509   9.352 -0.3519 -0.6011  0.2887
  224MPD1    C3 3401   2.868   4.491   9.361 -0.5182 -0.8642  0.5570
  224MPD1    C4 3402   2.784   4.586   9.305  0.3402 -0.3658 -0.0278
  224MPD1    C5 3403   2.836   4.700   9.248 -0.1597 -0.3767  0.3728
  224MPD1     H 3404   3.077   4.432   9.383  0.0699 -0.3916 -0.1428
  224MPD1    H1 3405   2.677   4.575   9.312  0.3069 -0.9929 -1.4464
  224MPD1    H2 3406   2.995   0.079   9.181 -0.3272  0.7596  0.2222
  224MPD1    H3 3407   2.768   0.057   9.219 -0.4028 -1.2747 -1.5195
  224MPD1     N 3408   2.795   4.383   9.416  0.2747  0.1925 -0.0348
  224MPD1    H5 3409   2.694   4.388   9.417  0.2196 -0.9070  0.3395
  224MPD1    N1 3410   3.200   4.627   9.258  1.1206 -0.0126  0.2035
  224MPD1    H6 3411   3.262   4.595   9.332  1.6822  1.8218  0.5183
  224MPD1    H7 3412   3.218   4.720   9.220 -0.0746  0.7188  1.3942
  225MPD1     C 3413   3.870   0.413  12.967 -0.5054 -0.0462 -0.0554
  225MPD1    C1 3414   3.875   0.279  12.923  0.4998  0.5214  0.4197
  225MPD1    C2 3415   3.808   0.259  12.801 -0.4035  0.3841  0.5255
  225MPD1    C3 3416   3.731   0.354  12.736  0.0952  0.5645 -0.0801
  225MPD1    C4 3417   3.718   0.478  12.791 -0.2351  0.2399 -0.1520
  225MPD1    C5 3418   3.794   0.500  12.903  0.0819  0.6806 -0.1082
  225MPD1     H 3419   3.824   0.159  12.761  0.4842  0.7177  0.0392
  225MPD1    H1 3420   3.661   0.561  12.750  0.5887  0.7970 -0.1726
  225MPD1    H2 3421   3.923   0.440  13.057  1.0302 -0.0447 -0.9683
  225MPD1    H3 3422   3.812   0.602  12.933 -2.3654  1.1719 -0.2970
  225MPD1     N 3423   3.658   0.331  12.617  0.2505  0.4188 -0.4484
  225MPD1    H5 3424   3.622   0.417  12.576  0.8576  1.2119  0.6708
  225MPD1    N1 3425   3.962   0.183  12.978  0.2073 -0.1178  0.2960
  225MPD1    H6 3426   3.956   0.198  13.079 -2.0092  3.4442 -0.3384
  225MPD1    H7 3427   3.925   0.090  12.963  1.8077 -0.8253  0.8464
  226MPD1     C 3428   1.672   0.622  10.029  0.3846  0.1349  0.9944
  226MPD1    C1 3429   1.614   0.573   9.916  0.2333 -0.4649 -0.5138
  226MPD1    C2 3430   1.693   0.555   9.805  0.1114  0.1757 -0.5163
  226MPD1    C3 3431   1.833   0.586   9.810  0.6662  0.3562 -0.0645
  226MPD1    C4 3432   1.887   0.646   9.917 -0.0055 -0.5733 -0.0205
  226MPD1    C5 3433   1.804   0.656  10.027  0.2943  0.1436 -0.5570
  226MPD1     H 3434   1.651   0.505   9.718 -0.8847  0.1620 -0.0223
  226MPD1    H1 3435   1.990   0.676   9.931  0.2257 -1.5699  0.3614
  226MPD1    H2 3436   1.608   0.647  10.113 -1.7856 -2.5301  0.1472
  226MPD1    H3 3437   1.850   0.687  10.120 -0.4657 -1.0144  0.2120
  226MPD1     N 3438   1.912   0.573   9.694  0.1995 -0.0542 -0.3665
  226MPD1    H5 3439   1.861   0.539   9.613  0.9209 -1.6440 -0.1641
  226MPD1    N1 3440   1.488   0.517   9.928 -0.2490 -0.1156 -0.2558
  226MPD1    H6 3441   1.422   0.574   9.982 -1.4405 -0.5288 -1.2637
  226MPD1    H7 3442   1.453   0.482   9.839 -2.2384 -0.9818  0.8505
  227MPD1     C 3443   1.893   4.479   9.192 -0.2779 -0.0870  0.1281
  227MPD1    C1 3444   2.023   4.472   9.235  0.2093  0.5887  0.3652
  227MPD1    C2 3445   2.077   4.588   9.285 -0.6381  0.3071 -0.0208
  227MPD1    C3 3446   2.007   4.707   9.296 -0.4859  0.2253  0.2689
  227MPD1    C4 3447   1.876   4.716   9.247  0.0234 -0.3732  0.0182
  227MPD1    C5 3448   1.826   4.600   9.187 -0.7159  0.0309  0.6947
  227MPD1     H 3449   2.174   4.583   9.333 -0.5507  0.4754 -0.1760
  227MPD1    H1 3450   1.818   0.085   9.247 -0.4795 -0.6960  1.9718
  227MPD1    H2 3451   1.836   4.391   9.163  1.4861 -1.2857  0.3178
  227MPD1    H3 3452   1.721   4.600   9.161 -0.4966 -1.9286 -0.1706
  227MPD1     N 3453   2.079   0.095   9.345 -0.4265  0.1436  0.1498
  227MPD1    H5 3454   2.173   0.070   9.373 -0.8548 -3.2521 -1.5197
  227MPD1    N1 3455   2.106   4.358   9.211 -0.4481 -0.1949 -0.1449
  227MPD1    H6 3456   2.181   4.359   9.280 -1.0767 -3.3811  0.5983
  227MPD1    H7 3457   2.051   4.273   9.221 -1.2193  0.3590  0.3030
  228MPD1     C 3458   4.480   2.965  13.202  0.0480 -0.4369 -0.2428
  228MPD1    C1 3459   4.352   3.012  13.185 -0.1180 -0.5966  1.1292
  228MPD1    C2 3460   4.249   2.915  13.173  0.5715 -0.5191 -0.3715
  228MPD1    C3 3461   4.275   2.783  13.200 -0.4468  0.0951  0.6257
  228MPD1    C4 3462   4.403   2.739  13.234 -0.2864 -0.4209  0.6742
  228MPD1    C5 3463   4.506   2.830  13.226 -0.4493  0.0690 -0.2638
  228MPD1     H 3464   4.147   2.949  13.163  0.4928 -0.8402 -0.6689
  228MPD1    H1 3465   4.437   2.639  13.259 -0.7647  0.0209  3.1052
  228MPD1    H2 3466   4.571   3.024  13.196 -0.3642  0.1809 -0.4221
  228MPD1    H3 3467   4.610   2.800  13.235 -0.9376 -1.6147 -0.2703
  228MPD1     N 3468   4.157   2.704  13.209  0.1356  0.1161 -0.0333
  228MPD1    H5 3469   4.071   2.746  13.178  0.0374 -0.9220 -1.1582
  228MPD1    N1 3470   4.329   3.150  13.156 -0.1987  0.3670  0.4067
  228MPD1    H6 3471   4.231   3.175  13.170 -0.4100  1.9198 -3.8091
  228MPD1    H7 3472   4.380   3.210  13.221 -0.7493  1.2213  0.0629
  229MPD1     C 3473   4.074   1.626  14.327 -0.6489  0.0185 -0.5215
  229MPD1    C1 3474   4.084   1.704  14.443 -0.3737  0.4948 -0.6929
  229MPD1    C2 3475   4.199   1.684  14.521 -0.1040  0.3886  0.1834
  229MPD1    C3 3476   4.281   1.576  14.494 -0.4427 -0.1724 -0.1492
  229MPD1    C4 3477   4.260   1.499  14.389  0.2859 -0.3717 -0.1577
  229MPD1    C5 3478   4.154   1.521  14.304 -0.6905  0.3898 -0.0638
  229MPD1     H 3479   4.211   1.738  14.614 -0.4457  0.3274  0.2647
  229MPD1    H1 3480   4.327   1.417  14.369 -0.1819 -0.4448 -1.4240
  229MPD1    H2 3481   3.997   1.643  14.253 -1.5064  5.6785  1.6878
  229MPD1    H3 3482   4.143   1.461  14.215  2.2086 -1.7154  0.9949
  229MPD1     N 3483   4.394   1.545  14.568  0.5449 -0.1347  0.1493
  229MPD1    H5 3484   4.452   1.468  14.535  1.2646 -0.1245  1.3771
  229MPD1    N1 3485   3.990   1.805  14.468  0.3920 -0.4603 -0.1150
  229MPD1    H6 3486   3.904   1.775  14.423  0.0300  2.3499 -1.3342
  229MPD1    H7 3487   3.982   1.821  14.568 -0.7775 -2.0156  0.0379
  230MPD1     C 3488   0.154   1.502  15.535  0.1991 -0.8938  0.0590
  230MPD1    C1 3489   0.219   1.407  15.461  0.0073 -0.7048 -0.4736
  230MPD1    C2 3490   0.184   1.396  15.328  1.0309  0.3003  0.4823
  230MPD1    C3 3491   0.093   1.478  15.269 -0.1127  0.7159 -0.0135
  230MPD1    C4 3492   0.034   1.572  15.346 -0.1886 -0.7990 -0.1446
  230MPD1    C5 3493   0.064   1.585  15.478 -0.5126  0.5254  0.9120
  230MPD1     H 3494   0.239   1.323  15.269 -0.0271  0.7905 -1.1087
  230MPD1    H1 3495   4.675   1.632  15.307 -0.0735 -2.2325 -2.6013
  230MPD1    H2 3496   0.155   1.511  15.643  0.7889 -2.1084  0.1524
  230MPD1    H3 3497   0.010   1.652  15.543  0.3096  1.3926  0.7000
  230MPD1     N 3498   0.052   1.456  15.131  0.1488  0.0581 -0.2515
  230MPD1    H5 3499   0.075   1.365  15.091  1.7881  0.5888 -0.4810
  230MPD1    N1 3500   0.287   1.305  15.518 -0.5412 -0.4214 -0.1691
  230MPD1    H6 3501   0.362   1.270  15.458 -0.0131 -0.1729  0.3422
  230MPD1    H7 3502   0.328   1.342  15.604  0.5830  0.6773 -1.1693
  231MPD1     C 3503   2.418   2.989  15.660 -0.2550 -0.1174  0.1050
  231MPD1    C1 3504   2.558   2.998  15.682  0.2372 -0.3578  1.3105
  231MPD1    C2 3505   2.644   3.000  15.568 -0.2387  0.4199 -0.1306
  231MPD1    C3 3506   2.598   2.984  15.440 -0.4194  0.2530 -0.5397
  231MPD1    C4 3507   2.459   2.961  15.423  0.3258 -0.1321 -0.0755
  231MPD1    C5 3508   2.381   2.978  15.531  0.4827 -0.1356  0.4082
  231MPD1     H 3509   2.748   3.027  15.585  0.8063 -1.3588 -3.7105
  231MPD1    H1 3510   2.419   2.949  15.322 -0.1959  2.3465 -0.1543
  231MPD1    H2 3511   2.342   2.994  15.737  1.1079 -0.8614  1.5318
  231MPD1    H3 3512   2.277   2.951  15.517  0.0257  2.2192 -0.6585
  231MPD1     N 3513   2.696   3.003  15.340 -0.3511 -0.1260  0.1689
  231MPD1    H5 3514   2.786   3.035  15.375 -0.6027 -0.0862  0.7805
  231MPD1    N1 3515   2.606   3.033  15.808  0.5546  1.1319 -0.0762
  231MPD1    H6 3516   2.553   2.992  15.885  2.1353  0.9704  0.9206
  231MPD1    H7 3517   2.705   3.033  15.832  1.1774  0.1210 -2.6047
  232MPD1     C 3518   4.501   1.930   1.451 -0.9088 -0.2523  0.7868
  232MPD1    C1 3519   4.409   1.977   1.358 -0.2590  0.6142  0.2751
  232MPD1    C2 3520   4.426   1.959   1.225  0.4958 -0.8450  0.0899
  232MPD1    C3 3521   4.540   1.899   1.183 -0.3222  0.2965 -0.3089
  232MPD1    C4 3522   4.636   1.861   1.270 -0.1420  0.1412  0.5038
  232MPD1    C5 3523   4.616   1.876   1.409 -0.6278  0.6468 -0.4323
  232MPD1     H 3524   4.354   1.998   1.154  0.3223  1.6987  1.6641
  232MPD1    H1 3525   0.015   1.839   1.239 -0.9580  0.3378 -2.3521
  232MPD1    H2 3526   4.492   1.949   1.557 -1.1242  1.1029  0.5294
  232MPD1    H3 3527   4.692   1.840   1.478  1.4891  3.7389 -1.1614
  232MPD1     N 3528   4.557   1.883   1.049 -0.7317 -0.6764 -0.4311
  232MPD1    H5 3529   4.492   1.930   0.987 -0.2689  3.0688  1.9009
  232MPD1    N1 3530   4.286   2.028   1.404  0.2944  0.6459 -0.2768
  232MPD1    H6 3531   4.224   2.059   1.329 -0.0525 -0.9318 -0.6421
  232MPD1    H7 3532   4.302   2.098   1.476 -1.4654  0.1851  0.5681
  233MPD1     C 3533   1.215   3.574   1.830  0.1190 -0.1526  0.2239
  233MPD1    C1 3534   1.345   3.594   1.865 -0.6066 -0.8235  0.2066
  233MPD1    C2 3535   1.433   3.617   1.765 -0.1683 -0.1016  0.3447
  233MPD1    C3 3536   1.395   3.608   1.631 -0.2672 -1.2224  0.2237
  233MPD1    C4 3537   1.256   3.597   1.603 -0.1523 -0.4628 -0.1187
  233MPD1    C5 3538   1.161   3.584   1.702  0.4927 -0.2217  0.3555
  233MPD1     H 3539   1.537   3.641   1.784 -0.6291  2.9132 -0.9187
  233MPD1    H1 3540   1.218   3.603   1.501 -1.3433 -0.4126  0.3245
  233MPD1    H2 3541   1.139   3.566   1.907 -1.0388 -2.1264 -1.1135
  233MPD1    H3 3542   1.060   3.562   1.671  1.3064 -0.5984 -2.0383
  233MPD1     N 3543   1.476   3.635   1.519  0.0838  0.3614  0.1544
  233MPD1    H5 3544   1.427   3.633   1.430  5.0796  0.5145 -2.5543
  233MPD1    N1 3545   1.392   3.590   1.996  0.6960  0.1838  0.8689
  233MPD1    H6 3546   1.474   3.648   2.011 -0.9511  2.9666 -0.8565
  233MPD1    H7 3547   1.324   3.610   2.069 -0.8164 -1.1618 -0.1784
  234MPD1     C 3548   3.441   2.447   9.281 -0.0141 -0.0887  1.2321
  234MPD1    C1 3549   3.377   2.479   9.165  0.2025  0.2768  0.5518
  234MPD1    C2 3550   3.301   2.602   9.158  0.9629 -0.3562 -0.2048
  234MPD1    C3 3551   3.289   2.677   9.276  0.4389 -0.7305 -0.5584
  234MPD1    C4 3552   3.357   2.639   9.391  0.2858 -0.2783 -0.1111
  234MPD1    C5 3553   3.423   2.521   9.395 -0.1695  0.1179 -0.2951
  234MPD1     H 3554   3.236   2.629   9.075  1.8485  0.2547 -0.6976
  234MPD1    H1 3555   3.342   2.698   9.481 -0.3202 -0.6195  0.0142
  234MPD1    H2 3556   3.515   2.371   9.301 -1.2373 -2.5401 -3.5370
  234MPD1    H3 3557   3.473   2.482   9.483  0.8612 -1.0026 -1.3791
  234MPD1     N 3558   3.203   2.789   9.273  0.8398 -0.3771  0.9037
  234MPD1    H5 3559   3.148   2.804   9.190  0.6638 -2.0717  0.7157
  234MPD1    N1 3560   3.383   2.388   9.057 -0.5533  0.2699  0.2805
  234MPD1    H6 3561   3.297   2.376   9.003 -1.1518 -0.8392  1.5062
  234MPD1    H7 3562   3.415   2.297   9.088 -1.5325  0.0472  0.6340
  235MPD1     C 3563   4.428   0.671  11.144  0.9323 -0.1664 -0.2522
  235MPD1    C1 3564   4.523   0.768  11.119  0.6660  0.1367  0.2022
  235MPD1    C2 3565   4.570   0.790  10.995  0.1261  0.1102 -0.5297
  235MPD1    C3 3566   4.529   0.710  10.887  0.2228  0.1190  0.1439
  235MPD1    C4 3567   4.452   0.603  10.911 -0.9285  0.1119 -0.7936
  235MPD1    C5 3568   4.404   0.586  11.038 -0.2311  0.0842 -0.3400
  235MPD1     H 3569   4.646   0.866  10.979  0.2892  0.2455  0.8987
  235MPD1    H1 3570   4.420   0.523  10.844 -0.4371 -0.9124  0.2024
  235MPD1    H2 3571   4.373   0.667  11.237 -0.3469  0.6162 -0.9702
  235MPD1    H3 3572   4.323   0.515  11.048  1.2280 -1.6508 -0.8502
  235MPD1     N 3573   4.588   0.728  10.761  0.7342  0.0933  0.3674
  235MPD1    H5 3574   4.669   0.789  10.753 -0.0579  1.1106  0.0989
  235MPD1    N1 3575   4.566   0.861  11.219  0.5343 -0.2987 -0.6242
  235MPD1    H6 3576   4.549   0.818  11.310 -2.1415 -0.0714 -1.0296
  235MPD1    H7 3577   4.660   0.900  11.215  0.1124  0.8579  0.6622
  236MPD1     C 3578   3.720   1.798   9.978 -0.2468  0.6479 -0.0283
  236MPD1    C1 3579   3.748   1.684   9.911 -0.1336 -0.3864  0.2112
  236MPD1    C2 3580   3.819   1.585   9.979 -0.3210  0.1861 -0.1015
  236MPD1    C3 3581   3.862   1.609  10.111  0.0647  0.1967 -1.2879
  236MPD1    C4 3582   3.844   1.735  10.168  0.3078 -0.2913  0.3965
  236MPD1    C5 3583   3.767   1.824  10.100  0.0969 -0.1917  0.8113
  236MPD1     H 3584   3.826   1.489   9.930 -1.5438  0.0114  0.0699
  236MPD1    H1 3585   3.889   1.760  10.263  0.8983  1.2028 -0.2727
  236MPD1    H2 3586   3.660   1.874   9.929  0.9313  2.1176  0.8129
  236MPD1    H3 3587   3.744   1.921  10.142  1.0067  0.4879 -0.2489
  236MPD1     N 3588   3.932   1.519  10.192 -0.3047  0.0493 -0.5499
  236MPD1    H5 3589   3.981   1.558  10.272 -0.8123 -0.7175  0.1480
  236MPD1    N1 3590   3.680   1.644   9.799  0.0675  0.0087  0.5264
  236MPD1    H6 3591   3.660   1.735   9.758 -0.6053 -0.4888 -0.2550
  236MPD1    H7 3592   3.731   1.584   9.733  1.3100 -0.1255  1.6161
  237MPD1     C 3593   3.467   0.414  15.472  0.2548 -0.1666  0.2476
  237MPD1    C1 3594   3.508   0.384  15.598  0.3098 -0.1534 -0.1692
  237MPD1    C2 3595   3.505   0.249  15.628  0.1796 -0.9624  0.1879
  237MPD1    C3 3596   3.463   0.150  15.528  0.1823 -0.4051 -0.6575
  237MPD1    C4 3597   3.427   0.197  15.401 -1.0183 -0.1784  0.1704
  237MPD1    C5 3598   3.442   0.330  15.375 -0.1649  0.1629 -0.2063
  237MPD1     H 3599   3.533   0.212  15.726 -1.1736 -2.6074 -0.0357
  237MPD1    H1 3600   3.388   0.133  15.323 -1.3924  1.7369 -1.2083
  237MPD1    H2 3601   3.471   0.518  15.441 -0.0937 -0.9957 -2.5779
  237MPD1    H3 3602   3.425   0.368  15.275  0.8776  0.9765 -0.0786
  237MPD1     N 3603   3.435   0.011  15.549 -0.2325 -0.7302 -0.1472
  237MPD1    H5 3604   3.399   4.679  15.471 -0.2899 -0.7101 -0.1349
  237MPD1    N1 3605   3.544   0.480  15.691  0.1475  0.2660 -0.2107
  237MPD1    H6 3606   3.605   0.548  15.647 -1.3904  0.7451 -1.6038
  237MPD1    H7 3607   3.588   0.445  15.776  0.4374  2.9625  0.7571
  238MPD1     C 3608   0.358   2.816  15.815  0.1118 -0.3809  1.1546
  238MPD1    C1 3609   0.229   2.781  15.852  0.2087 -0.5965  0.4630
  238MPD1    C2 3610   0.128   2.798  15.755 -0.4341  0.0686 -0.8551
  238MPD1    C3 3611   0.154   2.846  15.633 -0.6324 -0.2619 -0.4077
  238MPD1    C4 3612   0.280   2.886  15.603 -0.2319  0.1022  0.1139
  238MPD1    C5 3613   0.378   2.875  15.695  0.2052 -0.0851  0.1013
  238MPD1     H 3614   0.028   2.787  15.796 -1.3257  0.2486 -2.9823
  238MPD1    H1 3615   0.303   2.930  15.507  0.6709 -0.5051  0.0462
  238MPD1    H2 3616   0.444   2.810  15.880  0.9852  0.5744  0.0905
  238MPD1    H3 3617   0.476   2.906  15.657 -0.6899  0.7473 -1.5515
  238MPD1     N 3618   0.053   2.874  15.538 -0.2785 -0.2068 -0.2259
  238MPD1    H5 3619   0.090   2.914  15.452 -0.5551 -0.4073 -0.4385
  238MPD1    N1 3620   0.194   2.768  15.985  0.0500 -0.0249  0.4174
  238MPD1    H6 3621   0.198   2.859  16.032  0.1292  0.0168  0.3306
  238MPD1    H7 3622   0.097   2.739  15.992 -0.3850  0.4340 -3.5683
  239MPD1     C 3623   0.360   3.460  14.479  0.4684 -0.1980  0.0929
  239MPD1    C1 3624   0.484   3.518  14.485 -0.4311  0.1439 -0.0713
  239MPD1    C2 3625   0.492   3.654  14.489  0.0474 -0.7343  0.7032
  239MPD1    C3 3626   0.377   3.735  14.502 -0.6098 -0.4145 -0.0509
  239MPD1    C4 3627   0.256   3.667  14.499 -0.6184 -0.3172  0.3858
  239MPD1    C5 3628   0.246   3.532  14.485  0.1320 -0.5044  0.5321
  239MPD1     H 3629   0.592   3.695  14.489 -0.5604  0.7772 -1.0845
  239MPD1    H1 3630   0.164   3.725  14.497 -0.7879 -0.6677 -2.1949
  239MPD1    H2 3631   0.352   3.352  14.471  1.0310 -0.2719  0.5346
  239MPD1    H3 3632   0.153   3.483  14.459 -0.1294 -0.4058  1.2932
  239MPD1     N 3633   0.375   3.877  14.489  0.0675  0.2009 -1.0505
  239MPD1    H5 3634   0.280   3.912  14.492  0.4670  1.1320  0.4804
  239MPD1    N1 3635   0.599   3.434  14.498 -0.5808 -0.2558  0.1708
  239MPD1    H6 3636   0.603   3.356  14.433  0.6464  0.4437 -0.5831
  239MPD1    H7 3637   0.684   3.490  14.496  0.4259 -1.7980  0.0459
  240MPD1     C 3638   0.133   3.378  13.990  0.3328 -0.3122  0.2684
  240MPD1    C1 3639   0.005   3.341  13.953 -0.4703 -0.3274  0.2361
  240MPD1    C2 3640   4.636   3.327  14.055 -0.0765  0.1702 -0.6141
  240MPD1    C3 3641   4.676   3.321  14.187 -0.1809 -0.3222  0.0951
  240MPD1    C4 3642   0.086   3.344  14.217  0.1474 -0.4403 -0.2177
  240MPD1    C5 3643   0.176   3.358  14.119  0.4174  0.4265 -0.2257
  240MPD1     H 3644   4.533   3.294  14.055  0.6670 -2.0752  0.7616
  240MPD1    H1 3645   0.131   3.335  14.315  0.6027  0.0032 -0.3879
  240MPD1    H2 3646   0.197   3.407  13.908 -1.4117 -1.3624 -1.4734
  240MPD1    H3 3647   0.278   3.379  14.148  0.1963 -1.8692  2.2233
  240MPD1     N 3648   4.579   3.278  14.290  0.1974  0.2088  0.2744
  240MPD1    H5 3649   4.481   3.283  14.266 -0.1871 -0.8743  1.5969
  240MPD1    N1 3650   4.689   3.369  13.819 -0.0239 -0.0688  0.3362
  240MPD1    H6 3651   4.599   3.324  13.801  0.6103 -0.6353 -1.3534
  240MPD1    H7 3652   0.032   3.349  13.744 -0.7537  1.5780 -0.7173
  241MPD1     C 3653   4.304   3.200  15.357 -0.6261  0.0967  0.2758
  241MPD1    C1 3654   4.425   3.231  15.300 -0.2291  0.1925  0.1886
  241MPD1    C2 3655   4.429   3.253  15.163  0.4155 -0.6623 -0.6046
  241MPD1    C3 3656   4.319   3.233  15.082  0.2455  0.7979 -0.1027
  241MPD1    C4 3657   4.208   3.183  15.141  0.0058 -0.0052 -0.2079
  241MPD1    C5 3658   4.197   3.176  15.276  0.3339  0.0547 -0.5244
  241MPD1     H 3659   4.524   3.287  15.123 -0.1621 -0.4082 -1.7701
  241MPD1    H1 3660   4.120   3.165  15.080 -0.7298  1.1396  0.5109
  241MPD1    H2 3661   4.283   3.199  15.463 -0.1741 -0.6485  0.3660
  241MPD1    H3 3662   4.099   3.146  15.311  0.2803  0.7472 -0.0822
  241MPD1     N 3663   4.330   3.245  14.940 -0.2490  0.0424 -0.1344
  241MPD1    H5 3664   4.248   3.213  14.889  0.0109  0.0019 -0.5296
  241MPD1    N1 3665   4.534   3.275  15.384  0.2093 -0.1276  0.4988
  241MPD1    H6 3666   4.544   3.237  15.479  1.7651 -0.5764  0.1458
  241MPD1    H7 3667   4.624   3.271  15.338  0.5809 -2.9254  1.4179
  242MPD1     C 3668   4.010   1.317  16.132  0.6034 -0.1105  0.9306
  242MPD1    C1 3669   3.991   1.258  16.008 -0.1367 -0.0405  0.5710
  242MPD1    C2 3670   4.016   1.331  15.894 -0.1144 -0.2751  0.0505
  242MPD1    C3 3671   4.093   1.447  15.904 -0.1141  0.4824 -0.1313
  242MPD1    C4 3672   4.118   1.496  16.031 -0.2365  0.1398 -0.1375
  242MPD1    C5 3673   4.075   1.439  16.146  0.9808  0.1337 -0.6348
  242MPD1     H 3674   3.978   1.302  15.796 -0.5276 -2.7968  0.9661
  242MPD1    H1 3675   4.180   1.585  16.039 -1.1569  0.8024 -0.4432
  242MPD1    H2 3676   3.983   1.265  16.223  0.6712 -1.3527  0.2412
  242MPD1    H3 3677   4.098   1.481  16.243  2.1020 -1.9223  0.0030
  242MPD1     N 3678   4.133   1.523  15.796  0.8561  0.0694  0.2075
  242MPD1    H5 3679   4.162   1.618  15.817  1.7108  0.2288 -1.6827
  242MPD1    N1 3680   3.927   1.134  15.997  0.2995 -0.2802  0.0108
  242MPD1    H6 3681   3.936   1.094  15.904  1.2355 -2.9461  1.2338
  242MPD1    H7 3682   3.969   1.067  16.061 -0.4430 -2.3884 -1.7283
  243MPD1     C 3683   0.445   0.356  17.570 -0.2322  0.0709  0.0688
  243MPD1    C1 3684   0.561   0.415  17.521 -0.2388 -0.0820 -0.1747
  243MPD1    C2 3685   0.633   0.344  17.420  0.3293  0.3456 -0.1948
  243MPD1    C3 3686   0.591   0.220  17.373 -0.5335  0.2815 -0.1613
  243MPD1    C4 3687   0.472   0.174  17.420  0.4400 -0.4678  0.3216
  243MPD1    C5 3688   0.402   0.241  17.513  0.2435  0.6959  0.4363
  243MPD1     H 3689   0.726   0.378  17.378 -0.6438  0.3731 -2.2982
  243MPD1    H1 3690   0.419   0.085  17.387  0.5618 -0.6717  0.6786
  243MPD1    H2 3691   0.394   0.399  17.655 -0.1961  0.5755 -0.1675
  243MPD1    H3 3692   0.315   0.193  17.555  1.2452 -1.1141  0.4384
  243MPD1     N 3693   0.663   0.158  17.272 -0.3636  0.4995 -0.0275
  243MPD1    H5 3694   0.744   0.212  17.242  0.5108 -0.9130 -0.2312
  243MPD1    N1 3695   0.614   0.524  17.583 -0.0276 -0.1220  0.2878
  243MPD1    H6 3696   0.682   0.577  17.529  0.7197 -0.8742  0.4995
  243MPD1    H7 3697   0.552   0.597  17.619  0.3647  0.8508 -1.0167
  244MPD1     C 3698   0.628   3.932  16.926  0.1729 -0.0052  0.4805
  244MPD1    C1 3699   0.558   3.996  17.023  0.0708  0.1739  0.2468
  244MPD1    C2 3700   0.600   4.125  17.056  0.1304 -0.6609  0.8746
  244MPD1    C3 3701   0.706   4.190  16.994 -0.0997 -0.5932 -0.1013
  244MPD1    C4 3702   0.778   4.117  16.901  0.1911 -0.4813 -0.3655
  244MPD1    C5 3703   0.737   3.990  16.868  0.2079 -0.3375 -0.3994
  244MPD1     H 3704   0.540   4.194  17.115 -1.7423  1.5994 -3.7393
  244MPD1    H1 3705   0.873   4.149  16.861 -0.1025  0.3990 -0.3606
  244MPD1    H2 3706   0.587   3.836  16.895  0.8135 -0.0640 -0.1977
  244MPD1    H3 3707   0.800   3.940  16.794 -1.7411 -1.3550 -1.3564
  244MPD1     N 3708   0.737   4.320  17.037 -0.1371 -0.0105 -0.0969
  244MPD1    H5 3709   0.678   4.368  17.104  0.8936  0.8237  0.2036
  244MPD1    N1 3710   0.419   3.980  17.047 -0.0779 -0.4114 -0.1376
  244MPD1    H6 3711   0.390   4.023  17.134 -0.9152  0.7971 -1.0158
  244MPD1    H7 3712   0.393   3.881  17.047  2.3658 -1.0490  1.3280
  245MPD1     C 3713   2.683   0.764  12.999 -0.3868 -0.9455 -0.1677
  245MPD1    C1 3714   2.634   0.743  13.123 -0.3263  0.1576  0.4388
  245MPD1    C2 3715   2.627   0.849  13.211  0.4646  0.2788  0.6816
  245MPD1    C3 3716   2.648   0.983  13.175 -0.1011  0.7478  0.3305
  245MPD1    C4 3717   2.694   1.003  13.047 -0.1631 -0.1053  0.2454
  245MPD1    C5 3718   2.721   0.895  12.966  0.3495 -0.6249 -0.2362
  245MPD1     H 3719   2.582   0.834  13.308  0.2199  1.6156  0.7799
  245MPD1    H1 3720   2.729   1.098  13.008 -1.1804  0.7149  1.3174
  245MPD1    H2 3721   2.709   0.684  12.931 -0.7353 -0.1667 -1.2096
  245MPD1    H3 3722   2.763   0.906  12.867  0.7505  1.1938  0.1305
  245MPD1     N 3723   2.619   1.091  13.264 -0.6500 -0.1414 -0.1758
  245MPD1    H5 3724   2.575   1.069  13.353 -2.3566 -1.2471 -1.3056
  245MPD1    N1 3725   2.618   0.607  13.170 -0.6590  0.1106  0.5887
  245MPD1    H6 3726   2.587   0.544  13.095 -0.9921 -0.4031  1.1570
  245MPD1    H7 3727   2.534   0.612  13.228 -1.0178 -1.8731  0.2337
  246MPD1     C 3728   4.006   3.256   9.784  0.0890 -0.0439  0.0134
  246MPD1    C1 3729   3.959   3.281   9.660 -1.0131  0.2748  0.0557
  246MPD1    C2 3730   4.000   3.201   9.553  0.5996  0.3386  0.1068
  246MPD1    C3 3731   4.077   3.088   9.577 -0.4317 -0.6286 -0.3507
  246MPD1    C4 3732   4.116   3.065   9.706  0.4604  0.0131 -0.0746
  246MPD1    C5 3733   4.090   3.152   9.804  0.1350 -0.2958  0.2340
  246MPD1     H 3734   3.981   3.243   9.455  1.9575  0.5353 -0.0730
  246MPD1    H1 3735   4.188   2.989   9.735  2.6284  1.3042 -2.0549
  246MPD1    H2 3736   3.971   3.309   9.872  1.6087  0.5247  0.2769
  246MPD1    H3 3737   4.118   3.142   9.908  1.9881  1.4368 -0.1104
  246MPD1     N 3738   4.143   3.020   9.468 -0.2728 -0.3854  0.0465
  246MPD1    H5 3739   4.129   3.045   9.371 -0.2516 -1.6994 -0.3004
  246MPD1    N1 3740   3.884   3.396   9.638  0.1655 -0.3512 -0.1308
  246MPD1    H6 3741   3.824   3.392   9.556 -0.4803  0.3363  0.3157
  246MPD1    H7 3742   3.830   3.429   9.718  2.6078 -1.9639  2.1765
  247MPD1     C 3743   2.673   2.171  16.278 -0.1837 -0.3855  0.0448
  247MPD1    C1 3744   2.735   2.108  16.167 -0.4104  0.0017 -0.5113
  247MPD1    C2 3745   2.683   1.985  16.125 -0.1866 -0.4533  0.6740
  247MPD1    C3 3746   2.576   1.925  16.188 -1.4692 -0.3251  0.2783
  247MPD1    C4 3747   2.514   1.990  16.292 -0.1884 -0.0204 -0.4327
  247MPD1    C5 3748   2.566   2.112  16.337 -0.4332  0.0025  0.3309
  247MPD1     H 3749   2.740   1.933  16.048 -2.5576 -2.5473  0.3464
  247MPD1    H1 3750   2.428   1.943  16.339  0.8212  1.2174  2.6787
  247MPD1    H2 3751   2.709   2.264  16.321  0.0748 -0.9116  0.9651
  247MPD1    H3 3752   2.508   2.165  16.412  0.3880  1.3854 -0.0398
  247MPD1     N 3753   2.530   1.792  16.167 -0.3280 -0.1565 -0.2942
  247MPD1    H5 3754   2.480   1.748  16.244  1.4770  0.2336  1.0835
  247MPD1    N1 3755   2.859   2.148  16.113 -0.3741 -0.2362 -0.6142
  247MPD1    H6 3756   2.864   2.149  16.011  1.1025 -0.8829 -0.5523
  247MPD1    H7 3757   2.897   2.235  16.149  1.2747 -1.6516  1.0617
  248MPD1     C 3758   3.314   0.821   0.321 -0.2820  0.1414 -0.6490
  248MPD1    C1 3759   3.267   0.716   0.400 -0.3403  0.0727 -0.7729
  248MPD1    C2 3760   3.136   0.703   0.430  0.3431  0.2268 -0.0023
  248MPD1    C3 3761   3.045   0.809   0.414  0.1911  0.6081 -0.2496
  248MPD1    C4 3762   3.095   0.924   0.356 -0.0313  0.7144 -0.0245
  248MPD1    C5 3763   3.223   0.925   0.308 -0.0864  0.1653 -0.7820
  248MPD1     H 3764   3.104   0.609   0.473 -0.6956  0.9616  0.8586
  248MPD1    H1 3765   3.033   1.008   0.329 -1.3885 -0.0846  0.6398
  248MPD1    H2 3766   3.414   0.827   0.279  1.1288 -0.0825  2.7057
  248MPD1    H3 3767   3.241   1.004   0.237 -2.1277  0.2105 -1.2419
  248MPD1     N 3768   2.914   0.784   0.452  0.2283  0.2750 -0.1320
  248MPD1    H5 3769   2.885   0.702   0.505  0.0509  1.1257  1.0947
  248MPD1    N1 3770   3.354   0.603   0.399  0.1405 -0.1329  0.5127
  248MPD1    H6 3771   3.333   0.547   0.482  1.0312 -0.5246  0.4715
  248MPD1    H7 3772   3.454   0.621   0.398  0.0174  0.4298 -0.9248
  249MPD1     C 3773   4.291   3.865  10.485 -0.1735 -0.6128 -0.1132
  249MPD1    C1 3774   4.269   3.843  10.346 -0.3601  0.5973 -0.0729
  249MPD1    C2 3775   4.289   3.949  10.263 -0.0510 -0.2201  0.4384
  249MPD1    C3 3776   4.355   4.062  10.301  0.1698  0.5416  0.2327
  249MPD1    C4 3777   4.380   4.079  10.432  0.2395 -0.2933  0.8670
  249MPD1    C5 3778   4.343   3.983  10.527 -0.2470 -0.9536  0.4511
  249MPD1     H 3779   4.268   3.938  10.157 -1.0764 -1.4717  0.7697
  249MPD1    H1 3780   4.433   4.168  10.464  0.4678 -0.3337  0.6050
  249MPD1    H2 3781   4.263   3.793  10.562  0.1763  1.2492  1.7502
  249MPD1    H3 3782   4.357   4.003  10.633 -1.2498  1.0083  0.2213
  249MPD1     N 3783   4.417   4.139  10.199 -1.0448 -0.6020  0.0963
  249MPD1    H5 3784   4.391   4.112  10.104 -2.1659 -2.2600  0.8754
  249MPD1    N1 3785   4.192   3.736  10.297  0.0934 -1.2235 -0.7812
  249MPD1    H6 3786   4.202   3.650  10.350 -0.6730 -0.1695  1.0919
  249MPD1    H7 3787   4.218   3.706  10.203  2.4173  2.3524 -1.3137
  250MPD2     C 3788   1.386   4.343  12.788  0.5857  1.0797  0.9034
  250MPD2    C1 3789   1.289   4.432  12.827 -0.2001 -0.0652 -0.7690
  250MPD2    C2 3790   1.151   4.394  12.839  1.2131  0.2376  0.0894
  250MPD2    C3 3791   1.117   4.267  12.807  1.2730  0.0937 -0.1246
  250MPD2    C4 3792   1.219   4.179  12.769 -0.3269  0.0243 -0.7875
  250MPD2    C5 3793   1.350   4.213  12.763 -0.7221  0.0823 -0.6688
  250MPD2     H 3794   1.077   4.465  12.874 -0.1293 -0.7831 -0.6951
  250MPD2    H1 3795   1.189   4.083  12.729  0.6189 -0.7919  0.4561
  250MPD2    H2 3796   1.490   4.369  12.777  0.7286 -0.7533 -1.8950
  250MPD2    H3 3797   1.421   4.144  12.718  0.7597  1.7301 -0.8728
  250MPD2     N 3798   0.981   4.226  12.802 -0.1116  0.4822 -0.2582
  250MPD2    H5 3799   0.962   4.129  12.778  0.6825 -0.6280  3.5588
  250MPD2    N1 3800   1.330   4.567  12.850  0.3204 -0.5787  0.0315
  250MPD2    H7 3801   1.428   4.593  12.837  1.3460 -4.4447  0.0795
  251TMC3    C1 3802   1.319   0.075  12.887 -0.8095  0.2120 -0.3689
  251TMC3    C2 3803   1.296   0.162  12.988 -0.3681  0.1753 -0.1026
  251TMC3    C3 3804   1.361   0.275  12.998 -0.1178 -0.1153 -0.2345
  251TMC3    C4 3805   1.412   0.101  12.795  0.2797  0.7778  0.7154
  251TMC3    C5 3806   1.496   0.209  12.821  0.0324 -0.4655 -0.5403
  251TMC3    C6 3807   1.465   0.300  12.918  0.6038  0.2469 -0.4176
  251TMC3     C 3808   1.247   4.669  12.893  0.5369  0.5490 -0.1175
  251TMC3     O 3809   1.144   4.669  12.957  0.7314 -0.2950 -0.0244
  251TMC3     H 3810   1.217   0.142  13.059  0.8405  3.7279  2.1916
  251TMC3    H1 3811   1.423   0.036  12.709  0.4061 -1.3495  2.3434
  251TMC3    H2 3812   1.521   0.391  12.937 -0.4749  0.6828  0.7117
  251TMC3    C7 3813   1.600   0.239  12.727  0.3359 -0.6272 -0.5151
  251TMC3    C8 3814   1.304   0.366  13.099  0.0695 -0.3904  0.2197
  251TMC3    O1 3815   1.665   0.140  12.689 -0.3385 -0.6780  0.6889
  251TMC3    O2 3816   1.281   0.324  13.210  0.5453 -0.2843  0.3501
  252TMC3    C1 3817   1.943   4.457   9.604  0.0845 -0.6415  0.4751
  252TMC3    C2 3818   2.068   4.504   9.632  0.7968 -0.2466  0.4929
  252TMC3    C3 3819   2.087   4.634   9.661  0.1612 -0.4822 -0.7112
  252TMC3    C4 3820   1.841   4.549   9.587  0.0951  0.6044  0.5146
  252TMC3    C5 3821   1.862   4.685   9.609  0.2625  0.2795 -0.5591
  252TMC3    C6 3822   1.985   0.002   9.643  0.3566  0.0862  0.7000
  252TMC3     C 3823   1.922   4.318   9.566  0.8291 -0.3666 -0.2544
  252TMC3     O 3824   1.813   4.273   9.589  0.2914 -0.1755  0.2027
  252TMC3     H 3825   2.150   4.435   9.648  1.4428  0.7253  1.4199
  252TMC3    H1 3826   1.743   4.508   9.566  0.0664 -0.7493  3.1942
  252TMC3    H2 3827   1.997   0.109   9.656 -0.5833  0.2230  0.4709
  252TMC3    C7 3828   1.752   0.049   9.643  0.0010  0.0241  0.5243
  252TMC3    C8 3829   2.209   4.679   9.711 -0.2367  0.3104 -0.1855
  252TMC3    O1 3830   1.772   0.162   9.674 -0.4259  0.1305 -1.0221
  252TMC3    O2 3831   2.304   4.602   9.711  0.9250  0.2551 -0.3581
  253MPD2     C 3832   2.550   4.246  15.429  0.6505  0.9680 -0.1754
  253MPD2    C1 3833   2.410   4.244  15.418 -0.0802 -0.0747  0.0115
  253MPD2    C2 3834   2.333   4.302  15.515  0.0411 -0.0492 -0.2793
  253MPD2    C3 3835   2.390   4.362  15.625  0.5388  0.6734 -0.1504
  253MPD2    C4 3836   2.526   4.372  15.631 -0.4915  0.5538 -0.1901
  253MPD2    C5 3837   2.610   4.321  15.527 -0.0456  0.0257  0.2512
  253MPD2     H 3838   2.228   4.305  15.491 -0.3186  2.0401  1.5840
  253MPD2    H1 3839   2.575   4.432  15.707  0.1408  0.5664 -0.6093
  253MPD2    H2 3840   2.609   4.198  15.352 -2.2916 -0.3102 -1.6307
  253MPD2    H3 3841   2.717   4.336  15.516  0.2249 -3.4236 -1.9373
  253MPD2     N 3842   2.314   4.418  15.729  0.5225 -0.4944 -0.0165
  253MPD2    H5 3843   2.376   4.461  15.797 -1.3971  1.0713  0.7612
  253MPD2    N1 3844   2.345   4.184  15.309  0.2197  0.2234  0.0169
  253MPD2    H7 3845   2.244   4.181  15.315  0.2695  0.1073  0.7370
  254TMC3    C1 3846   2.145   4.485  15.865  0.2355  0.0981  0.3002
  254TMC3    C2 3847   2.015   4.533  15.870 -0.1882  0.0441  0.4295
  254TMC3    C3 3848   1.983   4.614  15.974 -0.3198  0.8181  0.0089
  254TMC3    C4 3849   2.239   4.510  15.965 -0.0920 -0.4555 -0.1049
  254TMC3    C5 3850   2.200   4.582  16.069 -0.3954 -0.5845  0.4023
  254TMC3    C6 3851   2.074   4.636  16.078  0.1531  0.3524  0.1241
  254TMC3     C 3852   2.183   4.429  15.738 -0.2687  0.6054 -0.6032
  254TMC3     O 3853   2.096   4.382  15.665 -0.1337 -0.5981 -0.3345
  254TMC3     H 3854   1.948   4.523  15.785 -0.2772 -2.2289  0.7621
  254TMC3    H1 3855   2.330   4.452  15.968  0.7923  0.9839  0.5604
  254TMC3    H2 3856   2.041   4.681  16.171 -1.1937  1.4442 -0.8809
  254TMC3    C7 3857   2.285   4.587  16.189  0.6753  0.0885  0.4817
  254TMC3    C8 3858   1.881   4.713  15.961 -0.1147  0.0212  0.6219
  254TMC3    O1 3859   2.333   4.484  16.234  0.0593 -0.0331 -0.1891
  254TMC3    O2 3860   1.847   0.032  16.067 -0.6096 -0.2636 -0.1950
  255MPD2     C 3861   1.358   2.569  10.256 -0.7120  0.6508 -0.3084
  255MPD2    C1 3862   1.336   2.506  10.136 -0.0723 -0.1038  0.7377
  255MPD2    C2 3863   1.349   2.367  10.122 -0.6587  0.4522 -0.5064
  255MPD2    C3 3864   1.359   2.293  10.239  0.8391 -0.6948  0.6653
  255MPD2    C4 3865   1.390   2.355  10.358  0.1924  0.5914 -0.0854
  255MPD2    C5 3866   1.392   2.494  10.367  0.1940 -0.3383  0.9279
  255MPD2     H 3867   1.335   2.305  10.034 -1.1285 -0.8527  0.4868
  255MPD2    H1 3868   1.407   2.308  10.454  1.3207 -0.9638 -1.0276
  255MPD2    H2 3869   1.356   2.676  10.270 -2.5374  0.5161  0.4320
  255MPD2    H3 3870   1.406   2.540  10.464  0.6292  2.2935 -0.3971
  255MPD2     N 3871   1.354   2.152  10.232  0.1694  0.2447  0.4492
  255MPD2    H5 3872   1.336   2.104  10.145  1.0757  0.4332  0.1598
  255MPD2    N1 3873   1.300   2.594  10.030  0.5972 -0.1320  0.4267
  255MPD2    H7 3874   1.290   2.692  10.055 -1.1704 -0.1027 -0.3752
  256TMC3    C1 3875   1.215   2.660   9.817  0.0530  0.0538  0.0714
  256TMC3    C2 3876   1.245   2.790   9.840  0.0833  0.2294  0.5539
  256TMC3    C3 3877   1.209   2.879   9.744  0.5030 -1.0361 -0.8426
  256TMC3    C4 3878   1.144   2.619   9.709  0.5556  0.0796  0.3362
  256TMC3    C5 3879   1.116   2.716   9.614  0.0908  0.1298  0.3325
  256TMC3    C6 3880   1.148   2.848   9.630 -0.1131 -0.0442  0.2836
  256TMC3     C 3881   1.261   2.557   9.907 -0.0934  0.0127 -0.2131
  256TMC3     O 3882   1.260   2.448   9.853  0.0119  0.3566 -0.0889
  256TMC3     H 3883   1.304   2.824   9.924  0.0308  1.3024  0.1583
  256TMC3    H1 3884   1.106   2.518   9.698  1.1822 -0.0849 -0.3386
  256TMC3    H2 3885   1.107   2.929   9.571 -0.1007 -0.6644 -0.5851
  256TMC3    C7 3886   1.017   2.673   9.521 -0.7019 -0.4508 -0.2645
  256TMC3    C8 3887   1.254   3.017   9.761  0.0366 -0.3053  0.1345
  256TMC3    O1 3888   1.025   2.573   9.452 -0.2402 -0.0914  0.6216
  256TMC3    O2 3889   1.282   3.052   9.876  0.2659  0.0814  0.5135
  257MPD2     C 3890   0.306   0.014  13.130 -0.0916  0.6262  0.6694
  257MPD2    C1 3891   0.227   4.680  13.038 -0.6913  0.0501  0.5780
  257MPD2    C2 3892   0.172   4.558  13.063  0.4975 -0.0618 -0.3441
  257MPD2    C3 3893   0.189   4.496  13.186 -0.0554 -0.4011  0.4572
  257MPD2    C4 3894   0.282   4.555  13.274 -0.3514 -0.5263 -0.7008
  257MPD2    C5 3895   0.330   4.677  13.250  0.4513 -0.0749  0.0194
  257MPD2     H 3896   0.114   4.517  12.981 -2.7738  0.3095  1.7677
  257MPD2    H1 3897   0.312   4.512  13.369 -0.7398 -0.3903 -0.5171
  257MPD2    H2 3898   0.351   0.112  13.112  1.2036 -0.3623 -1.5313
  257MPD2    H3 3899   0.394   4.721  13.325 -2.1098 -1.0883  2.7724
  257MPD2     N 3900   0.122   4.376  13.219 -0.3827  0.1624  0.3230
  257MPD2    H5 3901   0.136   4.341  13.313  1.1702  0.8276  0.3417
  257MPD2    N1 3902   0.204   0.034  12.920  0.5874 -0.2140 -0.0720
  257MPD2    H7 3903   0.254   0.122  12.924  2.9601 -1.4707 -2.8901
  258TMC3    C1 3904   4.700   4.194  13.216  0.1167 -0.0671 -0.3287
  258TMC3    C2 3905   4.580   4.149  13.171 -0.2980  1.4875 -0.1639
  258TMC3    C3 3906   4.541   4.023  13.209 -0.0059 -0.4623 -0.0299
  258TMC3    C4 3907   0.061   4.118  13.294  0.3794 -0.6211 -0.4845
  258TMC3    C5 3908   0.015   3.994  13.330  0.4186  0.0529  0.1183
  258TMC3    C6 3909   4.617   3.945  13.289  0.1151 -0.1687  0.3411
  258TMC3     C 3910   0.027   4.305  13.145  0.2760  0.3374  0.4188
  258TMC3     O 3911   4.689   4.342  13.044 -0.2530  0.2350 -0.0111
  258TMC3     H 3912   4.519   4.203  13.099 -1.8518 -1.0386 -0.7416
  258TMC3    H1 3913   0.160   4.150  13.324  0.4019 -0.0300 -1.1998
  258TMC3    H2 3914   4.592   3.847  13.326  0.5504 -0.2197  0.4917
  258TMC3    C7 3915   0.103   3.902  13.392  0.1623  0.6440 -0.8996
  258TMC3    C8 3916   4.399   3.990  13.173 -0.0795 -0.2536  0.1058
  258TMC3    O1 3917   0.077   3.787  13.364 -0.0344 -0.5659 -0.1225
  258TMC3    O2 3918   4.343   4.062  13.094 -0.1433 -0.4549  0.1578
  259MPD2     C 3919   2.878   1.612   0.896  0.2813  0.1755  0.4257
  259MPD2    C1 3920   2.975   1.564   0.977 -0.5969  0.0396  0.2936
  259MPD2    C2 3921   3.108   1.566   0.937 -0.3697  0.1393  0.2188
  259MPD2    C3 3922   3.147   1.612   0.816  0.3818  0.6768  0.0259
  259MPD2    C4 3923   3.045   1.652   0.726  0.4149  0.5387 -0.1270
  259MPD2    C5 3924   2.915   1.656   0.771  0.4613  0.2244 -0.5631
  259MPD2     H 3925   3.187   1.546   1.008 -1.1556  0.2162  1.1153
  259MPD2    H1 3926   3.052   1.689   0.624  0.4712 -0.5353 -0.5137
  259MPD2    H2 3927   2.771   1.614   0.913 -0.4128  0.9691 -4.0264
  259MPD2    H3 3928   2.837   1.679   0.698  1.0889  3.1327 -0.3226
  259MPD2     N 3929   3.284   1.607   0.778 -0.5198 -0.4284 -0.3605
  259MPD2    H5 3930   3.355   1.588   0.848 -1.5860 -0.4719  0.7072
  259MPD2    N1 3931   2.932   1.534   1.111  0.6943 -0.3910 -0.6706
  259MPD2    H7 3932   2.837   1.556   1.140  0.4282 -0.2639 -1.6403
  260TMC3    C1 3933   3.472   1.607   0.656  0.1660  0.3844  0.2000
  260TMC3    C2 3934   3.537   1.683   0.563  0.7516  0.2349 -0.4622
  260TMC3    C3 3935   3.669   1.698   0.578  0.9312  0.4570 -0.2449
  260TMC3    C4 3936   3.525   1.553   0.768  0.2477 -0.1799 -0.0124
  260TMC3    C5 3937   3.665   1.571   0.783  0.2648 -0.3550 -0.4646
  260TMC3    C6 3938   3.731   1.646   0.689  0.0164 -0.7654  0.5446
  260TMC3     C 3939   3.333   1.617   0.647 -0.0477  0.0941 -0.3000
  260TMC3     O 3940   3.270   1.638   0.542 -0.5119  0.3279 -0.3805
  260TMC3     H 3941   3.485   1.713   0.473  2.0726 -1.3255 -1.7632
  260TMC3    H1 3942   3.477   1.481   0.834 -0.7907  0.6016  0.0938
  260TMC3    H2 3943   3.839   1.650   0.703  0.3100  1.5147 -2.3821
  260TMC3    C7 3944   3.751   1.484   0.861 -0.4509 -0.2119 -0.8741
  260TMC3    C8 3945   3.750   1.741   0.465  0.5641  0.0769  0.4017
  260TMC3    O1 3946   3.868   1.467   0.819 -0.4299  0.6186 -0.8774
  260TMC3    O2 3947   3.706   1.721   0.351  0.2771  0.6851 -0.0802
  261MPD2     C 3948   0.336   4.492  12.358  0.2872 -0.1744 -0.2773
  261MPD2    C1 3949   0.476   4.513  12.379  0.2191 -0.2744  0.1223
  261MPD2    C2 3950   0.540   4.626  12.325  0.2156  0.4891  0.5491
  261MPD2    C3 3951   0.467   4.705  12.241 -0.2922 -0.2532 -0.5235
  261MPD2    C4 3952   0.332   4.681  12.222  0.4241 -0.2984 -0.7567
  261MPD2    C5 3953   0.273   4.580  12.286 -0.5855  0.0846  0.0922
  261MPD2     H 3954   0.644   4.647  12.344  0.6699  0.2834 -1.7369
  261MPD2    H1 3955   0.278   0.023  12.153 -0.3771  0.9144  0.9978
  261MPD2    H2 3956   0.283   4.408  12.400  1.0281  0.2640  1.5221
  261MPD2    H3 3957   0.166   4.573  12.275 -0.5045 -1.7626  0.3348
  261MPD2     N 3958   0.537   0.089  12.177  0.3891 -0.1096  0.1143
  261MPD2    H5 3959   0.638   0.093  12.185  0.1150  1.2624  2.8958
  261MPD2    N1 3960   0.555   4.424  12.454 -0.7632  0.2877  0.2703
  261MPD2    H7 3961   0.642   4.462  12.490 -0.7862 -1.3291  1.9634
  262TMC3    C1 3962   0.586   0.245  12.023 -0.1310  0.1039 -0.5918
  262TMC3    C2 3963   0.560   0.377  11.981  0.0323  0.1707  0.1040
  262TMC3    C3 3964   0.645   0.436  11.894  0.3109 -0.0835 -0.5657
  262TMC3    C4 3965   0.687   0.174  11.972 -0.3828 -0.7770 -0.1859
  262TMC3    C5 3966   0.772   0.244  11.883  0.0479 -0.5796  0.2001
  262TMC3    C6 3967   0.758   0.374  11.849 -0.0031 -0.1597  0.0574
  262TMC3     C 3968   0.488   0.185  12.101  0.7792  0.6879  0.5514
  262TMC3     O 3969   0.370   0.222  12.086 -0.1207 -0.2786  0.0088
  262TMC3     H 3970   0.492   0.434  12.044  0.6996  2.4500 -1.2218
  262TMC3    H1 3971   0.695   0.068  11.993  0.2379 -0.5091  0.9410
  262TMC3    H2 3972   0.841   0.420  11.797 -0.0479  0.0576  0.1775
  262TMC3    C7 3973   0.871   0.155  11.824 -0.7306 -0.6199  0.1180
  262TMC3    C8 3974   0.643   0.580  11.875 -0.2516  0.2400  0.3891
  262TMC3    O1 3975   0.907   0.059  11.891  0.5263  0.1073  0.5981
  262TMC3    O2 3976   0.758   0.624  11.858 -0.2911  0.0173 -0.2912
  263MPD2     C 3977   1.739   3.994  11.520  0.5490  0.8021 -0.1410
  263MPD2    C1 3978   1.810   3.946  11.408 -0.2675  0.4759  0.5424
  263MPD2    C2 3979   1.817   4.023  11.289 -0.3808  0.3901  0.4549
  263MPD2    C3 3980   1.760   4.144  11.273  0.1641  0.4700  0.3621
  263MPD2    C4 3981   1.703   4.194  11.387 -0.7379  0.0049 -0.1144
  263MPD2    C5 3982   1.684   4.125  11.505 -0.0948 -0.1328  0.8147
  263MPD2     H 3983   1.866   3.972  11.207 -1.4699 -0.0026  0.0387
  263MPD2    H1 3984   1.649   4.288  11.384  0.7779  0.8576 -0.8308
  263MPD2    H2 3985   1.721   3.947  11.616  1.4426 -0.2138 -0.4720
  263MPD2    H3 3986   1.621   4.166  11.583 -0.5767 -1.3236  1.0568
  263MPD2     N 3987   1.774   4.211  11.148 -0.3810  0.0398  0.0485
  263MPD2    H5 3988   1.830   4.162  11.078  1.6460  0.5596  1.2884
  263MPD2    N1 3989   1.869   3.821  11.423  0.1474 -0.7688 -0.9184
  263MPD2    H7 3990   1.868   3.781  11.517 -4.7053 -2.8130 -1.8581
  264TMC3    C1 3991   1.743   4.375  10.989 -0.0248 -0.6957  0.1225
  264TMC3    C2 3992   1.667   4.480  10.946 -0.5923 -0.0058 -0.5509
  264TMC3    C3 3993   1.701   4.536  10.828  0.5847  0.0571 -1.0247
  264TMC3    C4 3994   1.841   4.319  10.909  0.2646 -0.0658  0.1136
  264TMC3    C5 3995   1.856   4.362  10.785 -0.8184  0.1426 -0.0037
  264TMC3    C6 3996   1.794   4.478  10.746 -0.1702 -0.1977 -0.6540
  264TMC3     C 3997   1.725   4.332  11.124 -0.1824 -0.0569 -0.6707
  264TMC3     O 3998   1.646   4.397  11.191  0.1517  0.1687 -0.2617
  264TMC3     H 3999   1.582   4.517  11.003 -0.3708 -0.0224 -0.2082
  264TMC3    H1 4000   1.910   4.243  10.944 -0.1210  0.1143  1.2480
  264TMC3    H2 4001   1.818   4.511  10.646 -1.5253  3.1436  0.1112
  264TMC3    C7 4002   1.997   4.364  10.743  0.0109 -0.0235  0.4377
  264TMC3    C8 4003   1.742   4.674  10.847  0.2142  0.4795  0.0827
  264TMC3    O1 4004   2.065   4.264  10.763 -0.5979 -0.3775 -0.6380
  264TMC3    O2 4005   1.842   4.690  10.781  0.3853 -0.2882 -0.0497
  265MPD2     C 4006   3.734   4.001  15.566 -0.5273 -0.3327 -0.5031
  265MPD2    C1 4007   3.800   4.108  15.519 -0.0017  0.2708  0.4250
  265MPD2    C2 4008   3.887   4.083  15.416 -0.1937 -0.2075 -0.1149
  265MPD2    C3 4009   3.908   3.947  15.361  0.0196  0.3322  1.0344
  265MPD2    C4 4010   3.835   3.843  15.417  0.9687  0.4061  0.2543
  265MPD2    C5 4011   3.749   3.875  15.517 -0.5012 -0.6319  0.7063
  265MPD2     H 4012   3.938   4.165  15.367  1.0498 -0.4573  0.7557
  265MPD2    H1 4013   3.837   3.739  15.386  0.4365  0.3256  0.4940
  265MPD2    H2 4014   3.661   4.003  15.647 -1.8477 -0.2488 -1.7059
  265MPD2    H3 4015   3.687   3.798  15.561  0.2441 -1.9527 -0.5188
  265MPD2     N 4016   3.996   3.909  15.263  0.5062 -0.5995  0.1386
  265MPD2    H5 4017   4.018   3.810  15.263 -0.9107 -0.9194 -0.9117
  265MPD2    N1 4018   3.795   4.230  15.587 -0.0304  0.3981 -0.6990
  265MPD2    H7 4019   3.858   4.302  15.555  0.4941  0.1507 -0.2120
  266TMC3    C1 4020   3.746   4.399  15.738  0.0824  0.0258 -1.2878
  266TMC3    C2 4021   3.737   4.416  15.876  0.4262 -0.4129  0.0278
  266TMC3    C3 4022   3.744   4.544  15.925 -0.1391 -0.0249 -0.0704
  266TMC3    C4 4023   3.776   4.500  15.649 -0.4609 -0.5341  0.4069
  266TMC3    C5 4024   3.780   4.620  15.705 -0.0832 -0.2088 -0.9045
  266TMC3    C6 4025   3.769   4.645  15.837  0.0187 -0.1071  0.2643
  266TMC3     C 4026   3.718   4.264  15.687  0.7222 -0.1790 -0.1666
  266TMC3     O 4027   3.632   4.205  15.754 -0.2374 -0.3624  0.3284
  266TMC3     H 4028   3.725   4.331  15.942 -1.1039 -0.1235  0.1330
  266TMC3    H1 4029   3.790   4.484  15.542 -0.0948 -0.4386  0.4414
  266TMC3    H2 4030   3.772   0.024  15.874 -2.0948  0.5560 -1.3901
  266TMC3    C7 4031   3.799   0.003  15.615  0.0544  0.2400 -0.1582
  266TMC3    C8 4032   3.801   4.572  16.051 -0.0251 -0.5689  1.3584
  266TMC3    O1 4033   3.752   4.713  15.507  0.7890 -0.4769 -0.0981
  266TMC3    O2 4034   3.861   4.474  16.100 -0.0313 -0.6081  0.1143
  267MPD2     C 4035   1.240   1.914  17.117 -0.6430 -0.5587  0.2397
  267MPD2    C1 4036   1.242   1.777  17.142 -0.6676 -0.1312 -0.1502
  267MPD2    C2 4037   1.183   1.686  17.054 -1.3659 -0.2998 -0.1947
  267MPD2    C3 4038   1.131   1.733  16.932  0.2228 -0.6261 -0.3003
  267MPD2    C4 4039   1.141   1.871  16.901 -0.2957  0.0182 -0.1214
  267MPD2    C5 4040   1.198   1.955  16.993  0.3127 -0.0686 -0.4390
  267MPD2     H 4041   1.185   1.581  17.078 -1.5669 -0.8087 -2.4570
  267MPD2    H1 4042   1.108   1.910  16.805 -1.7605 -1.7446 -0.3390
  267MPD2    H2 4043   1.279   1.986  17.188  2.0119  0.2467 -2.0099
  267MPD2    H3 4044   1.205   2.062  16.978 -2.9448  0.1886 -0.0581
  267MPD2     N 4045   1.084   1.647  16.829 -0.6005 -0.3425  0.2520
  267MPD2    H5 4046   1.082   1.683  16.734  0.6024  1.1115  0.7871
  267MPD2    N1 4047   1.298   1.743  17.268 -0.4925  0.4074  0.0044
  267MPD2    H7 4048   1.329   1.820  17.326 -2.8352  1.3046  0.0381
  268TMC3    C1 4049   1.362   1.601  17.442 -0.4411  0.5645  0.1087
  268TMC3    C2 4050   1.483   1.661  17.444 -0.2972  0.3893 -0.3850
  268TMC3    C3 4051   1.588   1.605  17.510 -0.2201  0.0480 -0.3471
  268TMC3    C4 4052   1.351   1.478  17.503 -0.7774  0.5190  0.4335
  268TMC3    C5 4053   1.455   1.423  17.560 -0.2491  0.1193  0.1808
  268TMC3    C6 4054   1.577   1.486  17.575 -0.3501  0.2371  0.1322
  268TMC3     C 4055   1.290   1.614  17.325 -0.3086 -0.0096 -1.0358
  268TMC3     O 4056   1.225   1.517  17.291 -0.1744  0.7657  0.2141
  268TMC3     H 4057   1.497   1.751  17.385  1.4316  0.8303  0.6742
  268TMC3    H1 4058   1.256   1.427  17.509 -0.4256 -0.4100 -1.8913
  268TMC3    H2 4059   1.669   1.440  17.609  0.2164  0.0916 -1.6173
  268TMC3    C7 4060   1.447   1.272  17.572  0.1040 -0.1410  0.8860
  268TMC3    C8 4061   1.721   1.651  17.488  0.7146 -0.1102  0.6536
  268TMC3    O1 4062   1.349   1.220  17.627 -0.7704 -0.3095  0.3600
  268TMC3    O2 4063   1.804   1.634  17.575 -0.1431  0.2525 -0.2879
  269MPD2     C 4064   1.554   0.164  15.457  0.1751 -0.4249  1.0324
  269MPD2    C1 4065   1.502   0.220  15.575 -0.0504 -0.9986 -1.1339
  269MPD2    C2 4066   1.474   0.357  15.562 -0.3760 -0.1261  0.0188
  269MPD2    C3 4067   1.512   0.432  15.450 -0.1485 -0.0960  0.1565
  269MPD2    C4 4068   1.563   0.370  15.333 -0.0267  0.1177 -0.4197
  269MPD2    C5 4069   1.580   0.233  15.342  1.0199  0.6030  0.4035
  269MPD2     H 4070   1.428   0.408  15.646  2.9482 -0.7020  2.2107
  269MPD2    H1 4071   1.590   0.427  15.245 -0.1522  2.1173  0.8249
  269MPD2    H2 4072   1.578   0.059  15.447  0.5256 -0.2542  0.0868
  269MPD2    H3 4073   1.613   0.178  15.255 -1.4493  2.2647 -1.5783
  269MPD2     N 4074   1.483   0.574  15.448  0.0610  0.3304  0.6988
  269MPD2    H5 4075   1.439   0.604  15.534 -0.9745  2.1482 -0.4728
  269MPD2    N1 4076   1.469   0.138  15.682 -0.4704  0.1259  0.1563
  269MPD2    H7 4077   1.481   0.038  15.666 -2.0808  0.1867 -1.4881
  270TMC3    C1 4078   1.407   0.063  15.883  0.1826 -0.9408  0.1968
  270TMC3    C2 4079   1.274   0.033  15.890 -0.7595 -0.1569 -0.4958
  270TMC3    C3 4080   1.248   4.618  15.877  0.3892 -0.3594  0.0140
  270TMC3    C4 4081   1.510   4.700  15.860  0.3576 -0.2625 -0.8777
  270TMC3    C5 4082   1.483   4.573  15.872  0.4873 -0.4704  0.3050
  270TMC3    C6 4083   1.355   4.536  15.863 -0.4902 -0.4523 -0.4463
  270TMC3     C 4084   1.414   0.177  15.800 -0.8616 -0.1212  0.2621
  270TMC3     O 4085   1.367   0.288  15.836 -0.3773 -0.0205 -1.1731
  270TMC3     H 4086   1.189   0.100  15.892 -2.1360 -1.8733 -2.0510
  270TMC3    H1 4087   1.611   0.007  15.834  0.6000  0.9335  1.4671
  270TMC3    H2 4088   1.333   4.431  15.853 -0.0988 -0.5307 -0.4804
  270TMC3    C7 4089   1.592   4.470  15.883 -0.0654  0.6800  0.4886
  270TMC3    C8 4090   1.131   4.581  15.802  0.5431 -0.1396 -0.1667
  270TMC3    O1 4091   1.707   4.505  15.859  0.1356 -0.0835  0.6249
  270TMC3    O2 4092   1.027   4.631  15.835 -0.2668 -0.1513 -0.3841
  271MPD2     C 4093   0.780   4.708  13.934 -0.3781  0.2823  0.1009
  271MPD2    C1 4094   0.702   4.615  14.007 -0.4479 -0.4015  0.2617
  271MPD2    C2 4095   0.570   4.621  13.992 -0.8870  0.2046  0.1542
  271MPD2    C3 4096   0.510   0.003  13.919  0.4127  0.3658  0.4669
  271MPD2    C4 4097   0.591   0.082  13.842  0.3416  0.1756  0.3393
  271MPD2    C5 4098   0.728   0.079  13.844 -0.3247 -0.6306  0.4992
  271MPD2     H 4099   0.505   4.563  14.057  0.0616  0.0073  0.9245
  271MPD2    H1 4100   0.545   0.158  13.780  3.0990  2.7715  1.4553
  271MPD2    H2 4101   0.887   4.718  13.939 -0.3217 -0.3014  0.0711
  271MPD2    H3 4102   0.793   0.135  13.776 -0.2590 -1.0447  0.2221
  271MPD2     N 4103   0.370   0.033  13.919  0.2452  0.0173  0.1101
  271MPD2    H5 4104   0.342   0.110  13.859 -3.4876 -0.9717  0.5955
  271MPD2    N1 4105   0.757   4.529  14.108  0.6953 -0.1325  0.3217
  271MPD2    H7 4106   0.694   4.459  14.145 -1.5416  2.6241  1.7503
  272TMC3    C1 4107   0.906   4.411  14.247 -0.0644  0.4340 -0.3259
  272TMC3    C2 4108   1.034   4.371  14.273  0.3184  0.3519 -0.4514
  272TMC3    C3 4109   1.057   4.298  14.389 -0.0283  0.4975 -0.0385
  272TMC3    C4 4110   0.805   4.404  14.341  0.1247 -0.2830  0.4080
  272TMC3    C5 4111   0.841   4.343  14.455 -0.1932  0.2202 -0.4391
  272TMC3    C6 4112   0.963   4.290  14.485  0.0358  0.4636 -0.2576
  272TMC3     C 4113   0.891   4.515  14.145  0.0623  0.7112 -0.1517
  272TMC3     O 4114   0.997   4.558  14.101  0.1116  0.4419  0.0422
  272TMC3     H 4115   1.111   4.386  14.198 -1.3157  0.9913 -1.9911
  272TMC3    H1 4116   0.706   4.447  14.337  0.4338  0.0976 -3.2639
  272TMC3    H2 4117   0.986   4.250  14.583 -0.4907  3.6106  1.1755
  272TMC3    C7 4118   0.742   4.366  14.561  0.3140 -0.4920 -0.5068
  272TMC3    C8 4119   1.187   4.242  14.400 -0.4481  0.2269  0.5027
  272TMC3    O1 4120   0.624   4.392  14.531  0.3095  0.0680  0.6051
  272TMC3    O2 4121   1.257   4.251  14.302  0.0235 -0.0841 -0.0224
  273MPD2     C 4122   2.785   2.537  11.540  0.1726 -0.1327  0.2404
  273MPD2    C1 4123   2.686   2.628  11.526  0.0559 -0.2474 -0.1690
  273MPD2    C2 4124   2.641   2.660  11.394 -0.2780  0.4287  0.2044
  273MPD2    C3 4125   2.718   2.626  11.286  0.6900  0.3206 -0.5437
  273MPD2    C4 4126   2.813   2.520  11.303  0.9993  1.2120  0.6984
  273MPD2    C5 4127   2.842   2.474  11.428 -0.2002 -0.7398 -0.7751
  273MPD2     H 4128   2.557   2.727  11.377 -0.5944 -0.6104 -2.2058
  273MPD2    H1 4129   2.864   2.476  11.218  1.6308 -0.7844  2.0981
  273MPD2    H2 4130   2.818   2.502  11.637  1.8886 -1.0516 -0.6862
  273MPD2    H3 4131   2.927   2.407  11.435 -0.4549 -1.0755 -0.8959
  273MPD2     N 4132   2.719   2.689  11.164  0.6930 -0.2906 -0.4884
  273MPD2    H5 4133   2.791   2.662  11.098  0.2830 -1.7307 -0.3302
  273MPD2    N1 4134   2.636   2.682  11.646  0.3863 -0.2817  0.8447
  273MPD2    H7 4135   2.692   2.667  11.729 -0.6753  1.3033  1.8543
  274TMC3    C1 4136   2.695   2.871  11.013  0.2899  0.1527  0.2398
  274TMC3    C2 4137   2.643   2.814  10.902 -0.8280 -0.1377  0.5969
  274TMC3    C3 4138   2.590   2.903  10.810 -0.3667 -0.6882  0.1264
  274TMC3    C4 4139   2.702   3.004  11.031  1.0215 -0.3613 -0.0023
  274TMC3    C5 4140   2.656   3.088  10.940 -0.4831 -0.2637 -0.4133
  274TMC3    C6 4141   2.597   3.041  10.830 -0.2469 -0.3699  0.2945
  274TMC3     C 4142   2.656   2.809  11.140 -0.2426 -0.3813  0.7166
  274TMC3     O 4143   2.578   2.871  11.211 -0.5098  0.0755  0.4121
  274TMC3     H 4144   2.643   2.705  10.900 -0.1250 -0.1535  1.3384
  274TMC3    H1 4145   2.740   3.034  11.128  2.6104  0.1861 -0.7854
  274TMC3    H2 4146   2.566   3.110  10.752 -0.8803  0.2541  1.0926
  274TMC3    C7 4147   2.641   3.223  10.980  0.1155 -0.5691 -0.3556
  274TMC3    C8 4148   2.533   2.838  10.690  0.0630  0.4056  0.8327
  274TMC3    O1 4149   2.542   3.277  10.931 -0.0048  0.2537  0.2706
  274TMC3    O2 4150   2.553   2.718  10.680  0.2462 -0.0994  0.1187
  275MPD2     C 4151   2.183   0.486  15.087  0.3370 -0.3914  0.3535
  275MPD2    C1 4152   2.213   0.462  14.947  0.3608 -0.0954  0.0305
  275MPD2    C2 4153   2.112   0.412  14.858 -0.4165  0.8904  0.4123
  275MPD2    C3 4154   1.982   0.408  14.906  0.1672  0.3933  0.7394
  275MPD2    C4 4155   1.958   0.421  15.037 -0.5452 -0.5196  0.1914
  275MPD2    C5 4156   2.050   0.462  15.128 -0.3146 -0.0237 -0.3027
  275MPD2     H 4157   2.134   0.410  14.752  0.5555 -2.0963  0.6870
  275MPD2    H1 4158   1.855   0.405  15.066 -1.3231  0.5245 -1.9642
  275MPD2    H2 4159   2.256   0.520  15.159 -0.1188  0.6905  0.3019
  275MPD2    H3 4160   2.024   0.472  15.233 -1.6655 -0.1403 -0.6274
  275MPD2     N 4161   1.863   0.394  14.827  0.1439 -0.4550 -0.2468
  275MPD2    H5 4162   1.778   0.420  14.876  1.9129  1.0232  2.0557
  275MPD2    N1 4163   2.336   0.494  14.889 -0.2061  0.3159 -0.0326
  275MPD2    H7 4164   2.344   0.466  14.791 -1.1024 -1.4649  0.4062
  276TMC3    C1 4165   2.558   0.551  14.861  0.3990  0.1201  0.4699
  276TMC3    C2 4166   2.596   0.418  14.841 -0.8071  0.4211 -0.1781
  276TMC3    C3 4167   2.732   0.390  14.855  0.4583  0.2898 -0.0536
  276TMC3    C4 4168   2.658   0.648  14.884  0.2072  0.3530  0.0235
  276TMC3    C5 4169   2.789   0.614  14.872  0.4172 -0.6158 -0.6937
  276TMC3    C6 4170   2.831   0.488  14.854  0.6306 -0.3820  0.1120
  276TMC3     C 4171   2.435   0.570  14.935 -0.0329 -0.9959  0.1026
  276TMC3     O 4172   2.435   0.636  15.040 -0.3699  0.0805 -0.7742
  276TMC3     H 4173   2.516   0.344  14.832  1.5975 -2.2794  0.6466
  276TMC3    H1 4174   2.633   0.753  14.896  1.1503  0.7943 -1.8631
  276TMC3    H2 4175   2.933   0.452  14.860  1.0358  1.3147  3.2919
  276TMC3    C7 4176   2.881   0.702  14.948 -0.5614  0.1227 -0.2312
  276TMC3    C8 4177   2.764   0.263  14.919  0.4794 -0.5027  0.2448
  276TMC3    O1 4178   2.829   0.769  15.035 -0.5798  0.4421 -0.4932
  276TMC3    O2 4179   2.880   0.244  14.946 -0.2678  0.0386 -0.2493
  277MPD2     C 4180   4.099   3.908  13.554  0.0236 -0.3056  0.3613
  277MPD2    C1 4181   4.011   3.983  13.617 -0.2281  0.2933  0.3728
  277MPD2    C2 4182   3.946   3.941  13.731  0.6654  0.0663 -0.1615
  277MPD2    C3 4183   3.960   3.813  13.769  0.4788 -0.0561  0.6533
  277MPD2    C4 4184   4.040   3.729  13.699 -0.4122  0.0982  0.0329
  277MPD2    C5 4185   4.120   3.783  13.601 -0.4327 -0.3358  0.1334
  277MPD2     H 4186   3.872   4.004  13.780 -1.2374 -1.4576 -1.0776
  277MPD2    H1 4187   4.058   3.627  13.734  1.1044  0.4292  0.2042
  277MPD2    H2 4188   4.160   3.932  13.467  3.0548  0.6765  2.7489
  277MPD2    H3 4189   4.190   3.718  13.549 -0.7938  1.8711 -3.0428
  277MPD2     N 4190   3.867   3.758  13.859 -0.3641 -0.1815 -0.7773
  277MPD2    H5 4191   3.829   3.666  13.838 -0.7668  0.8523 -4.6072
  277MPD2    N1 4192   3.980   4.107  13.558  0.2849  0.6615  0.3207
  277MPD2    H7 4193   4.017   4.127  13.466 -1.0979  2.7631  0.2352
  278TMC3    C1 4194   3.694   3.763  14.005 -0.0595 -0.2408  0.7931
  278TMC3    C2 4195   3.671   3.626  13.990  0.3049  0.4417 -0.1520
  278TMC3    C3 4196   3.543   3.583  13.986 -0.2121 -0.3764 -0.3333
  278TMC3    C4 4197   3.586   3.842  14.013  0.5104 -0.4081 -0.0197
  278TMC3    C5 4198   3.458   3.795  13.983  0.2943  0.6576 -0.9172
  278TMC3    C6 4199   3.435   3.661  13.968  0.1597  0.5555 -0.1990
  278TMC3     C 4200   3.822   3.824  13.968  0.2237 -0.2788  0.2908
  278TMC3     O 4201   3.844   3.938  14.010  0.1520 -0.1393  0.3710
  278TMC3     H 4202   3.744   3.546  13.987  1.4371  1.4542  0.3566
  278TMC3    H1 4203   3.601   3.950  14.015  1.4410 -0.5092 -1.5632
  278TMC3    H2 4204   3.335   3.625  13.989  0.8639  0.2862  2.7056
  278TMC3    C7 4205   3.349   3.893  13.985  0.3445 -0.6448 -0.1567
  278TMC3    C8 4206   3.519   3.441  13.955  0.2335  0.4166  0.4170
  278TMC3    O1 4207   3.377   3.993  14.049 -0.2059  0.0526 -0.7075
  278TMC3    O2 4208   3.609   3.360  13.985 -0.0671 -0.4392 -0.2212
  279MPD2     C 4209   3.078   4.601   0.479  0.7123  0.4997  0.0959
  279MPD2    C1 4210   3.015   4.629   0.363 -0.2167  0.4837 -0.5803
  279MPD2    C2 4211   3.089   4.664   0.247  0.0605 -0.4615  0.1123
  279MPD2    C3 4212   3.223   4.652   0.245 -0.8186  0.5990  0.2357
  279MPD2    C4 4213   3.283   4.616   0.363  0.4942 -0.0937 -0.2918
  279MPD2    C5 4214   3.217   4.590   0.475  0.5641  0.3138 -0.9992
  279MPD2     H 4215   3.038   4.692   0.155 -1.6211 -2.7431  0.3436
  279MPD2    H1 4216   3.392   4.613   0.360  0.5983  1.3765  2.3909
  279MPD2    H2 4217   3.027   4.587   0.573  2.0360  0.5750  0.8285
  279MPD2    H3 4218   3.274   4.556   0.561 -2.5832 -2.4267 -0.0342
  279MPD2     N 4219   3.311   4.687   0.139 -0.0839 -0.4267 -0.4322
  279MPD2    H5 4220   3.407   4.704   0.166 -0.4095 -1.5423  1.4627
  279MPD2    N1 4221   2.874   4.634   0.349 -0.2573  0.2961  0.4786
  279MPD2    H7 4222   2.835   4.658   0.258 -1.3359  0.0627  0.8807
  280TMC3    C1 4223   2.650   4.636   0.423  0.0752 -0.3825  0.4113
  280TMC3    C2 4224   2.590   4.518   0.377  0.3607 -0.7068 -0.0142
  280TMC3    C3 4225   2.495   4.535   0.281 -0.8943 -0.3934  0.2156
  280TMC3    C4 4226   2.621   0.035   0.361 -0.0910 -0.7972 -0.0956
  280TMC3    C5 4227   2.532   0.046   0.257  0.2631  0.4227 -0.1017
  280TMC3    C6 4228   2.465   4.652   0.217 -0.3309 -0.0924  0.1401
  280TMC3     C 4229   2.792   4.617   0.452  0.5155  0.4160 -0.7280
  280TMC3     O 4230   2.815   4.557   0.554  0.3871  0.2877 -0.4191
  280TMC3     H 4231   2.616   4.423   0.423 -2.5684 -1.9094 -0.8070
  280TMC3    H1 4232   2.679   0.121   0.393 -1.1162 -0.6115  1.2581
  280TMC3    H2 4233   2.391   4.649   0.138  0.1587  0.2090 -0.3287
  280TMC3    C7 4234   2.529   0.162   0.177 -0.3750 -0.0338 -0.6945
  280TMC3    C8 4235   2.427   4.413   0.226  0.4980  0.5247 -0.3851
  280TMC3    O1 4236   2.621   0.242   0.198 -0.4876  0.6548  0.0560
  280TMC3    O2 4237   2.407   4.411   0.108 -0.2490  0.0986 -0.3225
  281TMC3    C1 4238   1.999   0.061  12.738  0.1439 -1.0004 -0.1557
  281TMC3    C2 4239   2.008   0.160  12.640  1.0184 -0.4348 -0.0539
  281TMC3    C3 4240   1.994   0.117  12.508 -0.2403 -0.1172 -0.1288
  281TMC3    C4 4241   1.965   4.649  12.707 -0.0173 -0.1483  0.0921
  281TMC3    C5 4242   1.974   4.615  12.571 -0.4025  0.2397  0.1621
  281TMC3    C6 4243   1.994   4.704  12.471 -0.4738  0.2064 -0.1907
  281TMC3     C 4244   1.969   0.084  12.876  0.3892  0.3406 -0.6847
  281TMC3     O 4245   1.977   4.716  12.960 -0.4038  0.2284  0.2189
  281TMC3     H 4246   2.043   0.259  12.667  1.9487 -1.0176  0.8517
  281TMC3    H1 4247   1.967   4.577  12.788 -0.4261  0.6021  0.7747
  281TMC3    H2 4248   1.985   4.666  12.370  0.2350 -1.0680  0.2379
  281TMC3    C7 4249   1.939   4.477  12.531  0.2517  0.3465  0.7847
  281TMC3    C8 4250   2.025   0.196  12.385 -0.1475 -0.3175  0.6813
  281TMC3    O1 4251   1.939   4.444  12.414  1.0800 -0.3480  0.2358
  281TMC3    O2 4252   2.091   0.134  12.302  0.1693 -0.6745  0.1807
  282MPD2     C 4253   3.877   1.129  15.035 -0.8038 -0.1780  0.1043
  282MPD2    C1 4254   3.742   1.160  15.059  0.1553  0.3759  1.2645
  282MPD2    C2 4255   3.648   1.138  14.954  0.4353 -0.1280 -0.1517
  282MPD2    C3 4256   3.690   1.101  14.830  0.7082 -0.9975  0.3829
  282MPD2    C4 4257   3.826   1.067  14.811 -0.4850  0.7528  0.1694
  282MPD2    C5 4258   3.912   1.073  14.914 -0.1080  0.0948 -0.4408
  282MPD2     H 4259   3.547   1.162  14.984  0.7659  1.0606  0.0052
  282MPD2    H1 4260   3.871   1.043  14.716  0.3451 -0.5501  0.8869
  282MPD2    H2 4261   3.956   1.150  15.106 -1.0399 -2.3630  1.0161
  282MPD2    H3 4262   4.015   1.046  14.894 -0.7911 -2.0852 -0.9646
  282MPD2     N 4263   3.597   1.102  14.729 -0.0124 -0.2610  0.2916
  282MPD2    H5 4264   3.505   1.136  14.755 -0.5385 -2.3970  1.1899
  282MPD2    N1 4265   3.694   1.193  15.185 -0.5060 -0.0687  0.7168
  282MPD2    H7 4266   3.593   1.189  15.195 -0.6356  0.2521 -0.5118
  283TMC3    C1 4267   3.690   1.268  15.406  0.3725  0.4648  0.0237
  283TMC3    C2 4268   3.730   1.374  15.484  0.5675  0.2794 -0.7037
  283TMC3    C3 4269   3.702   1.380  15.618  0.6780 -0.3141  0.2949
  283TMC3    C4 4270   3.618   1.170  15.463 -0.1614  0.1718 -0.3265
  283TMC3    C5 4271   3.589   1.180  15.596 -0.5366 -1.0409  0.1235
  283TMC3    C6 4272   3.630   1.284  15.675  0.2149 -1.0296 -0.5964
  283TMC3     C 4273   3.769   1.243  15.287 -0.5107  0.4142 -0.2593
  283TMC3     O 4274   3.879   1.290  15.278 -0.2751  0.4626 -0.0604
  283TMC3     H 4275   3.796   1.450  15.445  1.9142 -0.8946 -0.7353
  283TMC3    H1 4276   3.582   1.094  15.395  1.2839 -0.6154 -0.2140
  283TMC3    H2 4277   3.600   1.284  15.779 -0.6434 -1.8220 -0.8370
  283TMC3    C7 4278   3.499   1.086  15.657  0.2764  0.1904 -0.8659
  283TMC3    C8 4279   3.734   1.500  15.690  0.4807 -0.7468  0.4194
  283TMC3    O1 4280   3.466   1.119  15.770 -0.3719 -0.2514 -0.0640
  283TMC3    O2 4281   3.739   1.503  15.809 -0.4261  0.0226 -0.0966
  284MPD2     C 4282   1.800   0.480  12.073  0.5968 -0.3092  0.0967
  284MPD2    C1 4283   1.884   0.473  11.960 -0.3476 -0.0231  0.6047
  284MPD2    C2 4284   1.863   0.382  11.863  0.4854 -0.2641 -0.1488
  284MPD2    C3 4285   1.765   0.287  11.880 -0.6276 -0.4588  0.8645
  284MPD2    C4 4286   1.674   0.295  11.987  0.2385  0.4860 -0.4868
  284MPD2    C5 4287   1.698   0.387  12.086 -0.2250 -0.6761 -0.3076
  284MPD2     H 4288   1.945   0.365  11.793  2.0516  0.9101  1.4154
  284MPD2    H1 4289   1.603   0.216  12.006 -0.0399  1.3531  2.0930
  284MPD2    H2 4290   1.803   0.565  12.141 -0.4476 -0.7597  0.7075
  284MPD2    H3 4291   1.620   0.388  12.162 -1.3398  3.2665 -1.5048
  284MPD2     N 4292   1.755   0.180  11.782  0.2032  0.5594 -0.5107
  284MPD2    H5 4293   1.679   0.114  11.797 -0.1240  1.0047 -0.2330
  284MPD2    N1 4294   1.985   0.572  11.937  0.3723 -0.2971  0.6964
  284MPD2    H7 4295   2.037   0.552  11.852  1.3367  0.6145  1.0682
  285TMC3    C1 4296   2.157   0.726  11.984  0.2238 -0.4350 -0.2565
  285TMC3    C2 4297   2.223   0.672  11.874  0.3904  0.0870  0.1517
  285TMC3    C3 4298   2.333   0.735  11.819 -0.2343  0.3407 -0.2727
  285TMC3    C4 4299   2.185   0.852  12.014 -0.7095 -0.0223  0.3798
  285TMC3    C5 4300   2.285   0.919  11.950 -0.7259 -1.0217  0.5505
  285TMC3    C6 4301   2.371   0.859  11.861  0.2156  0.3138 -0.2374
  285TMC3     C 4302   2.024   0.676  12.021 -0.8279  0.1370 -0.4842
  285TMC3     O 4303   1.964   0.727  12.112  0.5645 -0.0746 -0.2216
  285TMC3     H 4304   2.208   0.570  11.840 -0.3338  1.0562 -2.4955
  285TMC3    H1 4305   2.129   0.906  12.090 -0.1089 -0.1221  0.8969
  285TMC3    H2 4306   2.453   0.909  11.811 -0.2006  1.0526 -0.1720
  285TMC3    C7 4307   2.279   1.064  11.956 -0.0040  0.2619 -0.4163
  285TMC3    C8 4308   2.411   0.669  11.717  0.4596 -0.8597  0.2207
  285TMC3    O1 4309   2.379   1.126  11.928 -0.1246  0.0720 -0.1843
  285TMC3    O2 4310   2.365   0.568  11.671  0.2333 -0.4442  0.5411
  286MPD2     C 4311   2.180   3.976   1.461  0.1731 -0.2255  0.0023
  286MPD2    C1 4312   2.160   3.918   1.335  0.1188  0.4205 -0.0857
  286MPD2    C2 4313   2.261   3.840   1.284 -0.0976 -0.1895 -0.1905
  286MPD2    C3 4314   2.375   3.812   1.358 -0.0307 -0.3182 -0.5982
  286MPD2    C4 4315   2.388   3.867   1.480  0.1444 -0.3625 -0.3417
  286MPD2    C5 4316   2.287   3.946   1.534  0.2388 -0.8241  0.1600
  286MPD2     H 4317   2.240   3.789   1.190 -0.4364  1.3831 -0.9592
  286MPD2    H1 4318   2.474   3.841   1.541  0.3532 -1.6744 -1.1974
  286MPD2    H2 4319   2.112   4.044   1.511 -0.9501 -0.9962 -0.4641
  286MPD2    H3 4320   2.298   3.999   1.627  1.0923 -0.6963 -0.0088
  286MPD2     N 4321   2.481   3.726   1.316  0.1670  0.4308  0.5609
  286MPD2    H5 4322   2.563   3.727   1.376  0.3058 -0.6905  0.3791
  286MPD2    N1 4323   2.044   3.940   1.264 -0.2366  0.3815 -0.5483
  286MPD2    H7 4324   2.028   3.914   1.167 -1.1987  2.9413 -1.0633
  287TMC3    C1 4325   2.599   3.550   1.206  0.5003 -0.1116  0.3931
  287TMC3    C2 4326   2.616   3.486   1.088 -0.5964  0.0003  0.2783
  287TMC3    C3 4327   2.727   3.416   1.056  0.0415  0.2048 -0.4966
  287TMC3    C4 4328   2.709   3.574   1.284 -0.4817 -0.3438  0.4289
  287TMC3    C5 4329   2.820   3.496   1.262  0.3601 -0.2816 -0.1070
  287TMC3    C6 4330   2.834   3.418   1.150 -0.2184 -0.8609  0.1318
  287TMC3     C 4331   2.479   3.641   1.210 -0.5920 -0.3886  0.6299
  287TMC3     O 4332   2.386   3.636   1.127 -0.1380  0.6354  0.1841
  287TMC3     H 4333   2.529   3.486   1.024  0.3794  1.5961 -1.0512
  287TMC3    H1 4334   2.697   3.641   1.368 -3.3126 -0.3722  0.0283
  287TMC3    H2 4335   2.914   3.345   1.143 -0.7302 -1.3914 -0.3192
  287TMC3    C7 4336   2.927   3.520   1.349  0.1788  0.0183  0.1574
  287TMC3    C8 4337   2.744   3.360   0.927 -0.2297  1.0161 -0.6042
  287TMC3    O1 4338   2.905   3.579   1.452 -0.1674  0.5781 -0.1874
  287TMC3    O2 4339   2.644   3.335   0.857 -0.4471  0.1450 -0.0464
  288TMC3    C1 4340   3.842   3.650  14.611  0.1033 -0.0609 -0.2739
  288TMC3    C2 4341   3.730   3.603  14.689  0.2039 -0.1774 -0.1950
  288TMC3    C3 4342   3.686   3.682  14.784 -0.3141 -0.1613  0.0277
  288TMC3    C4 4343   3.899   3.769  14.639  0.0586 -0.1844 -0.3061
  288TMC3    C5 4344   3.850   3.846  14.741  0.1457  0.3662  0.1218
  288TMC3    C6 4345   3.743   3.800  14.813 -0.0445 -0.1251 -0.1678
  288TMC3     C 4346   3.875   3.570  14.489  0.0440 -0.2556  0.0719
  288TMC3     O 4347   3.838   3.453  14.486  0.3649 -0.0077  0.4589
  288TMC3     H 4348   3.680   3.509  14.669  0.9691 -0.9638  1.6018
  288TMC3    H1 4349   3.992   3.784  14.586 -0.9041  0.0673 -1.9346
  288TMC3    H2 4350   3.703   3.861  14.894 -0.4250 -2.0353  1.0678
  288TMC3    C7 4351   3.900   3.980  14.772 -0.4614  0.0123  0.1809
  288TMC3    C8 4352   3.628   3.618  14.905  0.3727  0.4586 -0.2711
  288TMC3    O1 4353   3.872   4.022  14.883  0.2583 -0.0974 -0.4639
  288TMC3    O2 4354   3.678   3.667  15.005  0.3597  0.5266  0.4098
  289MPD2     C 4355   4.015   2.768  14.673  0.8965 -0.5984 -0.4067
  289MPD2    C1 4356   4.027   2.880  14.589 -0.2279  0.2363 -0.0071
  289MPD2    C2 4357   3.908   2.916  14.524  0.0067  0.4644  0.5079
  289MPD2    C3 4358   3.792   2.832  14.514  0.2149 -0.3207 -0.2232
  289MPD2    C4 4359   3.798   2.713  14.583 -0.1392  0.0866 -0.0647
  289MPD2    C5 4360   3.899   2.691  14.682  0.8770 -0.0109 -0.3212
  289MPD2     H 4361   3.900   3.000  14.455 -1.4602 -1.2428 -1.3994
  289MPD2    H1 4362   3.710   2.650  14.580  0.1141 -0.2429 -0.4980
  289MPD2    H2 4363   4.096   2.734  14.736  1.7143  0.3903 -0.9332
  289MPD2    H3 4364   3.887   2.607  14.749  0.1767  0.3050 -0.0486
  289MPD2     N 4365   3.667   2.861  14.444  0.2308 -0.0438  0.2608
  289MPD2    H5 4366   3.601   2.783  14.447 -0.8772  0.8960  0.3259
  289MPD2    N1 4367   4.149   2.946  14.589  0.3179 -0.3037 -0.1849
  289MPD2    H7 4368   4.226   2.913  14.646 -0.3774 -0.9006  0.4168
  290TMC3    C1 4369   3.490   2.984  14.333  0.2078  0.1818 -0.2723
  290TMC3    C2 4370   3.436   3.107  14.312  0.4501 -0.4322 -0.4895
  290TMC3    C3 4371   3.333   3.106  14.226  0.1357  0.1074  0.1881
  290TMC3    C4 4372   3.455   2.874  14.276  0.8226  0.3780 -0.2482
  290TMC3    C5 4373   3.365   2.880  14.179  0.2115 -0.0245  0.4737
  290TMC3    C6 4374   3.293   2.994  14.155  0.0188 -0.5987  0.0499
  290TMC3     C 4375   3.619   2.986  14.400  0.7789  1.1254  0.0545
  290TMC3     O 4376   3.677   3.093  14.415 -0.0602  0.3127  0.0737
  290TMC3     H 4377   3.478   3.189  14.368  0.5505 -2.4135  2.3468
  290TMC3    H1 4378   3.525   2.791  14.276 -0.7386 -0.9399  0.2794
  290TMC3    H2 4379   3.234   3.006  14.065  2.1936 -2.0585 -1.5621
  290TMC3    C7 4380   3.351   2.766  14.093  0.5672  0.5565  0.1810
  290TMC3    C8 4381   3.251   3.226  14.206 -0.2826 -0.2161  0.3235
  290TMC3    O1 4382   3.334   2.794  13.974  0.0519 -0.0745 -0.3486
  290TMC3    O2 4383   3.147   3.216  14.147 -0.1980 -0.4295 -0.1370
  291MPD2     C 4384   2.893   2.543   0.789  0.7352 -0.5067 -0.2735
  291MPD2    C1 4385   2.847   2.520   0.662  0.0651 -0.4660 -0.2306
  291MPD2    C2 4386   2.912   2.561   0.546  1.1431 -0.6201 -0.0662
  291MPD2    C3 4387   3.035   2.619   0.556 -0.0263  0.0453  0.0560
  291MPD2    C4 4388   3.081   2.645   0.689 -0.2129  0.0803  0.2840
  291MPD2    C5 4389   3.018   2.599   0.798 -1.0044 -0.3205  0.1425
  291MPD2     H 4390   2.862   2.554   0.449  0.6174 -0.7405  0.2135
  291MPD2    H1 4391   3.176   2.698   0.692 -0.2130 -0.0069  1.6216
  291MPD2    H2 4392   2.837   2.516   0.877  1.8057  2.6700  1.3899
  291MPD2    H3 4393   3.056   2.617   0.898 -1.9573  1.2176  0.2159
  291MPD2     N 4394   3.114   2.659   0.445 -0.7066  0.1906 -0.0694
  291MPD2    H5 4395   3.199   2.710   0.468 -0.0115 -0.1601 -1.8054
  291MPD2    N1 4396   2.729   2.445   0.664  0.1147 -0.0482  0.0392
  291MPD2    H7 4397   2.684   2.433   0.754  1.0136 -2.0606  0.2242
  292TMC3    C1 4398   2.557   2.301   0.592  0.0132  0.1650  0.7855
  292TMC3    C2 4399   2.496   2.321   0.712  0.3595 -0.0251 -0.2772
  292TMC3    C3 4400   2.381   2.250   0.745  0.1250 -0.0450  0.1229
  292TMC3    C4 4401   2.496   2.220   0.506  0.4929 -0.1734 -0.3134
  292TMC3    C5 4402   2.387   2.150   0.540 -0.0745 -0.2177  0.5053
  292TMC3    C6 4403   2.330   2.155   0.660  0.1704 -0.7664  0.0318
  292TMC3     C 4404   2.672   2.380   0.553  0.0775 -1.2989 -0.0056
  292TMC3     O 4405   2.706   2.387   0.437  0.1512  0.3744 -0.4281
  292TMC3     H 4406   2.528   2.404   0.774 -0.2172 -0.3261  0.4362
  292TMC3    H1 4407   2.543   2.208   0.409  0.1595  2.3578 -0.7732
  292TMC3    H2 4408   2.253   2.084   0.687 -0.2382 -0.2888  0.1252
  292TMC3    C7 4409   2.339   2.056   0.433  0.6998 -0.3340  0.2423
  292TMC3    C8 4410   2.325   2.274   0.876  1.0884 -0.2518  0.3170
  292TMC3    O1 4411   2.419   2.025   0.343 -0.2757 -0.1692  0.2657
  292TMC3    O2 4412   2.401   2.328   0.953 -0.3549 -0.4734 -0.1599
  293MPD2     C 4413   0.375   4.538  12.680  0.2153 -0.5296 -0.8784
  293MPD2    C1 4414   0.334   4.424  12.748 -0.2610  0.5064 -0.2965
  293MPD2    C2 4415   0.393   4.405  12.867  0.5614  0.0709 -0.2821
  293MPD2    C3 4416   0.504   4.473  12.913 -0.8980  0.7463 -0.2606
  293MPD2    C4 4417   0.552   4.578  12.836 -0.0678 -0.5074 -0.0777
  293MPD2    C5 4418   0.484   4.610  12.721 -0.0136 -0.4836 -0.3238
  293MPD2     H 4419   0.364   4.326  12.937  1.2479 -0.8882 -1.0858
  293MPD2    H1 4420   0.642   4.633  12.860 -1.4823  2.6950 -2.1797
  293MPD2    H2 4421   0.326   4.569  12.589 -1.4823 -0.1266  0.1675
  293MPD2    H3 4422   0.518   4.690  12.656 -2.1339  1.4090  0.9223
  293MPD2     N 4423   0.548   4.446  13.044 -0.2963  0.1911 -0.3514
  293MPD2    H5 4424   0.502   4.378  13.104 -1.2849  0.8093 -0.4005
  293MPD2    N1 4425   0.235   4.341  12.693 -0.9452 -0.1286 -0.1929
  293MPD2    H7 4426   0.183   4.380  12.615 -2.3282  0.2124  0.8963
  294TMC3    C1 4427   0.087   4.154  12.680  0.5953 -0.1528  0.7787
  294TMC3    C2 4428   0.017   4.070  12.761  0.2071  0.2377 -0.2620
  294TMC3    C3 4429   4.659   3.976  12.701  0.1073 -0.5282 -0.8364
  294TMC3    C4 4430   0.090   4.146  12.544  0.2344  0.6883 -0.6147
  294TMC3    C5 4431   0.003   4.055  12.485  0.3601 -0.8984  0.0827
  294TMC3    C6 4432   4.647   3.972  12.563  0.2131 -0.2792 -0.2664
  294TMC3     C 4433   0.194   4.220  12.749 -0.7561  0.0341  0.0445
  294TMC3     O 4434   0.250   4.143  12.826 -0.4924  0.1246 -0.7651
  294TMC3     H 4435   0.038   4.074  12.868 -0.9226 -1.3935  0.0312
  294TMC3    H1 4436   0.163   4.199  12.484 -0.8100  2.6308 -0.1400
  294TMC3    H2 4437   4.585   3.899  12.511  0.9529 -0.5311 -0.8097
  294TMC3    C7 4438   4.700   4.050  12.341 -0.6213  0.3201 -0.0594
  294TMC3    C8 4439   4.596   3.885  12.787 -0.7259 -0.0361 -0.1742
  294TMC3    O1 4440   4.642   3.953  12.297  0.0268 -0.2199  0.0774
  294TMC3    O2 4441   4.609   3.906  12.907 -0.0627 -0.3848 -0.0677
  295MPD2     C 4442   0.568   3.380   0.622  0.6560 -0.3119 -0.4720
  295MPD2    C1 4443   0.665   3.289   0.641  0.1498 -0.1513  0.6210
  295MPD2    C2 4444   0.645   3.199   0.744 -0.2056  0.2499 -0.1029
  295MPD2    C3 4445   0.536   3.208   0.827  0.7331 -0.1308 -0.5460
  295MPD2    C4 4446   0.449   3.304   0.817  0.1842 -0.5450  0.8011
  295MPD2    C5 4447   0.462   3.392   0.711 -0.0976 -0.4850 -0.3865
  295MPD2     H 4448   0.727   3.129   0.756  0.7681  1.2784 -0.7799
  295MPD2    H1 4449   0.365   3.313   0.885  0.3960 -0.7203  1.0816
  295MPD2    H2 4450   0.577   3.450   0.540  0.6825 -1.2974 -1.3026
  295MPD2    H3 4451   0.381   3.463   0.699 -0.4324 -0.4978  1.7605
  295MPD2     N 4452   0.511   3.111   0.933  0.0433 -0.3282 -0.0946
  295MPD2    H5 4453   0.434   3.132   0.996 -0.0640 -1.7719  0.2660
  295MPD2    N1 4454   0.772   3.259   0.553  0.1169  0.2815  0.3165
  295MPD2    H7 4455   0.825   3.176   0.575  1.3078  1.5805  2.3253
  296TMC3    C1 4456   0.545   2.934   1.080  0.3963  0.2770  0.0923
  296TMC3    C2 4457   0.639   2.877   1.166 -0.3079 -0.6249  0.0943
  296TMC3    C3 4458   0.592   2.826   1.285 -0.2906 -0.7541 -0.5185
  296TMC3    C4 4459   0.411   2.942   1.117 -0.3279 -0.2081 -0.0308
  296TMC3    C5 4460   0.369   2.882   1.236  0.0825  0.4060 -0.0127
  296TMC3    C6 4461   0.460   2.819   1.320 -0.0513 -0.3405 -0.0610
  296TMC3     C 4462   0.593   3.008   0.964 -0.2295 -0.2321  0.2189
  296TMC3     O 4463   0.717   3.001   0.945 -0.0528 -0.2892 -0.4576
  296TMC3     H 4464   0.746   2.892   1.161 -0.2286 -1.2521 -0.1456
  296TMC3    H1 4465   0.340   2.990   1.050 -0.7653 -1.6679 -0.6161
  296TMC3    H2 4466   0.429   2.770   1.411  0.3236  1.4075  1.0035
  296TMC3    C7 4467   0.231   2.840   1.239 -0.5457 -0.3438  0.7942
  296TMC3    C8 4468   0.692   2.821   1.395  0.6271 -0.5497  0.0838
  296TMC3    O1 4469   0.159   2.879   1.150  0.0671 -0.1063 -0.1547
  296TMC3    O2 4470   0.803   2.794   1.359  0.0747 -0.4979  0.0298
  297MPD2     C 4471   2.808   0.224  16.178  0.2365 -0.0809 -0.1109
  297MPD2    C1 4472   2.772   0.358  16.158 -0.0489 -0.0480  0.2165
  297MPD2    C2 4473   2.853   0.460  16.207  0.3452 -0.4946 -1.4337
  297MPD2    C3 4474   2.973   0.434  16.269 -0.2937  0.7405 -0.5114
  297MPD2    C4 4475   3.007   0.300  16.274  0.1431 -0.4338 -0.1751
  297MPD2    C5 4476   2.928   0.194  16.233 -0.7300  0.4336 -0.1147
  297MPD2     H 4477   2.822   0.564  16.209 -2.9170 -1.5335  1.7366
  297MPD2    H1 4478   3.106   0.286  16.316  0.3421 -1.0192 -0.8517
  297MPD2    H2 4479   2.742   0.140  16.161 -2.0423  1.9504 -1.2014
  297MPD2    H3 4480   2.955   0.090  16.251  0.0056  0.2603 -2.2141
  297MPD2     N 4481   3.062   0.537  16.321 -0.1110  0.4276 -0.1648
  297MPD2    H5 4482   3.155   0.510  16.350 -0.1877  0.5581  0.2029
  297MPD2    N1 4483   2.661   0.400  16.075  0.5744 -0.4787 -0.8012
  297MPD2    H7 4484   2.636   0.497  16.059 -0.0013 -0.1523  2.1507
  298TMC3    C1 4485   2.488   0.363  15.917 -0.2064 -0.4627 -0.1145
  298TMC3    C2 4486   2.443   0.278  15.819  0.2102 -0.2350 -1.2547
  298TMC3    C3 4487   2.318   0.292  15.770 -0.7240  0.5654  0.2780
  298TMC3    C4 4488   2.405   0.457  15.972  0.6070  0.1193  0.3894
  298TMC3    C5 4489   2.281   0.468  15.915  0.2955  0.1712  0.6317
  298TMC3    C6 4490   2.232   0.389  15.815 -0.8128  0.3327 -0.4305
  298TMC3     C 4491   2.605   0.314  15.985 -0.0016  0.5141 -0.2909
  298TMC3     O 4492   2.645   0.204  15.953  0.4048  0.4238  0.2665
  298TMC3     H 4493   2.498   0.190  15.785 -1.2520 -1.7855  0.3814
  298TMC3    H1 4494   2.422   0.501  16.069 -3.2248 -0.4804  1.3519
  298TMC3    H2 4495   2.129   0.393  15.782 -0.6105 -2.1925 -1.3480
  298TMC3    C7 4496   2.210   0.593  15.942 -0.1714 -0.4579 -0.1332
  298TMC3    C8 4497   2.263   0.183  15.695 -0.2843  0.0405  0.4219
  298TMC3    O1 4498   2.232   0.648  16.046 -0.0720 -0.2951 -0.1827
  298TMC3    O2 4499   2.297   0.067  15.722 -0.1632  0.1757 -0.1419
  299MPD2     C 4500   3.973   0.279  10.438  0.1401 -0.3378  0.4427
  299MPD2    C1 4501   3.881   0.266  10.538  0.0396  0.3150 -0.0836
  299MPD2    C2 4502   3.757   0.214  10.512  0.4281 -0.5819  0.2294
  299MPD2    C3 4503   3.716   0.180  10.385  0.0309 -0.1160 -0.4703
  299MPD2    C4 4504   3.822   0.196  10.290 -0.1667  0.4796 -0.4548
  299MPD2    C5 4505   3.943   0.243  10.316  0.2007 -0.5881 -0.2096
  299MPD2     H 4506   3.681   0.203  10.589  0.2759  1.7794  0.4368
  299MPD2    H1 4507   3.815   0.170  10.185 -0.0335  0.8225 -0.5501
  299MPD2    H2 4508   4.073   0.317  10.456 -0.1003  0.3748  0.2775
  299MPD2    H3 4509   4.010   0.237  10.231 -2.8092 -0.5090 -2.5809
  299MPD2     N 4510   3.580   0.150  10.357  0.5746 -0.0955  0.5647
  299MPD2    H5 4511   3.519   0.158  10.437  0.9080  1.2243  0.6837
  299MPD2    N1 4512   3.925   0.312  10.663 -0.2368 -0.4166 -0.4246
  299MPD2    H7 4513   4.017   0.354  10.673 -0.0072 -1.6352  2.6089
  300TMC3    C1 4514   3.386   0.167  10.231  0.1128 -0.3696 -0.2378
  300TMC3    C2 4515   3.330   0.278  10.189  0.2557  0.3602 -0.5097
  300TMC3    C3 4516   3.200   0.307  10.230  0.1816  0.4116  0.6657
  300TMC3    C4 4517   3.330   0.090  10.323 -0.1828  0.3169  0.2789
  300TMC3    C5 4518   3.199   0.115  10.360  0.6521  0.0012 -0.0087
  300TMC3    C6 4519   3.128   0.221  10.307  0.8237 -0.7576 -0.2096
  300TMC3     C 4520   3.528   0.159  10.233 -0.1975  0.4273 -0.3727
  300TMC3     O 4521   3.582   0.206  10.135  0.1207  0.0179  0.4573
  300TMC3     H 4522   3.381   0.349  10.125  1.8867  0.3598  0.7946
  300TMC3    H1 4523   3.379   4.720  10.349 -1.0467  0.3282  1.9722
  300TMC3    H2 4524   3.046   0.264  10.364  3.0693  1.0435  1.6731
  300TMC3    C7 4525   3.158   0.049  10.482  0.2934  0.0322 -0.2415
  300TMC3    C8 4526   3.204   0.443  10.296 -0.4231 -0.6339  0.0323
  300TMC3    O1 4527   3.243   4.698  10.533 -0.3120 -0.1349 -0.0158
  300TMC3    O2 4528   3.296   0.466  10.375 -0.2207 -0.1051  0.0270
  301MPD2     C 4529   4.274   1.320   2.040  0.2990  0.1097 -0.3795
  301MPD2    C1 4530   4.271   1.435   1.963 -0.6099 -0.5465  0.1008
  301MPD2    C2 4531   4.340   1.429   1.846 -0.1982  0.2212 -0.1393
  301MPD2    C3 4532   4.405   1.312   1.801  0.6485  0.5439 -0.3618
  301MPD2    C4 4533   4.415   1.202   1.880  0.9343  0.2003  0.5009
  301MPD2    C5 4534   4.348   1.206   2.000  0.3834  0.6258  0.9123
  301MPD2     H 4535   4.336   1.519   1.786  2.0041 -0.7249 -1.7124
  301MPD2    H1 4536   4.457   1.108   1.846 -0.7810 -0.0728 -0.9148
  301MPD2    H2 4537   4.210   1.319   2.128 -1.7668  0.5575 -1.8761
  301MPD2    H3 4538   4.358   1.117   2.061  3.6663 -0.0784 -0.6270
  301MPD2     N 4539   4.482   1.317   1.678  0.5090  0.4531  0.3766
  301MPD2    H5 4540   4.534   1.233   1.654 -0.0223  0.6000 -1.3330
  301MPD2    N1 4541   4.214   1.559   1.990 -0.0880  0.1078 -0.1977
  301MPD2    H7 4542   4.228   1.640   1.930  1.7826  0.5723  0.8892
  302TMC3    C1 4543   4.565   1.388   1.463 -0.7973 -0.2442  0.1875
  302TMC3    C2 4544   4.652   1.281   1.459  0.6722  0.0888 -0.1355
  302TMC3    C3 4545   4.707   1.249   1.337  0.4457  0.2686 -0.3746
  302TMC3    C4 4546   4.547   1.473   1.358  0.0231  0.4877  0.1254
  302TMC3    C5 4547   4.603   1.432   1.242  0.7617 -0.6380 -0.0171
  302TMC3    C6 4548   4.698   1.332   1.228 -0.9770 -0.5081  0.4145
  302TMC3     C 4549   4.481   1.415   1.582 -0.2854  0.5776  0.1272
  302TMC3     O 4550   4.427   1.524   1.582  0.5456  0.6132  0.0878
  302TMC3     H 4551   4.683   1.230   1.549 -0.9052 -1.2991 -0.3745
  302TMC3    H1 4552   4.499   1.570   1.375  1.3812  1.2561 -0.4459
  302TMC3    H2 4553   0.007   1.292   1.132  0.8952 -2.7934  2.0082
  302TMC3    C7 4554   4.551   1.487   1.117 -0.7107  0.1158  0.0783
  302TMC3    C8 4555   0.055   1.123   1.311 -0.1931  0.1514 -0.5336
  302TMC3    O1 4556   4.607   1.440   1.017 -0.0835 -0.1607  0.0838
  302TMC3    O2 4557   0.131   1.116   1.215  0.5160  0.4472 -0.3741
  303MPD2     C 4558   4.542   4.100  10.969  0.1374  0.3801 -0.2705
  303MPD2    C1 4559   4.560   3.971  10.922 -0.1219  0.1378  0.4934
  303MPD2    C2 4560   4.613   3.952  10.796 -0.3141  0.0312  0.5898
  303MPD2    C3 4561   4.654   4.059  10.717  0.1504  0.2903  0.2965
  303MPD2    C4 4562   4.648   4.186  10.777 -0.0452 -0.7060  0.5113
  303MPD2    C5 4563   4.584   4.203  10.896  0.1600  0.0569  0.2341
  303MPD2     H 4564   4.612   3.855  10.748  0.3224 -0.6362  1.9283
  303MPD2    H1 4565   4.689   4.272  10.726  0.0635  0.1221  2.0183
  303MPD2    H2 4566   4.495   4.131  11.062 -0.8315 -2.5742  0.1925
  303MPD2    H3 4567   4.579   4.299  10.946 -0.0396  0.5315 -0.6950
  303MPD2     N 4568   4.714   4.049  10.584 -0.1964  0.3602 -0.0431
  303MPD2    H5 4569   0.009   4.138  10.538  3.7624 -0.1244  0.5156
  303MPD2    N1 4570   4.523   3.870  11.010  0.1517  0.7085 -0.5463
  303MPD2    H7 4571   4.474   3.885  11.098  0.5035  1.9224 -0.5600
  304TMC3    C1 4572   4.472   3.639  11.071  0.1132  0.3441 -0.0849
  304TMC3    C2 4573   4.343   3.662  11.095  0.3923  0.1710  0.4345
  304TMC3    C3 4574   4.262   3.558  11.136  0.6818  0.3407 -0.6435
  304TMC3    C4 4575   4.530   3.508  11.066  0.1355 -0.4921  0.4504
  304TMC3    C5 4576   4.444   3.409  11.101  0.4295  0.3698 -0.4861
  304TMC3    C6 4577   4.316   3.432  11.147  0.7733 -0.6034  0.2130
  304TMC3     C 4578   4.540   3.734  10.980  0.2121 -0.3411 -0.7805
  304TMC3     O 4579   4.588   3.678  10.889 -0.3305 -0.2685 -0.1299
  304TMC3     H 4580   4.299   3.761  11.094 -1.4454 -0.6823 -1.0204
  304TMC3    H1 4581   4.633   3.502  11.033 -0.9272 -2.0436 -2.6880
  304TMC3    H2 4582   4.255   3.353  11.188 -1.1158  0.0933 -1.2718
  304TMC3    C7 4583   4.451   3.292  11.018 -0.3229  0.2346 -0.7093
  304TMC3    C8 4584   4.122   3.556  11.091 -0.6732 -0.1103  0.4082
  304TMC3    O1 4585   4.347   3.234  10.990  0.0087  0.6290  0.5143
  304TMC3    O2 4586   4.066   3.665  11.086  1.2468 -0.3615 -0.9460
  305MPD2     C 4587   3.412   1.295  14.151  0.1693  0.5293  0.2214
  305MPD2    C1 4588   3.535   1.329  14.129  0.0053 -0.0772 -0.5794
  305MPD2    C2 4589   3.587   1.333  13.998 -0.1183  0.1013 -0.8413
  305MPD2    C3 4590   3.504   1.301  13.895  0.7310 -0.3132 -0.2246
  305MPD2    C4 4591   3.372   1.268  13.918  0.1370  0.6004 -0.4855
  305MPD2    C5 4592   3.330   1.259  14.049 -0.2643 -0.4699  0.0301
  305MPD2     H 4593   3.692   1.351  13.978  0.2432 -2.1276 -0.9356
  305MPD2    H1 4594   3.297   1.253  13.841  2.0093 -0.5060 -2.1263
  305MPD2    H2 4595   3.367   1.297  14.249 -0.2604  2.3884 -0.0230
  305MPD2    H3 4596   3.228   1.234  14.075 -0.3247  1.7765  1.9428
  305MPD2     N 4597   3.541   1.300  13.759  0.4672  0.2254 -0.6608
  305MPD2    H5 4598   3.461   1.285  13.700 -0.5234 -0.4849  0.8682
  305MPD2    N1 4599   3.606   1.361  14.251 -0.1313 -0.0274 -0.1167
  305MPD2    H7 4600   3.547   1.366  14.334  0.3732 -1.5969  0.3281
  306TMC3    C1 4601   3.788   1.398  14.397  0.1569  0.6401  0.8859
  306TMC3    C2 4602   3.920   1.360  14.419  0.0895  0.7168  0.5657
  306TMC3    C3 4603   3.964   1.347  14.549  0.1367  0.0242 -0.3586
  306TMC3    C4 4604   3.709   1.409  14.511 -0.2055 -0.2433 -1.0887
  306TMC3    C5 4605   3.769   1.416  14.638  0.3259  0.0765 -0.0703
  306TMC3    C6 4606   3.890   1.373  14.662 -0.4750 -0.0122  0.3744
  306TMC3     C 4607   3.737   1.387  14.260  0.5352 -0.1043  0.3143
  306TMC3     O 4608   3.822   1.407  14.172  0.2466 -0.1236 -0.0313
  306TMC3     H 4609   3.985   1.339  14.335  0.7592 -0.2077  1.3181
  306TMC3    H1 4610   3.609   1.448  14.497  0.0438  1.2860  1.2793
  306TMC3    H2 4611   3.917   1.351  14.765 -0.9338  1.3384  0.7898
  306TMC3    C7 4612   3.687   1.447  14.752  0.0878 -0.0084 -0.0076
  306TMC3    C8 4613   4.101   1.298  14.568  0.1482 -0.5497 -0.4477
  306TMC3    O1 4614   3.568   1.460  14.733 -0.8867 -0.2297 -0.3731
  306TMC3    O2 4615   4.144   1.218  14.488  0.1502 -0.3833  0.2067
  307MPD2     C 4616   1.441   4.036  17.592 -0.1225  0.6580 -0.2518
  307MPD2    C1 4617   1.363   4.130  17.652 -0.2110  0.2757 -0.2642
  307MPD2    C2 4618   1.290   4.094   0.077 -0.1675 -0.2529 -0.1431
  307MPD2    C3 4619   1.291   3.963   0.124  0.4870  0.2477 -0.8134
  307MPD2    C4 4620   1.371   3.881   0.064  0.0424  0.1721 -0.2793
  307MPD2    C5 4621   1.450   3.915  17.651 -0.1343 -0.0847  0.1785
  307MPD2     H 4622   1.233   4.167   0.133 -0.0758 -1.2169  1.2188
  307MPD2    H1 4623   1.386   3.776   0.086  0.1479  0.0113 -1.1168
  307MPD2    H2 4624   1.490   4.050  17.496 -0.8821  2.5012 -0.3785
  307MPD2    H3 4625   1.499   3.832  17.600  1.0936  0.5074  0.3783
  307MPD2     N 4626   1.212   3.930   0.233  0.1320 -0.7235  0.2425
  307MPD2    H5 4627   1.139   3.998   0.251  0.4842 -0.3192  0.1391
  307MPD2    N1 4628   1.347   4.264  17.599  0.0160  0.3657  0.1816
  307MPD2    H7 4629   1.284   4.325  17.650 -1.7376 -0.3871 -1.0557
  308TMC3    C1 4630   0.916   3.911   0.464 -0.2050  0.8024  0.2321
  308TMC3    C2 4631   0.966   3.966   0.578  0.1522 -0.2112 -0.3314
  308TMC3    C3 4632   1.093   3.929   0.609 -0.5008 -0.4315 -0.3400
  308TMC3    C4 4633   0.994   3.835   0.385  0.4785  0.2830 -0.4934
  308TMC3    C5 4634   1.127   3.814   0.408 -0.3327  0.1422 -0.3195
  308TMC3    C6 4635   1.174   3.852   0.530 -0.2064 -0.0984  0.0402
  308TMC3     C 4636   0.782   3.922   0.426  0.0614  0.1484 -0.1672
  308TMC3     O 4637   0.737   3.822   0.376 -0.0050 -0.3326 -0.0319
  308TMC3     H 4638   0.909   4.036   0.638  2.8644  0.7360  1.1054
  308TMC3    H1 4639   0.959   3.796   0.290 -1.4035  1.4813 -0.3024
  308TMC3    H2 4640   1.282   3.859   0.542 -0.5122  1.3662  1.8250
  308TMC3    C7 4641   1.226   3.811   0.305 -0.1520  0.1808 -1.2794
  308TMC3    C8 4642   1.166   4.011   0.703  0.3598  0.2223 -0.1639
  308TMC3    O1 4643   1.312   3.726   0.301  0.0121  0.2193  0.4837
  308TMC3    O2 4644   1.259   3.960   0.767 -0.0061 -0.1442  0.4008
  309MPD2     C 4645   0.395   4.456  17.052 -1.0017 -0.4256  0.0254
  309MPD2    C1 4646   0.405   4.568  16.970 -0.3293  0.0995  0.1768
  309MPD2    C2 4647   0.357   4.689  17.014  0.7414 -0.2021  0.1460
  309MPD2    C3 4648   0.285   4.696  17.134 -0.2484  0.6680 -0.9788
  309MPD2    C4 4649   0.285   4.587  17.219 -0.6413 -0.1796  0.0560
  309MPD2    C5 4650   0.332   4.471  17.171 -0.0964 -0.6857  0.0819
  309MPD2     H 4651   0.358   0.053  16.948 -1.0071  0.3276  0.8037
  309MPD2    H1 4652   0.232   4.590  17.313  0.1466 -1.2079  0.5291
  309MPD2    H2 4653   0.438   4.362  17.019  1.4674  0.8707 -0.4618
  309MPD2    H3 4654   0.331   4.388  17.241  3.3859 -0.2625  0.6269
  309MPD2     N 4655   0.220   0.094  17.177 -0.1290  0.3776 -0.0506
  309MPD2    H5 4656   0.178   0.095  17.269 -0.3958 -0.3887 -0.1669
  309MPD2    N1 4657   0.474   4.566  16.845  0.1276  0.1893  0.6196
  309MPD2    H7 4658   0.494   4.657  16.804  0.5921 -1.4796 -2.7456
  310TMC3    C1 4659   0.595   4.483  16.657 -0.5261  0.0645 -0.6422
  310TMC3    C2 4660   0.560   4.601  16.595  0.0805  0.1315 -0.0946
  310TMC3    C3 4661   0.652   4.646  16.507 -0.3304 -0.1460  0.0919
  310TMC3    C4 4662   0.713   4.408  16.634 -0.3379  0.0023 -0.1408
  310TMC3    C5 4663   0.803   4.466  16.549  0.0956 -0.0110 -0.1865
  310TMC3    C6 4664   0.776   4.584  16.488 -0.4030 -0.2416 -0.1306
  310TMC3     C 4665   0.529   4.455  16.786 -0.3131  0.3004 -0.7234
  310TMC3     O 4666   0.503   4.333  16.814  0.0940 -0.1069  0.3320
  310TMC3     H 4667   0.468   4.656  16.606 -0.7508 -0.7894 -2.4645
  310TMC3    H1 4668   0.740   4.312  16.678  0.4155  1.0086  1.5962
  310TMC3    H2 4669   0.857   4.627  16.429  0.4051  0.0975  1.2228
  310TMC3    C7 4670   0.938   4.415  16.554 -0.1960 -0.7952 -0.5168
  310TMC3    C8 4671   0.605   0.030  16.411  0.9006  0.3320  0.0630
  310TMC3    O1 4672   0.956   4.295  16.558  0.1986  0.5309 -0.1564
  310TMC3    O2 4673   0.522   0.111  16.450 -0.1895 -0.2845 -1.0993
  311MPD2     C 4674   2.916   0.854  12.601  0.0113  0.1338 -0.1034
  311MPD2    C1 4675   2.913   0.983  12.647 -1.0097 -0.4775 -0.5918
  311MPD2    C2 4676   2.785   1.040  12.663 -0.9278 -0.1089  0.0673
  311MPD2    C3 4677   2.669   0.970  12.647  0.6052  0.0993  0.2210
  311MPD2    C4 4678   2.678   0.835  12.609 -0.5248  0.0933  0.2035
  311MPD2    C5 4679   2.804   0.781  12.592 -0.2048 -0.6129  0.1301
  311MPD2     H 4680   2.778   1.139  12.706  2.4185 -0.8968  2.3813
  311MPD2    H1 4681   2.592   0.771  12.595 -0.1574 -0.6503  1.3300
  311MPD2    H2 4682   3.008   0.806  12.569  0.0803  0.1082  0.1346
  311MPD2    H3 4683   2.818   0.674  12.590  0.9832 -0.4685  1.0896
  311MPD2     N 4684   2.548   1.029  12.679  0.4149  0.1672  0.0055
  311MPD2    H5 4685   2.541   1.129  12.693  0.6349  0.3669 -1.2568
  311MPD2    N1 4686   3.027   1.065  12.670  0.0875 -0.0106  0.1458
  311MPD2    H7 4687   3.010   1.157  12.710  0.8911 -0.1895  0.9109
  312TMC3    C1 4688   2.326   1.055  12.726 -0.3095  0.1590  0.1454
  312TMC3    C2 4689   2.203   1.052  12.668 -0.3042  0.2740  0.3405
  312TMC3    C3 4690   2.105   1.135  12.720  0.3477 -0.0747 -0.3554
  312TMC3    C4 4691   2.356   1.130  12.834  0.4848 -0.6016 -0.0010
  312TMC3    C5 4692   2.252   1.209  12.882 -0.3918 -0.2549  0.5683
  312TMC3    C6 4693   2.128   1.203  12.833  0.1144 -0.5985  0.9375
  312TMC3     C 4694   2.424   0.968  12.671 -0.0541 -0.4471 -0.2332
  312TMC3     O 4695   2.384   0.863  12.630 -0.2379  0.5261  0.0161
  312TMC3     H 4696   2.180   0.993  12.580  0.5993  0.4207  0.0036
  312TMC3    H1 4697   2.455   1.128  12.877  1.1437  2.0326 -1.3896
  312TMC3    H2 4698   2.051   1.249  12.893 -1.5012 -1.9762 -0.0985
  312TMC3    C7 4699   2.264   1.279  13.012  0.0781  0.0795 -0.6471
  312TMC3    C8 4700   1.981   1.159  12.641  0.4983  0.0712  0.4935
  312TMC3    O1 4701   2.258   1.402  13.016  0.3773 -0.0763  0.8529
  312TMC3    O2 4702   1.957   1.080  12.550 -0.3118  0.4423  0.1319
  313MPD2     C 4703   2.640   0.804  11.104  0.8910  0.6259  0.3155
  313MPD2    C1 4704   2.532   0.792  11.019 -0.1011  0.0603  0.7985
  313MPD2    C2 4705   2.545   0.751  10.892 -0.1995  0.5301  0.1898
  313MPD2    C3 4706   2.665   0.695  10.844 -0.1802 -0.9512  0.4250
  313MPD2    C4 4707   2.772   0.687  10.931 -0.2347  0.3834  0.3834
  313MPD2    C5 4708   2.761   0.746  11.056 -0.1822 -0.4680 -0.3216
  313MPD2     H 4709   2.462   0.750  10.822 -0.8140 -3.6126  1.0311
  313MPD2    H1 4710   2.875   0.659  10.913  0.0443  1.3665  0.4340
  313MPD2    H2 4711   2.632   0.843  11.205  0.2491 -1.5447  1.1005
  313MPD2    H3 4712   2.843   0.755  11.126  0.1759  2.0137 -1.0862
  313MPD2     N 4713   2.666   0.652  10.712 -0.1032  0.2631 -0.2384
  313MPD2    H5 4714   2.587   0.685  10.657  0.1511 -0.3186 -0.9490
  313MPD2    N1 4715   2.402   0.834  11.047  0.5499  0.3580 -0.3578
  313MPD2    H7 4716   2.329   0.820  10.978  0.6061  3.9837 -1.1601
  314TMC3    C1 4717   2.229   0.961  11.135  0.3555  0.4009 -0.2874
  314TMC3    C2 4718   2.203   1.088  11.181  0.7611  0.3226  0.2861
  314TMC3    C3 4719   2.123   1.165  11.099 -0.0877  0.0484 -0.2893
  314TMC3    C4 4720   2.163   0.908  11.029 -0.0486  0.7453  0.4964
  314TMC3    C5 4721   2.085   0.983  10.950 -0.6769 -0.0759  0.2034
  314TMC3    C6 4722   2.055   1.114  10.985 -0.2249 -0.4144  0.8812
  314TMC3     C 4723   2.360   0.901  11.160  0.0344  0.4879  0.2175
  314TMC3     O 4724   2.428   0.925  11.256 -0.3011 -0.2571 -0.5387
  314TMC3     H 4725   2.268   1.130  11.257  1.1346  0.1554  0.0619
  314TMC3    H1 4726   2.178   0.804  10.999 -0.8307  0.1718  2.0883
  314TMC3    H2 4727   1.994   1.178  10.922  1.5875  0.1588 -0.3043
  314TMC3    C7 4728   2.094   0.953  10.806  0.9153  0.4109 -0.6229
  314TMC3    C8 4729   2.124   1.309  11.111 -0.0098 -0.1288  0.2084
  314TMC3    O1 4730   2.200   0.904  10.770 -0.2168 -0.2950 -0.6608
  314TMC3    O2 4731   2.047   1.372  11.040 -0.5783  0.5491 -0.4888
  315MPD2     C 4732   1.774   4.315  17.326  0.0030  0.5648 -0.5123
  315MPD2    C1 4733   1.821   4.406  17.424 -0.4418  0.1004  0.8628
  315MPD2    C2 4734   1.862   4.530  17.377 -0.5514  0.1214  0.0539
  315MPD2    C3 4735   1.873   4.557  17.243  0.3537  0.5510  0.6093
  315MPD2    C4 4736   1.836   4.455  17.158 -0.4274 -0.2605  0.2645
  315MPD2    C5 4737   1.779   4.342  17.195  1.0706  0.4573 -0.0236
  315MPD2     H 4738   1.895   4.603  17.450 -0.4254  1.0003 -0.8826
  315MPD2    H1 4739   1.845   4.463  17.050  1.0558 -0.4031  0.3667
  315MPD2    H2 4740   1.732   4.218  17.354 -2.9404  0.9709 -3.5196
  315MPD2    H3 4741   1.764   4.263  17.123 -0.6306  1.1484 -0.4231
  315MPD2     N 4742   1.942   4.677  17.206 -0.3984  0.1654  0.3039
  315MPD2    H5 4743   1.991   4.721  17.283  0.1037  1.0160 -0.4935
  315MPD2    N1 4744   1.818   4.381  17.562 -0.1560 -0.6041 -0.0800
  315MPD2    H7 4745   1.841   4.451  17.631 -2.2204  1.3417 -1.3356
  316TMC3    C1 4746   1.999   0.145  17.073  0.4273 -0.3701 -0.2260
  316TMC3    C2 4747   2.057   0.200  17.183 -0.7593 -0.0130 -0.0765
  316TMC3    C3 4748   2.069   0.333  17.189  0.4195  0.1821 -0.5395
  316TMC3    C4 4749   1.953   0.228  16.973 -0.2164 -0.1969  0.4112
  316TMC3    C5 4750   1.967   0.364  16.989 -1.0381 -1.2327 -0.0599
  316TMC3    C6 4751   2.028   0.421  17.096 -0.1479  0.7971  0.4026
  316TMC3     C 4752   1.927   0.013  17.084 -0.0814  0.3778 -0.5347
  316TMC3     O 4753   1.851   4.698  16.995  0.7222 -0.2898  0.5560
  316TMC3     H 4754   2.109   0.136  17.253 -1.5613  0.2114  0.7240
  316TMC3    H1 4755   1.891   0.188  16.894  0.3855  0.8844 -0.6100
  316TMC3    H2 4756   2.041   0.528  17.112 -1.7909  0.7821  1.8158
  316TMC3    C7 4757   1.837   0.426  16.965  0.9762 -0.1376  0.2815
  316TMC3    C8 4758   2.192   0.372  17.252  0.2923  0.1204  0.5902
  316TMC3    O1 4759   1.748   0.359  17.016  0.2508  0.6298 -0.3210
  316TMC3    O2 4760   2.247   0.469  17.205  0.3750  0.4573 -0.4020
  317MPD2     C 4761   3.257   3.219  13.054  0.3903  0.2393 -0.2857
  317MPD2    C1 4762   3.242   3.084  13.060 -0.4338  0.0542 -0.4557
  317MPD2    C2 4763   3.310   3.010  13.152 -0.2924  0.3741 -0.6907
  317MPD2    C3 4764   3.382   3.066  13.252  0.2214  1.0030  0.3269
  317MPD2    C4 4765   3.384   3.201  13.261  0.1307 -0.5720  0.2569
  317MPD2    C5 4766   3.316   3.281  13.168  0.5550 -0.1285 -0.0205
  317MPD2     H 4767   3.308   2.902  13.139  0.6742  0.4604 -1.5109
  317MPD2    H1 4768   3.424   3.254  13.347  0.4934 -1.9809  0.9584
  317MPD2    H2 4769   3.185   3.283  13.005  0.0847 -1.6772 -2.3277
  317MPD2    H3 4770   3.303   3.389  13.168 -2.7305 -0.5271  0.2348
  317MPD2     N 4771   3.451   2.980  13.337 -0.4305 -0.1171 -0.1216
  317MPD2    H5 4772   3.429   2.881  13.330  0.0558 -0.2436  0.1428
  317MPD2    N1 4773   3.174   3.010  12.958 -1.0130 -0.0190  0.3745
  317MPD2    H7 4774   3.177   2.909  12.965  1.0475  0.0641  0.7947
  318TMC3    C1 4775   3.613   2.895  13.482 -0.0664 -0.2894  0.8961
  318TMC3    C2 4776   3.541   2.779  13.487 -0.1939 -0.3091  0.2411
  318TMC3    C3 4777   3.620   2.665  13.510  0.6748  0.2380  0.2032
  318TMC3    C4 4778   3.746   2.912  13.505  0.1595 -0.2543 -0.6851
  318TMC3    C5 4779   3.816   2.800  13.536  0.3277  0.6700  0.6166
  318TMC3    C6 4780   3.756   2.675  13.537  0.0348 -0.3137 -0.1355
  318TMC3     C 4781   3.558   3.017  13.421  0.1412 -0.0685  0.2373
  318TMC3     O 4782   3.604   3.128  13.425 -0.5001  0.0003 -0.0656
  318TMC3     H 4783   3.435   2.776  13.508  0.3049  0.4616  2.8033
  318TMC3    H1 4784   3.783   3.013  13.493  1.1238 -0.6706 -1.2373
  318TMC3    H2 4785   3.813   2.585  13.556  1.7396  0.9235  0.6218
  318TMC3    C7 4786   3.959   2.814  13.513  0.6529 -0.4443  0.9091
  318TMC3    C8 4787   3.554   2.536  13.538 -0.4223  0.2167 -0.4317
  318TMC3    O1 4788   3.984   2.906  13.438 -0.4740  0.2205  0.1109
  318TMC3    O2 4789   3.614   2.462  13.616  0.1526  0.3357 -0.1029
  319MPD2     C 4790   0.079   4.333  16.977  0.1794  0.3020  0.3139
  319MPD2    C1 4791   0.069   4.197  16.951  0.1314  0.2119  0.3660
  319MPD2    C2 4792   0.056   4.153  16.819  0.0041 -0.0095 -0.4116
  319MPD2    C3 4793   0.068   4.232  16.708 -0.1872  0.3008 -0.2591
  319MPD2    C4 4794   0.097   4.367  16.734  0.0279 -0.2580 -0.3742
  319MPD2    C5 4795   0.099   4.414  16.865 -0.6678 -0.2804  1.2035
  319MPD2     H 4796   0.060   4.046  16.802  0.7114 -0.0579  0.0594
  319MPD2    H1 4797   0.124   4.436  16.655  1.4082  0.7863  1.0043
  319MPD2    H2 4798   0.092   4.376  17.075 -0.1164  3.3403 -0.9620
  319MPD2    H3 4799   0.130   4.517  16.881 -0.0219 -0.4186  0.8561
  319MPD2     N 4800   0.062   4.197  16.573  0.3536  0.1640  0.3866
  319MPD2    H5 4801   0.045   4.269  16.504  1.8352 -0.4234 -0.5984
  319MPD2    N1 4802   0.068   4.116  17.062  0.5331  0.0256  0.2099
  319MPD2    H7 4803   0.075   4.163  17.152  0.4294  0.5422 -0.0504
  320TMC3    C1 4804   0.006   4.053  16.385 -0.0410  0.7617  0.7152
  320TMC3    C2 4805   4.667   4.159  16.316  0.4574  0.1011  0.4722
  320TMC3    C3 4806   4.557   4.145  16.238 -0.0827  0.4367  0.2240
  320TMC3    C4 4807   4.685   3.927  16.360  0.2284 -0.0120  0.4120
  320TMC3    C5 4808   4.573   3.916  16.283  0.1629 -0.4402  0.5223
  320TMC3    C6 4809   4.504   4.019  16.218 -0.6326 -0.5733  0.2246
  320TMC3     C 4810   0.045   4.068  16.527  0.6215  0.0942  0.3412
  320TMC3     O 4811   0.062   3.967  16.592 -0.4668 -0.4407 -0.3841
  320TMC3     H 4812   4.707   4.258  16.334 -4.6533  1.5508  3.8801
  320TMC3    H1 4813   0.016   3.843  16.404  0.4160  0.1657  0.5256
  320TMC3    H2 4814   4.417   4.003  16.155 -0.2400  1.9053 -0.9760
  320TMC3    C7 4815   4.505   3.788  16.267  0.0978  0.2473 -0.0900
  320TMC3    C8 4816   4.492   4.265  16.189  0.5489  0.6932  0.3381
  320TMC3    O1 4817   4.447   3.762  16.162 -0.2075 -0.1442  0.5851
  320TMC3    O2 4818   4.512   4.372  16.248 -0.3649  0.6335  0.2285
  321TMC3    C1 4819   0.079   3.924  17.189  0.4858 -0.3299 -0.0163
  321TMC3    C2 4820   0.150   3.804  17.191  0.1721  0.2221  0.1156
  321TMC3    C3 4821   0.224   3.767  17.305 -0.7267 -0.1158  0.9804
  321TMC3    C4 4822   0.065   4.008  17.298 -0.9086 -0.1017 -0.0929
  321TMC3    C5 4823   0.150   3.984  17.401  0.3534  0.3030 -0.0534
  321TMC3    C6 4824   0.228   3.864  17.408  0.1432  0.2361  0.0765
  321TMC3     C 4825   0.056   3.981  17.058 -0.6710 -0.4596 -0.7663
  321TMC3     O 4826   0.062   3.904  16.965  0.0152 -0.3782 -0.2776
  321TMC3     H 4827   0.147   3.741  17.103  2.6099 -0.8786  0.8213
  321TMC3    H1 4828   0.013   4.103  17.301  0.7816  0.8617 -1.9145
  321TMC3    H2 4829   0.287   3.842  17.496 -0.3191 -0.3252  0.2497
  321TMC3    C7 4830   0.245   4.095  17.411  0.7067 -0.9032 -0.4574
  321TMC3    C8 4831   0.355   3.713  17.285  0.2543 -0.0062  0.3731
  321TMC3    O1 4832   0.205   4.211  17.406  0.2204 -0.2232 -0.0779
  321TMC3    O2 4833   0.440   3.773  17.351  0.4680  0.0216  0.0829
  322MPD2     C 4834   3.605   0.943  13.649  0.2356  0.1031 -0.3757
  322MPD2    C1 4835   3.611   0.884  13.772 -0.0709 -0.2502  0.1981
  322MPD2    C2 4836   3.605   0.747  13.783 -0.0172 -0.9063  0.0190
  322MPD2    C3 4837   3.576   0.664  13.675  0.0233  0.4001 -0.6814
  322MPD2    C4 4838   3.553   0.727  13.555  0.3370  0.4033  0.5160
  322MPD2    C5 4839   3.568   0.866  13.544 -0.3170  0.3569 -0.2473
  322MPD2     H 4840   3.626   0.695  13.876 -2.4503 -1.1777  0.4103
  322MPD2    H1 4841   3.519   0.677  13.466  1.5296  2.8560 -1.3313
  322MPD2    H2 4842   3.619   1.047  13.625  0.0612  0.4622  1.0602
  322MPD2    H3 4843   3.542   0.907  13.447 -0.1724  0.2985 -0.3115
  322MPD2     N 4844   3.581   0.531  13.698 -0.0742 -0.5048  0.4347
  322MPD2    H5 4845   3.598   0.507  13.795 -0.0365  0.4185  0.6521
  322MPD2    N1 4846   3.649   0.961  13.884 -0.4398  0.5166  0.0572
  322MPD2    H7 4847   3.662   1.060  13.863  2.4521  0.4025  1.3503
  323TMC3    C1 4848   3.740   1.007  14.106 -0.7662  1.3004 -0.4192
  323TMC3    C2 4849   3.830   1.098  14.058 -0.7289  0.1529  0.5059
  323TMC3    C3 4850   3.937   1.126  14.133  0.6313 -0.6733  0.4559
  323TMC3    C4 4851   3.757   0.951  14.232  0.1866 -0.0107  0.0845
  323TMC3    C5 4852   3.877   0.974  14.294  0.1990  0.1371 -0.2039
  323TMC3    C6 4853   3.974   1.055  14.243  0.2444 -0.4836  0.6284
  323TMC3     C 4854   3.664   0.920  14.016 -0.8830 -0.3396  0.6245
  323TMC3     O 4855   3.633   0.812  14.067  0.4947 -0.2461  0.0443
  323TMC3     H 4856   3.813   1.144  13.961  2.1268 -0.2458 -0.1832
  323TMC3    H1 4857   3.683   0.886  14.277 -0.9780  0.5577 -1.0201
  323TMC3    H2 4858   4.064   1.084  14.296  0.3870 -0.3062  0.2894
  323TMC3    C7 4859   3.915   0.883  14.390  0.1981 -0.7011 -0.7193
  323TMC3    C8 4860   4.050   1.196  14.067 -0.3412 -0.1322  0.3735
  323TMC3    O1 4861   3.840   0.787  14.403  0.1497  0.3549 -0.4948
  323TMC3    O2 4862   4.158   1.186  14.124  0.5722  0.2992 -0.4375
  324MPD2     C 4863   0.680   1.372  14.222  0.0071  0.4495  0.4624
  324MPD2    C1 4864   0.703   1.491  14.157 -0.3482  1.0578 -0.1940
  324MPD2    C2 4865   0.596   1.567  14.118 -0.2013  0.2288  0.4953
  324MPD2    C3 4866   0.462   1.527  14.139  0.2599  0.5677  0.0182
  324MPD2    C4 4867   0.441   1.401  14.193  0.4712 -0.2783  0.4571
  324MPD2    C5 4868   0.549   1.334  14.242  0.5541  0.5563  0.1333
  324MPD2     H 4869   0.618   1.666  14.080 -2.4222  0.7898  0.6714
  324MPD2    H1 4870   0.344   1.359  14.220  0.0412 -0.8304 -1.9833
  324MPD2    H2 4871   0.756   1.309  14.266 -2.1935 -0.4043  2.9982
  324MPD2    H3 4872   0.530   1.240  14.293  1.2043 -0.0298 -0.7171
  324MPD2     N 4873   0.354   1.610  14.110  0.7817 -0.3023  0.1410
  324MPD2    H5 4874   0.260   1.573  14.116 -0.2705  1.7406 -4.0574
  324MPD2    N1 4875   0.820   1.560  14.139  0.2750  0.5328  0.2039
  324MPD2    H7 4876   0.824   1.649  14.092  1.5234 -0.0740 -0.8370
  325TMC3    C1 4877   0.235   1.804  14.041  0.6971 -0.4275 -0.2995
  325TMC3    C2 4878   0.130   1.731  13.993  0.5813  0.8185  0.0663
  325TMC3    C3 4879   0.007   1.792  13.996  0.0515  0.0550 -0.4340
  325TMC3    C4 4880   0.218   1.924  14.104 -0.0737  0.1261  0.2742
  325TMC3    C5 4881   0.095   1.972  14.118 -1.0634  0.5658 -0.0705
  325TMC3    C6 4882   4.707   1.909  14.063  0.3557 -0.5141  0.3317
  325TMC3     C 4883   0.364   1.743  14.075  0.1586 -0.2096  0.3750
  325TMC3     O 4884   0.458   1.823  14.080 -0.1455  0.3691 -0.1587
  325TMC3     H 4885   0.134   1.638  13.937  2.9025  0.9542 -0.0068
  325TMC3    H1 4886   0.301   1.979  14.147  0.9612 -1.2096 -0.0409
  325TMC3    H2 4887   4.614   1.965  14.064  0.6169 -0.1341  3.2983
  325TMC3    C7 4888   0.089   2.103  14.188 -0.2380 -0.6998  0.0582
  325TMC3    C8 4889   4.618   1.741  13.909  0.5100 -0.0813  0.4483
  325TMC3    O1 4890   0.196   2.170  14.185 -0.5158 -0.1322  0.0479
  325TMC3    O2 4891   4.645   1.701  13.798  0.4767 -0.3396  0.1345
  326MPD2     C 4892   2.235   2.626  10.828 -0.0346 -0.6911  0.2569
  326MPD2    C1 4893   2.167   2.691  10.725 -0.2361 -0.4269 -0.2575
  326MPD2    C2 4894   2.169   2.833  10.718 -0.0474 -0.3297  0.0008
  326MPD2    C3 4895   2.226   2.905  10.819  0.9104 -0.8342  0.0926
  326MPD2    C4 4896   2.271   2.839  10.928 -0.1278 -0.6864 -0.7375
  326MPD2    C5 4897   2.278   2.705  10.933  0.7097  0.5946  1.3445
  326MPD2     H 4898   2.131   2.877  10.626  1.8962 -0.4789 -0.8809
  326MPD2    H1 4899   2.324   2.902  11.000 -0.2699 -0.7364 -0.5899
  326MPD2    H2 4900   2.247   2.518  10.838  1.2472 -0.6729 -1.1979
  326MPD2    H3 4901   2.320   2.652  11.017 -1.7899 -1.2477  1.4120
  326MPD2     N 4902   2.239   3.050  10.816  0.7810 -0.2210  0.3447
  326MPD2    H5 4903   2.286   3.087  10.898 -1.6402  0.4753  1.4241
  326MPD2    N1 4904   2.103   2.620  10.618  0.2829 -0.3627  0.4010
  326MPD2    H7 4905   2.057   2.680  10.550 -0.6991 -0.7496  0.7306
  327TMC3    C1 4906   2.074   2.460  10.458  0.5548 -0.0021 -0.2214
  327TMC3    C2 4907   1.955   2.517  10.426 -0.4034 -0.4097 -0.2820
  327TMC3    C3 4908   1.921   2.491  10.296 -0.1774 -0.4477  0.0484
  327TMC3    C4 4909   2.162   2.404  10.377 -0.5083 -0.2966 -0.4875
  327TMC3    C5 4910   2.136   2.417  10.243 -0.0248  0.1443  0.5698
  327TMC3    C6 4911   2.009   2.441  10.203  1.2270  0.6792  0.4694
  327TMC3     C 4912   2.114   2.489  10.592  0.2667 -0.3694 -0.0585
  327TMC3     O 4913   2.180   2.401  10.651 -0.5110  0.0612  0.8199
  327TMC3     H 4914   1.890   2.540  10.509  0.7639  0.0929  0.4861
  327TMC3    H1 4915   2.256   2.364  10.412 -0.1307  1.9459  1.0164
  327TMC3    H2 4916   1.992   2.441  10.096 -1.4385 -1.2347  0.8887
  327TMC3    C7 4917   2.215   2.535  10.194 -0.0725 -0.2020  0.2122
  327TMC3    C8 4918   1.818   2.579  10.237  0.0879 -0.2469 -0.0450
  327TMC3    O1 4919   2.179   2.605  10.098 -0.1737  1.3129 -0.1202
  327TMC3    O2 4920   1.823   2.583  10.116 -0.4966 -0.0179 -0.0735
  328MPD2     C 4921   4.583   2.921  17.405 -0.5669  0.6645  0.3990
  328MPD2    C1 4922   4.473   2.874  17.340 -0.5976  1.0368 -0.0746
  328MPD2    C2 4923   4.405   2.959  17.251 -0.1174  0.1535 -0.4829
  328MPD2    C3 4924   4.455   3.084  17.230  0.5844  0.4374 -0.3145
  328MPD2    C4 4925   4.569   3.130  17.293  0.0913  0.5793  0.1192
  328MPD2    C5 4926   4.638   3.043  17.370 -0.3374 -0.0774  0.9563
  328MPD2     H 4927   4.309   2.932  17.209  1.3823 -1.5557 -2.8047
  328MPD2    H1 4928   4.620   3.225  17.281 -1.1639  0.9171 -2.4930
  328MPD2    H2 4929   4.635   2.862  17.480  1.2901  1.9076  0.0909
  328MPD2    H3 4930   4.719   3.086  17.427  2.5507 -1.2978 -2.3060
  328MPD2     N 4931   4.380   3.182  17.160 -0.1051  0.1394 -0.0715
  328MPD2    H5 4932   4.410   3.279  17.158  1.2314 -0.2587  0.2447
  328MPD2    N1 4933   4.424   2.744  17.362  0.0184 -1.3909 -0.7542
  328MPD2    H7 4934   4.477   2.682  17.421  1.7833  0.5007 -0.3485
  329TMC3    C1 4935   4.293   2.550  17.336 -0.2841  0.6129  0.0997
  329TMC3    C2 4936   4.188   2.487  17.270  0.8928  0.3850  0.0114
  329TMC3    C3 4937   4.104   2.418  17.335 -0.5652 -0.2713 -1.0327
  329TMC3    C4 4938   4.315   2.523  17.473  0.4218  0.3778  0.3315
  329TMC3    C5 4939   4.226   2.437  17.534  0.8806 -0.1339 -0.0359
  329TMC3    C6 4940   4.114   2.383  17.470  0.8024  0.0759 -0.6317
  329TMC3     C 4941   4.322   2.680  17.287  0.1739  0.1817  0.0982
  329TMC3     O 4942   4.261   2.710  17.186  0.1390 -0.2497  0.7063
  329TMC3     H 4943   4.158   2.518  17.170 -0.0189  0.4875  0.3122
  329TMC3    H1 4944   4.404   2.557  17.525  1.3454 -0.5054 -0.6718
  329TMC3    H2 4945   4.058   2.302  17.517 -2.4358  2.1931 -0.8277
  329TMC3    C7 4946   4.234   2.439  17.682 -0.6605  0.0353  0.2150
  329TMC3    C8 4947   3.974   2.418  17.279 -0.4465  1.0461 -0.4835
  329TMC3    O1 4948   4.340   2.476   0.044  0.2482 -0.3900 -0.2739
  329TMC3    O2 4949   3.962   2.391  17.159  0.0524  0.2822  0.1458
  330TMC3    C1 4950   2.704   1.673   9.792 -0.4890 -0.2074 -0.4344
  330TMC3    C2 4951   2.619   1.580   9.844  0.3256 -0.1928 -0.0172
  330TMC3    C3 4952   2.597   1.580   9.978  0.7818 -0.1920  0.3130
  330TMC3    C4 4953   2.787   1.747   9.867 -0.0665  0.1729 -0.0698
  330TMC3    C5 4954   2.779   1.729  10.000 -0.1629 -0.3050  0.0772
  330TMC3    C6 4955   2.681   1.654  10.060  0.5464  0.0342  0.4824
  330TMC3     C 4956   2.730   1.683   9.648  0.3177  0.0727  0.5607
  330TMC3     O 4957   2.835   1.735   9.616 -1.0008 -0.1520  0.1828
  330TMC3     H 4958   2.558   1.516   9.781  0.1162 -1.0163  1.0060
  330TMC3    H1 4959   2.854   1.824   9.831 -0.3296  0.2076 -0.4845
  330TMC3    H2 4960   2.679   1.648  10.168  1.2816 -0.3425  0.4734
  330TMC3    C7 4961   2.875   1.792  10.085 -0.7813  0.6119  0.2916
  330TMC3    C8 4962   2.488   1.508  10.042 -0.2474  0.7465  0.8798
  330TMC3    O1 4963   2.914   1.906  10.057  0.0072  0.5350 -0.5427
  330TMC3    O2 4964   2.469   1.535  10.159  0.6053  0.1366 -0.1111
  331MPD2     C 4965   4.506   1.673  12.864 -0.1515 -0.2273 -0.7552
  331MPD2    C1 4966   4.635   1.728  12.863 -0.7266 -0.3190  0.4219
  331MPD2    C2 4967   4.720   1.703  12.757 -1.1320  0.4214 -0.6066
  331MPD2    C3 4968   4.684   1.636  12.650  0.2161  0.0491  0.2640
  331MPD2    C4 4969   4.552   1.597  12.642 -0.5278  0.1218  0.6374
  331MPD2    C5 4970   4.467   1.620  12.744  0.8384 -0.0961 -0.1244
  331MPD2     H 4971   0.100   1.738  12.769 -1.5683  1.2238  0.8128
  331MPD2    H1 4972   4.511   1.552  12.552 -0.2829  0.5478  0.3135
  331MPD2    H2 4973   4.430   1.688  12.939  0.7121  0.7328 -0.0640
  331MPD2    H3 4974   4.366   1.587  12.722  0.0238  0.7728  2.2859
  331MPD2     N 4975   0.050   1.617  12.536  1.0118 -0.3927 -0.5780
  331MPD2    H5 4976   0.012   1.569  12.455  0.3603  0.4637 -0.7806
  331MPD2    N1 4977   4.663   1.811  12.973  0.2288 -0.0385 -0.0943
  331MPD2    H7 4978   4.602   1.787  13.051 -0.8576  1.0202 -0.6185
  332TMC3    C1 4979   0.204   1.675  12.385 -0.5403  0.4923 -0.8942
  332TMC3    C2 4980   0.289   1.769  12.325 -0.2934 -0.2961 -0.3650
  332TMC3    C3 4981   0.352   1.736  12.204  0.5650  0.4802 -0.1139
  332TMC3    C4 4982   0.214   1.547  12.339 -0.1297 -0.2950  0.3896
  332TMC3    C5 4983   0.286   1.518  12.230 -0.3758  0.5111 -0.6063
  332TMC3    C6 4984   0.351   1.614  12.156  0.2030 -0.2054 -0.5974
  332TMC3     C 4985   0.158   1.688  12.516 -0.3452  0.3636  0.2482
  332TMC3     O 4986   0.216   1.770  12.589 -0.4023 -0.2496 -0.2714
  332TMC3     H 4987   0.294   1.864  12.375 -3.9922 -1.1942  1.6953
  332TMC3    H1 4988   0.163   1.464  12.387  1.2141 -1.8543 -0.8858
  332TMC3    H2 4989   0.399   1.584  12.064  0.4360 -0.4768 -0.3866
  332TMC3    C7 4990   0.333   1.376  12.232  0.2983 -0.6429  0.0479
  332TMC3    C8 4991   0.464   1.828  12.182  0.0422 -0.3560  0.5465
  332TMC3    O1 4992   0.265   1.293  12.288 -0.0542  0.2616  0.3451
  332TMC3    O2 4993   0.480   1.919  12.262 -0.0550  0.4686  0.0889
  333MPD2     C 4994   0.396   1.619  11.265  0.4811 -0.3028  0.8841
  333MPD2    C1 4995   0.480   1.519  11.233 -0.0360 -0.3819 -0.3032
  333MPD2    C2 4996   0.464   1.399  11.300 -0.1133 -0.1703 -0.5244
  333MPD2    C3 4997   0.372   1.388  11.398 -0.3064 -0.2156 -0.0248
  333MPD2    C4 4998   0.290   1.497  11.427  0.2882  0.4878  0.2684
  333MPD2    C5 4999   0.299   1.612  11.360  0.0671  0.0408  0.9610
  333MPD2     H 5000   0.534   1.320  11.275  1.6251  0.9283  0.8601
  333MPD2    H1 5001   0.215   1.495  11.506  0.8956  1.3531  0.8585
  333MPD2    H2 5002   0.407   1.720  11.227  1.4485 -0.8151 -0.2191
  333MPD2    H3 5003   0.229   1.691  11.387  0.4584  1.2750 -1.5924
  333MPD2     N 5004   0.354   1.269  11.475 -0.3550  0.0545  0.0180
  333MPD2    H5 5005   0.404   1.192  11.430  0.0472  0.6669 -0.5786
  333MPD2    N1 5006   0.580   1.561  11.139  0.4389  0.5317  0.9367
  333MPD2    H7 5007   0.573   1.656  11.106 -0.2787 -0.4320 -1.6871
  334TMC3    C1 5008   0.774   1.526  10.992  0.1807 -0.0974  0.5160
  334TMC3    C2 5009   0.872   1.438  10.944  0.4961  0.8580 -0.3197
  334TMC3    C3 5010   0.969   1.485  10.855  0.8475  0.0424  0.2410
  334TMC3    C4 5011   0.757   1.650  10.939  0.5489  0.1314 -0.8512
  334TMC3    C5 5012   0.848   1.691  10.841  0.5443 -0.4441  0.0729
  334TMC3    C6 5013   0.954   1.608  10.801 -0.6803  0.3078  0.2673
  334TMC3     C 5014   0.683   1.476  11.101  0.1884  0.5771 -0.1358
  334TMC3     O 5015   0.720   1.372  11.155 -0.2303 -0.2855 -0.6934
  334TMC3     H 5016   0.864   1.337  10.980  0.0002  1.6442  1.7624
  334TMC3    H1 5017   0.689   1.724  10.980 -1.1984 -1.1481 -1.3893
  334TMC3    H2 5018   1.026   1.628  10.723  0.0961  1.1304  1.1874
  334TMC3    C7 5019   0.847   1.822  10.776  0.3205 -0.6748 -1.0128
  334TMC3    C8 5020   1.065   1.385  10.804 -0.7075  0.0816  1.2662
  334TMC3    O1 5021   0.956   1.855  10.728  0.2632 -0.6843  0.3542
  334TMC3    O2 5022   1.023   1.272  10.772 -0.0032 -0.6907  0.3461
  335TMC3    C1 5023   0.424   2.810   0.075 -0.3045  0.1369  0.3068
  335TMC3    C2 5024   0.322   2.748   0.009  0.1172  0.0420 -0.1035
  335TMC3    C3 5025   0.341   2.719  17.569 -0.2667  0.1009 -0.2192
  335TMC3    C4 5026   0.546   2.837   0.020 -0.2515 -1.3499  0.1823
  335TMC3    C5 5027   0.550   2.817  17.576 -0.5764  0.3881  0.3769
  335TMC3    C6 5028   0.455   2.751  17.503  0.1838  0.2273  0.2150
  335TMC3     C 5029   0.419   2.780   0.217 -0.1451 -0.0905  0.3321
  335TMC3     O 5030   0.343   2.688   0.250  0.5263 -0.2351  0.6616
  335TMC3     H 5031   0.230   2.719   0.059  2.3457 -1.5539  3.0116
  335TMC3    H1 5032   0.627   2.877   0.079  0.1602 -0.1205 -1.2085
  335TMC3    H2 5033   0.468   2.726  17.398 -0.3540  1.5073 -0.1582
  335TMC3    C7 5034   0.666   2.861  17.503  0.2149 -0.4706 -0.5497
  335TMC3    C8 5035   0.233   2.669  17.489 -0.3066 -0.0605  0.1626
  335TMC3    O1 5036   0.694   2.818  17.392 -0.3981 -0.2737  0.1406
  335TMC3    O2 5037   0.163   2.592  17.556  0.3570 -0.0100 -0.9103
  336MPD2     C 5038   4.525   0.699  16.499 -0.8260 -0.3975 -0.9090
  336MPD2    C1 5039   4.570   0.677  16.369 -0.7432 -0.9920  0.8600
  336MPD2    C2 5040   4.624   0.554  16.335  0.1734 -0.5957  0.3980
  336MPD2    C3 5041   4.640   0.457  16.429  0.1307  0.0113 -0.5950
  336MPD2    C4 5042   4.597   0.487  16.563 -0.2603 -0.5748  0.0763
  336MPD2    C5 5043   4.541   0.604  16.592 -0.0390 -0.0325  0.0742
  336MPD2     H 5044   4.648   0.530  16.232 -1.5810 -1.2117  0.1294
  336MPD2    H1 5045   4.607   0.413  16.641  2.2087 -0.6488 -0.3145
  336MPD2    H2 5046   4.472   0.789  16.526 -1.1543 -0.8060 -0.1995
  336MPD2    H3 5047   4.512   0.633  16.692  1.3863 -0.9042  0.7466
  336MPD2     N 5048   4.684   0.322  16.407 -0.0214  0.7901 -0.9461
  336MPD2    H5 5049   4.672   0.263  16.489  0.3927  2.1474  0.0821
  336MPD2    N1 5050   4.562   0.770  16.266  1.1311 -0.2114 -0.5287
  336MPD2    H7 5051   4.588   0.739  16.173  0.6539 -1.5315 -0.2118
  337TMC3    C1 5052   4.461   0.963  16.160 -0.7647  0.5755  0.3188
  337TMC3    C2 5053   4.402   0.898  16.052 -0.0579  0.3232 -0.6541
  337TMC3    C3 5054   4.338   0.963  15.953  0.1682 -0.1471 -0.6699
  337TMC3    C4 5055   4.454   1.104  16.166 -0.2473  1.0939 -0.0087
  337TMC3    C5 5056   4.410   1.171  16.051  0.2803  0.5503 -0.3251
  337TMC3    C6 5057   4.345   1.106  15.949  0.0530  0.4954 -0.7285
  337TMC3     C 5058   4.511   0.900  16.284 -0.0996  0.0181  0.0764
  337TMC3     O 5059   4.502   0.965  16.386  0.5249  0.8499  0.0037
  337TMC3     H 5060   4.399   0.790  16.048  0.2021  0.3107 -0.5451
  337TMC3    H1 5061   4.478   1.152  16.260  4.0136 -1.3433  0.1725
  337TMC3    H2 5062   4.284   1.166  15.882 -0.3846 -1.5755 -2.1994
  337TMC3    C7 5063   4.425   1.318  16.054  0.0003 -0.0622 -0.5294
  337TMC3    C8 5064   4.218   0.894  15.915  0.0177  0.1634 -0.5515
  337TMC3    O1 5065   4.459   1.362  16.161 -0.1432  0.0102 -0.7620
  337TMC3    O2 5066   4.181   0.808  15.991  0.0992 -0.3106 -0.3306
  338MPD2     C 5067   0.203   0.053   1.068  0.0250 -0.1926  0.5827
  338MPD2    C1 5068   0.185   0.143   0.966  0.0593  0.7461 -0.5484
  338MPD2    C2 5069   0.136   0.267   1.001 -0.8317 -0.1122  0.4630
  338MPD2    C3 5070   0.093   0.290   1.134  0.7310  0.0718  0.3641
  338MPD2    C4 5071   0.117   0.201   1.241  0.3120 -0.1522  0.0732
  338MPD2    C5 5072   0.176   0.082   1.198 -0.0812  0.4673 -0.3177
  338MPD2     H 5073   0.127   0.343   0.924 -1.8345  0.6410  1.3093
  338MPD2    H1 5074   0.085   0.223   1.342  1.6862  1.3551  0.1669
  338MPD2    H2 5075   0.246   4.677   1.051  0.4600  0.1141 -0.1100
  338MPD2    H3 5076   0.199   0.013   1.278 -1.2749  0.0124 -0.3704
  338MPD2     N 5077   0.042   0.413   1.167 -0.0466  0.4429 -0.2381
  338MPD2    H5 5078   0.005   0.416   1.261 -0.5446  0.4892 -0.4375
  338MPD2    N1 5079   0.212   0.113   0.836 -0.0548  0.0137  0.0524
  338MPD2    H7 5080   0.170   0.179   0.771 -0.8544 -0.6214 -0.0692
  339TMC3    C1 5081   4.693   0.634   1.151  0.4739 -0.1250  0.3397
  339TMC3    C2 5082   4.579   0.610   1.217 -0.4107 -0.1266 -0.6867
  339TMC3    C3 5083   4.494   0.710   1.245 -0.7839  0.1402 -0.2347
  339TMC3    C4 5084   4.722   0.764   1.114  0.7351 -0.7322  0.5892
  339TMC3    C5 5085   4.622   0.863   1.118  0.0513 -0.8527 -0.8436
  339TMC3    C6 5086   4.506   0.828   1.179  0.1272 -0.0628 -0.0852
  339TMC3     C 5087   0.053   0.529   1.091  0.0803 -0.5440  0.0903
  339TMC3     O 5088   0.135   0.553   0.997 -0.9267 -0.3220  0.0649
  339TMC3     H 5089   4.560   0.505   1.239 -0.1952  0.4597  2.2298
  339TMC3    H1 5090   0.096   0.791   1.074  0.8016  0.8733  1.8263
  339TMC3    H2 5091   4.430   0.905   1.186 -0.2903 -0.3203 -1.8823
  339TMC3    C7 5092   4.624   0.980   1.036 -0.2622  0.6313  0.2704
  339TMC3    C8 5093   4.380   0.679   1.323 -0.3854 -0.0453 -0.1147
  339TMC3    O1 5094   4.554   1.076   1.059 -0.1452 -0.2442 -0.1446
  339TMC3    O2 5095   4.289   0.761   1.306  0.0699  0.5710 -0.2235
  340MPD2     C 5096   0.526   2.646   9.382 -0.1655 -0.1856  0.0193
  340MPD2    C1 5097   0.616   2.554   9.426  0.2976  0.8570 -0.3222
  340MPD2    C2 5098   0.738   2.587   9.485 -0.0107 -0.3123  0.4328
  340MPD2    C3 5099   0.781   2.720   9.472 -0.6229  0.0798 -0.1726
  340MPD2    C4 5100   0.686   2.815   9.433  0.9304 -0.2044 -0.0253
  340MPD2    C5 5101   0.560   2.777   9.396  0.2600 -1.0067 -0.1392
  340MPD2     H 5102   0.795   2.506   9.529 -0.8169 -1.7005 -1.0751
  340MPD2    H1 5103   0.710   2.920   9.433 -1.4946  0.3539 -1.5505
  340MPD2    H2 5104   0.425   2.629   9.346 -0.4399 -0.6952  1.0272
  340MPD2    H3 5105   0.486   2.849   9.361  1.7055  0.1868 -0.7430
  340MPD2     N 5106   0.909   2.759   9.516 -0.2094  0.3506  0.2991
  340MPD2    H5 5107   0.914   2.856   9.545 -0.9952  0.5911 -0.3681
  340MPD2    N1 5108   0.573   2.416   9.423 -0.1035 -0.2069 -0.2467
  340MPD2    H7 5109   0.481   2.399   9.384  0.5175 -1.8176 -1.0220
  341TMC3    C1 5110   0.591   2.183   9.417  0.2526  0.1668 -0.6352
  341TMC3    C2 5111   0.450   2.175   9.410 -0.5322 -0.9771 -0.0899
  341TMC3    C3 5112   0.408   2.087   9.316  0.2258  0.6179 -0.0370
  341TMC3    C4 5113   0.673   2.099   9.344  0.0918  0.3356 -0.0211
  341TMC3    C5 5114   0.618   2.022   9.248  0.2595 -0.1767  0.0189
  341TMC3    C6 5115   0.487   2.027   9.218  0.6605  0.1722  0.4837
  341TMC3     C 5116   0.647   2.304   9.459 -0.1883 -0.0761 -0.1055
  341TMC3     O 5117   0.765   2.298   9.489  0.7100 -0.0366  0.0033
  341TMC3     H 5118   0.379   2.226   9.474  0.4074  1.7637 -1.2215
  341TMC3    H1 5119   0.780   2.099   9.358  0.2564 -0.4921 -1.2696
  341TMC3    H2 5120   0.441   1.960   9.147 -2.3706  0.7812  1.8629
  341TMC3    C7 5121   0.662   1.889   9.256 -0.0621 -0.5503  0.0449
  341TMC3    C8 5122   0.266   2.059   9.328 -0.4776 -0.4362  0.0221
  341TMC3    O1 5123   0.715   1.856   9.361  0.3439  0.3331  0.0085
  341TMC3    O2 5124   0.210   2.072   9.436 -0.3108 -0.9750  0.6466
  342MPD2     C 5125   2.721   0.993  17.620  0.4764 -0.0581  0.3061
  342MPD2    C1 5126   2.683   1.010  17.489 -0.1347  0.0535  0.2186
  342MPD2    C2 5127   2.570   1.081  17.466  0.2506  0.0740  0.5406
  342MPD2    C3 5128   2.498   1.147  17.570  0.2000  0.2050  0.2304
  342MPD2    C4 5129   2.531   1.122   0.013  0.4237  0.1331  0.4221
  342MPD2    C5 5130   2.650   1.050   0.036 -0.1400 -0.4036 -0.2187
  342MPD2     H 5131   2.549   1.090  17.360 -1.4584 -1.4716  0.7459
  342MPD2    H1 5132   2.474   1.165   0.095  1.6524  2.2461  0.1824
  342MPD2    H2 5133   2.810   0.939  17.650 -0.5887 -1.1396  1.4989
  342MPD2    H3 5134   2.692   1.030   0.134 -0.5127 -1.4845 -0.2752
  342MPD2     N 5135   2.388   1.230  17.541 -0.5396 -0.6229 -0.0531
  342MPD2    H5 5136   2.365   1.294  17.616 -0.7495 -0.5743 -0.1585
  342MPD2    N1 5137   2.745   0.950  17.372 -0.3583  0.8176  0.1817
  342MPD2    H7 5138   2.702   0.977  17.284  3.3754 -2.0327 -2.5446
  343TMC3    C1 5139   2.906   0.835  17.252 -0.3129  0.3516 -0.3095
  343TMC3    C2 5140   3.044   0.828  17.244  0.2143  0.7190  0.4417
  343TMC3    C3 5141   3.110   0.723  17.186 -0.1474  0.5924 -0.2693
  343TMC3    C4 5142   2.832   0.732  17.201  0.4544 -0.1614 -0.1392
  343TMC3    C5 5143   2.901   0.628  17.143  0.4758 -0.5368 -0.0532
  343TMC3    C6 5144   3.036   0.620  17.129 -0.3032 -0.1086  0.0625
  343TMC3     C 5145   2.866   0.892  17.378 -0.6761 -1.0785  1.0505
  343TMC3     O 5146   2.945   0.870  17.473  0.6052 -0.3022  0.1109
  343TMC3     H 5147   3.104   0.910  17.280 -0.3269  0.3252  2.2413
  343TMC3    H1 5148   2.725   0.728  17.217  0.0777  0.7236 -2.5242
  343TMC3    H2 5149   3.085   0.543  17.071 -1.3481 -0.1069 -0.8171
  343TMC3    C7 5150   2.833   0.494  17.143 -0.4768 -0.1292 -0.5068
  343TMC3    C8 5151   3.254   0.734  17.162 -0.6285 -0.1059 -0.0883
  343TMC3    O1 5152   2.716   0.490  17.103  0.2956 -0.1904 -0.6442
  343TMC3    O2 5153   3.309   0.833  17.205  0.1059  0.0304 -0.2981
  344MPD2     C 5154   4.222   0.920  10.914 -0.1134 -1.1300 -0.1940
  344MPD2    C1 5155   4.177   0.832  10.818 -0.0790  0.7246  0.1283
  344MPD2    C2 5156   4.204   0.859  10.682 -0.1784  0.3962 -0.0171
  344MPD2    C3 5157   4.311   0.947  10.651 -0.1712  0.5871 -0.0333
  344MPD2    C4 5158   4.372   1.018  10.749 -0.3152  1.0910  0.1700
  344MPD2    C5 5159   4.323   1.006  10.878  0.3556  0.2114  0.1805
  344MPD2     H 5160   4.158   0.798  10.606  1.8336 -1.2133  0.0482
  344MPD2    H1 5161   4.445   1.098  10.744 -0.5376  1.1464 -1.9694
  344MPD2    H2 5162   4.195   0.909  11.018  1.6401  0.8319  0.4790
  344MPD2    H3 5163   4.349   1.073  10.959  0.9278 -1.5250  1.4564
  344MPD2     N 5164   4.355   0.971  10.524  0.4461  0.2714 -0.4664
  344MPD2    H5 5165   4.426   1.043  10.518  3.4605 -2.5719  1.2063
  344MPD2    N1 5166   4.106   0.709  10.851  0.0345  0.1399  0.3912
  344MPD2    H7 5167   4.090   0.639  10.779 -0.3249 -0.1522  0.7469
  345TMC3    C1 5168   4.368   0.993  10.296  0.0393 -0.9424 -0.1837
  345TMC3    C2 5169   4.486   1.050  10.299 -0.3938 -0.6930  0.3830
  345TMC3    C3 5170   4.510   1.155  10.212  0.0776 -0.2875  0.3361
  345TMC3    C4 5171   4.274   1.039  10.207  0.1710 -0.1476 -0.4858
  345TMC3    C5 5172   4.308   1.135  10.111 -0.3004  0.1915  0.2293
  345TMC3    C6 5173   4.418   1.206  10.121  0.2856 -0.4647 -0.6906
  345TMC3     C 5174   4.324   0.912  10.406  0.1753 -0.2936  0.0520
  345TMC3     O 5175   4.247   0.824  10.379 -0.5515 -0.0469  0.1498
  345TMC3     H 5176   4.566   1.021  10.366  0.1708 -0.7901 -0.3378
  345TMC3    H1 5177   4.175   0.998  10.194  0.0614 -0.1553  0.4422
  345TMC3    H2 5178   4.439   1.281  10.045 -1.6918  0.8349  0.0397
  345TMC3    C7 5179   4.211   1.168  10.010  0.4621  0.4801  0.1300
  345TMC3    C8 5180   4.619   1.242  10.243  0.3637 -0.2660  0.2687
  345TMC3    O1 5181   4.146   1.074   9.970 -0.2950 -0.2884 -0.1666
  345TMC3    O2 5182   4.634   1.234  10.361 -0.5987 -0.3476  0.0688
  346MPD2     C 5183   3.724   1.904  14.726  0.1037  0.2917  1.1452
  346MPD2    C1 5184   3.772   2.001  14.632  0.7767 -0.7278  0.5792
  346MPD2    C2 5185   3.908   2.047  14.652  0.2065 -0.3244  0.1704
  346MPD2    C3 5186   3.990   2.000  14.751 -0.0962 -0.3582  0.9681
  346MPD2    C4 5187   3.941   1.905  14.834  0.1291  0.4278 -0.1544
  346MPD2    C5 5188   3.813   1.852  14.817 -0.1823  0.1757  0.1023
  346MPD2     H 5189   3.955   2.116  14.582  1.3502 -0.7165  0.5553
  346MPD2    H1 5190   3.999   1.849  14.906 -0.0417 -1.8971 -1.8151
  346MPD2    H2 5191   3.621   1.873  14.710  0.5462 -0.1424 -0.8589
  346MPD2    H3 5192   3.783   1.770  14.882 -0.2920 -1.6160 -2.1936
  346MPD2     N 5193   4.128   2.044  14.761 -0.1633  0.2484 -0.2730
  346MPD2    H5 5194   4.167   2.118  14.705  1.2452 -0.1714  0.1681
  346MPD2    N1 5195   3.690   2.071  14.539 -0.2786  0.3778 -0.2165
  346MPD2    H7 5196   3.734   2.152  14.495  1.1159 -0.3724 -0.1942
  347TMC3    C1 5197   4.343   2.077  14.850 -0.2997 -0.1199 -0.4442
  347TMC3    C2 5198   4.336   2.209  14.820  0.1675 -0.3968 -0.3691
  347TMC3    C3 5199   4.453   2.288  14.825 -0.7764 -0.4405  0.3037
  347TMC3    C4 5200   4.461   2.013  14.879 -0.1583 -0.5926 -0.3774
  347TMC3    C5 5201   4.571   2.087  14.861 -0.3435 -0.4712 -0.3103
  347TMC3    C6 5202   4.568   2.227  14.856 -0.0323 -0.2705  0.5844
  347TMC3     C 5203   4.226   1.987  14.839  0.3372 -0.4699  0.1596
  347TMC3     O 5204   4.226   1.894  14.917 -0.4547  0.1933 -0.0307
  347TMC3     H 5205   4.247   2.270  14.807  1.4470  1.6947  0.6450
  347TMC3    H1 5206   4.476   1.908  14.898  2.5426 -0.0658  0.3696
  347TMC3    H2 5207   4.660   2.284  14.849 -0.9493  1.2845  1.1272
  347TMC3    C7 5208   4.673   2.035  14.777 -0.9564  0.1218  0.4734
  347TMC3    C8 5209   4.465   2.384  14.719  0.4316  0.1700 -0.1363
  347TMC3    O1 5210   0.050   2.103  14.757 -0.4803  0.2261  0.2588
  347TMC3    O2 5211   4.528   2.482  14.751  0.3317  0.1762  0.0903
  348MPD2     C 5212   3.260   1.934  12.098 -0.0403  0.1137  0.5012
  348MPD2    C1 5213   3.264   1.854  11.986 -0.0107 -0.1538  0.7377
  348MPD2    C2 5214   3.223   1.905  11.862 -0.4826  0.5544  0.0056
  348MPD2    C3 5215   3.174   2.035  11.856 -0.2246 -0.6240  0.5720
  348MPD2    C4 5216   3.154   2.111  11.967  0.3666  0.3152  0.2523
  348MPD2    C5 5217   3.209   2.063  12.083  0.2227  0.0242  0.1691
  348MPD2     H 5218   3.233   1.850  11.769 -0.2387  0.9874 -0.2257
  348MPD2    H1 5219   3.115   2.212  11.961 -0.0776  0.1118 -0.3170
  348MPD2    H2 5220   3.278   1.900  12.199 -0.0868 -2.3178 -0.3261
  348MPD2    H3 5221   3.207   2.128  12.170 -2.3709  1.1694 -0.7153
  348MPD2     N 5222   3.158   2.087  11.725  0.5251  0.6383 -0.5603
  348MPD2    H5 5223   3.184   2.030  11.646  1.7002 -0.1083  0.3530
  348MPD2    N1 5224   3.296   1.721  11.984 -0.3275 -0.7369 -0.4058
  348MPD2    H7 5225   3.271   1.668  11.901 -0.4760 -1.5934  0.1707
  349TMC3    C1 5226   3.391   1.514  12.038 -0.0074 -0.2183 -0.3367
  349TMC3    C2 5227   3.357   1.433  12.143  0.4387 -0.1147 -0.0190
  349TMC3    C3 5228   3.286   1.318  12.116  0.5050  0.6348  0.2219
  349TMC3    C4 5229   3.348   1.482  11.914 -0.4426 -1.0230  0.3708
  349TMC3    C5 5230   3.272   1.369  11.894  0.2892  0.5522  0.7815
  349TMC3    C6 5231   3.248   1.283  11.992 -0.4721  0.2605 -0.1013
  349TMC3     C 5232   3.378   1.656  12.077  0.1407  0.1791  0.4492
  349TMC3     O 5233   3.430   1.692  12.183 -0.0902 -0.0227 -0.8025
  349TMC3     H 5234   3.385   1.457  12.245 -0.4921 -1.9686  0.6739
  349TMC3    H1 5235   3.375   1.535  11.823  0.1675 -0.7276  0.7336
  349TMC3    H2 5236   3.191   1.194  11.968 -0.7021  0.1269  0.9435
  349TMC3    C7 5237   3.161   1.394  11.810 -0.9450 -0.1769  0.3299
  349TMC3    C8 5238   3.307   1.202  12.204 -0.5547  0.0690  0.0302
  349TMC3    O1 5239   3.052   1.386  11.862  0.2492  0.4292  0.0400
  349TMC3    O2 5240   3.271   1.210  12.321 -0.2731  0.0562  0.0424
  350MPD2     C 5241   1.975   0.422  10.236 -0.1309  0.5547 -0.0611
  350MPD2    C1 5242   2.065   0.335  10.180  0.0697 -0.1944 -0.6438
  350MPD2    C2 5243   2.198   0.359  10.181 -0.3799 -0.0004  0.2869
  350MPD2    C3 5244   2.242   0.470  10.244 -0.4533 -0.3162 -0.0940
  350MPD2    C4 5245   2.160   0.544  10.312  0.6170 -0.1335  0.0417
  350MPD2    C5 5246   2.030   0.517  10.316 -0.3812 -0.5893 -0.7687
  350MPD2     H 5247   2.276   0.301  10.133 -0.3889 -0.1533  0.4588
  350MPD2    H1 5248   2.198   0.630  10.367  1.6574  0.1474 -1.1100
  350MPD2    H2 5249   1.866   0.419  10.241 -0.1970 -0.0200 -1.8919
  350MPD2    H3 5250   1.967   0.572  10.386  0.4697 -0.9943  0.3249
  350MPD2     N 5251   2.384   0.496  10.234  0.9426  0.4404  0.0164
  350MPD2    H5 5252   2.437   0.427  10.181  0.5023  0.3788 -0.3466
  350MPD2    N1 5253   2.028   0.219  10.107  0.4584  0.7496  0.4326
  350MPD2    H7 5254   2.090   0.156  10.057  1.8556  2.4380  0.0382
  351TMC3    C1 5255   1.862   0.052  10.049  0.7319  0.2014  0.4480
  351TMC3    C2 5256   1.964   4.679  10.025  0.2955 -0.1954 -0.1928
  351TMC3    C3 5257   1.925   4.545   9.985 -0.2901 -0.3307  0.9643
  351TMC3    C4 5258   1.727   0.029  10.023  0.0437  0.1471  0.5596
  351TMC3    C5 5259   1.700   4.620   9.995  0.2930  0.0826 -0.1323
  351TMC3    C6 5260   1.790   4.523   9.975  0.3571  0.2355  0.9229
  351TMC3     C 5261   1.896   0.177  10.115  0.7709  0.5792  0.3976
  351TMC3     O 5262   1.795   0.234  10.160  0.5590  0.2190 -0.5460
  351TMC3     H 5263   2.068   4.704  10.045 -0.1212 -0.3988  2.2310
  351TMC3    H1 5264   1.647   0.101  10.034 -0.9735 -0.9710  0.5430
  351TMC3    H2 5265   1.759   4.421   9.955 -0.0493  0.3967  0.7103
  351TMC3    C7 5266   1.561   4.588  10.037  0.9301 -0.1631 -0.8468
  351TMC3    C8 5267   2.033   4.450   9.956  0.2430 -0.0695 -0.1486
  351TMC3    O1 5268   1.514   4.634  10.146  0.2670 -0.2529 -0.2297
  351TMC3    O2 5269   2.147   4.491   9.944  0.9330  0.1062 -0.2403
  352MPD2     C 5270   4.703   2.139   1.848  0.3412 -0.6583 -0.2330
  352MPD2    C1 5271   4.587   2.157   1.779  0.6720  0.5292 -0.8449
  352MPD2    C2 5272   4.473   2.105   1.838  0.5445 -0.5952 -0.3654
  352MPD2    C3 5273   4.473   2.048   1.967  0.3594 -0.2021  0.3007
  352MPD2    C4 5274   4.597   2.043   2.029  0.6816  0.0762 -0.5355
  352MPD2    C5 5275   4.706   2.100   1.974  0.7355 -0.2768  0.5487
  352MPD2     H 5276   4.377   2.118   1.790  0.6367  0.4271 -0.2908
  352MPD2    H1 5277   4.611   1.994   2.125 -1.6398 -0.0443 -0.2540
  352MPD2    H2 5278   0.070   2.169   1.794  0.1023  2.9979  1.4090
  352MPD2    H3 5279   0.078   2.092   2.027  0.6396 -2.2978  0.4053
  352MPD2     N 5280   4.357   2.004   2.035  0.1047  0.1964  0.2313
  352MPD2    H5 5281   4.368   1.967   2.129  1.1000  1.2054  0.5004
  352MPD2    N1 5282   4.591   2.206   1.643 -0.1465 -0.7124  0.6538
  352MPD2    H7 5283   4.677   2.239   1.601  1.2445 -2.0668  2.4565
  353TMC3    C1 5284   4.135   1.937   2.079  0.0932  0.1543  0.2609
  353TMC3    C2 5285   4.175   1.813   2.102 -0.1170 -0.6830 -0.3583
  353TMC3    C3 5286   4.078   1.717   2.112 -0.5664 -0.2882  0.5848
  353TMC3    C4 5287   3.999   1.963   2.064 -0.4775 -0.0416 -1.4143
  353TMC3    C5 5288   3.903   1.869   2.067  0.3783  0.0252 -0.0331
  353TMC3    C6 5289   3.941   1.742   2.095 -0.7356  0.6351  0.0761
  353TMC3     C 5290   4.228   2.016   1.993  0.7990 -0.5207  0.3355
  353TMC3     O 5291   4.179   2.054   1.888 -0.0216 -0.3045  0.3709
  353TMC3     H 5292   4.279   1.781   2.103  0.4755  1.1928 -1.4765
  353TMC3    H1 5293   3.960   2.062   2.043 -0.9018 -0.0925 -0.8798
  353TMC3    H2 5294   3.883   1.651   2.082 -1.2993  0.9479  0.4349
  353TMC3    C7 5295   3.794   1.888   1.969 -0.5555 -0.0503  0.3765
  353TMC3    C8 5296   4.130   1.580   2.094  0.3511  0.0525 -0.3822
  353TMC3    O1 5297   3.825   1.963   1.877 -0.0511 -0.4096 -0.0896
  353TMC3    O2 5298   4.075   1.494   2.166 -0.5621  0.1501  0.3161
  354TMC3    C1 5299   1.603   3.271  13.401 -0.1776  0.0742 -1.1616
  354TMC3    C2 5300   1.564   3.373  13.313  0.6260  0.4227  0.1339
  354TMC3    C3 5301   1.590   3.349  13.186 -0.3345 -0.1419 -0.7791
  354TMC3    C4 5302   1.653   3.150  13.365  0.0105  0.4576  0.7686
  354TMC3    C5 5303   1.684   3.138  13.234  0.3453  0.6510 -0.6167
  354TMC3    C6 5304   1.645   3.232  13.144  0.3098  0.2903 -0.2111
  354TMC3     C 5305   1.565   3.279  13.540  0.1551 -0.7811 -0.5583
  354TMC3     O 5306   1.569   3.389  13.599  0.1633 -0.2946  0.4331
  354TMC3     H 5307   1.509   3.460  13.346 -0.9116 -0.9796  1.2468
  354TMC3    H1 5308   1.703   3.083  13.433  1.4626  0.7298 -0.0430
  354TMC3    H2 5309   1.648   3.212  13.037 -0.0851 -2.9856  0.3739
  354TMC3    C7 5310   1.737   3.013  13.195 -0.0339 -0.6714 -0.4236
  354TMC3    C8 5311   1.597   3.454  13.091 -0.6673 -0.4204 -0.8896
  354TMC3    O1 5312   1.734   2.927  13.281  0.2713 -0.4604  0.3716
  354TMC3    O2 5313   1.687   3.437  13.007  0.3874 -0.4512 -0.0521
  355MPD2     C 5314   2.290   3.684  12.004  0.1993  0.4961 -0.4901
  355MPD2    C1 5315   2.252   3.773  11.905  0.4750  0.4012  0.0758
  355MPD2    C2 5316   2.344   3.880  11.881  0.0424 -0.2310  0.3220
  355MPD2    C3 5317   2.446   3.892  11.969  0.4415 -0.0383  0.6298
  355MPD2    C4 5318   2.473   3.801  12.067  0.9284  0.1982  0.4591
  355MPD2    C5 5319   2.393   3.696  12.086  0.2214  0.0653 -0.0636
  355MPD2     H 5320   2.345   3.943  11.793 -0.1073  0.9981  1.2158
  355MPD2    H1 5321   2.560   3.808  12.132  0.5580  0.9888  0.8722
  355MPD2    H2 5322   2.214   3.615  12.040  1.0532 -1.3014 -2.0638
  355MPD2    H3 5323   2.421   3.630  12.167  0.3620 -0.4966 -0.5682
  355MPD2     N 5324   2.538   3.998  11.952 -0.2148  0.2106  0.5845
  355MPD2    H5 5325   2.600   4.005  12.032 -1.6293  2.2003  1.5228
  355MPD2    N1 5326   2.126   3.749  11.845  0.0565  0.6264  0.1843
  355MPD2    H7 5327   2.076   3.672  11.889  0.9073  0.3617  0.6917
  356TMC3    C1 5328   2.648   4.186  11.872 -0.1956 -0.1950 -0.2096
  356TMC3    C2 5329   2.715   4.239  11.764  0.0182 -0.4922 -0.2880
  356TMC3    C3 5330   2.807   4.340  11.790  0.6691  0.4212 -0.2586
  356TMC3    C4 5331   2.667   4.225  12.002  0.5795 -0.2435  0.7970
  356TMC3    C5 5332   2.759   4.322  12.027 -0.6811  0.4042 -0.6265
  356TMC3    C6 5333   2.825   4.386  11.920 -0.0415 -0.3447 -0.6716
  356TMC3     C 5334   2.551   4.080  11.843 -0.4101 -0.1689 -0.1858
  356TMC3     O 5335   2.514   4.062  11.728 -0.2687 -0.3316 -0.1422
  356TMC3     H 5336   2.687   4.208  11.664 -1.5689  0.8636 -0.2536
  356TMC3    H1 5337   2.619   4.178  12.087  0.8722  0.6753  1.4808
  356TMC3    H2 5338   2.893   4.469  11.938  0.1078 -0.8029  0.9143
  356TMC3    C7 5339   2.818   4.314  12.160 -0.5117  0.3249 -0.4778
  356TMC3    C8 5340   2.847   4.410  11.666 -0.0624  0.2938  0.7183
  356TMC3    O1 5341   2.753   4.259  12.251 -0.0439 -0.2278  0.2688
  356TMC3    O2 5342   2.791   4.384  11.563  0.3981 -0.6611  0.3118
  357MPD2     C 5343   2.434   3.360   1.450 -0.2269  0.2118  0.1127
  357MPD2    C1 5344   2.358   3.314   1.352 -0.4307  0.5508 -0.6305
  357MPD2    C2 5345   2.235   3.371   1.323 -0.4346  0.8819 -0.5394
  357MPD2    C3 5346   2.189   3.480   1.394  0.5344  0.4129 -0.1622
  357MPD2    C4 5347   2.258   3.520   1.505  0.2451 -0.7655  0.2327
  357MPD2    C5 5348   2.379   3.456   1.532  0.3135 -0.0586  0.6416
  357MPD2     H 5349   2.182   3.348   1.231 -0.0633  1.6630 -0.9477
  357MPD2    H1 5350   2.225   3.599   1.572 -1.5433 -1.9075  0.6946
  357MPD2    H2 5351   2.534   3.325   1.472 -1.1540 -1.8880  0.9628
  357MPD2    H3 5352   2.444   3.511   1.599 -2.3470  5.1046 -1.0672
  357MPD2     N 5353   2.070   3.548   1.371  0.2965  0.4774  0.0440
  357MPD2    H5 5354   2.049   3.620   1.439 -1.1502  0.3187 -0.2337
  357MPD2    N1 5355   2.418   3.210   1.272  0.6302  0.0173  0.3131
  357MPD2    H7 5356   2.510   3.173   1.294 -0.8988 -2.0365  3.4270
  358TMC3    C1 5357   2.437   3.048   1.101  0.2008 -0.3449 -0.7541
  358TMC3    C2 5358   2.404   3.037   0.967  0.0398  0.1411 -0.8036
  358TMC3    C3 5359   2.496   2.995   0.874 -0.5947 -0.0099 -0.1170
  358TMC3    C4 5360   2.569   3.034   1.140  0.0432  0.1588 -0.3641
  358TMC3    C5 5361   2.660   2.996   1.043 -0.3078 -0.2017  0.3893
  358TMC3    C6 5362   2.629   2.982   0.907 -0.4434  0.3527 -0.3832
  358TMC3     C 5363   2.362   3.152   1.160  0.7924  0.3700 -0.7334
  358TMC3     O 5364   2.254   3.177   1.107 -0.2003  0.0597  0.1167
  358TMC3     H 5365   2.300   3.045   0.939 -1.1471 -0.0498  3.5652
  358TMC3    H1 5366   2.592   3.034   1.245 -1.3736 -0.4227 -0.0525
  358TMC3    H2 5367   2.694   2.911   0.856  0.6373  0.3970  0.9422
  358TMC3    C7 5368   2.800   2.971   1.089  0.2937 -0.2202 -0.4785
  358TMC3    C8 5369   2.468   3.009   0.733 -0.3831 -0.4685  0.3386
  358TMC3    O1 5370   2.826   2.967   1.208 -0.0505 -0.1562 -0.0111
  358TMC3    O2 5371   2.562   3.041   0.663 -0.2023 -0.2358  0.4977
  359MPD2     C 5372   2.055   2.918  12.174  0.2663 -0.5120  0.8005
  359MPD2    C1 5373   2.048   2.922  12.036 -0.7564  0.6755  0.2553
  359MPD2    C2 5374   1.925   2.919  11.978  0.2881 -0.3289  0.2319
  359MPD2    C3 5375   1.811   2.911  12.052  0.0143  0.0776 -0.3389
  359MPD2    C4 5376   1.818   2.900  12.186  0.1558  0.5620 -0.1870
  359MPD2    C5 5377   1.938   2.912  12.247 -0.1863 -0.6881  0.2878
  359MPD2     H 5378   1.911   2.925  11.870  0.6806 -1.9666  0.0952
  359MPD2    H1 5379   1.740   2.885  12.259 -2.0699 -1.3293 -2.9487
  359MPD2    H2 5380   2.149   2.915  12.226  0.0889 -1.0846  1.0855
  359MPD2    H3 5381   1.943   2.909  12.355  1.1308 -0.2176  0.2345
  359MPD2     N 5382   1.686   2.890  11.992 -0.1720 -0.7260 -0.0626
  359MPD2    H5 5383   1.600   2.894  12.045  0.8812  0.0836  1.5716
  359MPD2    N1 5384   2.161   2.948  11.955  0.0255  0.6886 -0.1339
  359MPD2    H7 5385   2.144   2.969  11.857  1.1545 -0.6030 -0.6103
  360TMC3    C1 5386   2.388   2.994  11.900 -0.6303  0.0897 -0.7265
  360TMC3    C2 5387   2.491   3.076  11.926  0.4720  0.4640 -0.2602
  360TMC3    C3 5388   2.613   3.044  11.867 -1.2587  0.5217  0.1069
  360TMC3    C4 5389   2.396   2.887  11.808 -0.4008  0.7605  0.1283
  360TMC3    C5 5390   2.518   2.852  11.760  0.5516 -0.2234 -0.2534
  360TMC3    C6 5391   2.629   2.932  11.792  0.4115  0.3838 -0.1047
  360TMC3     C 5392   2.288   2.968  12.001  0.0223  0.9654  0.1893
  360TMC3     O 5393   2.333   2.980  12.118  0.0331 -0.1772  0.3337
  360TMC3     H 5394   2.482   3.141  12.013  3.0752  0.0143  0.3396
  360TMC3    H1 5395   2.311   2.823  11.787 -0.4779  0.7407  0.4949
  360TMC3    H2 5396   2.721   2.924  11.736  0.0362  0.1234 -0.6800
  360TMC3    C7 5397   2.527   2.757  11.647  0.3815  0.0462 -0.3342
  360TMC3    C8 5398   2.705   3.162  11.843 -0.8148 -0.2744 -0.0357
  360TMC3    O1 5399   2.435   2.747  11.569  0.1589  0.2774 -0.3130
  360TMC3    O2 5400   2.660   3.275  11.845 -0.2771 -0.4414  0.5170
  361MPD2     C 5401   3.524   1.713  17.317 -0.7373 -0.1270 -0.0321
  361MPD2    C1 5402   3.570   1.714  17.187 -0.1601  0.1797  0.0912
  361MPD2    C2 5403   3.694   1.650  17.153 -0.5014 -0.4667 -0.1326
  361MPD2    C3 5404   3.776   1.601  17.250  0.2169  0.4791  0.4689
  361MPD2    C4 5405   3.728   1.601  17.375  0.3040  0.0859 -0.4512
  361MPD2    C5 5406   3.605   1.659  17.412 -0.5056 -0.6359 -0.0269
  361MPD2     H 5407   3.731   1.651  17.052  2.9497 -0.0038  1.1538
  361MPD2    H1 5408   3.781   1.553  17.456 -0.6682 -1.3794 -0.6776
  361MPD2    H2 5409   3.431   1.755  17.354  0.1896  0.0651  2.0612
  361MPD2    H3 5410   3.576   1.660  17.517 -0.1168  1.1200  0.0598
  361MPD2     N 5411   3.899   1.534  17.228  0.1141  0.0119  0.4092
  361MPD2    H5 5412   3.943   1.491  17.308  0.0808  0.0549  0.4502
  361MPD2    N1 5413   3.499   1.776  17.082 -0.2065 -0.2780  0.2276
  361MPD2    H7 5414   3.555   1.794  16.999  0.4664 -1.9864  0.3124
  362TMC3    C1 5415   3.341   1.903  16.967  0.3204  0.2422 -0.7750
  362TMC3    C2 5416   3.220   1.973  16.975  0.1621  0.1632 -0.6312
  362TMC3    C3 5417   3.181   2.034  16.858  0.0308  0.2494  0.0681
  362TMC3    C4 5418   3.416   1.887  16.850 -0.4565 -0.3827 -0.0932
  362TMC3    C5 5419   3.360   1.931  16.732 -0.0226  0.2423  0.4585
  362TMC3    C6 5420   3.234   1.993  16.735  0.1664  1.0427  0.3216
  362TMC3     C 5421   3.371   1.825  17.088  1.0040 -0.1567  0.6001
  362TMC3     O 5422   3.296   1.811  17.186 -0.3927 -0.0487 -0.2520
  362TMC3     H 5423   3.172   1.994  17.069 -1.4025 -1.0837 -1.1556
  362TMC3    H1 5424   3.511   1.835  16.855  0.4361  1.0870 -1.6825
  362TMC3    H2 5425   3.183   2.012  16.641 -3.0332  0.2197  1.9172
  362TMC3    C7 5426   3.454   1.999  16.645 -1.2717 -0.0056 -0.3527
  362TMC3    C8 5427   3.047   2.088  16.856 -0.3825  0.3338  0.2701
  362TMC3    O1 5428   3.412   2.101  16.588  0.3003  0.3528 -0.0854
  362TMC3    O2 5429   2.985   2.076  16.749  0.2517 -0.1501 -0.5106
  363TMC3    C1 5430   3.126   4.445   9.744 -0.0817 -0.3967 -0.7828
  363TMC3    C2 5431   3.074   4.339   9.811 -0.2940 -0.6646 -0.1101
  363TMC3    C3 5432   2.940   4.343   9.847  0.2893  0.7875 -0.1273
  363TMC3    C4 5433   3.049   4.559   9.716 -0.0008  1.0495  0.2035
  363TMC3    C5 5434   2.916   4.555   9.743 -0.2782  0.1018 -0.0771
  363TMC3    C6 5435   2.859   4.449   9.818 -0.1826 -0.1261  0.7345
  363TMC3     C 5436   3.263   4.446   9.689  0.1427 -0.2842 -0.0276
  363TMC3     O 5437   3.296   4.547   9.630  0.3859 -0.0478  0.2959
  363TMC3     H 5438   3.138   4.254   9.831  0.1339  0.7466  4.5546
  363TMC3    H1 5439   3.098   4.634   9.654 -0.0715  0.2155 -0.8808
  363TMC3    H2 5440   2.754   4.452   9.845  0.2327 -1.1983  2.4662
  363TMC3    C7 5441   2.833   4.661   9.705 -0.4055 -0.4446 -0.5525
  363TMC3    C8 5442   2.876   4.218   9.894 -0.9272  0.0057 -0.0298
  363TMC3    O1 5443   2.714   4.643   9.720 -0.1699 -0.0983 -0.4904
  363TMC3    O2 5444   2.768   4.241   9.951  0.3228  0.0998 -0.1185
  364MPD2     C 5445   1.467   2.944  10.258 -0.2574 -0.1846 -0.1956
  364MPD2    C1 5446   1.545   2.902  10.154  0.0318  0.3845  0.0605
  364MPD2    C2 5447   1.633   2.796  10.177 -0.3391  0.0403  0.1712
  364MPD2    C3 5448   1.648   2.743  10.305  0.0069 -0.5509 -0.0796
  364MPD2    C4 5449   1.572   2.796  10.408 -0.0670  0.6307  1.0158
  364MPD2    C5 5450   1.481   2.892  10.381 -0.2866 -0.4925 -0.3459
  364MPD2     H 5451   1.701   2.767  10.098  0.2394 -1.7067  1.3189
  364MPD2    H1 5452   1.583   2.777  10.514 -4.2772  1.3342  1.5860
  364MPD2    H2 5453   1.393   3.022  10.244 -0.5414 -0.6939 -1.5472
  364MPD2    H3 5454   1.413   2.934  10.454  0.9264  1.3573 -0.2558
  364MPD2     N 5455   1.745   2.650  10.330  0.0864  0.7684 -0.0761
  364MPD2    H5 5456   1.757   2.636  10.430  1.7467  1.6331 -0.1449
  364MPD2    N1 5457   1.539   2.968  10.030  0.0219 -0.4577 -0.4253
  364MPD2    H7 5458   1.501   3.062  10.033 -2.3380 -1.5104  1.8015
  365TMC3    C1 5459   1.611   3.008   9.806  0.5743 -0.1870  0.8056
  365TMC3    C2 5460   1.633   2.949   9.679  0.2790 -0.4918 -0.2675
  365TMC3    C3 5461   1.704   3.024   9.593  0.3943 -0.4113 -0.2335
  365TMC3    C4 5462   1.636   3.138   9.831  0.0454 -0.3636 -0.4212
  365TMC3    C5 5463   1.686   3.209   9.731 -0.0952  0.2647  0.8222
  365TMC3    C6 5464   1.721   3.160   9.612 -0.3757  0.2253 -0.4647
  365TMC3     C 5465   1.579   2.915   9.909  0.3130  0.0531  0.2966
  365TMC3     O 5466   1.590   2.794   9.892 -1.1494 -0.0841  0.2273
  365TMC3     H 5467   1.611   2.844   9.663 -0.8167 -0.3451  0.3088
  365TMC3    H1 5468   1.636   3.170   9.935 -0.3400  1.1949 -0.8987
  365TMC3    H2 5469   1.773   3.217   9.535  0.9591  1.1657  1.1418
  365TMC3    C7 5470   1.689   3.359   9.740  0.8035  0.1213  0.3337
  365TMC3    C8 5471   1.771   2.968   9.480  0.8614  0.2484  0.2365
  365TMC3    O1 5472   1.726   3.421   9.641 -0.7057  0.1209 -0.3642
  365TMC3    O2 5473   1.784   3.037   9.380  0.4657 -0.3233 -0.5808
  366MPD2     C 5474   4.225   4.200  15.557  0.4082 -0.0167 -0.3546
  366MPD2    C1 5475   4.295   4.309  15.593 -0.0643  0.4782  0.0954
  366MPD2    C2 5476   4.434   4.302  15.602  0.5469 -0.7048 -0.1545
  366MPD2    C3 5477   4.508   4.190  15.559  0.0262  1.3597  0.0480
  366MPD2    C4 5478   4.434   4.077  15.534 -1.3803  0.0575  0.5064
  366MPD2    C5 5479   4.294   4.083  15.534  0.0995  0.2541  0.1804
  366MPD2     H 5480   4.490   4.393  15.622 -1.4072  0.1792  1.1894
  366MPD2    H1 5481   4.482   3.986  15.500  1.6421  2.0301 -0.5091
  366MPD2    H2 5482   4.118   4.203  15.535  0.3364 -0.9000 -0.1186
  366MPD2    H3 5483   4.237   3.993  15.513  2.4852 -0.8256 -1.6307
  366MPD2     N 5484   4.648   4.209  15.547  0.1853 -0.2146  0.0125
  366MPD2    H5 5485   4.701   4.296  15.559 -0.0442 -0.1345  0.4577
  366MPD2    N1 5486   4.249   4.444  15.589 -0.3216  0.8614 -0.1913
  366MPD2    H7 5487   4.313   4.520  15.613 -0.0434  0.1045  1.4152
  367TMC3    C1 5488   4.101   4.628  15.566 -0.9149  0.1335 -0.7286
  367TMC3    C2 5489   4.172   4.708  15.645 -0.5655 -0.1237  0.2786
  367TMC3    C3 5490   4.194   0.114  15.610  0.2984  0.2626 -0.2210
  367TMC3    C4 5491   4.059   4.672  15.445  0.2248  0.1404 -0.6945
  367TMC3    C5 5492   4.082   0.081  15.413 -0.4683  0.3464 -0.5585
  367TMC3    C6 5493   4.152   0.167  15.491 -0.3296 -0.3173 -0.5295
  367TMC3     C 5494   4.119   4.484  15.560  0.3374 -0.0989  0.1410
  367TMC3     O 5495   4.020   4.422  15.520  0.2438 -0.3728 -0.1122
  367TMC3     H 5496   4.211   4.676  15.742 -0.3942  1.9316  0.8892
  367TMC3    H1 5497   3.998   4.617  15.374 -2.7520  3.4193 -0.6630
  367TMC3    H2 5498   4.186   0.265  15.459  1.2301 -0.7866 -0.3063
  367TMC3    C7 5499   4.058   0.140  15.280  0.0284 -0.0323  0.0084
  367TMC3    C8 5500   4.285   0.192  15.689  0.0038 -0.6326 -0.3951
  367TMC3    O1 5501   4.140   0.226  15.247  0.3517 -0.3488  0.1973
  367TMC3    O2 5502   4.368   0.147  15.765  0.8507 -0.1333 -0.6816
  368MPD2     C 5503   0.391   2.683  13.120 -0.5141  0.2152  0.6782
  368MPD2    C1 5504   0.315   2.686  13.005  0.4672  0.3410 -0.1628
  368MPD2    C2 5505   0.379   2.684  12.876  0.1179  0.4273 -0.3272
  368MPD2    C3 5506   0.517   2.686  12.865 -0.6066 -0.4414  0.0683
  368MPD2    C4 5507   0.592   2.676  12.981  0.2102 -0.4362  0.3059
  368MPD2    C5 5508   0.533   2.684  13.104  0.6816 -0.0185 -0.3652
  368MPD2     H 5509   0.320   2.683  12.785 -2.5677  1.9885  1.3821
  368MPD2    H1 5510   0.700   2.680  12.982  0.2094 -0.7162  1.2663
  368MPD2    H2 5511   0.353   2.680  13.221  0.8802  1.9990  1.2424
  368MPD2    H3 5512   0.596   2.699  13.190  1.3861  1.5398 -1.1556
  368MPD2     N 5513   0.589   2.702  12.747 -0.5250 -0.2113  0.6915
  368MPD2    H5 5514   0.687   2.711  12.771 -0.5133  3.2546 -0.6202
  368MPD2    N1 5515   0.174   2.685  13.022  0.4131  0.0753  0.0812
  368MPD2    H7 5516   0.124   2.656  13.105 -1.9110 -1.6855 -1.9389
  369TMC3    C1 5517   4.668   2.729  12.957 -0.1721 -0.1797 -0.3550
  369TMC3    C2 5518   4.605   2.823  12.891  0.0288 -0.8651 -0.3898
  369TMC3    C3 5519   4.476   2.813  12.839 -0.4216 -0.7181 -0.0633
  369TMC3    C4 5520   4.613   2.606  12.973  0.3578 -0.1014 -0.1768
  369TMC3    C5 5521   4.482   2.591  12.926  0.2915 -0.0574  0.3968
  369TMC3    C6 5522   4.408   2.698  12.873 -0.7590  0.0395 -0.5247
  369TMC3     C 5523   0.086   2.735  12.924  0.1937 -0.3274 -0.1243
  369TMC3     O 5524   0.116   2.790  12.817  0.5168 -1.2762  0.1861
  369TMC3     H 5525   4.654   2.918  12.874 -2.5204  0.5951  0.3631
  369TMC3    H1 5526   4.667   2.524  13.019  1.3188  2.1109  2.6014
  369TMC3    H2 5527   4.302   2.689  12.849 -0.8746 -1.4909  0.6277
  369TMC3    C7 5528   4.408   2.487  12.983 -0.7800  0.3212  0.0015
  369TMC3    C8 5529   4.451   2.859  12.703 -0.1892  0.1964 -0.7578
  369TMC3    O1 5530   4.454   2.430  13.077 -0.0020 -0.0098  0.0682
  369TMC3    O2 5531   4.385   2.786  12.634 -0.2118 -0.1563  0.8180
  370TMC3    C1 5532   0.332   2.518  16.131  0.5795  0.9674 -0.3428
  370TMC3    C2 5533   0.233   2.479  16.213  0.9416 -0.4981  0.0986
  370TMC3    C3 5534   0.169   2.360  16.192 -0.2556 -0.4439  0.6989
  370TMC3    C4 5535   0.374   2.435  16.033 -0.6727 -0.0999 -0.2401
  370TMC3    C5 5536   0.300   2.318  16.008  0.2274  0.0753 -0.4105
  370TMC3    C6 5537   0.197   2.283  16.086  0.6559  0.0068  0.2622
  370TMC3     C 5538   0.441   2.574  16.210  0.3184 -0.1584  0.2631
  370TMC3     O 5539   0.437   2.558  16.331 -0.3126 -0.6546 -0.3140
  370TMC3     H 5540   0.213   2.536  16.303 -1.5988 -1.5614  0.2318
  370TMC3    H1 5541   0.477   2.442  16.000 -0.8675  0.3840 -0.7359
  370TMC3    H2 5542   0.142   2.190  16.083  0.7106 -0.0639  1.4162
  370TMC3    C7 5543   0.374   2.219  15.943 -0.0134 -0.1042  0.6512
  370TMC3    C8 5544   0.116   2.286  16.299  0.2086 -0.2722 -0.3188
  370TMC3    O1 5545   0.495   2.227  15.915 -0.1039 -0.0549  0.0676
  370TMC3    O2 5546   0.120   2.162  16.292  0.1968  0.2103  0.1989
  371TMC3    C1 5547   1.460   0.796  15.374 -0.1076  0.6247  0.0094
  371TMC3    C2 5548   1.345   0.808  15.451  0.4048 -0.5215  0.0220
  371TMC3    C3 5549   1.290   0.928  15.469  0.0931 -0.4079  0.3555
  371TMC3    C4 5550   1.515   0.901  15.313 -0.1182 -0.7068 -0.2619
  371TMC3    C5 5551   1.457   1.018  15.339 -0.9598  0.5804  0.9443
  371TMC3    C6 5552   1.349   1.038  15.413 -0.1250  0.7033  0.1005
  371TMC3     C 5553   1.513   0.661  15.343  0.3367 -0.5159  0.2126
  371TMC3     O 5554   1.591   0.653  15.248  0.0442  0.2412  0.1494
  371TMC3     H 5555   1.293   0.722  15.493 -0.2754 -0.5484 -0.8933
  371TMC3    H1 5556   1.598   0.896  15.244  0.5607 -1.4474  0.6051
  371TMC3    H2 5557   1.305   1.137  15.422  2.3546  1.9677 -1.7224
  371TMC3    C7 5558   1.533   1.137  15.310  0.7404  0.0827  0.1400
  371TMC3    C8 5559   1.218   0.960  15.592  0.2278 -1.1895 -0.0113
  371TMC3    O1 5560   1.467   1.236  15.290  0.3118 -0.4747 -0.3624
  371TMC3    O2 5561   1.202   1.077  15.620 -0.4317 -0.3732  0.4128
  372MPD2     C 5562   0.831   1.995  13.433 -0.4419  0.0960  0.0473
  372MPD2    C1 5563   0.960   1.954  13.467  0.4750 -0.0074  0.2302
  372MPD2    C2 5564   0.975   1.837  13.543 -0.0152 -0.3065  0.1873
  372MPD2    C3 5565   0.867   1.764  13.588  0.1295  0.5332 -0.1576
  372MPD2    C4 5566   0.736   1.811  13.566  0.0294  0.0022  0.0899
  372MPD2    C5 5567   0.719   1.925  13.491 -0.4300 -0.5352 -0.0249
  372MPD2     H 5568   1.077   1.821  13.575  0.9255  1.6887 -1.8328
  372MPD2    H1 5569   0.653   1.749  13.596 -1.0517  1.4808  0.1116
  372MPD2    H2 5570   0.809   2.083  13.374 -0.8458  2.4017  3.6483
  372MPD2    H3 5571   0.621   1.964  13.467 -1.7861 -3.7539  0.3008
  372MPD2     N 5572   0.886   1.636  13.653 -0.6243  0.1904  0.0471
  372MPD2    H5 5573   0.982   1.603  13.665 -0.8877 -0.9381 -0.9848
  372MPD2    N1 5574   1.074   2.028  13.439  0.1688  0.2501  0.3289
  372MPD2    H7 5575   1.157   1.996  13.487 -0.8566 -2.7413  0.0672
  373TMC3    C1 5576   0.865   1.446  13.770  0.3777 -0.3111  0.3776
  373TMC3    C2 5577   0.802   1.371  13.857  0.7175 -0.0578  0.0866
  373TMC3    C3 5578   0.844   1.242  13.887  0.5977  0.6936 -0.1083
  373TMC3    C4 5579   0.979   1.400  13.702  0.2055 -0.0465  0.1133
  373TMC3    C5 5580   1.010   1.263  13.727 -0.2653  0.4468  0.1236
  373TMC3    C6 5581   0.942   1.179  13.811  0.0051 -0.4599 -1.3930
  373TMC3     C 5582   0.789   1.558  13.713  0.6658 -0.3814 -0.2240
  373TMC3     O 5583   0.672   1.579  13.742  0.2675 -0.0238 -0.2561
  373TMC3     H 5584   0.709   1.407  13.900  0.0188 -2.1113  0.3098
  373TMC3    H1 5585   1.056   1.457  13.652  0.2676 -0.0874  0.1627
  373TMC3    H2 5586   0.981   1.079  13.827  0.5461 -0.2107 -1.1746
  373TMC3    C7 5587   1.134   1.212  13.668  0.4492 -0.0806 -0.5779
  373TMC3    C8 5588   0.747   1.159  13.964  0.1316  0.0273 -0.9571
  373TMC3    O1 5589   1.147   1.252  13.552 -0.4673  0.1872  0.5420
  373TMC3    O2 5590   0.627   1.182  13.947 -0.3001  0.6077 -0.6419
  374TMC3    C1 5591   1.999   1.542   9.939  0.5739  0.5294  0.1518
  374TMC3    C2 5592   2.094   1.641   9.903  1.2583 -0.4945 -0.0665
  374TMC3    C3 5593   2.161   1.631   9.783 -0.1657 -0.0218  0.1434
  374TMC3    C4 5594   1.963   1.442   9.863 -0.0640  0.4419  0.1292
  374TMC3    C5 5595   2.030   1.433   9.743 -0.1780  0.4073  0.2506
  374TMC3    C6 5596   2.125   1.524   9.704  0.0679  1.0655 -0.5846
  374TMC3     C 5597   1.903   1.567  10.050  0.7362  0.2390  0.2764
  374TMC3     O 5598   1.809   1.488  10.054 -0.2365 -0.3971 -0.4434
  374TMC3     H 5599   2.105   1.725   9.971 -1.5931 -0.3162  0.1557
  374TMC3    H1 5600   1.883   1.374   9.889 -0.2127  0.7066  0.3554
  374TMC3    H2 5601   2.196   1.504   9.625 -1.6302 -0.4305 -1.7391
  374TMC3    C7 5602   1.981   1.355   9.635  0.5320  0.5991  0.3153
  374TMC3    C8 5603   2.291   1.692   9.761  0.0316 -0.1756  0.3307
  374TMC3    O1 5604   2.056   1.339   9.541  0.4934  0.5483  0.0025
  374TMC3    O2 5605   2.351   1.678   9.652  0.3330  0.6654 -0.0390
  375MPD2     C 5606   1.958   2.923  17.141  0.0593  0.4152  0.2806
  375MPD2    C1 5607   1.884   2.924  17.022 -0.3674 -0.2086  0.8321
  375MPD2    C2 5608   1.947   2.913  16.898 -0.7274  0.6667 -0.1556
  375MPD2    C3 5609   2.080   2.872  16.891 -0.0300  0.1614 -0.0894
  375MPD2    C4 5610   2.144   2.858  17.013 -0.0573  0.2698  0.1312
  375MPD2    C5 5611   2.089   2.883  17.139  0.3231  0.0539 -0.2914
  375MPD2     H 5612   1.883   2.919  16.810 -2.0597 -0.6490  0.7068
  375MPD2    H1 5613   2.240   2.807  17.006  0.2917  0.7354  1.5739
  375MPD2    H2 5614   1.916   2.936  17.240 -1.9783 -1.3871 -0.3493
  375MPD2    H3 5615   2.143   2.873  17.232  1.1086  0.2589 -0.7285
  375MPD2     N 5616   2.142   2.825  16.770  0.5613  0.8655 -0.6041
  375MPD2    H5 5617   2.236   2.786  16.776  1.1686  2.5787  1.0046
  375MPD2    N1 5618   1.743   2.945  17.016 -0.3930  0.5833  0.6037
  375MPD2    H7 5619   1.698   2.948  16.925  1.1965 -0.2008 -0.2223
  376TMC3    C1 5620   2.163   2.769  16.536  0.5574 -0.2595  0.3474
  376TMC3    C2 5621   2.262   2.682  16.579  0.0183  0.3347 -0.5969
  376TMC3    C3 5622   2.336   2.615  16.483 -0.1038  0.1435 -0.6126
  376TMC3    C4 5623   2.117   2.776  16.405  0.3207  0.8427 -0.0939
  376TMC3    C5 5624   2.183   2.691  16.314  0.3664  0.3472 -0.3581
  376TMC3    C6 5625   2.291   2.613  16.352  0.3523  0.0922 -0.1707
  376TMC3     C 5626   2.084   2.838  16.643  0.3083 -0.4406  0.6385
  376TMC3     O 5627   1.988   2.900  16.609 -0.4878  0.5026 -0.0918
  376TMC3     H 5628   2.299   2.686  16.681 -1.0364 -0.8192 -0.1639
  376TMC3    H1 5629   2.026   2.829  16.379  0.6275  0.7098 -1.4690
  376TMC3    H2 5630   2.346   2.557  16.277  2.8130  1.9526  0.2731
  376TMC3    C7 5631   2.152   2.713  16.178 -0.1151 -0.3977  0.1854
  376TMC3    C8 5632   2.484   2.606  16.500  0.2133  0.7940 -0.1849
  376TMC3    O1 5633   2.131   2.831  16.159  0.2596 -0.1901  0.7292
  376TMC3    O2 5634   2.543   2.647  16.402 -0.1659 -0.1734 -0.2708
  377MPD2     C 5635   4.033   2.643  12.287 -0.4475  0.4300  0.1063
  377MPD2    C1 5636   4.103   2.555  12.371  0.1706  0.4090  0.1433
  377MPD2    C2 5637   4.028   2.443  12.425  0.5422  0.0193 -0.6850
  377MPD2    C3 5638   3.888   2.434  12.412 -0.2534  0.0387 -0.4906
  377MPD2    C4 5639   3.828   2.527  12.328 -0.7890 -0.0508  0.0415
  377MPD2    C5 5640   3.900   2.625  12.262 -0.3648 -0.0925  0.5711
  377MPD2     H 5641   4.084   2.363  12.472  0.9021  0.6636 -0.0081
  377MPD2    H1 5642   3.720   2.519  12.317 -0.9776  4.4731 -1.4396
  377MPD2    H2 5643   4.089   2.724  12.242 -0.4516  0.9585  1.0425
  377MPD2    H3 5644   3.846   2.686  12.191  3.0199  1.5665 -0.5667
  377MPD2     N 5645   3.810   2.328  12.473  0.4113  0.0163  0.3308
  377MPD2    H5 5646   3.710   2.323  12.459 -0.0036  1.7101  2.8001
  377MPD2    N1 5647   4.243   2.569  12.383  0.2876  0.6290 -0.6993
  377MPD2    H7 5648   4.298   2.634  12.327 -1.0107  1.1136 -1.4151
  378TMC3    C1 5649   4.618   2.425  12.319 -0.2767  0.0583  0.5386
  378TMC3    C2 5650   4.487   2.459  12.331  0.7124  0.3865 -0.4147
  378TMC3    C3 5651   4.441   2.504  12.451  0.0332  0.1730 -0.6741
  378TMC3    C4 5652   4.706   2.419  12.429  0.0926  0.8883 -0.2457
  378TMC3    C5 5653   4.648   2.449  12.554 -0.3283  0.0914 -0.1007
  378TMC3    C6 5654   4.520   2.496  12.560 -0.3496 -0.8580  0.1569
  378TMC3     C 5655   4.657   2.416  12.175  0.3688 -0.7421 -0.1698
  378TMC3     O 5656   4.578   2.376  12.092 -0.5003  0.0640 -0.1342
  378TMC3     H 5657   4.421   2.471  12.245 -0.7041  0.7421  0.7359
  378TMC3    H1 5658   0.085   2.381  12.422 -1.1048 -2.4768  0.5323
  378TMC3    H2 5659   4.480   2.521  12.658 -1.6122  0.8888 -0.8023
  378TMC3    C7 5660   4.700   2.395  12.673  0.8638  0.2022  0.0052
  378TMC3    C8 5661   4.303   2.495  12.477 -0.3824  0.0643  0.4990
  378TMC3    O1 5662   4.625   2.391  12.769 -0.3044  1.0544 -0.5275
  378TMC3    O2 5663   4.266   2.440  12.580  0.5714 -0.4926  1.0209
  379MPD2     C 5664   0.625   0.219  15.937 -0.4144  0.5804  0.9734
  379MPD2    C1 5665   0.575   0.268  16.052  0.8455  0.3653 -1.1079
  379MPD2    C2 5666   0.596   0.207  16.174  0.3881  0.3231 -0.3755
  379MPD2    C3 5667   0.663   0.087  16.173 -0.9394 -0.1421  0.5900
  379MPD2    C4 5668   0.727   0.041  16.061  0.3010 -0.5409 -0.2651
  379MPD2    C5 5669   0.703   0.105  15.941  0.4811 -0.5277  0.5907
  379MPD2     H 5670   0.545   0.241  16.263  0.5792  1.4200 -0.6857
  379MPD2    H1 5671   0.783   4.670  16.060 -1.5929 -1.6712 -1.5886
  379MPD2    H2 5672   0.597   0.264  15.843  1.3862 -1.3503 -0.4874
  379MPD2    H3 5673   0.738   0.058  15.850 -2.1862  1.4227 -1.4548
  379MPD2     N 5674   0.674   0.016  16.292 -0.0702 -0.0573 -0.4281
  379MPD2    H5 5675   0.723   4.650  16.279  1.9983  0.7019  2.2899
  379MPD2    N1 5676   0.488   0.373  16.029  0.0838  0.2627  0.0666
  379MPD2    H7 5677   0.478   0.392  15.929 -1.6152 -2.2595 -0.2363
  380TMC3    C1 5678   0.343   0.546  16.037  0.3056 -0.6268 -0.3449
  380TMC3    C2 5679   0.404   0.572  15.920 -0.3678  0.7489 -0.8369
  380TMC3    C3 5680   0.321   0.602  15.820 -1.0297  0.0139 -0.5518
  380TMC3    C4 5681   0.212   0.562  16.065 -0.3560  0.0896  0.2748
  380TMC3    C5 5682   0.134   0.597  15.956 -0.4407 -0.3150  0.8022
  380TMC3    C6 5683   0.185   0.607  15.827 -0.2186  0.5135 -0.0334
  380TMC3     C 5684   0.404   0.442  16.113  0.0590  0.0995  0.1365
  380TMC3     O 5685   0.391   0.432  16.234 -0.7474 -0.2936  0.2905
  380TMC3     H 5686   0.512   0.577  15.908 -0.2808  1.5150  0.2756
  380TMC3    H1 5687   0.173   0.536  16.163  0.9177 -0.9469  0.4936
  380TMC3    H2 5688   0.126   0.659  15.753 -0.5583 -0.4914 -0.4680
  380TMC3    C7 5689   4.717   0.602  15.963  0.0227  0.6639  0.0395
  380TMC3    C8 5690   0.380   0.626  15.687  0.6474 -0.2044 -0.4050
  380TMC3    O1 5691   4.666   0.694  16.030  0.3256  0.0821  0.2965
  380TMC3    O2 5692   0.502   0.655  15.677 -0.3191 -0.1609  0.5072
  381TMC3    C1 5693   0.132   1.574  16.085 -0.5811  0.3510  0.6542
  381TMC3    C2 5694   0.244   1.654  16.089 -0.4522  0.2400 -0.1845
  381TMC3    C3 5695   0.249   1.742  16.190  0.2484  0.0463 -0.9037
  381TMC3    C4 5696   0.040   1.560  16.178 -0.8742  0.0388  0.1504
  381TMC3    C5 5697   0.045   1.650  16.283 -0.2719  0.4921  0.4164
  381TMC3    C6 5698   0.150   1.746  16.286  0.2279  0.0077 -0.1978
  381TMC3     C 5699   0.144   1.464  15.983  0.2318  0.6244  0.3764
  381TMC3     O 5700   0.212   1.480  15.884  0.3709 -0.3892  0.0885
  381TMC3     H 5701   0.328   1.651  16.020  0.0367  1.2111  0.3587
  381TMC3    H1 5702   4.682   1.487  16.166 -0.6141 -0.4180  1.1387
  381TMC3    H2 5703   0.156   1.810  16.373 -1.5473  0.0711 -0.1135
  381TMC3    C7 5704   4.709   1.604  16.404  0.0803 -0.4656 -0.4060
  381TMC3    C8 5705   0.373   1.811  16.205  0.4286  0.5279 -0.4978
  381TMC3    O1 5706   4.704   1.485  16.422 -0.1959  0.7451  0.3024
  381TMC3    O2 5707   0.479   1.774  16.159  0.3326 -0.3121 -0.0165
  382MPD2     C 5708   4.494   4.189  17.550  0.3579 -0.5821  0.3427
  382MPD2    C1 5709   4.405   4.241  17.648 -0.1875  0.1740 -0.4932
  382MPD2    C2 5710   4.292   4.160  17.682 -0.2179  0.5195 -0.3905
  382MPD2    C3 5711   4.277   4.032  17.629 -0.2218 -0.2393  0.7665
  382MPD2    C4 5712   4.379   3.981  17.543 -0.3987 -0.7472  0.4333
  382MPD2    C5 5713   4.479   4.064  17.501 -0.1573 -0.0328  0.3822
  382MPD2     H 5714   4.208   4.195   0.050 -0.2216 -0.4604  0.1749
  382MPD2    H1 5715   4.371   3.883  17.498 -2.2002 -0.4242  0.0239
  382MPD2    H2 5716   4.581   4.239  17.509 -1.0036  1.0329 -0.5842
  382MPD2    H3 5717   4.543   4.029  17.421  2.2148  2.3195  1.2736
  382MPD2     N 5718   4.177   3.938  17.666  0.0834  0.4328  0.6312
  382MPD2    H5 5719   4.172   3.848  17.620  0.2486  1.5967 -1.6441
  382MPD2    N1 5720   4.421   4.371   0.016  0.1222  0.4395 -0.3941
  382MPD2    H7 5721   4.355   4.398   0.088  1.1154  0.8877  0.3477
  383TMC3    C1 5722   4.006   3.844   0.106  0.4660 -0.0931  0.1647
  383TMC3    C2 5723   3.961   3.778  17.688  0.2588 -0.1633  0.0861
  383TMC3    C3 5724   3.914   3.653   0.015 -0.0143  0.0422 -0.1630
  383TMC3    C4 5725   3.987   3.795   0.234  0.0337 -0.1525  0.0595
  383TMC3    C5 5726   3.952   3.664   0.244 -0.0039 -0.5529 -0.5468
  383TMC3    C6 5727   3.919   3.587   0.137  0.3405  0.6746  0.2624
  383TMC3     C 5728   4.088   3.957   0.083  0.9373 -0.1945  0.2579
  383TMC3     O 5729   4.093   4.030   0.182  0.1817  0.4362 -0.0041
  383TMC3     H 5730   3.949   3.830  17.593  0.8651  0.4671  0.3554
  383TMC3    H1 5731   4.024   3.852   0.319 -1.2622 -0.6199  0.9316
  383TMC3    H2 5732   3.889   3.483   0.138  0.1054  0.7708  2.2597
  383TMC3    C7 5733   3.946   3.597   0.371  0.5499 -0.4443  0.3556
  383TMC3    C8 5734   3.872   3.597  17.585  0.0476 -0.5577 -1.2844
  383TMC3    O1 5735   3.933   3.476   0.363 -1.0446 -0.3459 -0.3209
  383TMC3    O2 5736   3.832   3.668  17.491  0.1300  0.1305 -0.3457
  384MPD2     C 5737   1.399   0.276  11.713  0.2608  0.5112  0.6574
  384MPD2    C1 5738   1.365   0.161  11.787  0.0111 -0.1600 -0.2249
  384MPD2    C2 5739   1.376   0.040  11.727  0.0431 -0.3695 -0.4682
  384MPD2    C3 5740   1.415   0.030  11.590  0.7266  0.0050  0.3624
  384MPD2    C4 5741   1.441   0.146  11.517  0.4194 -0.0825  0.2973
  384MPD2    C5 5742   1.436   0.272  11.580 -0.7131  0.1809  0.3438
  384MPD2     H 5743   1.367   4.673  11.788 -0.6096 -1.1778 -1.7327
  384MPD2    H1 5744   1.460   0.146  11.410  1.1400  0.6559  0.4231
  384MPD2    H2 5745   1.404   0.376  11.756  1.4931  0.9933 -0.5966
  384MPD2    H3 5746   1.456   0.362  11.522  0.6378  0.1127  0.7047
  384MPD2     N 5747   1.428   4.629  11.517 -0.2023  0.6513 -0.3811
  384MPD2    H5 5748   1.444   4.636  11.417 -1.2099 -1.7083 -0.7055
  384MPD2    N1 5749   1.323   0.149  11.917  0.1229  0.0817  0.9591
  384MPD2    H7 5750   1.304   0.054  11.948 -1.5393 -0.4519 -1.7158
  385TMC3    C1 5751   1.386   4.406  11.477  0.7530 -0.3504  0.7872
  385TMC3    C2 5752   1.296   4.426  11.378 -0.0583  0.4882  0.1645
  385TMC3    C3 5753   1.217   4.330  11.323 -0.4435  0.3228 -0.8620
  385TMC3    C4 5754   1.374   4.284  11.541 -0.3775  0.3695  0.1600
  385TMC3    C5 5755   1.287   4.188  11.494 -0.0330 -0.0597  0.0877
  385TMC3    C6 5756   1.215   4.206  11.383 -0.6116 -0.2727  0.2231
  385TMC3     C 5757   1.406   4.508  11.574  0.1034 -0.9066  0.4074
  385TMC3     O 5758   1.400   4.468  11.691 -0.4826 -0.2202  0.0129
  385TMC3     H 5759   1.306   4.518  11.321  1.5616  0.6737  0.7458
  385TMC3    H1 5760   1.451   4.254  11.612 -0.0737 -0.3326 -0.4646
  385TMC3    H2 5761   1.150   4.131  11.340  2.3966 -3.2140  0.7691
  385TMC3    C7 5762   1.204   4.143  11.604  0.7745  0.1988  1.5797
  385TMC3    C8 5763   1.216   4.337  11.177  0.4267  0.5048  0.1165
  385TMC3    O1 5764   1.148   4.035  11.601 -0.3456 -0.4194 -0.3090
  385TMC3    O2 5765   1.190   4.449  11.133  0.0959  0.4478 -0.0397
  386TMC3    C1 5766   0.919   2.525  11.559  0.3611 -0.2057 -0.4103
  386TMC3    C2 5767   0.969   2.578  11.441 -0.1654 -0.0805  0.5476
  386TMC3    C3 5768   0.890   2.660  11.371 -0.8849 -0.3335 -0.1249
  386TMC3    C4 5769   0.790   2.540  11.594 -0.9479  0.1202 -0.4078
  386TMC3    C5 5770   0.708   2.614  11.512 -0.1530  0.3348 -0.3144
  386TMC3    C6 5771   0.758   2.671  11.401  0.1843 -0.1381 -0.1055
  386TMC3     C 5772   0.983   2.414  11.621 -0.0129 -0.3233 -0.3055
  386TMC3     O 5773   0.935   2.370  11.729  0.0542  0.2276 -0.1714
  386TMC3     H 5774   1.074   2.569  11.416  0.0306  2.3091  0.5160
  386TMC3    H1 5775   0.749   2.489  11.681 -2.4443 -1.2530 -1.9271
  386TMC3    H2 5776   0.691   2.721  11.333  1.0783  0.0550 -0.8380
  386TMC3    C7 5777   0.568   2.619  11.550  0.9560 -0.1578 -0.2135
  386TMC3    C8 5778   0.924   2.684  11.231 -0.4716  1.0012  0.2497
  386TMC3    O1 5779   0.527   2.553  11.646 -0.2440  0.4633 -0.5335
  386TMC3    O2 5780   0.836   2.710  11.153 -0.9406 -0.1671  0.0697
  387MPD2     C 5781   3.770   2.626   9.294 -0.2393  0.0780  0.9672
  387MPD2    C1 5782   3.864   2.637   9.389 -0.2937 -0.3940 -0.2887
  387MPD2    C2 5783   3.940   2.524   9.432  0.0570 -0.1745  0.7492
  387MPD2    C3 5784   3.921   2.405   9.367  0.4954  0.4982 -0.0025
  387MPD2    C4 5785   3.822   2.400   9.274  0.5130  0.4200 -0.3382
  387MPD2    C5 5786   3.747   2.507   9.238  0.6044  0.3020 -0.2340
  387MPD2     H 5787   4.010   2.519   9.514 -0.8271 -1.2749  1.4364
  387MPD2    H1 5788   3.796   2.308   9.222 -0.1687  0.8425 -0.7438
  387MPD2    H2 5789   3.713   2.713   9.262 -0.8775 -1.2870 -1.6758
  387MPD2    H3 5790   3.672   2.496   9.160  0.0546  0.2365  0.3067
  387MPD2     N 5791   3.983   2.292   9.426  0.2717 -0.1921  0.5069
  387MPD2    H5 5792   4.065   2.317   9.481  0.2037 -1.7903  1.3293
  387MPD2    N1 5793   3.879   2.759   9.454  0.4104 -0.2519  0.0456
  387MPD2    H7 5794   3.956   2.762   9.520 -0.7437  0.3584  1.3671
  388TMC3    C1 5795   3.795   2.935   9.598 -0.0137  0.0679 -0.6190
  388TMC3    C2 5796   3.716   3.045   9.617 -0.1204  0.4323  0.2020
  388TMC3    C3 5797   3.681   3.078   9.745  0.5482  0.2060 -0.2717
  388TMC3    C4 5798   3.846   2.869   9.707 -0.5996  0.3002  0.0780
  388TMC3    C5 5799   3.809   2.909   9.832  1.2227 -0.1434 -0.1823
  388TMC3    C6 5800   3.726   3.013   9.855 -0.2251 -0.1116 -0.2944
  388TMC3     C 5801   3.787   2.865   9.465  0.5555 -0.6941 -0.0557
  388TMC3     O 5802   3.682   2.879   9.409  0.0820 -0.2828  0.1881
  388TMC3     H 5803   3.686   3.103   9.531 -1.5404 -1.4238 -0.5631
  388TMC3    H1 5804   3.918   2.790   9.690  0.1587  0.2067  3.7227
  388TMC3    H2 5805   3.673   3.021   9.949 -0.2386 -1.8137 -0.1565
  388TMC3    C7 5806   3.830   2.815   9.945 -0.3223  0.4806  0.3415
  388TMC3    C8 5807   3.591   3.188   9.760  0.4698  0.5853  0.3174
  388TMC3    O1 5808   3.841   2.860  10.058  0.1234  0.0147 -0.5397
  388TMC3    O2 5809   3.533   3.233   9.665 -0.2017  0.3266 -0.2423
  389MPD2     C 5810   3.308   0.691  11.503  0.0532  0.5513  0.0155
  389MPD2    C1 5811   3.265   0.640  11.386  0.7909 -0.1360  0.4154
  389MPD2    C2 5812   3.177   0.535  11.396  0.6291  0.6127  0.0101
  389MPD2    C3 5813   3.139   0.486  11.522 -0.2053 -0.3374  0.2395
  389MPD2    C4 5814   3.183   0.535  11.638  1.1924 -0.1087  0.5928
  389MPD2    C5 5815   3.272   0.646  11.623 -0.2053  0.2788 -0.1031
  389MPD2     H 5816   3.129   0.494  11.308  1.2554  0.4961 -0.2774
  389MPD2    H1 5817   3.140   0.502  11.732 -1.6470  1.7868 -0.0220
  389MPD2    H2 5818   3.366   0.783  11.503  0.2840  0.3989 -1.9657
  389MPD2    H3 5819   3.308   0.684  11.717  0.2852  1.1381 -0.6444
  389MPD2     N 5820   3.044   0.387  11.534 -0.5289 -0.1145  0.6247
  389MPD2    H5 5821   3.004   0.357  11.622 -1.7072 -1.0334 -0.2099
  389MPD2    N1 5822   3.286   0.720  11.268 -0.4171  0.0608  0.3110
  389MPD2    H7 5823   3.353   0.795  11.278  0.2707 -0.4006 -0.9134
  390TMC3    C1 5824   2.889   0.229  11.468  0.3409  0.2711 -0.2241
  390TMC3    C2 5825   2.853   0.204  11.597  0.2739  0.6022 -0.2881
  390TMC3    C3 5826   2.725   0.146  11.608  0.6570  0.8354 -0.7443
  390TMC3    C4 5827   2.809   0.210  11.362 -0.1097 -0.8576 -0.7507
  390TMC3    C5 5828   2.684   0.165  11.384 -0.1301  0.2940 -0.6150
  390TMC3    C6 5829   2.636   0.135  11.506  0.2412  0.1279 -0.0506
  390TMC3     C 5830   3.005   0.306  11.433  0.3503  0.3147 -0.5246
  390TMC3     O 5831   3.042   0.305  11.315 -0.5915  0.3063 -0.1244
  390TMC3     H 5832   2.922   0.213  11.680 -1.1213 -1.7980  1.1357
  390TMC3    H1 5833   2.837   0.232  11.260  1.9278  2.9610  0.6110
  390TMC3    H2 5834   2.534   0.102  11.528  0.7609 -1.5886 -0.1661
  390TMC3    C7 5835   2.598   0.153  11.266  0.5467 -0.8203 -0.2206
  390TMC3    C8 5836   2.688   0.081  11.734  0.0033  0.2694 -0.4113
  390TMC3    O1 5837   2.650   0.145  11.155  0.7303 -0.0854  0.0139
  390TMC3    O2 5838   2.739   0.118  11.841  0.1545 -0.1760 -0.3533
  391MPD2     C 5839   2.755   2.078  11.233 -0.2632 -0.2357  0.4615
  391MPD2    C1 5840   2.883   2.084  11.177  0.8600 -0.3260 -0.5339
  391MPD2    C2 5841   2.896   2.072  11.032  0.5241  0.0133 -0.2812
  391MPD2    C3 5842   2.781   2.058  10.949  0.3337 -0.7926  0.2003
  391MPD2    C4 5843   2.656   2.051  11.017  0.6778 -0.0517 -0.3995
  391MPD2    C5 5844   2.649   2.060  11.150 -0.7792  0.3007  0.4606
  391MPD2     H 5845   2.991   2.083  10.981  1.9503 -1.3468  2.0696
  391MPD2    H1 5846   2.558   2.045  10.970  1.1074  0.5067 -1.3828
  391MPD2    H2 5847   2.741   2.081  11.341  4.2421  1.0260  1.0132
  391MPD2    H3 5848   2.551   2.061  11.197 -0.8196  0.0169  0.3843
  391MPD2     N 5849   2.804   2.053  10.815 -0.4125  0.4408 -0.3092
  391MPD2    H5 5850   2.902   2.055  10.790 -0.4018 -0.8907 -0.3640
  391MPD2    N1 5851   2.986   2.101  11.271  0.3890 -0.1019 -0.4106
  391MPD2    H7 5852   2.958   2.088  11.368  1.4428  1.0389  0.0493
  392TMC3    C1 5853   2.755   2.048  10.586 -0.1868 -0.3711 -0.0984
  392TMC3    C2 5854   2.659   2.037  10.483  0.5335 -0.0449 -0.3781
  392TMC3    C3 5855   2.686   2.083  10.355 -0.0906  0.0821 -0.0392
  392TMC3    C4 5856   2.873   2.121  10.567 -0.4394 -0.2387  0.2798
  392TMC3    C5 5857   2.891   2.175  10.446  0.1116  0.8482  0.5266
  392TMC3    C6 5858   2.808   2.149  10.335  0.3056 -0.2596 -0.5301
  392TMC3     C 5859   2.703   2.028  10.724  0.6631  0.8292  0.1574
  392TMC3     O 5860   2.579   2.020  10.742 -0.6948 -0.2756  0.0543
  392TMC3     H 5861   2.574   1.972  10.500  1.0366 -0.5587  0.2022
  392TMC3    H1 5862   2.935   2.145  10.653  0.0757  0.2045 -0.2189
  392TMC3    H2 5863   2.805   2.215  10.249 -0.3985 -1.0343 -1.1089
  392TMC3    C7 5864   2.973   2.294  10.448  0.3979  0.0051 -0.3395
  392TMC3    C8 5865   2.588   2.044  10.253  0.0377  0.4639 -0.3145
  392TMC3    O1 5866   2.989   2.356  10.555  0.2732  0.0752  0.1201
  392TMC3    O2 5867   2.491   1.991  10.291 -0.3168  0.9639  0.4512
  393TMC3    C1 5868   1.779   0.071  10.440  0.2226  0.0667  0.5354
  393TMC3    C2 5869   1.685   4.692  10.431 -0.3786 -1.0116 -0.0614
  393TMC3    C3 5870   1.728   4.572  10.388 -0.6173 -1.0570 -0.3727
  393TMC3    C4 5871   1.914   0.056  10.413 -0.3065  0.0497 -0.2920
  393TMC3    C5 5872   1.951   4.652  10.365  0.5739 -1.0478 -0.7024
  393TMC3    C6 5873   1.859   4.552  10.359  0.0102  0.1059  0.1629
  393TMC3     C 5874   1.727   0.208  10.470 -0.5200 -0.3142  0.8118
  393TMC3     O 5875   1.608   0.228  10.459  0.5015  0.4070 -0.7882
  393TMC3     H 5876   1.581   4.721  10.441 -0.2573 -0.1335 -1.3565
  393TMC3    H1 5877   1.978   0.143  10.406 -1.6701  1.2748  2.2520
  393TMC3    H2 5878   1.891   4.455  10.324  0.6320  0.3366  0.0948
  393TMC3    C7 5879   2.089   4.617  10.332 -0.2025 -0.1840  0.3314
  393TMC3    C8 5880   1.641   4.453  10.401 -0.0929  0.4309  0.1849
  393TMC3    O1 5881   2.109   4.505  10.283 -0.7286 -0.0396 -0.4083
  393TMC3    O2 5882   1.699   4.345  10.377 -0.6499  0.2705 -0.2090
  394TMC3    C1 5883   3.227   0.820  11.063 -0.1779 -0.4158  0.4814
  394TMC3    C2 5884   3.131   0.834  10.968  0.5479 -0.7835 -0.3220
  394TMC3    C3 5885   3.170   0.871  10.839 -0.9382  0.0170  0.2271
  394TMC3    C4 5886   3.358   0.868  11.045  0.2465 -0.1774  0.4196
  394TMC3    C5 5887   3.387   0.896  10.921  0.1153  0.1170  0.8004
  394TMC3    C6 5888   3.303   0.908  10.816  0.0755 -0.0057  0.4100
  394TMC3     C 5889   3.195   0.723  11.160  0.1050 -0.2178  0.1487
  394TMC3     O 5890   3.108   0.650  11.125  0.0347  0.0404  0.7502
  394TMC3     H 5891   3.029   0.798  10.980  0.8904 -1.2336  1.3324
  394TMC3    H1 5892   3.439   0.846  11.114  0.0351 -2.7174 -0.1210
  394TMC3    H2 5893   3.334   0.948  10.720  0.0354  0.7834  0.7211
  394TMC3    C7 5894   3.529   0.878  10.882 -0.1374  0.2020 -0.0567
  394TMC3    C8 5895   3.072   0.890  10.731  0.2049  0.4203  0.0273
  394TMC3    O1 5896   3.609   0.928  10.958 -0.1122  0.0374 -0.2783
  394TMC3    O2 5897   2.954   0.904  10.751 -0.1799  0.3446  0.1519
  395TMC3    C1 5898   2.249   2.579  14.162  0.3859 -0.1671 -0.0945
  395TMC3    C2 5899   2.128   2.550  14.222  0.0375 -0.2418 -0.0381
  395TMC3    C3 5900   2.096   2.621  14.333  0.0015 -0.0363 -0.5530
  395TMC3    C4 5901   2.334   2.678  14.200 -0.0975 -0.1814  0.3143
  395TMC3    C5 5902   2.298   2.736  14.321 -0.0706 -0.2596 -0.0475
  395TMC3    C6 5903   2.175   2.724  14.380 -0.4165 -0.3778  0.1801
  395TMC3     C 5904   2.311   2.463  14.120  0.3545 -0.2897 -0.4510
  395TMC3     O 5905   2.262   2.358  14.168  0.6274 -0.6674 -0.2512
  395TMC3     H 5906   2.064   2.471  14.185  2.6043 -1.9712 -0.8656
  395TMC3    H1 5907   2.421   2.713  14.146  0.8674 -0.7116  1.5286
  395TMC3    H2 5908   2.138   2.781  14.465 -0.9930 -0.3405 -0.1002
  395TMC3    C7 5909   2.392   2.773  14.417  0.0014 -0.3319 -0.9142
  395TMC3    C8 5910   2.014   2.555  14.434  0.4226  0.4450  0.0737
  395TMC3    O1 5911   2.370   2.848  14.510 -0.1551  0.1806  0.1037
  395TMC3    O2 5912   1.989   2.616  14.535 -0.7971 -0.0195  0.1697
  396MPD2     C 5913   2.542   3.863  17.372 -0.6512 -0.5237 -0.0360
  396MPD2    C1 5914   2.660   3.861  17.295  0.2900  0.3444  0.3946
  396MPD2    C2 5915   2.694   3.953  17.199 -0.2565 -0.4781  0.1640
  396MPD2    C3 5916   2.605   4.055  17.172  0.4560 -0.1552  0.1319
  396MPD2    C4 5917   2.490   4.062  17.250  0.0043  0.4468  0.2247
  396MPD2    C5 5918   2.454   3.965  17.338 -0.2081 -0.0762  0.7545
  396MPD2     H 5919   2.781   3.936  17.137  1.1782  1.1964  1.7131
  396MPD2    H1 5920   2.425   4.149  17.245  0.1229  0.4708 -0.8462
  396MPD2    H2 5921   2.525   3.794  17.453  1.0131  1.0181  1.6074
  396MPD2    H3 5922   2.364   3.977  17.397 -1.2825  1.3592 -1.1858
  396MPD2     N 5923   2.649   4.147  17.075 -0.3339  1.1439  0.6408
  396MPD2    H5 5924   2.745   4.138  17.045 -0.7934 -0.4328 -0.3080
  396MPD2    N1 5925   2.746   3.749  17.321  0.1739 -0.0284  0.0504
  396MPD2    H7 5926   2.718   3.679  17.389 -0.3103  1.3716  1.2785
  397TMC3    C1 5927   2.911   3.590  17.259 -0.0214  0.3037 -0.2054
  397TMC3    C2 5928   2.981   3.581  17.141 -0.1076 -0.0300  0.9740
  397TMC3    C3 5929   2.931   3.511  17.035 -0.2341 -0.1105 -0.6706
  397TMC3    C4 5930   2.794   3.515  17.276  0.5073 -0.2529 -0.0871
  397TMC3    C5 5931   2.780   3.421  17.177  0.7115  0.4865  0.4713
  397TMC3    C6 5932   2.834   3.420  17.057  0.2255  0.2236  0.3607
  397TMC3     C 5933   2.872   3.731  17.272 -0.4142 -0.2510 -0.8236
  397TMC3     O 5934   2.947   3.812  17.219 -0.2731  0.0885  0.3222
  397TMC3     H 5935   3.062   3.653  17.130  0.9570 -1.4058 -0.1051
  397TMC3    H1 5936   2.762   3.495  17.377  1.1466  0.3913  0.2458
  397TMC3    H2 5937   2.809   3.354  16.975 -1.3738  0.5574  0.5738
  397TMC3    C7 5938   2.695   3.308  17.198  0.0542 -0.2349 -0.3135
  397TMC3    C8 5939   2.950   3.569  16.899 -0.1903  0.0028  0.1980
  397TMC3    O1 5940   2.628   3.274  17.100 -0.0016 -0.2116 -0.2178
  397TMC3    O2 5941   2.878   3.525  16.813 -0.2343  0.8024  0.6020
  398MPD2     C 5942   0.372   0.128   0.152  0.0618 -0.5207 -0.5904
  398MPD2    C1 5943   0.428   0.016   0.200 -0.4034  0.0746 -0.6384
  398MPD2    C2 5944   0.520   0.020   0.304 -0.0308  0.3334  0.3761
  398MPD2    C3 5945   0.541   0.145   0.368 -1.3352  0.4108  0.3250
  398MPD2    C4 5946   0.474   0.258   0.323 -0.0967 -0.4982  0.8457
  398MPD2    C5 5947   0.390   0.250   0.218  0.2756  0.7222  0.3725
  398MPD2     H 5948   0.581   4.658   0.333  0.0287  0.0345 -0.6412
  398MPD2    H1 5949   0.496   0.353   0.369  0.0122  0.2546 -0.7456
  398MPD2    H2 5950   0.302   0.122   0.070 -0.1708  1.7175 -0.5419
  398MPD2    H3 5951   0.349   0.344   0.181 -1.6701  0.1501  1.0935
  398MPD2     N 5952   0.639   0.146   0.477  0.3754 -0.0748  0.1395
  398MPD2    H5 5953   0.679   0.056   0.501  0.1964  0.0782  1.0152
  398MPD2    N1 5954   0.402   4.611   0.149  0.4718 -0.0942 -0.0089
  398MPD2    H7 5955   0.459   4.535   0.183 -1.0976 -1.1079  0.3556
  399TMC3    C1 5956   0.317   4.447   0.018 -0.1799 -0.3259 -0.2488
  399TMC3    C2 5957   0.439   4.387   0.035  0.6463 -0.5045 -0.1241
  399TMC3    C3 5958   0.443   4.250   0.052  0.4434  0.1978  0.1318
  399TMC3    C4 5959   0.202   4.375   0.019  0.2699 -0.4273  0.4058
  399TMC3    C5 5960   0.207   4.240   0.036 -0.2351  0.2151  0.0446
  399TMC3    C6 5961   0.331   4.171   0.041  0.7680 -0.1076 -0.2408
  399TMC3     C 5962   0.307   4.590   0.054  0.2165  0.0693 -0.2144
  399TMC3     O 5963   0.210   4.653   0.016 -0.1164  0.6940 -0.3459
  399TMC3     H 5964   0.528   4.449   0.033  0.7734 -0.6741  0.5082
  399TMC3    H1 5965   0.112   4.434   0.032  0.1155 -0.8561  1.2443
  399TMC3    H2 5966   0.332   4.067   0.071 -1.2402 -0.3853 -1.1575
  399TMC3    C7 5967   0.094   4.158   0.080  0.8208 -0.0406 -0.2331
  399TMC3    C8 5968   0.576   4.196   0.060 -0.5133  0.0478 -0.5234
  399TMC3    O1 5969   0.094   4.036   0.068  0.2452 -0.1166  0.0679
  399TMC3    O2 5970   0.660   4.279   0.072  0.5856 -0.2114  0.0424
  400TMC3    C1 5971   4.186   3.270  17.036  0.3253  0.2510 -0.0425
  400TMC3    C2 5972   4.049   3.264  17.010 -0.1423 -0.4369 -0.2038
  400TMC3    C3 5973   3.994   3.371  16.944 -0.0783  0.7210  0.2336
  400TMC3    C4 5974   4.260   3.378  16.996 -0.6402  0.5653  0.3127
  400TMC3    C5 5975   4.204   3.484  16.935  0.4916 -0.4240 -0.6136
  400TMC3    C6 5976   4.067   3.484  16.920  0.4871  0.2749  0.1581
  400TMC3     C 5977   4.250   3.158  17.109 -0.4502  0.4664  0.4387
  400TMC3     O 5978   4.179   3.059  17.104 -0.0830  0.3967 -0.0495
  400TMC3     H 5979   3.996   3.182  17.056 -0.8504 -0.5363 -1.2037
  400TMC3    H1 5980   4.368   3.377  17.004 -0.6510 -0.9600  0.1328
  400TMC3    H2 5981   4.022   3.573  16.877 -4.3336 -1.4108  1.7972
  400TMC3    C7 5982   4.286   3.583  16.873 -0.5336  0.4844 -0.3307
  400TMC3    C8 5983   3.883   3.344  16.860  0.7176 -0.5624  0.4037
  400TMC3    O1 5984   4.398   3.568  16.832  0.2312  0.1547 -0.0336
  400TMC3    O2 5985   3.829   3.442  16.813 -0.0668  0.6355  0.0360
  401MPD2     C 5986   1.246   1.752   0.572 -0.2609 -0.6393 -0.0942
  401MPD2    C1 5987   1.325   1.671   0.652  0.3148  0.3557 -0.6865
  401MPD2    C2 5988   1.351   1.542   0.605 -0.0722  0.2624 -0.8481
  401MPD2    C3 5989   1.321   1.499   0.482 -0.1200  0.3812 -0.1708
  401MPD2    C4 5990   1.254   1.590   0.400 -0.1176  0.3333 -0.5442
  401MPD2    C5 5991   1.216   1.711   0.447 -0.1037 -0.4924 -0.1374
  401MPD2     H 5992   1.423   1.476   0.653 -0.6997 -1.2367 -1.9974
  401MPD2    H1 5993   1.226   1.559   0.300  3.2509 -1.8862 -0.7849
  401MPD2    H2 5994   1.214   1.853   0.596 -0.9898 -0.9564  0.2729
  401MPD2    H3 5995   1.161   1.777   0.381  0.7912  0.7094  0.3206
  401MPD2     N 5996   1.368   1.373   0.438 -0.3771  0.8157  0.0204
  401MPD2    H5 5997   1.407   1.306   0.503  0.4351  0.2448 -1.0696
  401MPD2    N1 5998   1.390   1.724   0.769  0.0051 -0.0949  0.3950
  401MPD2    H7 5999   1.468   1.670   0.805 -0.3837  0.5725  2.2372
  402TMC3    C1 6000   1.455   1.206   0.297  1.0618 -0.6030  0.5110
  402TMC3    C2 6001   1.440   1.126   0.408  0.1052 -0.4506  0.1051
  402TMC3    C3 6002   1.530   1.022   0.426 -0.4138  0.4999  0.7291
  402TMC3    C4 6003   1.566   1.193   0.217  0.5125 -0.0239  0.7817
  402TMC3    C5 6004   1.656   1.088   0.232  0.3153 -0.5428  0.0228
  402TMC3    C6 6005   1.636   1.004   0.339 -0.0972  0.7235 -0.5442
  402TMC3     C 6006   1.394   1.340   0.307 -0.8894 -0.4195  0.0206
  402TMC3     O 6007   1.382   1.417   0.214 -0.1902  0.1082  0.3427
  402TMC3     H 6008   1.341   1.129   0.454  0.5627  0.7907  1.0155
  402TMC3    H1 6009   1.587   1.278   0.153 -1.5783  0.0551  0.1725
  402TMC3    H2 6010   1.687   0.908   0.349  2.8143  2.4589  1.1502
  402TMC3    C7 6011   1.778   1.094   0.154 -0.4045  0.3506  0.5834
  402TMC3    C8 6012   1.541   0.938   0.550  0.2514  0.4756  0.7063
  402TMC3    O1 6013   1.792   1.188   0.079 -0.5182  0.3329 -0.3777
  402TMC3    O2 6014   1.641   0.876   0.580  0.5791  0.1924  0.1602
  403MPD2     C 6015   0.798   0.318  13.484 -0.3523  0.0875 -0.8679
  403MPD2    C1 6016   0.850   0.194  13.502  1.0047  0.0314 -0.5373
  403MPD2    C2 6017   0.984   0.182  13.534  0.2233 -0.5730  0.2288
  403MPD2    C3 6018   1.067   0.289  13.555  0.2588  0.1886  0.3033
  403MPD2    C4 6019   1.008   0.414  13.532  0.1793 -0.1380 -0.4825
  403MPD2    C5 6020   0.877   0.428  13.496  0.2215 -0.1669 -1.1091
  403MPD2     H 6021   1.028   0.083  13.542  0.1971 -0.6719 -0.7476
  403MPD2    H1 6022   1.062   0.505  13.555 -2.1804  1.0124  0.4812
  403MPD2    H2 6023   0.696   0.340  13.454 -1.1406 -2.9056 -0.4091
  403MPD2    H3 6024   0.842   0.529  13.478 -0.9487 -0.7395 -2.0051
  403MPD2     N 6025   1.201   0.274  13.580  0.1211  0.5566  0.5006
  403MPD2    H5 6026   1.242   0.184  13.603  0.4887  0.2962 -1.1592
  403MPD2    N1 6027   0.767   0.081  13.485  0.6094  0.4727  0.2374
  403MPD2    H7 6028   0.677   0.098  13.441  0.4297  1.6659  1.0780
  404TMC3    C1 6029   0.709   4.581  13.456 -0.1432  0.4418  0.5969
  404TMC3    C2 6030   0.647   4.487  13.523 -0.0649  0.6652  0.6682
  404TMC3    C3 6031   0.567   4.403  13.454 -0.0070 -0.2206  0.3434
  404TMC3    C4 6032   0.712   4.597  13.326  0.5639  0.4017  0.0006
  404TMC3    C5 6033   0.647   4.503  13.251 -0.1688 -0.0487 -0.4581
  404TMC3    C6 6034   0.569   4.404  13.312 -0.0609  0.0680  0.3666
  404TMC3     C 6035   0.787   4.674  13.524 -0.0358 -0.8148 -0.1708
  404TMC3     O 6036   0.879   4.629  13.587 -0.3403 -0.0501  0.6704
  404TMC3     H 6037   0.653   4.480  13.631 -2.5639 -1.6518  0.6645
  404TMC3    H1 6038   0.771   4.671  13.273 -0.3290  0.0214 -1.5193
  404TMC3    H2 6039   0.496   4.343  13.259  0.0290  0.5858 -0.3552
  404TMC3    C7 6040   0.645   4.522  13.112 -0.2789  0.0212 -0.3859
  404TMC3    C8 6041   0.455   4.327  13.510  0.2356  0.6305  0.4483
  404TMC3    O1 6042   0.740   4.593  13.064 -0.0842 -0.0689 -0.4270
  404TMC3    O2 6043   0.367   4.289  13.435  0.5920 -0.1282 -0.0610
  405MPD2     C 6044   0.395   0.178  14.924 -0.1836  0.1444 -0.1554
  405MPD2    C1 6045   0.476   0.151  14.825 -0.0801  0.9923  0.4574
  405MPD2    C2 6046   0.610   0.186  14.831 -0.0453  0.6598 -0.1531
  405MPD2    C3 6047   0.659   0.269  14.926 -0.3520  0.7835  0.0444
  405MPD2    C4 6048   0.575   0.307  15.032  0.5046 -0.0389  0.3027
  405MPD2    C5 6049   0.452   0.254  15.028 -0.8511  0.7831  0.5960
  405MPD2     H 6050   0.677   0.163  14.748  0.4406 -0.6119  0.5775
  405MPD2    H1 6051   0.604   0.373  15.112 -1.4655  0.7825  0.3355
  405MPD2    H2 6052   0.291   0.153  14.943 -1.5097  4.3278 -1.9184
  405MPD2    H3 6053   0.389   0.282  15.112 -0.9320 -0.0196  0.8059
  405MPD2     N 6054   0.793   0.304  14.902  0.6937  0.5508  0.3234
  405MPD2    H5 6055   0.838   0.277  14.815 -1.7712  2.5191 -1.5748
  405MPD2    N1 6056   0.432   0.084  14.708 -0.0487 -0.1084 -0.0043
  405MPD2    H7 6057   0.504   0.073  14.637 -0.1602  0.2697 -0.1777
  406TMC3    C1 6058   1.052   0.645  14.818 -0.4605 -0.0159 -0.6776
  406TMC3    C2 6059   1.128   0.571  14.728  0.3908  0.1001  0.2283
  406TMC3    C3 6060   1.120   0.435  14.737 -0.4298  0.7380  0.3478
  406TMC3    C4 6061   0.986   0.581  14.921  0.3986  0.1392 -0.6740
  406TMC3    C5 6062   0.986   0.447  14.924 -0.3476  0.6261  0.1021
  406TMC3    C6 6063   1.044   0.368  14.829  0.3620  0.0582 -0.2179
  406TMC3     C 6064   1.001   0.768  14.755  0.4467 -0.0736  0.9825
  406TMC3     O 6065   1.080   0.859  14.734  0.6778  0.2745  0.3442
  406TMC3     H 6066   1.204   0.621  14.669 -0.2855  1.6060  0.6492
  406TMC3    H1 6067   0.929   0.639  14.993 -0.1065 -1.1956 -0.0021
  406TMC3    H2 6068   1.061   0.261  14.841  0.9267  0.1364 -0.2796
  406TMC3    C7 6069   0.862   0.389  14.988 -0.0986 -0.0940  0.3670
  406TMC3    C8 6070   1.129   0.376  14.600  0.1145  0.6945 -0.2129
  406TMC3    O1 6071   0.824   0.445  15.091  0.2352 -0.2579 -0.0633
  406TMC3    O2 6072   1.193   0.443  14.523 -0.0637 -0.0185  0.2092
  407MPD2     C 6073   3.334   2.109   9.348  0.4967  0.3218  0.5498
  407MPD2    C1 6074   3.469   2.106   9.371  0.0080  0.1212  0.2193
  407MPD2    C2 6075   3.514   2.141   9.497  0.8286  0.4298 -0.7324
  407MPD2    C3 6076   3.432   2.176   9.601 -0.0233 -0.0331 -0.0127
  407MPD2    C4 6077   3.299   2.182   9.572  0.2862 -0.3019 -0.0947
  407MPD2    C5 6078   3.256   2.145   9.453  0.0043  0.0137  0.4450
  407MPD2     H 6079   3.621   2.144   9.511  0.6669  0.3027  0.5041
  407MPD2    H1 6080   3.227   2.204   9.651  0.3649 -1.0094  0.1741
  407MPD2    H2 6081   3.285   2.085   9.254  0.7103 -0.1502  0.5574
  407MPD2    H3 6082   3.150   2.136   9.429 -0.4889 -0.6012  2.8704
  407MPD2     N 6083   3.477   2.228   9.726 -0.0371  0.0136 -0.5247
  407MPD2    H5 6084   3.413   2.268   9.794  0.1542 -2.4962  1.1459
  407MPD2    N1 6085   3.566   2.070   9.269 -0.6546  0.1947 -0.1180
  407MPD2    H7 6086   3.660   2.062   9.306 -0.8334 -3.3972 -0.4677
  408TMC3    C1 6087   3.663   2.049   9.055  0.3236 -0.1632  0.0361
  408TMC3    C2 6088   3.756   1.956   9.103  0.6343 -0.8420  0.7325
  408TMC3    C3 6089   3.889   1.969   9.056  0.0132 -0.2052  0.0427
  408TMC3    C4 6090   3.705   2.158   8.985  0.4005  0.5901 -1.0557
  408TMC3    C5 6091   3.833   2.166   8.937 -0.4044 -0.0271 -0.1374
  408TMC3    C6 6092   3.921   2.072   8.978 -0.3552  0.3508 -0.1784
  408TMC3     C 6093   3.539   2.066   9.136  0.3044  0.2569  0.0367
  408TMC3     O 6094   3.435   2.098   9.074 -0.1249 -0.3127  0.4027
  408TMC3     H 6095   3.726   1.870   9.161  0.1079 -2.0587 -1.3318
  408TMC3    H1 6096   3.622   2.220   8.956  1.0323  2.4996  1.2052
  408TMC3    H2 6097   4.025   2.082   8.948 -0.0438  0.2135  0.8375
  408TMC3    C7 6098   3.886   2.295   8.897 -0.0565  0.2986 -0.0778
  408TMC3    C8 6099   3.985   1.899   9.134  0.0486 -0.0644 -0.4318
  408TMC3    O1 6100   4.008   2.313   8.886  0.0622  0.4317 -0.0867
  408TMC3    O2 6101   3.957   1.796   9.197 -0.1178 -0.4776  0.1920
  409MPD2     C 6102   2.761   3.038  16.877  0.1066  0.7299  0.1755
  409MPD2    C1 6103   2.854   3.026  16.977  0.5701  0.2644 -0.3125
  409MPD2    C2 6104   2.976   3.087  16.957 -0.3539 -0.1073  0.5194
  409MPD2    C3 6105   3.003   3.175  16.847 -0.4066  0.0464 -0.1370
  409MPD2    C4 6106   2.913   3.180  16.747  0.2535  0.0886 -0.4977
  409MPD2    C5 6107   2.792   3.110  16.763 -0.1930 -0.2207  0.2784
  409MPD2     H 6108   3.040   3.073  17.043  0.0677  1.6264  0.4823
  409MPD2    H1 6109   2.930   3.235  16.655  1.9077 -0.4693 -0.5291
  409MPD2    H2 6110   2.666   2.986  16.881  0.9791 -0.9385 -0.5803
  409MPD2    H3 6111   2.720   3.113  16.682  2.8941  0.3313 -2.4292
  409MPD2     N 6112   3.127   3.246  16.832  0.2197 -0.1399  0.1842
  409MPD2    H5 6113   3.141   3.304  16.750 -0.6111  0.6617  0.6091
  409MPD2    N1 6114   2.844   2.949  17.095  0.2744  0.3854  0.2442
  409MPD2    H7 6115   2.917   2.940  17.165 -0.0805 -0.0232  0.5620
  410TMC3    C1 6116   3.332   3.335  16.919 -0.6318  0.5105 -0.6342
  410TMC3    C2 6117   3.425   3.333  17.019  0.5708 -0.2415 -0.6486
  410TMC3    C3 6118   3.510   3.443  17.038  0.0289  0.4069 -0.7159
  410TMC3    C4 6119   3.321   3.439  16.836 -0.3802 -0.0802 -0.2681
  410TMC3    C5 6120   3.398   3.547  16.868  0.4067  0.8589 -0.3959
  410TMC3    C6 6121   3.497   3.553  16.962  0.4128  0.5536  0.6811
  410TMC3     C 6122   3.224   3.239  16.930 -0.1706 -0.3545  0.2829
  410TMC3     O 6123   3.220   3.203  17.045  0.5042  0.1879  0.2778
  410TMC3     H 6124   3.425   3.254  17.093 -1.5017 -0.6030 -1.0318
  410TMC3    H1 6125   3.255   3.449  16.751 -2.6505 -0.1545  1.5136
  410TMC3    H2 6126   3.574   3.629  16.960 -0.6124  1.5385 -1.2700
  410TMC3    C7 6127   3.420   3.633  16.755  0.6209 -0.5339 -0.2265
  410TMC3    C8 6128   3.607   3.445  17.141  0.1324 -0.1525  0.0805
  410TMC3    O1 6129   3.417   3.583  16.645  0.2362  0.2732 -0.4251
  410TMC3    O2 6130   3.663   3.548  17.161 -0.0160  0.5958  0.1412
  411MPD2     C 6131   3.366   3.492  14.610 -0.2062 -0.5211 -0.0597
  411MPD2    C1 6132   3.232   3.518  14.632 -0.2528 -0.5471 -0.0831
  411MPD2    C2 6133   3.137   3.421  14.641 -0.3537  0.2638  0.7188
  411MPD2    C3 6134   3.169   3.287  14.633  0.3787 -0.0484  0.3867
  411MPD2    C4 6135   3.304   3.259  14.604  0.2428  0.2753  0.3453
  411MPD2    C5 6136   3.400   3.358  14.600  0.4616 -0.2453 -0.5648
  411MPD2     H 6137   3.037   3.456  14.666 -0.2344  1.9102 -1.1643
  411MPD2    H1 6138   3.335   3.155  14.606  2.8960  1.0871  2.2780
  411MPD2    H2 6139   3.440   3.571  14.596 -2.3660  1.9007  2.2353
  411MPD2    H3 6140   3.500   3.321  14.582  0.3627 -0.8956  0.2660
  411MPD2     N 6141   3.066   3.182  14.624  0.1845  0.1911  0.3553
  411MPD2    H5 6142   3.099   3.088  14.602 -0.7099 -0.2971  1.0892
  411MPD2    N1 6143   3.184   3.646  14.657 -0.4599  0.2290 -0.5570
  411MPD2    H7 6144   3.086   3.669  14.666 -0.5578 -1.0938  1.7443
  412TMC3    C1 6145   2.854   3.110  14.576  0.3518  0.3291 -0.0283
  412TMC3    C2 6146   2.718   3.136  14.581  0.1318  0.2895 -0.1334
  412TMC3    C3 6147   2.642   3.114  14.474  0.4786 -0.4277 -0.4730
  412TMC3    C4 6148   2.910   3.050  14.463 -0.1075  0.0597  0.1273
  412TMC3    C5 6149   2.829   3.035  14.355  0.0044  0.0523 -0.5816
  412TMC3    C6 6150   2.699   3.063  14.360 -0.2162  1.4668  0.2155
  412TMC3     C 6151   2.938   3.198  14.657 -0.8840  0.0561  0.4235
  412TMC3     O 6152   2.891   3.278  14.739 -0.0548  0.3305  1.0937
  412TMC3     H 6153   2.673   3.188  14.665 -1.6676  0.3434 -1.1402
  412TMC3    H1 6154   3.015   3.032  14.448  0.4393  0.4368  3.4512
  412TMC3    H2 6155   2.638   3.053  14.271  1.0949  0.0814 -0.5476
  412TMC3    C7 6156   2.890   2.987  14.231  0.3019 -0.2505  0.6534
  412TMC3    C8 6157   2.527   3.205  14.466 -0.6902 -0.0188  0.0126
  412TMC3    O1 6158   2.979   2.906  14.240 -0.0295  0.1987 -0.0075
  412TMC3    O2 6159   2.460   3.220  14.565  1.2984 -0.5883 -0.0659
  413MPD2     C 6160   4.469   2.141  15.269 -0.0035 -0.4081  0.6077
  413MPD2    C1 6161   4.480   2.015  15.311 -0.1732  0.1484  0.2310
  413MPD2    C2 6162   4.589   1.943  15.267  0.2154 -0.0126  0.2566
  413MPD2    C3 6163   4.695   2.008  15.203  0.7253 -0.4829 -0.4451
  413MPD2    C4 6164   4.694   2.142  15.188 -0.0002  0.0820 -0.7238
  413MPD2    C5 6165   4.577   2.205  15.220  0.2232 -0.2918 -0.0274
  413MPD2     H 6166   4.603   1.836  15.281  1.0088  0.1256  0.4880
  413MPD2    H1 6167   0.053   2.198  15.143 -1.3442  1.5131 -1.3612
  413MPD2    H2 6168   4.381   2.201  15.285  0.5125  0.9053 -1.4880
  413MPD2    H3 6169   4.565   2.312  15.206  0.3851 -0.2700 -0.0048
  413MPD2     N 6170   0.078   1.927  15.143  0.1055 -0.0828  0.2389
  413MPD2    H5 6171   0.070   1.825  15.141 -2.2374  0.0507  1.8580
  413MPD2    N1 6172   4.365   1.955  15.375 -0.0354  0.1071  0.1960
  413MPD2    H7 6173   4.286   2.019  15.373 -0.7701 -0.8727 -2.1213
  414TMC3    C1 6174   0.271   1.871  15.028 -0.3642  0.2177 -0.0674
  414TMC3    C2 6175   0.267   1.744  15.093  0.0007  0.4484  0.0012
  414TMC3    C3 6176   0.306   1.637  15.020 -0.1414 -0.6657  0.3138
  414TMC3    C4 6177   0.288   1.883  14.896 -0.4766 -0.6824  0.2112
  414TMC3    C5 6178   0.319   1.772  14.824  0.3581  0.3067 -0.0328
  414TMC3    C6 6179   0.331   1.653  14.888  0.2835  0.0326 -0.1734
  414TMC3     C 6180   0.192   1.974  15.084 -0.0188  0.4605  0.1769
  414TMC3     O 6181   0.221   2.089  15.056  0.5379 -0.5168  0.5949
  414TMC3     H 6182   0.236   1.737  15.197 -0.1711  0.2888 -0.0601
  414TMC3    H1 6183   0.280   1.981  14.851 -1.4511 -1.4583 -1.2983
  414TMC3    H2 6184   0.342   1.566  14.824 -0.0296 -0.9551  1.1073
  414TMC3    C7 6185   0.429   1.790  14.731 -0.4289 -0.6413 -0.2948
  414TMC3    C8 6186   0.376   1.528  15.083  0.6342 -1.0021  0.4369
  414TMC3    O1 6187   0.408   1.851  14.632 -0.3171  0.0924 -0.4883
  414TMC3    O2 6188   0.393   1.429  15.010 -0.4087  0.5827  0.4795
  415TMC3    C1 6189   0.032   3.954  10.370  0.1642  0.3201 -0.7776
  415TMC3    C2 6190   0.092   4.060  10.325 -0.0169  0.2957  0.2910
  415TMC3    C3 6191   0.083   4.090  10.195 -0.3113  0.0218 -0.7248
  415TMC3    C4 6192   4.688   3.864  10.289 -0.2076 -0.5761 -0.0934
  415TMC3    C5 6193   4.691   3.892  10.153  0.0344  0.2453 -0.1497
  415TMC3    C6 6194   0.022   4.008  10.106  0.2805 -1.5947  0.0634
  415TMC3     C 6195   0.025   3.933  10.516 -0.8279 -1.2352  0.3184
  415TMC3     O 6196   0.023   3.818  10.555  0.0130 -0.2947 -0.7517
  415TMC3     H 6197   0.163   4.107  10.392 -0.3379 -0.0720  0.8884
  415TMC3    H1 6198   4.644   3.774  10.329 -2.0450  0.6061  0.5487
  415TMC3    H2 6199   0.024   4.034  10.001 -2.4834  1.0180  0.6467
  415TMC3    C7 6200   4.580   3.831  10.071 -0.7284 -0.1955 -0.1389
  415TMC3    C8 6201   0.183   4.179  10.142 -0.3330 -0.3819 -0.4767
  415TMC3    O1 6202   4.557   3.888   9.965 -0.0395  0.2899 -0.1495
  415TMC3    O2 6203   0.225   4.143  10.033  0.2742 -0.4342  0.2757
  416MPD2     C 6204   2.646   3.487  11.408  0.2050 -0.1457  0.4559
  416MPD2    C1 6205   2.543   3.452  11.322  0.4858  0.3343 -0.4493
  416MPD2    C2 6206   2.574   3.397  11.199  0.1074 -0.3386 -0.1250
  416MPD2    C3 6207   2.708   3.356  11.177  0.3452  0.0262 -0.5704
  416MPD2    C4 6208   2.810   3.400  11.258 -0.3551  0.6347 -0.0309
  416MPD2    C5 6209   2.775   3.453  11.375 -0.3120 -0.3025  0.4899
  416MPD2     H 6210   2.501   3.369  11.124  1.3455  1.6746 -2.1020
  416MPD2    H1 6211   2.914   3.373  11.239 -1.0546 -0.5119 -2.1238
  416MPD2    H2 6212   2.630   3.538  11.502  0.9581 -1.1387  1.1281
  416MPD2    H3 6213   2.856   3.482  11.442  0.2789 -2.5030  0.7393
  416MPD2     N 6214   2.737   3.265  11.071 -0.0316 -0.2895 -0.1461
  416MPD2    H5 6215   2.818   3.204  11.077  1.7559  2.0530 -0.8254
  416MPD2    N1 6216   2.419   3.476  11.378  0.0707 -0.1825 -0.1982
  416MPD2    H7 6217   2.418   3.529  11.465 -1.5416  0.9993 -0.9318
  417TMC3    C1 6218   2.195   3.505  11.393  0.2084 -0.5948 -0.5656
  417TMC3    C2 6219   2.153   3.441  11.503 -0.5343 -0.5940 -0.5949
  417TMC3    C3 6220   2.027   3.469  11.550  0.2654  1.1964  0.6775
  417TMC3    C4 6221   2.105   3.573  11.322 -0.9969  0.4024  0.0210
  417TMC3    C5 6222   1.986   3.613  11.371  0.6512 -0.9600 -0.2232
  417TMC3    C6 6223   1.947   3.563  11.489 -0.6200  0.0662 -0.0075
  417TMC3     C 6224   2.299   3.446  11.315  0.1044  0.1086  0.3863
  417TMC3     O 6225   2.275   3.382  11.211  0.3391  0.0006 -0.0846
  417TMC3     H 6226   2.230   3.386  11.556 -0.9730 -2.0379 -1.4474
  417TMC3    H1 6227   2.131   3.611  11.223  0.7169  0.8125  0.6234
  417TMC3    H2 6228   1.859   3.605  11.537  0.1065 -0.7428  2.0677
  417TMC3    C7 6229   1.955   3.757  11.335 -0.1126 -0.0681  0.1041
  417TMC3    C8 6230   2.004   3.452  11.694 -0.0945  0.2520  0.2689
  417TMC3    O1 6231   2.018   3.798  11.239 -0.2395  0.3784 -0.2802
  417TMC3    O2 6232   1.899   3.505  11.731  0.6267  0.0222  0.3860
  418TMC3    C1 6233   1.025   0.261   0.617 -0.1195 -0.6352 -0.0866
  418TMC3    C2 6234   0.899   0.301   0.632  0.5834  0.4297 -0.8726
  418TMC3    C3 6235   0.802   0.206   0.627 -0.8922 -1.1783  0.5131
  418TMC3    C4 6236   1.069   0.132   0.619  0.1765 -0.1859  0.2157
  418TMC3    C5 6237   0.976   0.039   0.633 -0.3683  0.4658  0.1279
  418TMC3    C6 6238   0.845   0.075   0.616 -0.1152 -0.0954 -0.5896
  418TMC3     C 6239   1.079   0.338   0.514 -0.5596 -1.1978  0.3964
  418TMC3     O 6240   1.074   0.456   0.523  0.3394  0.6958 -0.0026
  418TMC3     H 6241   0.877   0.406   0.614 -0.4625  0.3253 -0.1713
  418TMC3    H1 6242   1.176   0.122   0.603  0.2872  0.9449  0.2209
  418TMC3    H2 6243   0.769   4.721   0.613  0.2758 -0.5499  0.9310
  418TMC3    C7 6244   1.009   4.622   0.661 -0.0328 -0.1316  0.4145
  418TMC3    C8 6245   0.689   0.250   0.547 -0.1768  0.3611 -0.4377
  418TMC3    O1 6246   0.917   4.541   0.647 -0.0807  0.4209  0.0807
  418TMC3    O2 6247   0.672   0.373   0.532  0.5586 -0.2254 -0.4075
  419MPD2     C 6248   3.754   2.960  12.854  0.0055 -0.3076 -0.0879
  419MPD2    C1 6249   3.877   3.010  12.878 -0.3400 -0.0352 -0.1537
  419MPD2    C2 6250   3.904   3.064  12.999  0.0882 -0.0254  0.1374
  419MPD2    C3 6251   3.805   3.081  13.091 -0.0613 -0.0090 -1.1290
  419MPD2    C4 6252   3.678   3.053  13.060 -0.2048  0.3158 -0.5070
  419MPD2    C5 6253   3.651   2.987  12.949 -0.0498 -0.0769  0.6660
  419MPD2     H 6254   4.008   3.082  13.021  0.2217 -1.6520  0.8044
  419MPD2    H1 6255   3.601   3.091  13.127 -1.5791 -0.5364 -1.6004
  419MPD2    H2 6256   3.724   2.904  12.766 -1.9181  0.4908  0.0655
  419MPD2    H3 6257   3.550   2.952  12.930 -0.2393 -0.0422  1.6455
  419MPD2     N 6258   3.819   3.135  13.224 -0.5600  0.2187 -0.4491
  419MPD2    H5 6259   3.735   3.144  13.281 -0.5854  1.2869 -0.6462
  419MPD2    N1 6260   3.983   3.012  12.781 -0.6493 -0.5372  0.2797
  419MPD2    H7 6261   4.062   3.069  12.810 -1.1966 -0.3596  1.4331
  420TMC3    C1 6262   3.932   3.245  13.410  1.0284 -0.2511 -0.5184
  420TMC3    C2 6263   3.823   3.317  13.445 -0.1576 -0.9281  0.3500
  420TMC3    C3 6264   3.829   3.391  13.561  0.5750  0.1620 -0.1763
  420TMC3    C4 6265   4.051   3.248  13.481  0.2835  0.1681 -0.8897
  420TMC3    C5 6266   4.053   3.313  13.601 -0.0960 -0.5376 -0.1549
  420TMC3    C6 6267   3.944   3.383  13.644  0.4874  0.5482 -0.5988
  420TMC3     C 6268   3.941   3.181  13.278 -0.5498 -0.3930 -0.1498
  420TMC3     O 6269   4.045   3.193  13.216  0.5075 -0.3411  0.1128
  420TMC3     H 6270   3.740   3.319  13.375 -0.9069  0.6463  1.2862
  420TMC3    H1 6271   4.136   3.180  13.472  0.2452  0.2737 -2.0916
  420TMC3    H2 6272   3.932   3.393  13.752 -0.6072  1.1290 -0.7705
  420TMC3    C7 6273   4.133   3.259  13.709 -0.2316  0.3098  0.6040
  420TMC3    C8 6274   3.730   3.492  13.604 -0.0525 -0.1268  0.4145
  420TMC3    O1 6275   4.093   3.263  13.828  0.1697  0.8891 -0.2786
  420TMC3    O2 6276   3.768   3.560  13.697  0.2094  0.0265 -0.5507
  421TMC3    C1 6277   1.421   0.323  13.647 -0.0597 -0.3836  0.0442
  421TMC3    C2 6278   1.485   0.419  13.729 -0.4004 -0.5046  0.7823
  421TMC3    C3 6279   1.596   0.374  13.798 -0.0213 -0.0543 -0.2931
  421TMC3    C4 6280   1.471   0.201  13.622 -0.6327  0.1565  0.1462
  421TMC3    C5 6281   1.586   0.169  13.690  0.3455  0.2573 -0.2213
  421TMC3    C6 6282   1.649   0.253  13.778 -0.1615 -0.7418 -0.4354
  421TMC3     C 6283   1.296   0.373  13.585  0.5805 -0.0285  0.4862
  421TMC3     O 6284   1.292   0.494  13.556 -0.0469  0.1344  0.2371
  421TMC3     H 6285   1.444   0.519  13.731  2.6724  0.7785  0.7562
  421TMC3    H1 6286   1.416   0.136  13.554 -0.7402  2.3435 -1.8241
  421TMC3    H2 6287   1.743   0.221  13.820 -0.5825  0.3731  1.3474
  421TMC3    C7 6288   1.643   0.041  13.677 -0.0390 -0.1135  0.0983
  421TMC3    C8 6289   1.631   0.439  13.921  0.3887  0.3403 -0.2310
  421TMC3    O1 6290   1.740   0.014  13.753 -0.3242  0.1189 -0.3590
  421TMC3    O2 6291   1.740   0.409  13.974 -0.2081  0.7043  0.2415
  422TMC3    C1 6292   3.405   1.289  12.623 -0.6963  0.8191  0.1543
  422TMC3    C2 6293   3.340   1.390  12.691  0.1680 -0.2682  0.4245
  422TMC3    C3 6294   3.234   1.358  12.770 -0.3312 -0.4389 -0.7986
  422TMC3    C4 6295   3.354   1.156  12.630 -0.4742 -1.0661 -0.1126
  422TMC3    C5 6296   3.240   1.134  12.701 -0.5241  0.1467  0.5286
  422TMC3    C6 6297   3.178   1.232  12.774  0.0286  0.1550  0.0081
  422TMC3     C 6298   3.510   1.332  12.526 -0.1403 -0.4127  0.3595
  422TMC3     O 6299   3.517   1.448  12.489  0.0329 -0.1193  0.2726
  422TMC3     H 6300   3.389   1.487  12.689  0.7524 -0.5839 -0.7228
  422TMC3    H1 6301   3.402   1.069  12.587  0.7830 -0.1271 -0.6094
  422TMC3    H2 6302   3.093   1.209  12.836  1.2479 -1.3350  1.1251
  422TMC3    C7 6303   3.153   1.029  12.646 -0.5680  0.2625 -0.5172
  422TMC3    C8 6304   3.151   1.463  12.815  0.8662 -0.1025  0.1860
  422TMC3    O1 6305   3.204   0.937  12.588 -0.1667  0.0403 -0.0053
  422TMC3    O2 6306   3.094   1.452  12.918 -0.1325  0.2275 -0.0210
  423MPD2     C 6307   0.236   2.123   0.990  0.6898 -0.6866  0.4908
  423MPD2    C1 6308   0.097   2.143   0.959  0.4279 -0.5501 -0.2539
  423MPD2    C2 6309   0.055   2.111   0.837 -0.3459 -0.0052 -0.0741
  423MPD2    C3 6310   0.148   2.062   0.741 -0.3591 -0.3935 -0.4786
  423MPD2    C4 6311   0.282   2.037   0.776 -0.3246 -0.3949 -0.1011
  423MPD2    C5 6312   0.325   2.065   0.903 -0.8777 -0.0375 -0.3535
  423MPD2     H 6313   4.673   2.120   0.809 -0.6841 -1.8902  0.5858
  423MPD2    H1 6314   0.349   1.996   0.701  0.3399 -0.4335  0.5194
  423MPD2    H2 6315   0.285   2.160   1.079  1.9224  3.6747 -1.9866
  423MPD2    H3 6316   0.430   2.055   0.927 -1.1737 -2.4903 -0.0189
  423MPD2     N 6317   0.126   2.038   0.604  0.4492  0.0181 -0.3778
  423MPD2    H5 6318   0.203   2.013   0.543  1.0246 -0.1757  0.4293
  423MPD2    N1 6319   0.003   2.205   1.045 -0.3038 -0.4067  0.1217
  423MPD2    H7 6320   4.629   2.220   1.014  0.3185  2.4470 -0.4008
  424TMC3    C1 6321   4.644   2.309   1.244  0.5438 -0.3362 -0.1813
  424TMC3    C2 6322   4.629   2.273   1.375 -0.8205  0.0092  0.7776
  424TMC3    C3 6323   4.509   2.298   1.437  0.2553 -0.2168  0.3438
  424TMC3    C4 6324   4.545   2.376   1.172 -0.6956  0.4864  0.2150
  424TMC3    C5 6325   4.431   2.407   1.239  0.5677 -0.4879 -0.2893
  424TMC3    C6 6326   4.410   2.369   1.364 -0.0223 -0.3251  0.3353
  424TMC3     C 6327   0.030   2.245   1.176 -0.3014 -0.2354  0.2937
  424TMC3     O 6328   0.133   2.222   1.239 -0.1168  0.1864 -0.6320
  424TMC3     H 6329   4.711   2.214   1.416 -0.8492  0.3614  1.3377
  424TMC3    H1 6330   4.565   2.412   1.072  0.8475  0.9273  0.6794
  424TMC3    H2 6331   4.323   2.388   1.426  1.3599  0.2322  2.0877
  424TMC3    C7 6332   4.331   2.494   1.168  0.1874 -1.0317 -0.0495
  424TMC3    C8 6333   4.477   2.241   1.568 -0.3620 -0.1008  0.2165
  424TMC3    O1 6334   4.365   2.549   1.064  0.1376 -0.1339 -0.0309
  424TMC3    O2 6335   4.354   2.232   1.594 -0.4377  0.0135 -0.0609
  425MPD2     C 6336   2.896   1.810  17.146  0.0409  0.6308 -0.2309
  425MPD2    C1 6337   2.878   1.673  17.122  0.7877 -0.9432 -0.1987
  425MPD2    C2 6338   2.747   1.626  17.145  0.0328 -0.4909 -1.1042
  425MPD2    C3 6339   2.643   1.707  17.186 -0.0349 -0.2481  0.0226
  425MPD2    C4 6340   2.664   1.842  17.190  0.3097 -0.3921  0.0099
  425MPD2    C5 6341   2.792   1.895  17.169 -0.2540  0.1487  0.3594
  425MPD2     H 6342   2.720   1.522  17.139 -0.9947 -0.3086  0.2899
  425MPD2    H1 6343   2.587   1.911  17.222  0.2387 -1.6736  2.5619
  425MPD2    H2 6344   2.996   1.852  17.147 -0.5548  2.0518  0.2490
  425MPD2    H3 6345   2.816   1.997  17.196  0.1871 -0.2850  1.5913
  425MPD2     N 6346   2.515   1.649  17.228  0.0797 -0.1191  0.3570
  425MPD2    H5 6347   2.509   1.550  17.208  0.9082  0.1511 -1.2483
  425MPD2    N1 6348   2.989   1.589  17.115 -0.1965  0.5077 -0.5089
  425MPD2    H7 6349   3.083   1.629  17.118  0.0411 -0.1048  0.0101
  426TMC3    C1 6350   3.101   1.381  17.110 -0.4442 -0.5791 -0.1984
  426TMC3    C2 6351   3.122   1.264  17.035 -0.0476 -0.3407 -0.0554
  426TMC3    C3 6352   3.236   1.196  17.053  0.1900  0.9340 -0.0330
  426TMC3    C4 6353   3.187   1.421  17.204  0.3363 -0.6070  0.6272
  426TMC3    C5 6354   3.301   1.346  17.222  0.8983  0.4143  0.7240
  426TMC3    C6 6355   3.328   1.231  17.152 -0.9384 -0.1815  0.0442
  426TMC3     C 6356   2.990   1.462  17.069 -0.2286 -0.2146 -0.0755
  426TMC3     O 6357   2.899   1.396  17.024 -0.1934  0.3640 -0.0854
  426TMC3     H 6358   3.061   1.240  16.949  1.2098  0.7209 -1.2327
  426TMC3    H1 6359   3.172   1.507  17.269  1.1063  0.8627 -1.1502
  426TMC3    H2 6360   3.418   1.172  17.164 -1.6993 -1.8276 -2.4252
  426TMC3    C7 6361   3.404   1.386  17.313 -0.3206 -0.4407  0.4368
  426TMC3    C8 6362   3.251   1.068  16.983  0.1994 -0.0637  0.3666
  426TMC3    O1 6363   3.517   1.352  17.294 -0.2246 -0.2190 -0.2351
  426TMC3    O2 6364   3.367   1.034  16.982 -0.2272  0.4200  0.1513
  427MPD2     C 6365   2.302   3.746  15.300  0.0563 -0.2106  0.0029
  427MPD2    C1 6366   2.238   3.653  15.221 -0.3282  0.2901 -0.0370
  427MPD2    C2 6367   2.103   3.668  15.197 -0.0105 -0.3576  0.2914
  427MPD2    C3 6368   2.022   3.762  15.273 -0.5573  0.0981  0.0850
  427MPD2    C4 6369   2.090   3.834  15.371  0.4801 -0.8642  0.0699
  427MPD2    C5 6370   2.226   3.829  15.378 -0.1010 -0.4899 -0.1515
  427MPD2     H 6371   2.045   3.596  15.140  1.1692 -1.0980  0.0178
  427MPD2    H1 6372   2.041   3.902  15.440  0.7860  0.1159 -0.6833
  427MPD2    H2 6373   2.408   3.746  15.321 -0.1627 -1.3670  1.0850
  427MPD2    H3 6374   2.269   3.899  15.448  0.9683  1.2613 -2.5620
  427MPD2     N 6375   1.880   3.783  15.256 -0.5338  0.1249 -0.2867
  427MPD2    H5 6376   1.845   3.860  15.312  0.0940 -1.4721  2.2705
  427MPD2    N1 6377   2.320   3.544  15.166  0.3928  0.4896  0.3094
  427MPD2    H7 6378   2.419   3.542  15.186  0.7905 -1.4222 -1.9482
  428TMC3    C1 6379   2.381   3.345  15.059 -0.4841 -0.5397  0.5331
  428TMC3    C2 6380   2.371   3.266  14.951  0.3799  0.9927 -0.1115
  428TMC3    C3 6381   2.481   3.193  14.905 -0.0493 -0.4335 -0.5053
  428TMC3    C4 6382   2.502   3.364  15.125 -0.5743  0.1096  0.0762
  428TMC3    C5 6383   2.611   3.310  15.059  0.1695  0.0106  0.0884
  428TMC3    C6 6384   2.604   3.222  14.959  0.3154  0.0502  0.2208
  428TMC3     C 6385   2.276   3.439  15.090 -0.1272 -0.8887 -0.2644
  428TMC3     O 6386   2.163   3.426  15.041  0.5983 -0.3060 -0.3200
  428TMC3     H 6387   2.279   3.273  14.895 -0.9263 -0.7755  1.8208
  428TMC3    H1 6388   2.513   3.426  15.213  1.1899  0.0494 -0.1177
  428TMC3    H2 6389   2.694   3.175  14.920 -0.3728 -0.9023 -0.1982
  428TMC3    C7 6390   2.738   3.322  15.128  0.5128  0.5848 -0.3612
  428TMC3    C8 6391   2.467   3.058  14.861  0.2897  0.6009 -0.8334
  428TMC3    O1 6392   2.733   3.305  15.249 -0.4781 -0.2185 -0.0408
  428TMC3    O2 6393   2.564   2.992  14.845 -0.0463  0.2865  0.5527
  429MPD2     C 6394   3.679   4.023   0.073 -0.0179 -0.5972 -0.1995
  429MPD2    C1 6395   3.698   3.981  17.637 -1.1394  0.1205  0.8118
  429MPD2    C2 6396   3.791   4.049  17.553 -0.5622  0.6835 -0.0782
  429MPD2    C3 6397   3.871   4.157  17.606 -0.3396  0.2420  0.9952
  429MPD2    C4 6398   3.847   4.193   0.046  0.3995 -0.1603  0.0397
  429MPD2    C5 6399   3.754   4.124   0.120  0.2039  0.1292  0.0619
  429MPD2     H 6400   3.820   4.022  17.453  0.5912 -1.1775  0.7685
  429MPD2    H1 6401   3.902   4.267   0.103  0.8009 -0.5345  0.1365
  429MPD2    H2 6402   3.607   3.983   0.145 -1.4440  6.1643  2.0962
  429MPD2    H3 6403   3.748   4.150   0.225 -1.0143 -4.8123  1.2231
  429MPD2     N 6404   3.960   4.219  17.521  0.9961  0.1063 -0.3742
  429MPD2    H5 6405   3.966   4.186  17.425 -1.1152 -1.3140 -0.0106
  429MPD2    N1 6406   3.599   3.905  17.575  0.4609  0.1854 -0.0063
  429MPD2    H7 6407   3.607   3.899  17.474  0.1818 -0.7140  0.0271
  430TMC3    C1 6408   4.115   4.363  17.427 -0.2897  0.0664  0.2095
  430TMC3    C2 6409   4.085   4.483  17.368  0.6164 -0.7300  0.2817
  430TMC3    C3 6410   4.106   4.496  17.232  0.0615  0.3054 -1.0078
  430TMC3    C4 6411   4.158   4.253  17.359  0.5998  0.4568  0.6347
  430TMC3    C5 6412   4.189   4.275  17.224  0.1652  0.2331 -0.1273
  430TMC3    C6 6413   4.161   4.389  17.158 -0.1169 -0.3174 -0.0791
  430TMC3     C 6414   4.021   4.337  17.540  0.6385  1.2418  0.2819
  430TMC3     O 6415   4.007   4.427  17.621  0.0537  0.6528 -0.8124
  430TMC3     H 6416   4.025   4.561  17.412  0.5409 -0.4587 -0.2978
  430TMC3    H1 6417   4.190   4.161  17.407 -1.5892 -0.4041  0.4360
  430TMC3    H2 6418   4.146   4.388  17.051 -0.7490  1.7100 -0.0175
  430TMC3    C7 6419   4.212   4.155  17.144  1.0937 -0.1260  0.0857
  430TMC3    C8 6420   4.002   4.552  17.150 -0.1689  0.0907 -0.0527
  430TMC3    O1 6421   4.185   4.047  17.202 -0.5387 -0.1297 -0.3175
  430TMC3    O2 6422   3.960   4.482  17.057  0.1478  0.2613  0.4704
  431MPD2     C 6423   4.489   3.646  12.932 -0.4992  0.0395 -0.6216
  431MPD2    C1 6424   4.492   3.654  12.795  0.2307 -0.5285  0.6622
  431MPD2    C2 6425   4.443   3.550  12.713 -0.3241 -0.1013  0.3169
  431MPD2    C3 6426   4.391   3.440  12.773  0.1196  0.5555  0.2215
  431MPD2    C4 6427   4.397   3.427  12.913  0.3281  0.2889  0.6037
  431MPD2    C5 6428   4.444   3.527  12.985  0.9470  0.1162 -0.7074
  431MPD2     H 6429   4.445   3.561  12.605 -1.2719  1.5715  0.4744
  431MPD2    H1 6430   4.357   3.337  12.959  0.2694  0.0403  0.0611
  431MPD2    H2 6431   4.540   3.709  13.005  0.5677 -0.9254 -0.5440
  431MPD2    H3 6432   4.463   3.506  13.090  1.8182 -1.9965 -1.2891
  431MPD2     N 6433   4.331   3.334  12.705 -0.4748  0.0381  0.2229
  431MPD2    H5 6434   4.306   3.254  12.762  0.4813 -0.4979 -0.1142
  431MPD2    N1 6435   4.547   3.771  12.731 -0.2037  0.7691 -0.2971
  431MPD2    H7 6436   4.551   3.759  12.630  2.3624  1.6646 -0.2900
  432TMC3    C1 6437   4.243   3.193  12.532  0.3349 -0.2033 -0.1008
  432TMC3    C2 6438   4.260   3.147  12.405  0.1486  0.1381  0.0779
  432TMC3    C3 6439   4.180   3.046  12.358  0.5516 -1.5192 -0.2852
  432TMC3    C4 6440   4.142   3.144  12.604  0.1093  0.2860 -0.5198
  432TMC3    C5 6441   4.079   3.029  12.558 -0.2455  0.4218  0.5305
  432TMC3    C6 6442   4.093   2.974  12.433 -0.3547  0.0293 -0.3929
  432TMC3     C 6443   4.306   3.323  12.569  0.1927 -0.5345 -0.3323
  432TMC3     O 6444   4.330   3.402  12.477  0.0260 -0.0807 -0.4252
  432TMC3     H 6445   4.336   3.196  12.346  0.2963  1.3509  1.2736
  432TMC3    H1 6446   4.123   3.195  12.698 -0.1197  1.8172 -1.4068
  432TMC3    H2 6447   4.025   2.896  12.399 -1.5891 -0.6229  3.6383
  432TMC3    C7 6448   3.971   2.978  12.645 -0.1727 -1.1084  0.8586
  432TMC3    C8 6449   4.173   3.023  12.214  0.7504  0.0656  0.4892
  432TMC3    O1 6450   3.896   2.890  12.604  0.4702 -0.6577 -0.5761
  432TMC3    O2 6451   4.072   2.978  12.164 -0.2876 -0.0161  0.2285
  433MPD2     C 6452   3.353   2.704  10.690  0.4478  0.1869  0.1801
  433MPD2    C1 6453   3.344   2.599  10.779  0.3738 -0.0941  0.2371
  433MPD2    C2 6454   3.370   2.615  10.909 -0.1919 -0.2596 -0.4599
  433MPD2    C3 6455   3.381   2.747  10.959 -0.3418 -0.2318 -0.2024
  433MPD2    C4 6456   3.394   2.851  10.870 -0.5991 -0.6676  0.0410
  433MPD2    C5 6457   3.383   2.827  10.738  0.6435 -0.4323 -0.9814
  433MPD2     H 6458   3.356   2.542  10.988 -0.7930  0.7046  0.3290
  433MPD2    H1 6459   3.409   2.953  10.904  1.4227 -1.2019  0.7621
  433MPD2    H2 6460   3.344   2.690  10.583  3.3798  1.2542 -0.2079
  433MPD2    H3 6461   3.403   2.908  10.669 -2.3451  1.0875 -0.0391
  433MPD2     N 6462   3.408   2.774  11.101  0.2218 -0.3262  0.0963
  433MPD2    H5 6463   3.392   2.691  11.158 -1.2238 -0.8141 -1.0068
  433MPD2    N1 6464   3.316   2.477  10.715  0.1652  0.7857 -0.0839
  433MPD2    H7 6465   3.319   2.470  10.614  1.7546  1.2246 -0.0707
  434TMC3    C1 6466   3.310   2.243  10.705  0.8217 -0.1935 -0.2880
  434TMC3    C2 6467   3.353   2.129  10.773  0.6399  0.0294 -0.1047
  434TMC3    C3 6468   3.455   2.055  10.714  0.6408 -0.4866  0.0539
  434TMC3    C4 6469   3.340   2.264  10.576 -0.3026 -0.0958 -0.0934
  434TMC3    C5 6470   3.427   2.175  10.515 -0.0817 -1.1751 -0.1813
  434TMC3    C6 6471   3.496   2.079  10.586 -0.6396 -0.5284 -0.4807
  434TMC3     C 6472   3.282   2.360  10.783  0.0906 -0.3073  0.2820
  434TMC3     O 6473   3.242   2.353  10.900  0.1630  0.3665 -0.0589
  434TMC3     H 6474   3.333   2.124  10.879  0.8229 -0.7233 -0.0987
  434TMC3    H1 6475   3.288   2.339  10.517 -1.4571 -0.6371  0.2248
  434TMC3    H2 6476   3.566   2.011  10.537  0.5284 -0.5818  1.2728
  434TMC3    C7 6477   3.391   2.152  10.378 -0.2039  0.0275  0.4974
  434TMC3    C8 6478   3.554   2.012  10.816 -0.0318  0.3725  0.1737
  434TMC3    O1 6479   3.356   2.251  10.314 -0.1141  0.0569 -0.0507
  434TMC3    O2 6480   3.515   1.965  10.919  0.4211 -0.8150 -1.2868
  435MPD2     C 6481   0.489   2.365  15.340  0.9210 -0.1089 -0.3055
  435MPD2    C1 6482   0.436   2.322  15.461  0.2104  0.6254 -0.0308
  435MPD2    C2 6483   0.523   2.264  15.551 -0.0704  0.7886  0.4333
  435MPD2    C3 6484   0.657   2.253  15.528  0.2136  1.0541  0.3194
  435MPD2    C4 6485   0.704   2.288  15.402  0.1633 -0.8433  0.6227
  435MPD2    C5 6486   0.616   2.336  15.305 -0.5467 -0.0960 -0.2414
  435MPD2     H 6487   0.486   2.235  15.649 -2.0361  0.5702 -0.3737
  435MPD2    H1 6488   0.805   2.266  15.370 -0.2527 -0.6303 -0.8668
  435MPD2    H2 6489   0.417   2.393  15.264  0.3220 -2.0392 -0.4403
  435MPD2    H3 6490   0.647   2.361  15.204  1.0069  0.2258  0.3088
  435MPD2     N 6491   0.742   2.198  15.624  0.3374  0.2355  0.6335
  435MPD2    H5 6492   0.693   2.182  15.712 -2.0881  0.1919 -0.7216
  435MPD2    N1 6493   0.304   2.343  15.513  0.7605 -0.0425 -0.4942
  435MPD2    H7 6494   0.275   2.301  15.601  1.9978  0.8444  0.3453
  436TMC3    C1 6495   4.677   2.393  15.716 -1.0147  0.2664  0.6526
  436TMC3    C2 6496   0.076   2.371  15.657  0.6705 -0.8027 -0.2590
  436TMC3    C3 6497   0.084   2.422  15.529  0.2041 -0.1390  0.7114
  436TMC3    C4 6498   4.568   2.451  15.660  1.2186 -0.4138 -0.7405
  436TMC3    C5 6499   4.576   2.475  15.523 -0.2689 -0.7497 -0.5970
  436TMC3    C6 6500   4.697   2.473  15.464  0.0528 -0.5290 -0.5838
  436TMC3     C 6501   4.642   2.320  15.841 -0.4512  0.0114 -0.1481
  436TMC3     O 6502   4.715   2.233  15.878  0.4231 -0.6782 -0.1862
  436TMC3     H 6503   0.158   2.330  15.715 -0.3313  0.4971  2.1046
  436TMC3    H1 6504   4.470   2.457  15.706  1.2314  0.5108 -0.8225
  436TMC3    H2 6505   4.705   2.485  15.357 -0.7456  5.0218 -0.0562
  436TMC3    C7 6506   4.456   2.484  15.439  0.2828  1.1900  0.0073
  436TMC3    C8 6507   0.205   2.414  15.453  0.2297  0.0562 -0.2391
  436TMC3    O1 6508   4.353   2.447  15.489  0.2693  0.6128 -0.8014
  436TMC3    O2 6509   0.215   2.467  15.342 -0.4322  0.1440  0.0464
  437TMC3    C1 6510   4.287   4.116  11.873 -0.0963 -0.2970 -0.5706
  437TMC3    C2 6511   4.266   4.070  12.002  0.6908  0.1890  0.9760
  437TMC3    C3 6512   4.327   4.144  12.097  0.2290 -0.2450  0.0898
  437TMC3    C4 6513   4.344   4.237  11.845 -0.2674 -0.0961  0.2784
  437TMC3    C5 6514   4.407   4.306  11.944 -0.0629 -0.4885 -0.0815
  437TMC3    C6 6515   4.400   4.260  12.071  0.1094  0.5611 -0.7034
  437TMC3     C 6516   4.275   4.023  11.760  0.0177 -0.2480 -0.5355
  437TMC3     O 6517   4.241   4.075  11.655 -0.3637  0.2422 -0.7277
  437TMC3     H 6518   4.203   3.985  12.027  0.8076  0.0641  0.8505
  437TMC3    H1 6519   4.343   4.273  11.743 -1.7576  1.8966  0.9974
  437TMC3    H2 6520   4.454   4.303  12.154  1.4194 -1.0526 -0.7093
  437TMC3    C7 6521   4.483   4.423  11.913 -0.1990  0.0939 -0.6038
  437TMC3    C8 6522   4.309   4.110  12.238 -0.3266  0.7922 -0.4717
  437TMC3    O1 6523   4.517   4.426  11.793 -0.1461 -1.1748 -0.7581
  437TMC3    O2 6524   4.297   4.202  12.315 -0.6233 -0.2668  0.1173
  438MPD2     C 6525   1.302   0.513  16.580  0.2531 -0.0322 -0.1428
  438MPD2    C1 6526   1.420   0.437  16.610  0.7894 -0.1388  0.0133
  438MPD2    C2 6527   1.415   0.336  16.703  0.5846  1.0557  0.0373
  438MPD2    C3 6528   1.301   0.315  16.774  0.5223  0.2783 -0.3416
  438MPD2    C4 6529   1.193   0.391  16.745  0.9107 -0.2350  0.6713
  438MPD2    C5 6530   1.195   0.499  16.659 -0.2803  0.5442 -0.8197
  438MPD2     H 6531   1.502   0.276  16.729  0.0247  0.5665  0.7814
  438MPD2    H1 6532   1.100   0.375  16.799  0.7347  0.8557  0.6865
  438MPD2    H2 6533   1.306   0.591  16.505  1.1992 -1.8866 -2.0099
  438MPD2    H3 6534   1.115   0.571  16.652 -1.6674 -0.9142 -0.0400
  438MPD2     N 6535   1.301   0.201  16.855 -0.2864 -0.3448 -0.3693
  438MPD2    H5 6536   1.387   0.150  16.871  1.2761  3.1018  2.2172
  438MPD2    N1 6537   1.546   0.468  16.556  0.3784 -0.4596 -0.1876
  438MPD2    H7 6538   1.622   0.418  16.600 -0.7770 -2.1271 -0.1233
  439TMC3    C1 6539   1.706   0.566  16.409  0.5479 -0.5149  0.6586
  439TMC3    C2 6540   1.730   0.580  16.273 -0.7923 -0.4348 -0.1361
  439TMC3    C3 6541   1.857   0.585  16.242 -0.8258 -0.6371 -0.2573
  439TMC3    C4 6542   1.799   0.549  16.499  0.6255 -0.1052  0.7816
  439TMC3    C5 6543   1.930   0.551  16.458  0.1432  0.1707 -0.5361
  439TMC3    C6 6544   1.954   0.572  16.333  0.4171 -0.4238 -0.0669
  439TMC3     C 6545   1.571   0.566  16.453 -0.3311  0.0664 -0.0201
  439TMC3     O 6546   1.496   0.640  16.385  0.0730  0.2596 -0.5435
  439TMC3     H 6547   1.650   0.586  16.200  1.1379 -2.7751 -2.4748
  439TMC3    H1 6548   1.773   0.530  16.603  1.3273 -0.0025  0.9779
  439TMC3    H2 6549   2.057   0.583  16.304  0.4339  1.1050  0.5865
  439TMC3    C7 6550   2.020   0.463  16.534 -0.8926  0.3546 -0.5007
  439TMC3    C8 6551   1.894   0.502  16.135 -0.7962  0.4817  0.8199
  439TMC3    O1 6552   2.021   0.477  16.654 -0.1350 -0.5151 -0.3844
  439TMC3    O2 6553   1.996   0.433  16.149  0.1585 -0.4538 -0.5100
  440MPD2     C 6554   0.444   1.396  14.573 -0.0058 -0.2275 -0.1465
  440MPD2    C1 6555   0.383   1.336  14.683 -0.4416 -0.1526 -0.0364
  440MPD2    C2 6556   0.457   1.266  14.779 -0.0917  0.6663  0.3190
  440MPD2    C3 6557   0.591   1.255  14.757  0.0975 -0.1535  0.0714
  440MPD2    C4 6558   0.653   1.314  14.652 -0.3001  0.3952  0.0706
  440MPD2    C5 6559   0.579   1.392  14.564  0.2587  0.3699 -0.1103
  440MPD2     H 6560   0.406   1.222  14.864 -0.7093 -0.8566 -0.8522
  440MPD2    H1 6561   0.758   1.300  14.630  0.5420  0.9010  3.7337
  440MPD2    H2 6562   0.387   1.446  14.496 -1.8725 -1.5104  0.4183
  440MPD2    H3 6563   0.629   1.437  14.479  2.0565 -1.7368 -0.1924
  440MPD2     N 6564   0.674   1.174  14.835 -0.1692 -0.3145  0.3703
  440MPD2    H5 6565   0.773   1.177  14.812 -0.0756  0.7857  0.9406
  440MPD2    N1 6566   0.243   1.329  14.699  0.2271  0.9417  0.4448
  440MPD2    H7 6567   0.209   1.287  14.785  0.0667 -1.1975 -0.6701
  441TMC3    C1 6568   0.728   1.003  14.988  0.6622  0.5502 -0.0276
  441TMC3    C2 6569   0.835   1.080  15.032  0.3735 -0.9154  0.1985
  441TMC3    C3 6570   0.882   1.047  15.159 -0.7174 -0.0862 -0.1419
  441TMC3    C4 6571   0.686   0.889  15.053  0.4368 -0.5254  0.4268
  441TMC3    C5 6572   0.751   0.850  15.166  0.6628  0.2831 -0.0988
  441TMC3    C6 6573   0.849   0.935  15.222 -0.1312  0.2245  0.7273
  441TMC3     C 6574   0.628   1.064  14.901  0.3674 -0.7160 -0.0613
  441TMC3     O 6575   0.512   1.030  14.913 -0.2640  0.2899  0.2334
  441TMC3     H 6576   0.883   1.160  14.977 -1.9315  1.3886  1.5670
  441TMC3    H1 6577   0.607   0.844  14.994 -0.5047 -0.2341  1.4685
  441TMC3    H2 6578   0.877   0.924  15.327  4.1231  2.5523 -0.1602
  441TMC3    C7 6579   0.667   0.789  15.262 -0.4587  0.2481  0.2046
  441TMC3    C8 6580   0.875   1.148  15.255  0.3651 -0.9044  0.0526
  441TMC3    O1 6581   0.676   0.826  15.380 -0.1493  0.5554  0.9481
  441TMC3    O2 6582   0.902   1.132  15.374  0.2029  0.2466  0.7136
  442MPD2     C 6583   3.318   1.482  16.804  0.0967  0.1631 -0.6014
  442MPD2    C1 6584   3.223   1.448  16.712 -0.5190  0.3276 -0.1938
  442MPD2    C2 6585   3.228   1.330  16.640  0.2887  0.8399 -0.2789
  442MPD2    C3 6586   3.332   1.241  16.662 -0.5881 -0.1451  0.2786
  442MPD2    C4 6587   3.427   1.277  16.760 -0.1268 -0.3366 -0.2837
  442MPD2    C5 6588   3.412   1.387  16.834  0.9961  0.2073  0.3766
  442MPD2     H 6589   3.153   1.306  16.565 -0.1259 -3.9875  1.6577
  442MPD2    H1 6590   3.500   1.206  16.798  1.1226  1.3834  0.4997
  442MPD2    H2 6591   3.314   1.584  16.841  0.1490  0.1411 -0.5353
  442MPD2    H3 6592   3.484   1.411  16.912 -0.7536  0.3390  1.9582
  442MPD2     N 6593   3.334   1.112  16.604  0.0475 -0.6495  0.5699
  442MPD2    H5 6594   3.417   1.058  16.627  0.4745 -0.1247  0.2702
  442MPD2    N1 6595   3.118   1.537  16.666 -0.0075  0.2047 -0.4332
  442MPD2    H7 6596   3.054   1.500  16.597  1.5181 -0.9351 -1.2403
  443TMC3    C1 6597   2.976   1.721  16.661  0.2632 -1.1038  0.6071
  443TMC3    C2 6598   2.976   1.741  16.531 -0.1941  0.1516 -0.3182
  443TMC3    C3 6599   2.868   1.797  16.478  0.1344 -0.4663 -0.5366
  443TMC3    C4 6600   2.879   1.767  16.744  0.4308  0.6649 -0.4101
  443TMC3    C5 6601   2.771   1.822  16.681 -0.4857  0.9237  0.0891
  443TMC3    C6 6602   2.763   1.835  16.548  0.0666  0.0163 -0.3513
  443TMC3     C 6603   3.080   1.652  16.731  0.2132 -0.1890 -0.5757
  443TMC3     O 6604   3.120   1.696  16.840 -0.2188  0.1068 -0.2510
  443TMC3     H 6605   3.057   1.706  16.468  0.5139  0.4881  0.4160
  443TMC3    H1 6606   2.878   1.736  16.847 -0.1262 -1.8509 -1.1881
  443TMC3    H2 6607   2.672   1.863  16.497 -0.6101 -0.2958  0.6945
  443TMC3    C7 6608   2.642   1.836  16.753  0.2993  0.4599  0.3323
  443TMC3    C8 6609   2.831   1.710  16.373 -0.3026 -0.4950  0.3248
  443TMC3    O1 6610   2.569   1.926  16.710 -0.0205  0.7606  0.3960
  443TMC3    O2 6611   2.766   1.615  16.409  0.6431 -0.4492 -0.1331
  444MPD2     C 6612   3.544   0.709  17.112 -0.0725  0.8562  0.4179
  444MPD2    C1 6613   3.450   0.621  17.062 -1.4183  0.1538  0.0318
  444MPD2    C2 6614   3.494   0.516  16.990 -0.0499  0.2020 -0.8074
  444MPD2    C3 6615   3.628   0.501  16.948 -0.0010 -0.2844 -0.0713
  444MPD2    C4 6616   3.716   0.595  17.000 -0.1208  0.3337 -0.2972
  444MPD2    C5 6617   3.677   0.701  17.076 -0.5537  0.2038 -0.3098
  444MPD2     H 6618   3.424   0.446  16.947  0.6841 -1.1576  0.1753
  444MPD2    H1 6619   3.821   0.567  16.997 -0.4258 -0.8014 -0.1080
  444MPD2    H2 6620   3.515   0.780  17.189  0.2041  1.2997  0.1142
  444MPD2    H3 6621   3.745   0.768  17.128 -0.2036 -1.7912  1.8233
  444MPD2     N 6622   3.667   0.382  16.875  0.0373 -0.2433  0.8748
  444MPD2    H5 6623   3.593   0.318  16.850 -2.0732  1.9922  1.4728
  444MPD2    N1 6624   3.309   0.632  17.090 -1.0902 -0.0498 -0.0387
  444MPD2    H7 6625   3.247   0.558  17.059 -1.0619 -0.0346 -0.1316
  445TMC3    C1 6626   3.813   0.217  16.782  0.1790 -0.1589 -0.3154
  445TMC3    C2 6627   3.703   0.155  16.726 -0.3090 -0.0755 -0.3319
  445TMC3    C3 6628   3.723   0.027  16.671 -0.0574 -0.2695 -0.5168
  445TMC3    C4 6629   3.934   0.166  16.771  0.1675  0.1078 -0.2757
  445TMC3    C5 6630   3.950   0.036  16.731 -0.0267  0.7716  1.0345
  445TMC3    C6 6631   3.846   4.690  16.675  0.5820  0.5287 -0.0278
  445TMC3     C 6632   3.796   0.350  16.839  0.2731  0.3989 -1.0103
  445TMC3     O 6633   3.900   0.407  16.848  0.0974  0.0031  0.2190
  445TMC3     H 6634   3.607   0.204  16.722  0.0255  0.5058 -1.3226
  445TMC3    H1 6635   4.016   0.220  16.817  0.3582  1.9320 -2.7182
  445TMC3    H2 6636   3.855   4.585  16.647 -2.1015 -0.0477  1.2456
  445TMC3    C7 6637   4.096   0.000  16.709 -0.1089 -0.7444 -0.9364
  445TMC3    C8 6638   3.617   4.699  16.587  0.3586 -0.0002  0.4650
  445TMC3    O1 6639   4.182   0.090  16.711 -0.4394  0.2663 -0.4664
  445TMC3    O2 6640   3.510   0.031  16.585  0.1033  0.3491 -0.0781
  446MPD2     C 6641   3.396   1.651  11.243 -0.4505  0.1332 -0.0104
  446MPD2    C1 6642   3.317   1.737  11.172 -0.1939  0.1146 -0.0345
  446MPD2    C2 6643   3.346   1.868  11.163  0.4923 -0.4311  0.0005
  446MPD2    C3 6644   3.451   1.919  11.231  0.5167  0.3968  0.2155
  446MPD2    C4 6645   3.533   1.837  11.311 -0.6565 -0.4458  0.8395
  446MPD2    C5 6646   3.507   1.700  11.310 -0.4152  0.6975  1.0605
  446MPD2     H 6647   3.282   1.937  11.109  1.4047 -0.5863 -1.2789
  446MPD2    H1 6648   3.622   1.872  11.361 -0.0440 -2.8137  1.3786
  446MPD2    H2 6649   3.385   1.544  11.257 -0.3836  0.0333 -0.7388
  446MPD2    H3 6650   3.554   1.632  11.380  0.5865 -0.6725 -0.9477
  446MPD2     N 6651   3.474   2.055  11.206  0.6339  0.3745 -0.2548
  446MPD2    H5 6652   3.406   2.097  11.144  1.4599  1.6041 -0.3187
  446MPD2    N1 6653   3.195   1.689  11.115 -0.4233 -0.1204 -0.1077
  446MPD2    H7 6654   3.164   1.740  11.032 -0.7782 -1.6015 -0.8787
  447TMC3    C1 6655   3.577   2.268  11.213  0.2950 -0.4138  0.4592
  447TMC3    C2 6656   3.584   2.266  11.075 -0.1716 -0.2242  0.5196
  447TMC3    C3 6657   3.692   2.334  11.021  0.4882 -0.1893  0.2151
  447TMC3    C4 6658   3.666   2.346  11.283  0.1195  0.1697 -0.5928
  447TMC3    C5 6659   3.778   2.405  11.223 -0.5591 -0.0757  0.1381
  447TMC3    C6 6660   3.784   2.407  11.092  0.1186 -0.6368  0.2346
  447TMC3     C 6661   3.564   2.133  11.273  0.7576  0.2400  0.0657
  447TMC3     O 6662   3.631   2.110  11.369 -0.5561  0.2946 -0.4337
  447TMC3     H 6663   3.512   2.224  11.006 -1.1964  0.4077  1.2051
  447TMC3    H1 6664   3.657   2.348  11.391 -3.0808 -0.7665 -0.8684
  447TMC3    H2 6665   3.860   2.469  11.045  0.4159 -2.1176 -1.2590
  447TMC3    C7 6666   3.904   2.365  11.278 -0.1130  0.4620 -0.9010
  447TMC3    C8 6667   3.699   2.350  10.884 -0.4150 -0.8427 -0.5817
  447TMC3    O1 6668   3.978   2.327  11.190  0.2236 -0.3775 -0.0357
  447TMC3    O2 6669   3.601   2.372  10.819 -0.0796  0.8701  0.0188
  448TMC3    C1 6670   1.889   2.160  16.603 -0.1351  0.1074  0.1152
  448TMC3    C2 6671   1.787   2.078  16.555  0.2129  0.2169 -0.1957
  448TMC3    C3 6672   1.753   1.972  16.628 -0.1191 -0.2837  0.2362
  448TMC3    C4 6673   1.956   2.138  16.717  0.5942  0.3487  0.6469
  448TMC3    C5 6674   1.924   2.019  16.783  1.0047  0.7073  0.0781
  448TMC3    C6 6675   1.823   1.937  16.739  0.0697 -0.0431  0.6394
  448TMC3     C 6676   1.896   2.299  16.568  0.1395  0.8731 -0.5010
  448TMC3     O 6677   1.945   2.374  16.651 -0.3451 -0.7543 -0.0223
  448TMC3     H 6678   1.723   2.111  16.473 -0.8190 -1.0016  0.1226
  448TMC3    H1 6679   2.052   2.183  16.737  0.8570  0.3760 -0.6757
  448TMC3    H2 6680   1.809   1.840  16.785  0.7678 -0.2977  0.3125
  448TMC3    C7 6681   1.992   2.002  16.911 -0.4679 -0.3770 -0.3919
  448TMC3    C8 6682   1.678   1.863  16.573 -0.4506 -0.0927 -0.6569
  448TMC3    O1 6683   2.090   2.071  16.940 -0.0770  0.0560 -0.4809
  448TMC3    O2 6684   1.680   1.757  16.631  0.4097  0.3237 -0.1050
  449MPD2     C 6685   3.082   4.487  14.411  0.4905 -0.5603  0.1568
  449MPD2    C1 6686   2.986   4.534  14.323  0.1811  0.2032 -1.1212
  449MPD2    C2 6687   2.858   4.487  14.320  0.1654  0.5567 -0.5972
  449MPD2    C3 6688   2.821   4.390  14.412 -0.3594  0.1244 -0.3087
  449MPD2    C4 6689   2.924   4.339  14.496 -0.1291 -0.1716  0.1528
  449MPD2    C5 6690   3.043   4.404  14.506  0.2325 -0.5933  0.0852
  449MPD2     H 6691   2.778   4.524  14.257 -0.0077  1.3319  0.0783
  449MPD2    H1 6692   2.908   4.258  14.567 -3.1253 -0.0567 -0.4003
  449MPD2    H2 6693   3.180   4.534  14.417 -1.0329  2.6292  0.2904
  449MPD2    H3 6694   3.108   4.376  14.589 -0.7948 -1.4366  0.6099
  449MPD2     N 6695   2.685   4.342  14.403  0.6458 -0.0855 -0.1688
  449MPD2    H5 6696   2.629   4.388  14.332 -0.1045 -0.4448  0.1829
  449MPD2    N1 6697   3.003   4.649  14.244 -0.0342 -0.1185  0.1969
  449MPD2    H7 6698   2.919   4.699  14.218  1.0183  1.1644 -0.7457
  450TMC3    C1 6699   3.087   0.104  14.136  0.6037  0.0268  0.2098
  450TMC3    C2 6700   3.124   0.110  14.009  0.3406  0.2389  0.8315
  450TMC3    C3 6701   3.033   0.158  13.914  0.0298 -0.4774  0.4657
  450TMC3    C4 6702   2.970   0.155  14.176  0.4639  0.1182 -0.5420
  450TMC3    C5 6703   2.872   0.199  14.089 -0.1199  0.2800 -0.3663
  450TMC3    C6 6704   2.904   0.197  13.954  0.1341  0.6209 -0.0513
  450TMC3     C 6705   3.118   4.703  14.206 -0.4009 -0.2436 -0.3978
  450TMC3     O 6706   3.230   4.650  14.206  0.4613 -0.3167 -0.6242
  450TMC3     H 6707   3.227   0.083  13.986  0.4383  0.1273  1.4020
  450TMC3    H1 6708   2.944   0.143  14.281 -1.5639  1.1746 -0.9179
  450TMC3    H2 6709   2.835   0.234  13.879 -0.1020  2.6734  1.1855
  450TMC3    C7 6710   2.736   0.148  14.125 -0.7141  0.4332  0.6119
  450TMC3    C8 6711   3.081   0.185  13.780  0.3159 -0.2433 -0.3785
  450TMC3    O1 6712   2.750   0.045  14.191 -0.5098 -0.2414  0.1892
  450TMC3    O2 6713   3.032   0.278  13.717 -0.0753 -0.3817  0.6023
  451MPD2     C 6714   4.408   4.090   1.461  0.5521 -0.7514  0.8067
  451MPD2    C1 6715   4.290   4.042   1.410 -0.7504 -0.1942 -0.6600
  451MPD2    C2 6716   4.276   3.905   1.377  0.2375  0.4987 -0.6375
  451MPD2    C3 6717   4.393   3.825   1.388 -0.2286 -0.1732  0.2607
  451MPD2    C4 6718   4.512   3.876   1.435 -0.3272  0.5212 -0.9671
  451MPD2    C5 6719   4.518   4.008   1.470 -0.6946 -0.3299 -0.6712
  451MPD2     H 6720   4.185   3.863   1.337  0.8822  0.6074 -2.2283
  451MPD2    H1 6721   4.596   3.810   1.451  1.9922  3.0999 -2.3586
  451MPD2    H2 6722   4.428   4.193   1.488  0.1974 -1.0569  2.1937
  451MPD2    H3 6723   4.606   4.056   1.511 -0.8689  1.0807 -1.9650
  451MPD2     N 6724   4.381   3.688   1.348 -0.0226 -0.9025 -0.1325
  451MPD2    H5 6725   4.298   3.657   1.300 -1.1868  0.9000  0.7461
  451MPD2    N1 6726   4.178   4.128   1.385  0.0045  0.0864  0.6421
  451MPD2    H7 6727   4.185   4.224   1.418  2.9223 -0.1415  0.6412
  452TMC3    C1 6728   4.410   3.460   1.336  0.3233 -0.6977  0.3237
  452TMC3    C2 6729   4.431   3.348   1.410 -0.5617 -0.2021  0.1361
  452TMC3    C3 6730   4.407   3.223   1.344 -0.2973 -1.1055  0.0296
  452TMC3    C4 6731   4.345   3.452   1.209 -0.0042 -0.3233 -0.3672
  452TMC3    C5 6732   4.316   3.331   1.152 -0.4186 -0.2962  0.3391
  452TMC3    C6 6733   4.358   3.216   1.211  0.1106  0.0426 -0.2853
  452TMC3     C 6734   4.457   3.582   1.388  0.0693  0.0499 -0.2720
  452TMC3     O 6735   4.547   3.587   1.467 -0.2206  0.2924 -0.2255
  452TMC3     H 6736   4.481   3.359   1.505  0.5757  1.2292 -0.6346
  452TMC3    H1 6737   4.320   3.542   1.153 -0.9977  0.5945  1.5535
  452TMC3    H2 6738   4.325   3.125   1.162 -0.3678 -1.4647  2.8392
  452TMC3    C7 6739   4.282   3.331   1.006 -0.1447  0.2745  0.0168
  452TMC3    C8 6740   4.397   3.115   1.439 -0.8032  0.0580  0.4831
  452TMC3    O1 6741   4.321   3.427   0.940 -0.4027 -0.4711  0.1354
  452TMC3    O2 6742   4.446   3.139   1.549  0.7307 -0.4264  0.5083
  453TMC3    C1 6743   0.973   1.357  11.743  0.1410  0.7919 -0.6079
  453TMC3    C2 6744   0.879   1.276  11.800  0.3271 -0.0288  0.0727
  453TMC3    C3 6745   0.749   1.310  11.755  0.4858  0.4187 -0.1694
  453TMC3    C4 6746   0.958   1.464  11.660  0.3508 -0.5454  0.4867
  453TMC3    C5 6747   0.829   1.485  11.626 -0.6199 -0.2844  0.2924
  453TMC3    C6 6748   0.723   1.412  11.666 -0.4704  0.8965 -0.1826
  453TMC3     C 6749   1.106   1.339  11.786 -0.0780  0.4407  0.1453
  453TMC3     O 6750   1.187   1.430  11.787 -0.8497 -0.3026  0.3088
  453TMC3     H 6751   0.902   1.205  11.878 -1.6227  0.5522  1.1932
  453TMC3    H1 6752   1.039   1.519  11.614 -1.0901 -0.5709 -2.1035
  453TMC3    H2 6753   0.627   1.434  11.622  0.6004  2.8290 -1.5627
  453TMC3    C7 6754   0.805   1.590  11.532 -0.3154 -0.5756 -0.3444
  453TMC3    C8 6755   0.635   1.230  11.801  0.2004  0.4133 -0.8722
  453TMC3    O1 6756   0.888   1.591  11.439  0.2714 -0.3157  0.2545
  453TMC3    O2 6757   0.527   1.293  11.812  0.0866  0.3437 -0.2423
  454MPD2     C 6758   4.271   0.384  16.481  0.0548 -0.1627  0.2737
  454MPD2    C1 6759   4.265   0.485  16.389 -0.0279 -0.7750 -0.6210
  454MPD2    C2 6760   4.192   0.595  16.412  0.2976 -0.1696 -0.0094
  454MPD2    C3 6761   4.107   0.607  16.523  0.6314 -0.2499  0.2728
  454MPD2    C4 6762   4.121   0.514  16.622 -0.1096  0.2329 -0.6249
  454MPD2    C5 6763   4.203   0.402  16.599 -0.0579  0.3718 -0.9941
  454MPD2     H 6764   4.203   0.683  16.349  1.1691 -1.1807 -1.2540
  454MPD2    H1 6765   4.088   0.533  16.723  1.7804 -0.2918  0.0898
  454MPD2    H2 6766   4.330   0.294  16.468  2.0342  1.3828 -1.6022
  454MPD2    H3 6767   4.213   0.330  16.680  0.0053  1.0632 -0.3857
  454MPD2     N 6768   4.031   0.725  16.540  0.9932 -0.8281  0.1569
  454MPD2    H5 6769   4.074   0.805  16.494  0.5577 -0.0733  1.0653
  454MPD2    N1 6770   4.304   0.473  16.254 -0.0855 -0.3022  0.1986
  454MPD2    H7 6771   4.314   0.555  16.195 -3.0030 -0.7456 -0.9400
  455TMC3    C1 6772   3.821   0.653  16.627  0.2201  0.5838 -0.4193
  455TMC3    C2 6773   3.712   0.700  16.699  1.1862  0.1796  0.1969
  455TMC3    C3 6774   3.593   0.632  16.677  0.5172  0.1790  0.3410
  455TMC3    C4 6775   3.809   0.570  16.524  0.8368 -0.0184 -0.5572
  455TMC3    C5 6776   3.690   0.502  16.507 -0.4300 -0.3120 -0.4507
  455TMC3    C6 6777   3.585   0.530  16.584  0.0990 -0.4642  0.7095
  455TMC3     C 6778   3.932   0.751  16.630  0.3662  0.1083 -0.1997
  455TMC3     O 6779   3.907   0.856  16.684 -0.1252  0.3403  0.7037
  455TMC3     H 6780   3.719   0.777  16.774 -1.4240 -0.4808  1.1195
  455TMC3    H1 6781   3.881   0.553  16.445  0.7341 -1.6741 -0.2913
  455TMC3    H2 6782   3.494   0.472  16.575  0.9419 -1.1256 -3.9197
  455TMC3    C7 6783   3.686   0.376  16.429  0.8033 -0.0937  0.2834
  455TMC3    C8 6784   3.479   0.707  16.717  0.0798 -0.0125 -0.3577
  455TMC3    O1 6785   3.579   0.332  16.390  0.2926 -0.1934  0.5454
  455TMC3    O2 6786   3.502   0.827  16.713 -0.0543  0.7208 -0.1217
  456MPD2     C 6787   1.974   0.767  15.717 -0.0172 -0.1037 -0.2943
  456MPD2    C1 6788   2.033   0.730  15.831 -0.3194 -0.2622  0.1651
  456MPD2    C2 6789   1.994   0.794  15.952  0.3154 -0.7048 -0.3325
  456MPD2    C3 6790   1.889   0.882  15.948 -0.3014  0.4137  0.0085
  456MPD2    C4 6791   1.828   0.918  15.835  0.5463  0.5972  0.7576
  456MPD2    C5 6792   1.875   0.866  15.714 -0.4079 -0.3848  0.0850
  456MPD2     H 6793   2.037   0.778  16.050  1.4764 -0.8114 -0.8668
  456MPD2    H1 6794   1.740   0.982  15.830 -0.7976 -1.3361 -0.4488
  456MPD2    H2 6795   1.993   0.724  15.619  1.1997 -1.0829  0.3756
  456MPD2    H3 6796   1.827   0.896  15.622  0.3172  1.8024  0.4130
  456MPD2     N 6797   1.866   0.943  16.071 -0.0206 -0.2114 -0.7596
  456MPD2    H5 6798   1.924   0.908  16.147 -0.8920 -0.7689 -0.3501
  456MPD2    N1 6799   2.136   0.632  15.828 -0.7744 -0.0962 -0.2006
  456MPD2    H7 6800   2.146   0.588  15.738  2.1769  0.7668 -0.2973
  457TMC3    C1 6801   1.782   1.094  16.233  0.6367 -0.6518  0.1626
  457TMC3    C2 6802   1.716   1.211  16.257  0.1047 -0.2304  0.7419
  457TMC3    C3 6803   1.650   1.231  16.374 -0.1951  0.0879  0.9506
  457TMC3    C4 6804   1.792   0.993  16.327 -0.2193 -0.3985  0.1235
  457TMC3    C5 6805   1.730   1.015  16.446  0.3557  0.2026  1.0293
  457TMC3    C6 6806   1.659   1.128  16.473  0.1111 -0.5080  0.8418
  457TMC3     C 6807   1.785   1.053  16.092 -0.9272 -1.0807  0.0866
  457TMC3     O 6808   1.732   1.127  16.011  0.7002  0.3774 -0.3301
  457TMC3     H 6809   1.732   1.288  16.182 -0.4962  0.5953  1.4547
  457TMC3    H1 6810   1.841   0.896  16.317 -0.3733 -0.6523  1.9230
  457TMC3    H2 6811   1.626   1.143  16.576 -3.8594 -0.0424 -0.4782
  457TMC3    C7 6812   1.757   0.916  16.546 -0.1682  0.4346  0.5700
  457TMC3    C8 6813   1.611   1.364  16.409  0.1038 -0.5945  0.0460
  457TMC3    O1 6814   1.866   0.865  16.533  0.4171 -0.2422 -0.5550
  457TMC3    O2 6815   1.618   1.400  16.525 -0.0168  0.1953  0.8977
  458MPD2     C 6816   4.717   0.150  12.023  0.0620  0.7005  0.5648
  458MPD2    C1 6817   4.681   0.084  12.137 -0.0061  0.0122  0.5009
  458MPD2    C2 6818   4.598   4.694  12.131  0.2653  0.3429 -0.4620
  458MPD2    C3 6819   4.570   4.630  12.011  0.0365 -0.7451  0.0687
  458MPD2    C4 6820   4.616   4.691  11.894 -0.0367  0.3135 -0.9434
  458MPD2    C5 6821   4.685   0.081  11.910  0.5405 -0.1728  0.1941
  458MPD2     H 6822   4.556   4.651  12.221  0.3459 -0.8317 -0.9783
  458MPD2    H1 6823   4.592   4.663  11.793 -0.0321 -1.5833 -0.4239
  458MPD2    H2 6824   0.051   0.243  12.027  3.4800 -1.4115  2.0737
  458MPD2    H3 6825   4.711   0.128  11.816  0.5877  0.1809  0.3848
  458MPD2     N 6826   4.497   4.507  12.023 -0.9153  0.1452  0.1752
  458MPD2    H5 6827   4.447   4.479  12.106  0.8781  0.4180  1.3505
  458MPD2    N1 6828   4.720   0.135  12.262  0.3333 -0.2114 -0.5274
  458MPD2    H7 6829   0.051   0.221  12.258 -1.3100  0.9206  2.1468
  459TMC3    C1 6830   0.062   0.134  12.489 -0.0217  0.2751 -0.7998
  459TMC3    C2 6831   0.181   0.193  12.446  0.2496  0.4586  0.1431
  459TMC3    C3 6832   0.273   0.201  12.550  0.0327  0.0392 -0.0385
  459TMC3    C4 6833   0.037   0.098  12.617  0.1358  0.3625 -0.0904
  459TMC3    C5 6834   0.133   0.103  12.706 -0.1883 -0.3038 -0.2506
  459TMC3    C6 6835   0.254   0.157  12.680  0.7638  0.5708 -0.0296
  459TMC3     C 6836   4.709   0.075  12.385 -0.7827 -0.4862  0.1566
  459TMC3     O 6837   4.643   4.701  12.422  0.2246  0.0085 -0.4713
  459TMC3     H 6838   0.204   0.236  12.350  1.2591  0.8339  0.5563
  459TMC3    H1 6839   4.663   0.054  12.640  0.2634 -0.9412 -2.0032
  459TMC3    H2 6840   0.337   0.160  12.749  1.3990 -1.3827 -0.7083
  459TMC3    C7 6841   0.115   0.008  12.814  0.4958 -0.3863  0.0318
  459TMC3    C8 6842   0.412   0.237  12.510  0.2713 -0.6585  0.1669
  459TMC3    O1 6843   0.033   4.640  12.808  0.4562  0.3160 -0.3877
  459TMC3    O2 6844   0.506   0.215  12.588 -0.5024 -0.3922  0.8396
  460MPD2     C 6845   3.999   2.297  10.678 -0.2166  0.6445  0.2371
  460MPD2    C1 6846   3.866   2.325  10.696 -0.4450 -0.7068 -0.4744
  460MPD2    C2 6847   3.777   2.315  10.589 -0.3014  0.4819  0.5024
  460MPD2    C3 6848   3.817   2.273  10.471  0.3790  0.1254 -0.0931
  460MPD2    C4 6849   3.949   2.244  10.447 -0.4716  0.1224  0.4560
  460MPD2    C5 6850   4.038   2.253  10.551  0.1463 -0.1273 -0.7436
  460MPD2     H 6851   3.672   2.334  10.607 -0.2615  1.4822 -0.3693
  460MPD2    H1 6852   3.979   2.206  10.350 -2.0189 -0.3415  0.1625
  460MPD2    H2 6853   4.068   2.301  10.762 -0.1272  0.5271  0.1684
  460MPD2    H3 6854   4.138   2.214  10.532 -0.0780 -0.7999 -0.5667
  460MPD2     N 6855   3.717   2.271  10.363 -0.7246  0.2160  0.1499
  460MPD2    H5 6856   3.632   2.324  10.380 -1.4715 -0.5881 -1.0839
  460MPD2    N1 6857   3.826   2.343  10.834  0.2912  0.5711 -0.4348
  460MPD2    H7 6858   3.892   2.308  10.902 -2.0573  0.0954  1.6105
  461TMC3    C1 6859   3.649   2.273  10.137 -0.7433  0.5534 -0.1171
  461TMC3    C2 6860   3.646   2.210  10.017  0.7319  0.4412 -0.5955
  461TMC3    C3 6861   3.589   2.269   9.913 -0.5559 -0.2850 -0.2736
  461TMC3    C4 6862   3.591   2.394  10.155  0.8286  0.2383  0.5445
  461TMC3    C5 6863   3.544   2.454  10.043 -0.2866 -0.0590  0.1691
  461TMC3    C6 6864   3.537   2.393   9.920 -0.0080  0.0451 -0.1101
  461TMC3     C 6865   3.736   2.219  10.242 -0.1857 -0.1644 -0.1610
  461TMC3     O 6866   3.817   2.132  10.212 -0.1362 -0.3470 -0.6230
  461TMC3     H 6867   3.706   2.121  10.009 -0.7045 -0.3913 -2.3602
  461TMC3    H1 6868   3.599   2.439  10.254 -3.7300  3.3216 -0.5179
  461TMC3    H2 6869   3.527   2.456   9.833  0.2094  1.8106  1.1477
  461TMC3    C7 6870   3.482   2.586  10.037  0.1574 -0.9293  0.1050
  461TMC3    C8 6871   3.597   2.205   9.788 -0.0281  0.2592  0.3351
  461TMC3    O1 6872   3.418   2.605   9.934  0.2484  0.3816 -0.4719
  461TMC3    O2 6873   3.682   2.119   9.773  0.2267 -0.2889  0.0285
  462TMC3    C1 6874   3.363   2.851   0.190  0.5039  0.0908 -0.3604
  462TMC3    C2 6875   3.380   2.789   0.069  0.3232 -0.0670 -0.6074
  462TMC3    C3 6876   3.312   2.677   0.028  0.9363 -0.6684 -0.2726
  462TMC3    C4 6877   3.271   2.795   0.274 -0.9463  0.6911  0.3227
  462TMC3    C5 6878   3.188   2.687   0.227 -1.2880  0.3336 -0.6282
  462TMC3    C6 6879   3.214   2.618   0.106 -0.4824 -0.3540  0.3411
  462TMC3     C 6880   3.397   2.994   0.225  0.2001  0.8756 -0.2810
  462TMC3     O 6881   3.382   3.016   0.343  0.0630  0.5384  0.4206
  462TMC3     H 6882   3.433   2.846  17.685 -0.3282 -1.6150 -2.2149
  462TMC3    H1 6883   3.237   2.855   0.358 -2.1617  1.3408 -0.6342
  462TMC3    H2 6884   3.137   2.559   0.057 -1.6054  3.5595 -2.5956
  462TMC3    C7 6885   3.083   2.629   0.315  0.5345  0.6537  1.4984
  462TMC3    C8 6886   3.329   2.617  17.587  0.9998  0.0421 -0.0645
  462TMC3    O1 6887   2.999   2.560   0.262  0.0112  0.1062  0.3060
  462TMC3    O2 6888   3.233   2.580  17.520  0.0075  0.3297  0.1219
  463MPD2     C 6889   3.896   2.203   2.441  0.5631 -0.6983 -0.4480
  463MPD2    C1 6890   3.884   2.232   2.302  0.2656  1.0102  0.2325
  463MPD2    C2 6891   3.992   2.276   2.227 -0.0524  0.2431  0.2344
  463MPD2    C3 6892   4.111   2.292   2.289  0.5637  0.0989  0.3033
  463MPD2    C4 6893   4.119   2.271   2.426 -0.9385  0.6921  0.2565
  463MPD2    C5 6894   4.015   2.221   2.500  0.4475  0.2594  0.2230
  463MPD2     H 6895   3.977   2.287   2.120 -1.9480 -0.1681  0.4570
  463MPD2    H1 6896   4.212   2.290   2.479 -0.8043 -0.3584  0.3920
  463MPD2    H2 6897   3.806   2.188   2.499 -1.1067  1.0384 -2.5641
  463MPD2    H3 6898   4.019   2.214   2.608 -1.3487  2.4914  0.4437
  463MPD2     N 6899   4.231   2.327   2.222 -0.4643 -0.4467  0.2180
  463MPD2    H5 6900   4.313   2.326   2.282 -1.1982 -3.2470  1.1510
  463MPD2    N1 6901   3.767   2.196   2.235  0.6056  0.4529 -0.5488
  463MPD2    H7 6902   3.771   2.209   2.134 -1.7436  1.0217 -0.5714
  464TMC3    C1 6903   3.554   2.092   2.185 -0.3551  0.5698  0.1140
  464TMC3    C2 6904   3.562   2.151   2.060  0.4883  0.0993  0.0691
  464TMC3    C3 6905   3.481   2.096   1.960  0.0085  0.0982 -1.4791
  464TMC3    C4 6906   3.474   1.980   2.213 -0.2253 -0.0635 -0.1012
  464TMC3    C5 6907   3.390   1.938   2.112 -0.2119  0.1138  0.5890
  464TMC3    C6 6908   3.394   1.992   1.985 -0.4763  0.0477 -0.6105
  464TMC3     C 6909   3.661   2.123   2.283 -0.8220 -0.4317 -1.0593
  464TMC3     O 6910   3.650   2.063   2.388 -0.0031 -0.2241  0.4883
  464TMC3     H 6911   3.616   2.240   2.028 -0.5764  1.5592  2.2733
  464TMC3    H1 6912   3.469   1.937   2.312  0.9210 -2.3419 -1.0428
  464TMC3    H2 6913   3.331   1.962   1.903 -1.7645 -0.1630  0.4524
  464TMC3    C7 6914   3.304   1.827   2.142 -0.4773  0.1095  0.5692
  464TMC3    C8 6915   3.480   2.152   1.819 -0.4364 -0.0511 -0.8928
  464TMC3    O1 6916   3.318   1.784   2.256  0.1759  0.7907  0.2867
  464TMC3    O2 6917   3.375   2.177   1.768  0.5522 -0.0757  0.4164
  465MPD2     C 6918   0.854   0.258  16.556 -0.5139  0.6105  0.1058
  465MPD2    C1 6919   0.774   0.280  16.668 -0.3000  0.4405 -0.4341
  465MPD2    C2 6920   0.679   0.381  16.658  0.2681  0.6247 -0.1742
  465MPD2    C3 6921   0.672   0.464  16.545 -0.0697 -0.2271 -0.3647
  465MPD2    C4 6922   0.753   0.439  16.436 -0.0980 -0.2966  0.0828
  465MPD2    C5 6923   0.835   0.337  16.443  0.2555  0.7507 -0.2324
  465MPD2     H 6924   0.613   0.402  16.741 -0.8038 -0.7278 -0.7038
  465MPD2    H1 6925   0.744   0.492  16.341 -0.2172  0.3193  0.4347
  465MPD2    H2 6926   0.933   0.183  16.559  0.5654  1.8148  1.3382
  465MPD2    H3 6927   0.899   0.306  16.361  2.1818  2.0165  0.8104
  465MPD2     N 6928   0.569   0.554  16.537 -0.0330 -0.3377 -0.4546
  465MPD2    H5 6929   0.494   0.551  16.606  0.8179  0.8294  0.5163
  465MPD2    N1 6930   0.786   0.205  16.788  0.4512  0.3885  0.4674
  465MPD2    H7 6931   0.729   0.238  16.865 -0.0836  1.8495 -0.5414
  466TMC3    C1 6932   0.180   0.653  16.528 -0.5539  0.1450 -0.0710
  466TMC3    C2 6933   0.145   0.763  16.452  0.2998  0.5276 -0.6562
  466TMC3    C3 6934   0.240   0.834  16.385  0.2586  0.3893  0.0844
  466TMC3    C4 6935   0.304   0.589  16.510  0.4797  0.7574 -0.0304
  466TMC3    C5 6936   0.395   0.668  16.438 -0.2851  0.0537 -0.2825
  466TMC3    C6 6937   0.365   0.793  16.374  0.0266 -0.3710 -0.0450
  466TMC3     C 6938   0.137   0.645  16.667  0.0398 -0.0012 -0.0730
  466TMC3     O 6939   0.165   0.542  16.726  0.0182 -0.5624 -0.3068
  466TMC3     H 6940   0.052   0.818  16.459  2.1764  3.6700 -0.3705
  466TMC3    H1 6941   0.332   0.506  16.575  1.1456  0.8796 -0.1628
  466TMC3    H2 6942   0.449   0.849  16.333  1.2670 -1.2812  1.2691
  466TMC3    C7 6943   0.530   0.626  16.428 -0.2641  0.1845 -0.6356
  466TMC3    C8 6944   0.219   0.977  16.377 -0.0392  0.5007 -0.5835
  466TMC3    O1 6945   0.605   0.671  16.345  0.6727  0.1340  0.6004
  466TMC3    O2 6946   0.149   1.031  16.460  0.3089  0.4119  0.5081
  467TMC3    C1 6947   1.652   3.814  13.218 -0.5704  1.3613 -0.4601
  467TMC3    C2 6948   1.678   3.898  13.113  0.0383 -0.6649  0.7315
  467TMC3    C3 6949   1.609   4.015  13.105  0.4718 -0.8484  0.1077
  467TMC3    C4 6950   1.545   3.833  13.306  0.3739 -0.4881 -0.5118
  467TMC3    C5 6951   1.473   3.947  13.288 -0.0269 -0.3353 -0.0842
  467TMC3    C6 6952   1.499   4.034  13.189  0.0248  0.3874  0.3712
  467TMC3     C 6953   1.757   3.724  13.263 -0.4550  0.2896  0.7060
  467TMC3     O 6954   1.786   3.709  13.382  0.0794 -0.3721  0.3966
  467TMC3     H 6955   1.764   3.883  13.048  1.2956 -1.9618  2.6942
  467TMC3    H1 6956   1.530   3.757  13.382 -1.7385  0.6048  0.1299
  467TMC3    H2 6957   1.444   4.126  13.173  3.1528  1.7709 -2.4993
  467TMC3    C7 6958   1.381   3.978  13.399  0.0565  0.1956 -0.0413
  467TMC3    C8 6959   1.626   4.104  12.994  0.2905  0.6256 -0.3959
  467TMC3    O1 6960   1.337   3.884  13.461  0.1871 -0.0240  0.3139
  467TMC3    O2 6961   1.588   4.217  13.023  0.3405  0.6311  0.0766
  468MPD2     C 6962   0.591   2.222  10.570  0.2992  0.0139 -0.1669
  468MPD2    C1 6963   0.728   2.204  10.589  0.0746  0.2143 -0.1861
  468MPD2    C2 6964   0.776   2.088  10.650  0.6443  0.0346  0.3589
  468MPD2    C3 6965   0.681   1.994  10.695 -0.4044 -0.7967  0.5326
  468MPD2    C4 6966   0.547   2.024  10.693 -0.3215 -0.4469  0.9902
  468MPD2    C5 6967   0.503   2.129  10.622 -1.1608  0.6133  0.1889
  468MPD2     H 6968   0.880   2.056  10.645  1.0183  1.0771  1.5982
  468MPD2    H1 6969   0.471   1.964  10.741 -1.0641  0.5414  1.0440
  468MPD2    H2 6970   0.543   2.315  10.545  0.2015  0.2184  0.7787
  468MPD2    H3 6971   0.396   2.145  10.610 -1.5678 -0.5249  2.2180
  468MPD2     N 6972   0.717   1.872  10.771 -0.4702 -0.0099 -0.0686
  468MPD2    H5 6973   0.645   1.814  10.814  0.4946  0.0242  1.5792
  468MPD2    N1 6974   0.826   2.295  10.546  0.4500  0.2231  0.3258
  468MPD2    H7 6975   0.918   2.276  10.586  0.1016 -2.4136 -0.1675
  469TMC3    C1 6976   0.928   2.467  10.424 -0.1190 -0.2793  0.0183
  469TMC3    C2 6977   0.998   2.523  10.531 -0.2036  0.0547  0.6346
  469TMC3    C3 6978   1.077   2.628  10.511 -0.1129 -0.2087 -0.2036
  469TMC3    C4 6979   0.933   2.526  10.305  0.2798 -0.5100  0.3840
  469TMC3    C5 6980   1.007   2.641  10.287 -0.5297 -0.4149 -0.8045
  469TMC3    C6 6981   1.085   2.695  10.392 -0.3935  0.1378  0.3771
  469TMC3     C 6982   0.807   2.395  10.456  0.2691 -0.2664 -0.7096
  469TMC3     O 6983   0.715   2.411  10.378  0.4395  0.0436  0.2566
  469TMC3     H 6984   1.002   2.484  10.632  0.9758 -2.2628 -0.3088
  469TMC3    H1 6985   0.863   2.491  10.230  2.8703 -1.4693 -1.5810
  469TMC3    H2 6986   1.139   2.787  10.375 -0.4620 -0.2251 -1.7589
  469TMC3    C7 6987   0.992   2.731  10.173 -1.0812 -0.1836  0.7785
  469TMC3    C8 6988   1.146   2.700  10.619  0.3482 -0.0118  0.4381
  469TMC3    O1 6989   1.069   2.827  10.173  0.5036 -0.0098 -0.2123
  469TMC3    O2 6990   1.230   2.782  10.584 -0.3756  0.1797 -0.1507
  470TMC3    C1 6991   3.661   3.053   0.720  0.3866  0.3382 -0.0938
  470TMC3    C2 6992   3.562   3.151   0.718 -0.0895 -0.1068 -0.7098
  470TMC3    C3 6993   3.511   3.184   0.841  0.1651 -0.0617 -0.2475
  470TMC3    C4 6994   3.699   2.988   0.840  0.1697 -0.4708  1.1144
  470TMC3    C5 6995   3.642   3.033   0.956  0.1613 -0.4490  0.8928
  470TMC3    C6 6996   3.553   3.133   0.960  0.0284  0.2003  0.5803
  470TMC3     C 6997   3.695   2.986   0.600  0.3554 -0.1149  0.7510
  470TMC3     O 6998   3.747   2.879   0.615  0.1560  0.2354  0.2636
  470TMC3     H 6999   3.526   3.203   0.630 -1.8143 -0.2793 -0.1092
  470TMC3    H1 7000   3.776   2.911   0.844 -1.6243 -2.1941  2.2913
  470TMC3    H2 7001   3.518   3.174   1.054 -0.8878 -0.6948  0.6354
  470TMC3    C7 7002   3.716   3.011   1.080 -0.0036 -0.3891  0.0313
  470TMC3    C8 7003   3.430   3.302   0.841  0.1913 -0.2643 -0.2443
  470TMC3    O1 7004   3.837   3.003   1.088  0.6810  0.2636  0.2821
  470TMC3    O2 7005   3.347   3.309   0.931 -0.3859 -0.3926 -0.3982
  471MPD2     C 7006   3.612   0.156  17.064 -1.2528 -0.5868  0.5040
  471MPD2    C1 7007   3.629   0.027  17.018 -0.4018  0.7658  0.0982
  471MPD2    C2 7008   3.741   4.682  17.063 -0.1358 -0.1276  0.1553
  471MPD2    C3 7009   3.835   0.022  17.146 -0.0314  0.2812 -0.7572
  471MPD2    C4 7010   3.825   0.153  17.180 -0.0717 -0.4231  0.7062
  471MPD2    C5 7011   3.710   0.215  17.137  0.4131  0.0696  0.6193
  471MPD2     H 7012   3.749   4.578  17.034  0.7208  0.4589 -1.7521
  471MPD2    H1 7013   3.901   0.198  17.241  1.4883 -1.3804 -0.5328
  471MPD2    H2 7014   3.520   0.207  17.036  0.0399  1.7152  0.4827
  471MPD2    H3 7015   3.702   0.318  17.168  1.0828  0.2333  0.2469
  471MPD2     N 7016   3.954   4.681  17.191 -0.2523  0.2785 -0.4141
  471MPD2    H5 7017   4.006   0.017  17.256  0.3037 -2.6653  1.7626
  471MPD2    N1 7018   3.537   4.674  16.950 -0.0811  0.2433 -0.3359
  471MPD2    H7 7019   3.542   4.573  16.958 -0.4033  0.4247  2.2755
  472TMC3    C1 7020   3.324   4.625  16.843 -0.2376 -0.1150 -0.4647
  472TMC3    C2 7021   3.232   4.659  16.756 -0.0122 -0.4041 -0.3059
  472TMC3    C3 7022   3.174   4.556  16.690  0.1186 -0.8118 -0.5618
  472TMC3    C4 7023   3.342   4.493  16.887  0.5583 -0.1264 -0.1237
  472TMC3    C5 7024   3.270   4.393  16.830 -0.1102 -0.3923 -0.0620
  472TMC3    C6 7025   3.193   4.420  16.720 -0.1833  0.1237  0.6261
  472TMC3     C 7026   3.431   4.721  16.882 -0.7364 -0.0118 -0.2922
  472TMC3     O 7027   3.417   0.110  16.842 -0.5482  0.5078  0.3408
  472TMC3     H 7028   3.220   0.037  16.719 -0.0838  0.5360  2.2681
  472TMC3    H1 7029   3.417   4.468  16.961  0.4916  0.2243  0.0628
  472TMC3    H2 7030   3.164   4.329  16.668  0.5082 -0.3644  1.1076
  472TMC3    C7 7031   3.339   4.271  16.835  0.0701  0.0606 -0.1200
  472TMC3    C8 7032   3.077   4.582  16.585 -0.0941 -0.2057  0.1251
  472TMC3    O1 7033   3.346   4.217  16.946  0.2633 -0.2157 -0.3673
  472TMC3    O2 7034   3.026   4.694  16.584  0.0266 -0.6068 -0.3899
  473MPD2     C 7035   2.822   1.279  13.984 -0.1308  0.8036 -0.5531
  473MPD2    C1 7036   2.792   1.405  13.935  0.0493 -0.5055 -1.1302
  473MPD2    C2 7037   2.813   1.521  14.013 -0.9213 -0.1484 -0.2337
  473MPD2    C3 7038   2.868   1.507  14.139  0.1940 -0.1434  0.3328
  473MPD2    C4 7039   2.912   1.380  14.185  0.0507  0.1972 -0.5013
  473MPD2    C5 7040   2.880   1.265  14.107  0.2857  0.1191 -0.8852
  473MPD2     H 7041   2.789   1.615  13.967 -1.0158  0.2310  0.5843
  473MPD2    H1 7042   2.942   1.351  14.285 -0.0903  0.2534 -0.4430
  473MPD2    H2 7043   2.799   1.185  13.935  0.5568  1.3215 -1.8928
  473MPD2    H3 7044   2.896   1.166  14.149  0.0691  1.2166  1.8195
  473MPD2     N 7045   2.882   1.615  14.230  0.1747 -0.3958 -0.2752
  473MPD2    H5 7046   2.953   1.614  14.303  0.6895 -2.1484 -0.7989
  473MPD2    N1 7047   2.744   1.417  13.801 -0.0042  0.1852 -0.2748
  473MPD2    H7 7048   2.732   1.511  13.767 -1.0250  0.4667  0.8922
  474TMC3    C1 7049   2.881   1.837  14.294 -0.5408  0.3354 -0.3865
  474TMC3    C2 7050   2.911   1.953  14.224 -0.3515 -0.6688  0.7236
  474TMC3    C3 7051   3.006   2.038  14.274  0.2882  0.2367 -1.0127
  474TMC3    C4 7052   2.935   1.808  14.417  0.2258  0.1466  0.3136
  474TMC3    C5 7053   3.023   1.896  14.468  0.3770 -0.2081 -0.3683
  474TMC3    C6 7054   3.068   2.000  14.393  0.2530 -0.1449 -0.0370
  474TMC3     C 7055   2.825   1.736  14.208  0.2598  0.7333 -0.9398
  474TMC3     O 7056   2.729   1.758  14.138 -0.4910 -0.1744 -0.1625
  474TMC3     H 7057   2.855   1.962  14.131  3.6625 -0.2432 -1.6316
  474TMC3    H1 7058   2.912   1.715  14.468  0.3330  0.1045  0.2833
  474TMC3    H2 7059   3.147   2.065  14.428  2.3861 -1.9441 -1.5520
  474TMC3    C7 7060   3.107   1.835  14.566 -0.2054  0.7300  0.2904
  474TMC3    C8 7061   3.100   2.095  14.172  0.1104  0.3385  0.3634
  474TMC3    O1 7062   3.079   1.726  14.602 -0.8439 -0.4568 -0.0906
  474TMC3    O2 7063   3.081   2.048  14.062  0.5200 -0.1959  0.3743
  475MPD2     C 7064   2.591   4.713  10.265 -0.0782  0.0773  0.1707
  475MPD2    C1 7065   2.531   0.109  10.311  0.1370 -0.5868  0.2935
  475MPD2    C2 7066   2.389   0.113  10.317  0.5145  0.1125 -0.7824
  475MPD2    C3 7067   2.307   0.008  10.288 -0.7694 -0.8175  0.6391
  475MPD2    C4 7068   2.362   4.620  10.231 -0.1777  0.4043  0.4076
  475MPD2    C5 7069   2.501   4.614  10.223  0.4372 -0.1466 -0.2188
  475MPD2     H 7070   2.346   0.203  10.360  0.5176  0.1610 -0.8805
  475MPD2    H1 7071   2.309   4.531  10.200  0.0086  1.4983 -2.9980
  475MPD2    H2 7072   2.697   4.693  10.261 -0.5927 -2.4690 -0.9388
  475MPD2    H3 7073   2.535   4.523  10.175  2.7802  0.3675  0.4477
  475MPD2     N 7074   2.174   0.005  10.342  0.4045 -0.2670 -0.2496
  475MPD2    H5 7075   2.141   0.088  10.391 -0.1350  1.0274 -2.8429
  475MPD2    N1 7076   2.599   0.225  10.342  0.0734  0.0259 -0.2932
  475MPD2    H7 7077   2.537   0.300  10.371  1.1561  0.8980 -0.2151
  476TMC3    C1 7078   2.746   0.396  10.340 -0.2330  0.3271 -0.0744
  476TMC3    C2 7079   2.645   0.456  10.274  0.2056 -0.2220  0.2422
  476TMC3    C3 7080   2.590   0.567  10.334  0.3598 -0.8636  0.1470
  476TMC3    C4 7081   2.794   0.439  10.460  0.6681 -0.3166 -0.2366
  476TMC3    C5 7082   2.739   0.553  10.515 -0.2569 -0.1662  1.2432
  476TMC3    C6 7083   2.636   0.621  10.452  0.2151 -0.4524  0.2976
  476TMC3     C 7084   2.733   0.249  10.335 -0.3911 -0.3137  0.4811
  476TMC3     O 7085   2.824   0.166  10.333 -0.6285  0.4639 -0.3268
  476TMC3     H 7086   2.618   0.420  10.175 -0.3761  0.4873  0.1428
  476TMC3    H1 7087   2.850   0.373  10.525  1.8881  0.4035 -0.5493
  476TMC3    H2 7088   2.600   0.713  10.496 -2.5494 -0.8918 -1.0442
  476TMC3    C7 7089   2.761   0.570  10.659 -0.0470 -0.5368 -0.1023
  476TMC3    C8 7090   2.452   0.606  10.294  0.1375 -0.1915 -0.2559
  476TMC3    O1 7091   2.833   0.496  10.722  0.0298  0.2103  0.0106
  476TMC3    O2 7092   2.414   0.713  10.338  0.2187  0.4826  0.3916
  477MPD2     C 7093   4.267   1.949  12.068 -0.5085 -0.3257  0.0285
  477MPD2    C1 7094   4.243   1.843  11.983 -0.0454  0.3335  0.2204
  477MPD2    C2 7095   4.261   1.713  12.039  0.1782 -0.6006 -0.8389
  477MPD2    C3 7096   4.300   1.698  12.171 -0.1560  0.0837  0.0934
  477MPD2    C4 7097   4.334   1.802  12.247 -0.4879 -0.2676  0.4105
  477MPD2    C5 7098   4.319   1.926  12.197  0.8847 -0.6530  0.3149
  477MPD2     H 7099   4.229   1.621  11.991 -1.3372 -0.8756  0.7383
  477MPD2    H1 7100   4.366   1.791  12.349 -0.4133 -2.9858  0.1035
  477MPD2    H2 7101   4.253   2.048  12.027 -0.8837 -0.7202 -0.7839
  477MPD2    H3 7102   4.339   2.006  12.267  1.0265 -1.3303  1.0519
  477MPD2     N 7103   4.276   1.566  12.221 -0.6523  0.1874 -0.5540
  477MPD2    H5 7104   4.257   1.490  12.157 -1.0508  0.9624 -1.3600
  477MPD2    N1 7105   4.188   1.869  11.859 -0.0657 -0.3586 -0.1608
  477MPD2    H7 7106   4.149   1.963  11.850 -2.9557 -1.4963  0.4774
  478TMC3    C1 7107   4.068   1.838  11.668 -1.1447 -0.4480 -0.4952
  478TMC3    C2 7108   3.963   1.900  11.732  0.1303 -0.4289  0.4323
  478TMC3    C3 7109   3.869   1.967  11.658  0.0959 -0.2433 -0.4932
  478TMC3    C4 7110   4.070   1.821  11.529  0.6050  0.1874  0.4027
  478TMC3    C5 7111   3.974   1.889  11.456 -0.6543  0.9020 -0.1069
  478TMC3    C6 7112   3.885   1.968  11.525  0.2088 -0.3276 -0.5287
  478TMC3     C 7113   4.169   1.782  11.753 -0.1051 -0.3675  0.7830
  478TMC3     O 7114   4.213   1.670  11.733 -0.0081 -0.5262  0.0595
  478TMC3     H 7115   3.955   1.884  11.839 -0.7339  0.3368  0.4947
  478TMC3    H1 7116   4.157   1.778  11.481  0.9439  3.6322 -2.1193
  478TMC3    H2 7117   3.818   2.029  11.465 -0.2798 -0.5475 -0.2022
  478TMC3    C7 7118   3.996   1.900  11.309  0.3659  0.6362  0.2973
  478TMC3    C8 7119   3.762   2.037  11.732 -0.0842  0.8583  0.0577
  478TMC3    O1 7120   4.105   1.873  11.272 -0.1491 -0.1401 -0.0383
  478TMC3    O2 7121   3.761   2.023  11.853  0.3189  0.0916 -0.4347
  479MPD2     C 7122   3.012   3.520  14.977 -0.0224 -0.2244 -0.7010
  479MPD2    C1 7123   2.950   3.444  15.081  0.5352  0.8443  0.0701
  479MPD2    C2 7124   2.995   3.454  15.208 -0.2971 -0.5188  0.2500
  479MPD2    C3 7125   3.097   3.544  15.237 -0.7365  0.0828 -0.6054
  479MPD2    C4 7126   3.162   3.607  15.136 -0.3762  0.2309  0.1119
  479MPD2    C5 7127   3.127   3.585  15.008  0.2907 -0.0084 -0.3983
  479MPD2     H 7128   2.943   3.411  15.293  0.3371  2.0566  1.9441
  479MPD2    H1 7129   3.253   3.665  15.148  1.1678 -1.8852 -1.3137
  479MPD2    H2 7130   2.981   3.498  14.875  1.7177  1.4479 -1.6043
  479MPD2    H3 7131   3.190   3.620  14.928 -2.9547  1.3884 -2.3289
  479MPD2     N 7132   3.139   3.578  15.364 -1.0047 -0.3268  0.1834
  479MPD2    H5 7133   3.202   3.655  15.380  0.2665 -1.5220  0.9677
  479MPD2    N1 7134   2.826   3.382  15.045 -0.5757 -0.1232 -0.2827
  479MPD2    H7 7135   2.804   3.381  14.946 -1.1539  1.3227 -0.1766
  480TMC3    C1 7136   3.023   3.673  15.801 -0.4809  0.5964  0.0161
  480TMC3    C2 7137   3.049   3.806  15.782  0.3813 -0.0154 -0.3365
  480TMC3    C3 7138   3.102   3.840  15.664  0.2586 -0.0429 -0.3227
  480TMC3    C4 7139   3.044   3.572  15.708  0.0641 -0.2523 -0.3704
  480TMC3    C5 7140   3.111   3.606  15.598 -0.2046 -0.9598  0.2194
  480TMC3    C6 7141   3.129   3.741  15.572  0.1758  0.3418 -0.1080
  480TMC3     C 7142   3.021   3.620  15.942 -0.6628  0.1162  0.0644
  480TMC3     O 7143   2.938   3.533  15.970  0.0861  0.5757  0.0455
  480TMC3     H 7144   3.018   3.875  15.859 -0.6988 -0.1366 -0.6614
  480TMC3    H1 7145   3.042   3.469  15.742  0.5191  0.3489  1.5173
  480TMC3    H2 7146   3.197   3.772  15.493  1.1584  1.5564  1.2275
  480TMC3    C7 7147   3.100   3.521  15.481 -0.5556  0.5787 -0.3981
  480TMC3    C8 7148   3.061   3.967  15.621 -0.5418 -0.7744  1.0539
  480TMC3    O1 7149   3.047   3.412  15.502 -0.8664  0.0260  0.2801
  480TMC3    O2 7150   3.031   4.050  15.703  0.2818  0.0287 -0.2036
  481MPD2     C 7151   0.180   2.857  14.704 -0.3082  0.0053 -1.2184
  481MPD2    C1 7152   0.043   2.881  14.701  0.2879 -0.5542 -0.2007
  481MPD2    C2 7153   4.702   2.919  14.821 -0.0249  0.7740 -0.5028
  481MPD2    C3 7154   0.054   2.925  14.941  0.2981 -0.2861 -0.1346
  481MPD2    C4 7155   0.190   2.904  14.930  0.4274 -0.3753 -0.2881
  481MPD2    C5 7156   0.257   2.885  14.811  0.1397  0.0463 -0.6244
  481MPD2     H 7157   4.601   2.953  14.804  0.0920  0.8249 -1.1036
  481MPD2    H1 7158   0.251   2.917  15.020 -0.2525 -1.4229  0.3163
  481MPD2    H2 7159   0.238   2.838  14.614 -0.2062  1.8071 -1.5414
  481MPD2    H3 7160   0.363   2.863  14.812  0.0049 -0.4811  1.5979
  481MPD2     N 7161   0.003   2.941  15.069  0.1033  0.1250 -0.0103
  481MPD2    H5 7162   0.063   2.941  15.151 -1.3828 -2.6926  1.0639
  481MPD2    N1 7163   4.697   2.852  14.582 -0.6733  0.3695 -0.5882
  481MPD2    H7 7164   0.020   2.835  14.492  3.1383  1.6166  1.0887
  482TMC3    C1 7165   4.512   2.801  14.445 -0.5453  0.0897  0.2555
  482TMC3    C2 7166   4.378   2.750  14.445  0.5817  0.4672  0.4519
  482TMC3    C3 7167   4.311   2.769  14.328 -0.4085 -0.0343  0.1278
  482TMC3    C4 7168   4.565   2.866  14.336 -0.7618  0.4111 -0.2141
  482TMC3    C5 7169   4.482   2.894  14.231 -0.5785 -1.2834  0.0070
  482TMC3    C6 7170   4.364   2.835  14.226 -0.1614  0.1111  0.1167
  482TMC3     C 7171   4.560   2.837  14.578  0.3616  0.2212 -0.3272
  482TMC3     O 7172   4.483   2.832  14.670  0.4991 -0.3919 -0.5209
  482TMC3     H 7173   4.319   2.725  14.532 -0.6783  3.1591  0.3532
  482TMC3    H1 7174   4.656   2.925  14.340 -0.2306 -0.4349  0.0401
  482TMC3    H2 7175   4.310   2.841  14.132 -0.3605 -0.6246  0.1871
  482TMC3    C7 7176   4.538   2.941  14.111 -0.2434 -0.3766  0.0152
  482TMC3    C8 7177   4.178   2.717  14.317 -0.2025  0.7969 -0.8459
  482TMC3    O1 7178   4.661   2.945  14.101 -0.4757 -0.4137 -0.4768
  482TMC3    O2 7179   4.149   2.633  14.397  0.3628  0.5644  0.8504
  483TMC3    C1 7180   1.454   1.894   0.919  0.4266 -0.2221  0.0573
  483TMC3    C2 7181   1.496   2.027   0.921 -0.0897  0.1978 -0.2494
  483TMC3    C3 7182   1.584   2.062   1.026 -0.4688  0.4557 -0.4054
  483TMC3    C4 7183   1.503   1.799   1.005  0.9992  0.0654 -0.0636
  483TMC3    C5 7184   1.596   1.834   1.099 -0.1821  0.0417 -0.1188
  483TMC3    C6 7185   1.627   1.967   1.118 -0.4160 -0.5226 -0.1176
  483TMC3     C 7186   1.362   1.851   0.814 -0.1811  0.2107 -0.1827
  483TMC3     O 7187   1.274   1.933   0.784 -0.0308 -0.6499 -0.8452
  483TMC3     H 7188   1.463   2.101   0.849 -1.8036 -0.1901  0.1530
  483TMC3    H1 7189   1.471   1.697   0.987  1.0668  0.0871 -0.3184
  483TMC3    H2 7190   1.714   1.991   1.178 -1.1709 -0.8690  1.1141
  483TMC3    C7 7191   1.702   1.739   1.094  0.0550 -0.1177  0.7979
  483TMC3    C8 7192   1.683   2.163   0.984  0.0805 -0.0608 -0.5452
  483TMC3    O1 7193   1.689   1.655   1.002  0.4962  0.1485 -0.4479
  483TMC3    O2 7194   1.705   2.163   0.865  0.1082 -0.1661 -0.2760
  484MPD2     C 7195   0.529   0.511  12.302  0.4336  0.2647  0.4657
  484MPD2    C1 7196   0.535   0.387  12.358  0.1990 -0.4857  0.1643
  484MPD2    C2 7197   0.656   0.320  12.358  0.0379 -0.3275  0.0680
  484MPD2    C3 7198   0.764   0.379  12.298  0.0958  0.2034  0.9672
  484MPD2    C4 7199   0.753   0.502  12.238  0.4595 -0.0581  0.5486
  484MPD2    C5 7200   0.632   0.563  12.234  0.4774 -0.6894  0.5102
  484MPD2     H 7201   0.659   0.222  12.404  0.2446 -0.3610 -0.0169
  484MPD2    H1 7202   0.841   0.546  12.192 -0.9520  1.7481 -0.4273
  484MPD2    H2 7203   0.438   0.568  12.284  0.5502  0.0193 -0.9682
  484MPD2    H3 7204   0.618   0.657  12.183  0.5886 -0.1668  1.4502
  484MPD2     N 7205   0.885   0.309  12.284 -0.4559  0.2523 -0.0851
  484MPD2    H5 7206   0.962   0.372  12.263 -0.0704 -0.0258  0.5110
  484MPD2    N1 7207   0.413   0.330  12.411 -0.2200 -0.2525  0.1299
  484MPD2    H7 7208   0.324   0.376  12.396  0.4335  1.3600  1.2657
  485TMC3    C1 7209   1.036   0.149  12.211 -0.7982  0.0801  0.2457
  485TMC3    C2 7210   1.069   0.016  12.224 -0.2076  0.2314  0.0115
  485TMC3    C3 7211   1.191   4.700  12.184 -0.3401 -0.0148 -0.4898
  485TMC3    C4 7212   1.120   0.243  12.153 -0.6250  0.7457 -0.1920
  485TMC3    C5 7213   1.239   0.198  12.113  0.4632 -0.0828 -0.0142
  485TMC3    C6 7214   1.279   0.067  12.137  0.0334  0.2389 -0.8976
  485TMC3     C 7215   0.897   0.178  12.253 -0.2550 -0.4522 -0.4849
  485TMC3     O 7216   0.812   0.089  12.238 -0.0718  0.4879 -0.0326
  485TMC3     H 7217   0.993   4.668  12.255 -0.1558 -0.1765 -0.8084
  485TMC3    H1 7218   1.090   0.342  12.123  0.0206  0.4939 -1.6781
  485TMC3    H2 7219   1.378   0.024  12.122  0.2708  0.7552 -0.8071
  485TMC3    C7 7220   1.295   0.255  11.997 -0.3812 -0.4096 -0.2720
  485TMC3    C8 7221   1.180   4.583  12.089  0.2536 -0.0797 -0.2484
  485TMC3    O1 7222   1.295   0.372  11.973  0.6192 -1.0473 -0.0477
  485TMC3    O2 7223   1.243   4.607  11.989  0.3151  0.4989 -0.3002
  486MPD2     C 7224   2.638   3.518  12.426 -0.0400  0.9666 -0.0941
  486MPD2    C1 7225   2.504   3.496  12.458  0.2237  0.0189 -0.1009
  486MPD2    C2 7226   2.411   3.600  12.466  0.5825  0.7400 -0.3715
  486MPD2    C3 7227   2.454   3.733  12.437  0.2167 -0.4062  0.6427
  486MPD2    C4 7228   2.584   3.755  12.395 -0.9965 -0.2404 -0.6015
  486MPD2    C5 7229   2.671   3.645  12.395 -0.0127 -0.4916  0.4626
  486MPD2     H 7230   2.308   3.583  12.494  0.0793  2.6014 -1.0853
  486MPD2    H1 7231   2.622   3.849  12.358  1.1127 -0.6816  0.4845
  486MPD2    H2 7232   2.711   3.439  12.416 -2.0921 -0.7638 -1.5494
  486MPD2    H3 7233   2.773   3.676  12.379 -0.1341 -0.4824 -0.3039
  486MPD2     N 7234   2.363   3.836  12.432 -0.0976  0.2698  0.4102
  486MPD2    H5 7235   2.267   3.809  12.446 -0.5144  1.4461 -0.1277
  486MPD2    N1 7236   2.481   3.366  12.494  0.3638 -0.2878  0.2488
  486MPD2    H7 7237   2.563   3.309  12.477  0.8755  0.7632 -0.7183
  487TMC3    C1 7238   2.353   3.175  12.568 -0.2200 -0.0930 -0.1853
  487TMC3    C2 7239   2.244   3.101  12.538  0.5620  0.4555  0.8180
  487TMC3    C3 7240   2.224   2.984  12.601  0.1217 -0.6979  0.0460
  487TMC3    C4 7241   2.437   3.147  12.666 -0.1485  0.1020 -0.0751
  487TMC3    C5 7242   2.400   3.042  12.743  0.4773  0.4444  1.0019
  487TMC3    C6 7243   2.313   2.948  12.696 -0.3708  0.5143  1.0101
  487TMC3     C 7244   2.356   3.318  12.529 -0.0095 -0.3562 -0.8059
  487TMC3     O 7245   2.249   3.378  12.520  0.5868  0.4818  0.4442
  487TMC3     H 7246   2.172   3.141  12.468  1.6173 -0.7088 -0.9379
  487TMC3    H1 7247   2.511   3.211  12.714 -0.4512 -0.3909  1.0588
  487TMC3    H2 7248   2.299   2.858  12.755 -0.3519 -1.1731 -1.5577
  487TMC3    C7 7249   2.387   3.079  12.884 -0.0535 -0.0410 -0.5491
  487TMC3    C8 7250   2.084   2.965  12.636  0.0919  0.0915  0.5185
  487TMC3    O1 7251   2.419   3.193  12.910  0.0374  0.0369  0.0975
  487TMC3    O2 7252   2.026   3.069  12.645 -0.4210  0.0022 -0.8299
  488MPD2     C 7253   2.418   0.692  16.312  0.0555  0.0463  0.4033
  488MPD2    C1 7254   2.448   0.829  16.320  0.4591  0.3769 -0.4918
  488MPD2    C2 7255   2.398   0.898  16.430  0.1093 -0.1804  0.1360
  488MPD2    C3 7256   2.320   0.836  16.525  0.2990 -0.5772 -0.5939
  488MPD2    C4 7257   2.281   0.707  16.509 -0.3812  0.4600 -0.3625
  488MPD2    C5 7258   2.324   0.636  16.399  0.0923  0.2367 -1.0331
  488MPD2     H 7259   2.427   1.000  16.455  0.0048  0.2880 -1.5851
  488MPD2    H1 7260   2.211   0.658  16.575 -0.7779  0.3931 -0.8281
  488MPD2    H2 7261   2.451   0.629  16.230  0.3937 -0.7954  1.1838
  488MPD2    H3 7262   2.292   0.533  16.393 -0.4274  0.2583  1.5913
  488MPD2     N 7263   2.278   0.912  16.638  0.3599  0.1108  0.1035
  488MPD2    H5 7264   2.301   1.010  16.631  2.7530 -0.5067 -0.8140
  488MPD2    N1 7265   2.534   0.887  16.221 -0.2225  0.2515  0.1208
  488MPD2    H7 7266   2.539   0.988  16.213  2.0748  0.1779  0.6652
  489TMC3    C1 7267   2.152   0.986  16.819 -0.3830 -0.8385 -0.3496
  489TMC3    C2 7268   2.248   1.086  16.855 -0.3606 -0.1734  0.9079
  489TMC3    C3 7269   2.205   1.188  16.942 -0.0225  0.0172  0.6004
  489TMC3    C4 7270   2.020   1.007  16.852 -0.5559  1.0679  0.5643
  489TMC3    C5 7271   1.985   1.120  16.929  0.6458  0.1015  0.0852
  489TMC3    C6 7272   2.075   1.214  16.976 -0.2084  0.5439  0.2646
  489TMC3     C 7273   2.193   0.877  16.739 -0.3514  0.3019 -0.9439
  489TMC3     O 7274   2.134   0.771  16.754  0.3720  0.5974  0.5067
  489TMC3     H 7275   2.355   1.073  16.845 -0.8690 -2.0114 -2.0815
  489TMC3    H1 7276   1.939   0.948  16.811  2.3474  0.3433 -4.0778
  489TMC3    H2 7277   2.045   1.285  17.052  0.9988  0.4313  0.8396
  489TMC3    C7 7278   1.862   1.124  16.994 -0.3788  0.6142 -0.2582
  489TMC3    C8 7279   2.305   1.298  16.948  0.4369 -0.1247 -0.2954
  489TMC3    O1 7280   1.817   1.236  17.014  0.2687 -0.2748  0.0289
  489TMC3    O2 7281   2.423   1.275  16.937  0.2376 -0.1795  0.1925
  490MPD2     C 7282   3.557   0.626  17.596  0.0439  0.5777  0.1658
  490MPD2    C1 7283   3.559   0.520  17.688 -0.2792  0.3319 -0.2898
  490MPD2    C2 7284   3.607   0.546   0.122 -0.1102 -0.3024 -0.1231
  490MPD2    C3 7285   3.675   0.666   0.145 -0.5172  0.8955  0.0410
  490MPD2    C4 7286   3.666   0.770   0.052  0.4188 -0.0924  0.5951
  490MPD2    C5 7287   3.608   0.750  17.619 -0.5703 -0.9656  0.0134
  490MPD2     H 7288   3.620   0.473   0.202  1.3609 -1.1341 -1.1169
  490MPD2    H1 7289   3.715   0.867   0.061  1.0839 -0.3156 -0.4850
  490MPD2    H2 7290   3.508   0.617  17.500  0.1373  2.4562 -0.0606
  490MPD2    H3 7291   3.596   0.828  17.544  1.8143 -0.0877  0.5677
  490MPD2     N 7292   3.727   0.675   0.270  0.2487  0.7440  0.5624
  490MPD2    H5 7293   3.705   0.601   0.336 -2.1696  1.4808  0.5780
  490MPD2    N1 7294   3.509   0.387  17.653  0.3437 -0.0040  0.6443
  490MPD2    H7 7295   3.521   0.315   0.031 -0.5463 -1.8492 -1.1213
  491TMC3    C1 7296   3.461   0.209  17.515  0.4212  0.4330 -0.5052
  491TMC3    C2 7297   3.410   0.141  17.623 -0.4284  0.0835  0.2499
  491TMC3    C3 7298   3.363   0.014  17.604 -0.3343 -0.5035  0.1966
  491TMC3    C4 7299   3.459   0.152  17.386  0.7358 -0.6051 -0.0201
  491TMC3    C5 7300   3.405   0.025  17.374  0.0957  0.2010 -0.4389
  491TMC3    C6 7301   3.354   4.683  17.482 -0.8137 -0.2175  0.0888
  491TMC3     C 7302   3.491   0.347  17.524 -0.3800  0.2110  0.7137
  491TMC3     O 7303   3.518   0.405  17.419 -0.4312  0.7243  0.2978
  491TMC3     H 7304   3.385   0.198   0.020 -2.2496  0.1201 -0.2902
  491TMC3    H1 7305   3.519   0.195  17.307  1.7938 -2.1976 -0.0940
  491TMC3    H2 7306   3.321   4.580  17.475  1.4024 -0.7785 -2.0320
  491TMC3    C7 7307   3.308   0.010  17.262 -0.3906  0.0970  0.2256
  491TMC3    C8 7308   3.270   4.684   0.009  0.3412  0.0464  0.7107
  491TMC3    O1 7309   3.251   4.625  17.270 -0.2264 -0.5701  0.3614
  491TMC3    O2 7310   3.170   4.634  17.646  0.2164  0.4069 -0.4178
  492MPD2     C 7311   4.001   0.438  11.586  0.5643 -0.1628 -0.5229
  492MPD2    C1 7312   3.941   0.350  11.504  0.2386  0.0614 -0.6344
  492MPD2    C2 7313   3.897   0.226  11.556 -0.3184 -0.1020  0.1076
  492MPD2    C3 7314   3.907   0.202  11.692 -0.5345 -0.2010 -0.1636
  492MPD2    C4 7315   3.972   0.296  11.768 -0.6854 -0.3943 -0.1849
  492MPD2    C5 7316   4.018   0.414  11.718  0.0504 -0.1258  0.0739
  492MPD2     H 7317   3.854   0.147  11.495 -1.6787  0.5917  0.1627
  492MPD2    H1 7318   3.987   0.275  11.873 -1.2090  2.5781  0.4786
  492MPD2    H2 7319   4.038   0.534  11.550 -0.6136  0.1248 -0.9421
  492MPD2    H3 7320   4.070   0.480  11.787 -0.1721 -0.0425  0.1648
  492MPD2     N 7321   3.853   0.090  11.763 -0.4765 -0.3595 -0.0777
  492MPD2    H5 7322   3.831   0.097  11.861  0.5427 -2.3221  0.2807
  492MPD2    N1 7323   3.943   0.389  11.363  0.0226  0.2855  0.2126
  492MPD2    H7 7324   3.989   0.478  11.348  2.0409 -0.8443 -0.3918
  493TMC3    C1 7325   3.943   0.354  11.124  0.2470 -0.0547 -0.2116
  493TMC3    C2 7326   4.012   0.469  11.114 -0.4881 -0.2201  0.1875
  493TMC3    C3 7327   4.024   0.529  10.991 -0.1318  0.4735  0.2296
  493TMC3    C4 7328   3.895   0.287  11.014  0.0767  0.3480  0.3187
  493TMC3    C5 7329   3.917   0.350  10.895 -0.5646 -0.3255  0.1004
  493TMC3    C6 7330   3.973   0.467  10.879  0.3895  0.2620  0.0300
  493TMC3     C 7331   3.894   0.317  11.260 -0.1533  0.3796  0.4661
  493TMC3     O 7332   3.826   0.214  11.256 -0.6394 -0.0433 -0.3681
  493TMC3     H 7333   4.064   0.512  11.199  1.8189 -0.6017 -1.0145
  493TMC3    H1 7334   3.849   0.189  11.022  1.2963 -0.2462  0.0338
  493TMC3    H2 7335   3.950   0.528  10.792  0.2985 -1.2349 -0.9931
  493TMC3    C7 7336   3.854   0.289  10.779 -0.2696 -0.0341  0.2394
  493TMC3    C8 7337   4.084   0.664  10.984 -0.0214  0.3956  0.0543
  493TMC3    O1 7338   3.758   0.218  10.800  0.4859  0.2625  0.0074
  493TMC3    O2 7339   4.084   0.726  11.087  0.4676  0.2302 -0.0890
  494TMC3    C1 7340   3.511   2.240   0.094  0.2751  0.1399 -0.0289
  494TMC3    C2 7341   3.461   2.143   0.176  0.0025 -0.4592  0.3687
  494TMC3    C3 7342   3.555   2.059   0.236  0.0210 -0.1428  0.1936
  494TMC3    C4 7343   3.639   2.226   0.042 -0.0526  0.3843 -0.6796
  494TMC3    C5 7344   3.725   2.133   0.096 -0.0905  0.4078 -0.1891
  494TMC3    C6 7345   3.687   2.050   0.201 -0.1184 -0.6819 -0.0336
  494TMC3     C 7346   3.498   2.378   0.154 -0.5523 -0.5422  0.0391
  494TMC3     O 7347   3.567   2.470   0.103  0.0151 -0.1641 -0.0466
  494TMC3     H 7348   3.359   2.164   0.208  0.3034 -1.9635  2.3624
  494TMC3    H1 7349   3.689   2.300  17.672  1.2951 -0.6856 -0.8687
  494TMC3    H2 7350   3.759   1.980   0.242 -1.0687 -0.6751  1.6193
  494TMC3    C7 7351   3.864   2.126   0.049  0.0411  0.0001 -0.0051
  494TMC3    C8 7352   3.539   2.040   0.384  0.1786 -0.1758  0.3620
  494TMC3    O1 7353   3.872   2.177  17.633 -0.2974  0.0362 -0.2131
  494TMC3    O2 7354   3.643   2.048   0.447  0.2920 -0.0518 -0.1777
  495TMC3    C1 7355   3.184   3.867  14.696  0.0598 -0.1628 -1.0009
  495TMC3    C2 7356   3.082   3.883  14.604  0.1563  0.0253 -0.1020
  495TMC3    C3 7357   2.980   3.971  14.635 -0.1773 -0.4071  0.1658
  495TMC3    C4 7358   3.196   3.934  14.816  0.1382  0.2042  0.1601
  495TMC3    C5 7359   3.089   4.020  14.848 -0.3122  0.2137 -0.1653
  495TMC3    C6 7360   2.983   4.040  14.756  0.1034  0.2336 -0.0331
  495TMC3     C 7361   3.270   3.751  14.680 -0.1212  0.1717  0.6540
  495TMC3     O 7362   3.377   3.754  14.730  0.1109 -1.0381 -0.3704
  495TMC3     H 7363   3.065   3.814  14.522  3.8843 -1.2091  0.1610
  495TMC3    H1 7364   3.273   3.902  14.885  0.0382 -1.3632 -0.4528
  495TMC3    H2 7365   2.904   4.107  14.787  1.2782  1.1853  0.9155
  495TMC3    C7 7366   3.063   4.017  14.991 -0.2137  0.3303  0.2695
  495TMC3    C8 7367   2.852   3.965  14.565  0.5312  0.3114  0.5770
  495TMC3    O1 7368   3.095   3.907  15.039  0.9403  0.6845  0.0914
  495TMC3    O2 7369   2.763   3.906  14.617 -0.5555 -0.0729 -0.6744
  496MPD2     C 7370   0.124   3.589  15.032  0.1412 -0.5586  1.0760
  496MPD2    C1 7371   0.219   3.595  15.137  0.4890 -0.8139  0.4307
  496MPD2    C2 7372   0.172   3.615  15.260  0.2149 -0.0689 -0.0108
  496MPD2    C3 7373   0.030   3.621  15.284 -0.3995  0.4386  0.0162
  496MPD2    C4 7374   4.661   3.625  15.176 -0.6613 -0.2517 -0.1878
  496MPD2    C5 7375   4.712   3.604  15.048 -0.0679  0.2316  0.1906
  496MPD2     H 7376   0.239   3.613  15.345  0.2129 -1.8043 -0.0582
  496MPD2    H1 7377   4.554   3.641  15.185 -0.6240  0.3750 -0.8562
  496MPD2    H2 7378   0.175   3.581  14.937 -1.1729 -1.9663  0.5059
  496MPD2    H3 7379   4.649   3.600  14.960 -1.0412  1.4244  0.8257
  496MPD2     N 7380   4.690   3.634  15.412  0.1873  0.1464 -0.5549
  496MPD2    H5 7381   4.590   3.618  15.412 -0.0287  1.4631  0.6812
  496MPD2    N1 7382   0.350   3.572  15.099 -0.2724  0.5084  0.1332
  496MPD2    H7 7383   0.376   3.559  15.001  1.5532 -1.6867  0.9132
  497TMC3    C1 7384   4.653   3.602  15.644 -0.8795 -0.3833 -0.9428
  497TMC3    C2 7385   4.535   3.676  15.646 -0.0745  0.1089 -0.4041
  497TMC3    C3 7386   4.451   3.683  15.751  0.5786 -0.1247 -0.2862
  497TMC3    C4 7387   4.702   3.543  15.756 -0.8020  0.1701  0.1129
  497TMC3    C5 7388   4.622   3.564  15.865 -0.2879 -0.3342  0.2523
  497TMC3    C6 7389   4.495   3.619  15.865 -0.7961  0.1599 -0.6276
  497TMC3     C 7390   0.030   3.621  15.540  0.2494  0.8415 -0.0805
  497TMC3     O 7391   0.151   3.605  15.559  0.2685  0.1722 -0.4333
  497TMC3     H 7392   4.504   3.723  15.553 -1.2852  1.1808  0.5313
  497TMC3    H1 7393   0.076   3.493  15.766 -0.1110  1.2786 -0.9741
  497TMC3    H2 7394   4.437   3.608  15.956 -0.8534  0.3927 -0.6349
  497TMC3    C7 7395   4.653   3.486  15.977 -0.3971 -0.1508 -0.0826
  497TMC3    C8 7396   4.335   3.769  15.750  0.1892 -0.2979  0.4662
  497TMC3    O1 7397   4.568   3.400  16.011  0.0174  0.1972  0.2456
  497TMC3    O2 7398   4.307   3.801  15.636  0.0065 -0.1038 -0.2570
  498MPD2     C 7399   0.501   4.578  10.159 -0.6389  0.1000  0.5305
  498MPD2    C1 7400   0.509   4.460  10.086 -0.3478 -0.4571  0.6307
  498MPD2    C2 7401   0.409   4.364  10.097 -0.1320 -0.3665  0.5050
  498MPD2    C3 7402   0.327   4.375  10.205 -0.6192  0.1794  0.3012
  498MPD2    C4 7403   0.326   4.484  10.287 -0.6364  0.2057 -0.3612
  498MPD2    C5 7404   0.415   4.586  10.265 -0.2297  0.1147  0.4648
  498MPD2     H 7405   0.403   4.280  10.029 -2.0187  1.1484 -1.2041
  498MPD2    H1 7406   0.248   4.498  10.360  0.4187 -2.9525  1.3532
  498MPD2    H2 7407   0.562   4.663  10.134 -0.1547 -1.1644 -2.5198
  498MPD2    H3 7408   0.421   4.677  10.322  0.1472  1.2872 -1.4511
  498MPD2     N 7409   0.230   4.274  10.236 -0.2587 -0.1776 -0.5815
  498MPD2    H5 7410   0.181   4.283  10.324  2.0697 -2.9532  0.9926
  498MPD2    N1 7411   0.602   4.441   9.979 -0.3427 -0.4408  0.2812
  498MPD2    H7 7412   0.585   4.357   9.924 -0.8191  0.5712 -1.1076
  499TMC3    C1 7413   0.800   4.457   9.840  0.4021 -0.4639  0.0090
  499TMC3    C2 7414   0.808   4.323   9.833 -0.4943  0.5309 -0.4620
  499TMC3    C3 7415   0.902   4.269   9.753 -0.3540  0.1743 -0.4614
  499TMC3    C4 7416   0.902   4.538   9.793 -1.1127 -0.1725 -0.2521
  499TMC3    C5 7417   0.998   4.474   9.711 -0.5529 -0.1844 -0.5422
  499TMC3    C6 7418   0.992   4.342   9.684 -0.1348  0.2548  0.2820
  499TMC3     C 7419   0.701   4.522   9.931  1.0395  0.9477  0.1445
  499TMC3     O 7420   0.733   4.634   9.973  0.5789 -0.1325 -0.0833
  499TMC3     H 7421   0.735   4.264   9.888  0.1951  0.8495  0.8068
  499TMC3    H1 7422   0.906   4.646   9.806  3.1521 -0.2280 -0.9116
  499TMC3    H2 7423   1.061   4.289   9.621 -0.2384 -0.3161  0.6520
  499TMC3    C7 7424   1.125   4.532   9.688 -0.3712 -0.0322  0.7353
  499TMC3    C8 7425   0.921   4.132   9.745 -0.3650  0.7228 -0.7197
  499TMC3    O1 7426   1.200   4.467   9.612 -0.5179 -0.3268  0.1941
  499TMC3    O2 7427   0.974   4.079   9.647 -0.1523  0.4084  0.0886
  500MPD2     C 7428   2.922   1.211  10.440  0.0757 -0.4444  0.3897
  500MPD2    C1 7429   2.937   1.202  10.306 -0.4369 -0.0969  0.4909
  500MPD2    C2 7430   2.832   1.154  10.229 -0.3457  0.0002 -1.0307
  500MPD2    C3 7431   2.708   1.119  10.291 -0.5550  0.7812 -0.0855
  500MPD2    C4 7432   2.699   1.126  10.430  0.2327 -0.8500  0.0527
  500MPD2    C5 7433   2.803   1.177  10.494  0.0369  0.1402  0.3910
  500MPD2     H 7434   2.840   1.155  10.121 -0.7750 -2.2040 -1.0865
  500MPD2    H1 7435   2.613   1.085  10.482 -0.2640  1.6035  1.1705
  500MPD2    H2 7436   3.002   1.237  10.508 -0.1099 -0.1058  0.4779
  500MPD2    H3 7437   2.794   1.174  10.602  2.3390  1.1565  0.5961
  500MPD2     N 7438   2.604   1.047  10.222 -0.5986  0.4920 -0.0330
  500MPD2    H5 7439   2.520   1.018  10.272  1.5947 -2.1405  2.1376
  500MPD2    N1 7440   3.066   1.223  10.249 -0.1980 -0.1604  0.1949
  500MPD2    H7 7441   3.065   1.210  10.148 -1.0378 -0.2480  0.2076
  501TMC3    C1 7442   3.310   1.233  10.246 -0.0547 -0.1199  0.0369
  501TMC3    C2 7443   3.313   1.340  10.164 -0.4225  0.4415 -0.2124
  501TMC3    C3 7444   3.432   1.402  10.127  0.6467 -0.2555  0.4538
  501TMC3    C4 7445   3.421   1.182  10.294  0.6261  0.1351 -0.5765
  501TMC3    C5 7446   3.538   1.244  10.269  0.0812  0.6868 -0.0185
  501TMC3    C6 7447   3.545   1.343  10.172 -0.1772  0.2521 -0.2177
  501TMC3     C 7448   3.187   1.209  10.319  0.4419  0.2087  0.8146
  501TMC3     O 7449   3.204   1.159  10.429  0.1239 -0.9732  0.2168
  501TMC3     H 7450   3.218   1.380  10.130 -0.5797 -0.6383 -1.0392
  501TMC3    H1 7451   3.417   1.100  10.364 -0.2994  0.6213 -0.0598
  501TMC3    H2 7452   3.639   1.392  10.149  0.8992 -1.2407  1.0102
  501TMC3    C7 7453   3.632   1.249  10.381 -0.4697  0.0338  0.3971
  501TMC3    C8 7454   3.439   1.546  10.163  0.5809  0.2656 -0.1209
  501TMC3    O1 7455   3.643   1.154  10.453 -0.4801  0.5342  0.2897
  501TMC3    O2 7456   3.508   1.571  10.264  0.2746 -0.5024  0.4697
  502TMC3    C1 7457   2.310   4.149  15.089 -0.1865  0.0823  0.1461
  502TMC3    C2 7458   2.335   4.253  15.002 -0.1207  0.5172 -0.1021
  502TMC3    C3 7459   2.259   4.372  15.004 -0.1780 -0.1404 -0.2096
  502TMC3    C4 7460   2.178   4.147  15.136  0.5967  0.4816  0.8996
  502TMC3    C5 7461   2.100   4.257  15.126  0.3720 -0.1362 -0.3101
  502TMC3    C6 7462   2.141   4.375  15.070 -0.6026  0.4635  0.6722
  502TMC3     C 7463   2.412   4.157  15.192 -0.0404 -0.3270 -0.1702
  502TMC3     O 7464   2.520   4.195  15.154  0.1056  0.5605  0.2695
  502TMC3     H 7465   2.432   4.239  14.956 -0.5793  1.2947 -1.3094
  502TMC3    H1 7466   2.153   4.055  15.189 -0.9009 -0.0227 -0.6628
  502TMC3    H2 7467   2.078   4.463  15.070  0.8135  1.4643 -0.9355
  502TMC3    C7 7468   2.004   4.269  15.237  0.8406  0.7522  0.0277
  502TMC3    C8 7469   2.333   4.499  15.007 -0.2854  0.4710  0.1947
  502TMC3    O1 7470   2.029   4.199  15.333 -0.0581 -0.7074 -0.3611
  502TMC3    O2 7471   2.269   4.602  15.004 -0.2895  0.1550 -0.4169
  503MPD2     C 7472   4.248   0.857  16.863  0.0896  0.6122 -0.0340
  503MPD2    C1 7473   4.288   0.894  16.987 -0.2298  0.5098 -0.7301
  503MPD2    C2 7474   4.355   0.808  17.074  0.8425 -0.1078 -0.2242
  503MPD2    C3 7475   4.401   0.686  17.022 -0.9948 -0.0511  0.0274
  503MPD2    C4 7476   4.363   0.650  16.895 -0.3163 -0.0375  0.0571
  503MPD2    C5 7477   4.297   0.740  16.816 -0.4101  0.6511 -0.0940
  503MPD2     H 7478   4.379   0.837  17.176  0.5614  0.0172 -0.1946
  503MPD2    H1 7479   4.393   0.561  16.842  0.2022  0.2899 -0.1928
  503MPD2    H2 7480   4.191   0.916  16.792  0.3880 -1.0667 -1.6552
  503MPD2    H3 7481   4.275   0.700  16.717  1.5852  0.6877 -0.5431
  503MPD2     N 7482   4.479   0.600  17.099 -0.3790 -0.9154  0.6385
  503MPD2    H5 7483   4.485   0.626  17.197 -0.7132  1.7297 -0.0210
  503MPD2    N1 7484   4.262   1.016  17.042  0.0457  0.0038  0.3553
  503MPD2    H7 7485   4.303   1.035  17.133 -0.5926  3.7301 -0.1421
  504TMC3    C1 7486   4.652   0.439  17.142 -0.3242  0.1125 -0.3788
  504TMC3    C2 7487   4.660   0.472  17.274 -0.3998 -0.4582 -0.7777
  504TMC3    C3 7488   0.024   0.400  17.351  0.7574  0.0213 -0.1095
  504TMC3    C4 7489   0.033   0.377  17.086 -0.7769 -0.3869 -0.9818
  504TMC3    C5 7490   0.121   0.305  17.165  0.3260 -0.4769  0.8438
  504TMC3    C6 7491   0.120   0.320  17.304  0.3330 -0.6403 -0.3206
  504TMC3     C 7492   4.546   0.495  17.052 -0.3594  0.1680  0.1506
  504TMC3     O 7493   4.526   0.427  16.950 -0.3108  0.2904 -0.8557
  504TMC3     H 7494   4.575   0.516  17.324  1.2917 -2.0712  3.4510
  504TMC3    H1 7495   0.026   0.363  16.978 -1.9425  0.0612 -0.9680
  504TMC3    H2 7496   0.188   0.283  17.381  0.2011  1.5414  0.8301
  504TMC3    C7 7497   0.195   0.201  17.096  0.2141 -0.5459 -0.0660
  504TMC3    C8 7498   0.045   0.463  17.483 -0.8616  0.0742  0.4963
  504TMC3    O1 7499   0.207   0.213  16.974 -0.0302  0.0408  0.1526
  504TMC3    O2 7500   0.014   0.582  17.492 -0.1381  0.0122 -0.1106
  505MPD2     C 7501   3.826   3.388  10.698 -0.0185 -0.3045 -0.3372
  505MPD2    C1 7502   3.939   3.307  10.712  0.8348 -0.0108 -0.9465
  505MPD2    C2 7503   4.029   3.337  10.812  0.8468 -0.1197 -0.8074
  505MPD2    C3 7504   4.011   3.436  10.903  0.0335 -0.2467  0.4005
  505MPD2    C4 7505   3.902   3.514  10.894 -0.1328 -0.5896  0.1574
  505MPD2    C5 7506   3.806   3.489  10.793  0.2644 -0.4956 -0.2436
  505MPD2     H 7507   4.126   3.289  10.826  0.7467  0.6994  2.6966
  505MPD2    H1 7508   3.879   3.593  10.964  1.5208 -0.0643  0.0993
  505MPD2    H2 7509   3.756   3.384  10.616 -0.5835 -0.4911  0.1477
  505MPD2    H3 7510   3.717   3.550  10.779 -0.7074 -1.9068 -0.1517
  505MPD2     N 7511   4.111   3.450  11.003 -0.2480 -0.0578 -0.9225
  505MPD2    H5 7512   4.182   3.379  11.006 -0.4228 -0.0658  2.5711
  505MPD2    N1 7513   3.967   3.206  10.614  1.1107 -0.2829  0.2957
  505MPD2    H7 7514   3.900   3.203  10.537 -0.9667 -0.3997  2.1070
  506TMC3    C1 7515   4.107   3.063  10.475  0.5205 -0.4960 -0.1535
  506TMC3    C2 7516   4.088   3.143  10.367  0.3071  0.0047 -0.7136
  506TMC3    C3 7517   4.183   3.128  10.263 -0.2303  1.1338  0.0332
  506TMC3    C4 7518   4.210   2.975  10.485  0.2816 -0.3693 -0.5510
  506TMC3    C5 7519   4.305   2.985  10.391 -0.1040  0.4864 -0.8465
  506TMC3    C6 7520   4.301   3.066  10.279  1.1269 -0.1566 -0.1476
  506TMC3     C 7521   4.086   3.134  10.601 -0.9672  0.3087  0.1553
  506TMC3     O 7522   4.181   3.127  10.675  0.3106  0.1479  0.1277
  506TMC3     H 7523   4.014   3.222  10.363  0.3378  0.0430 -0.5483
  506TMC3    H1 7524   4.224   2.913  10.573  0.6876 -0.6331 -0.7969
  506TMC3    H2 7525   4.379   3.063  10.205  0.4032 -0.8129 -0.8851
  506TMC3    C7 7526   4.434   2.998  10.453  0.8547 -0.3569  0.4748
  506TMC3    C8 7527   4.172   3.224  10.158 -0.0349  0.4402  0.0254
  506TMC3    O1 7528   4.531   2.991  10.379  0.0391  0.5454 -0.5490
  506TMC3    O2 7529   4.065   3.246  10.107  0.4919  0.3962 -0.0105
  507TMC3    C1 7530   0.296   0.118  14.328 -0.7260 -0.6396 -0.0388
  507TMC3    C2 7531   0.418   0.062  14.294  0.6221  0.2792  0.0296
  507TMC3    C3 7532   0.484   4.698  14.380 -0.0041 -0.0683 -0.3482
  507TMC3    C4 7533   0.243   0.109  14.449  0.4602  0.0549  0.1126
  507TMC3    C5 7534   0.302   0.010  14.529  0.1882 -0.6129 -0.0266
  507TMC3    C6 7535   0.416   4.665  14.490 -0.4620 -0.7542  0.1371
  507TMC3     C 7536   0.245   0.231  14.252  0.8957  0.3387 -0.9261
  507TMC3     O 7537   0.312   0.273  14.158 -0.8043  0.2609  0.0544
  507TMC3     H 7538   0.465   0.067  14.196  3.9776 -1.0725  1.5597
  507TMC3    H1 7539   0.150   0.159  14.472  0.3182 -0.5857  0.9396
  507TMC3    H2 7540   0.457   4.592  14.560  0.7045 -1.7645 -1.5874
  507TMC3    C7 7541   0.302   0.057  14.669  0.3435  0.1016 -0.7054
  507TMC3    C8 7542   0.611   0.026  14.418 -0.0991  0.3715 -0.5513
  507TMC3    O1 7543   0.192   0.080  14.723 -0.1961  0.2030  0.5907
  507TMC3    O2 7544   0.639   0.031  14.536  0.2964 -0.4092  0.5481
  508MPD2     C 7545   2.217   2.484  15.905 -0.1685  0.0591  0.0881
  508MPD2    C1 7546   2.152   2.592  15.963 -0.0468  0.5734  0.2985
  508MPD2    C2 7547   2.085   2.686  15.886 -0.3596 -0.5966 -0.4676
  508MPD2    C3 7548   2.069   2.669  15.750  1.2520 -0.2146 -0.2161
  508MPD2    C4 7549   2.106   2.546  15.702  0.3087 -0.0901  0.3486
  508MPD2    C5 7550   2.188   2.466  15.772 -0.3377  0.1497  0.6126
  508MPD2     H 7551   2.048   2.775  15.934  1.7510  0.0500 -0.0157
  508MPD2    H1 7552   2.075   2.511  15.604 -0.1988 -1.6966  1.0818
  508MPD2    H2 7553   2.280   2.406  15.944  0.9730  0.7619 -0.3386
  508MPD2    H3 7554   2.233   2.380  15.724 -0.1128  0.3055  0.5410
  508MPD2     N 7555   2.013   2.775  15.673  0.2132 -0.3131 -0.0852
  508MPD2    H5 7556   1.990   2.861  15.722  1.8140  0.3008 -0.4155
  508MPD2    N1 7557   2.163   2.600  16.102  0.1129 -0.0069  0.1577
  508MPD2    H7 7558   2.190   2.513  16.147 -0.6319  0.2171  1.0368
  509TMC3    C1 7559   1.798   3.074  15.507  0.1173 -0.4469  0.3621
  509TMC3    C2 7560   1.864   3.128  15.400  0.1006 -0.4499  0.7245
  509TMC3    C3 7561   1.963   3.069  15.330  0.7328  0.2311  0.2787
  509TMC3    C4 7562   1.845   2.952  15.548 -0.8763 -0.1399 -0.0224
  509TMC3    C5 7563   1.944   2.886  15.478  0.8204  0.3837  0.5040
  509TMC3    C6 7564   2.000   2.943  15.362  0.2410 -0.6283 -0.0278
  509TMC3     C 7565   1.745   3.173  15.599  0.3008 -0.3992  0.6208
  509TMC3     O 7566   1.800   3.176  15.710  0.1583 -0.0553  0.6134
  509TMC3     H 7567   1.824   3.224  15.368 -0.4536 -1.6593 -2.2044
  509TMC3    H1 7568   1.798   2.908  15.635 -1.0777  1.0527  0.4741
  509TMC3    H2 7569   2.082   2.885  15.320  2.3390  1.3446  1.3663
  509TMC3    C7 7570   2.018   2.775  15.539 -0.4543  0.5009  0.7037
  509TMC3    C8 7571   2.085   3.144  15.309  0.1726 -0.2266  0.2166
  509TMC3    O1 7572   2.058   2.693  15.455 -0.0501  0.5733 -0.0162
  509TMC3    O2 7573   2.169   3.094  15.237  0.0362  0.1596  0.2781
  510MPD2     C 7574   4.545   4.340  14.914  0.7961  0.4855  0.1364
  510MPD2    C1 7575   4.566   4.206  14.884 -0.4079 -0.1730  0.2099
  510MPD2    C2 7576   4.672   4.174  14.796 -0.7091 -0.8948 -0.6994
  510MPD2    C3 7577   0.023   4.275  14.732  0.1637  1.2506  1.1859
  510MPD2    C4 7578   4.713   4.406  14.762  0.5674 -0.2034 -0.2626
  510MPD2    C5 7579   4.611   4.438  14.852  0.5810  0.0545  0.1187
  510MPD2     H 7580   4.698   4.070  14.779 -1.5957 -1.2207 -0.0332
  510MPD2    H1 7581   0.046   4.492  14.727  0.6710 -0.1973 -0.0887
  510MPD2    H2 7582   4.465   4.371  14.980 -0.3163  0.7426 -1.3299
  510MPD2    H3 7583   4.582   4.538  14.881 -0.8843 -0.4505  0.3578
  510MPD2     N 7584   0.126   4.241  14.639 -0.1894  0.3096  0.0887
  510MPD2    H5 7585   0.136   4.143  14.612  1.8900 -0.1646  2.5050
  510MPD2    N1 7586   4.478   4.118  14.942  1.1875 -0.3135 -0.3617
  510MPD2    H7 7587   4.438   4.144  15.033  0.8367 -0.4678 -0.4712
  511TMC3    C1 7588   4.340   3.926  14.963 -0.3458 -0.2382 -0.6945
  511TMC3    C2 7589   4.254   3.988  15.049  0.1373 -0.5328  0.1299
  511TMC3    C3 7590   4.144   3.920  15.090  0.4567  0.2523 -0.0982
  511TMC3    C4 7591   4.330   3.789  14.936  0.8021  0.0358  0.9332
  511TMC3    C5 7592   4.219   3.727  14.982 -0.4797 -0.3400 -0.6093
  511TMC3    C6 7593   4.125   3.784  15.059 -0.0368 -0.5393 -0.6659
  511TMC3     C 7594   4.455   3.989  14.896 -0.6507 -0.6785 -0.4161
  511TMC3     O 7595   4.499   3.930  14.800  0.2644 -0.1508  0.8596
  511TMC3     H 7596   4.255   4.093  15.075 -0.2388 -0.5344  0.1455
  511TMC3    H1 7597   4.402   3.735  14.876  1.9832  0.1622  2.2291
  511TMC3    H2 7598   4.028   3.744  15.087 -0.3294  1.0555  0.6618
  511TMC3    C7 7599   4.178   3.612  14.907  0.4444  0.5935  0.8817
  511TMC3    C8 7600   4.061   3.996  15.179  0.5467 -0.4042 -0.8173
  511TMC3    O1 7601   4.212   3.613  14.790 -0.2306  0.3785 -0.6670
  511TMC3    O2 7602   4.052   4.118  15.176 -0.4592 -0.2538 -0.4558
  512TMC3    C1 7603   2.917   3.397  13.223  0.2252 -0.8921  0.0125
  512TMC3    C2 7604   2.993   3.349  13.329 -0.0250  0.2217 -0.1559
  512TMC3    C3 7605   3.020   3.216  13.316 -0.3386 -0.3682  0.4770
  512TMC3    C4 7606   2.879   3.330  13.110  0.6471  0.2070 -0.0314
  512TMC3    C5 7607   2.891   3.196  13.117 -0.1600 -0.4400 -0.8325
  512TMC3    C6 7608   2.971   3.135  13.214  0.8299 -0.1947 -0.0500
  512TMC3     C 7609   2.891   3.537  13.229  0.2249  0.7190  0.6937
  512TMC3     O 7610   2.981   3.600  13.287 -0.1083  0.6229  0.5390
  512TMC3     H 7611   3.018   3.419  13.408  0.1125 -0.8162  0.7139
  512TMC3    H1 7612   2.824   3.383  13.034 -1.6854 -1.2935  0.6017
  512TMC3    H2 7613   2.982   3.028  13.226 -2.7340 -0.4127  1.6077
  512TMC3    C7 7614   2.825   3.116  13.013 -0.4112 -0.5826 -0.1304
  512TMC3    C8 7615   3.080   3.150  13.435  0.1940  0.1056 -0.0525
  512TMC3    O1 7616   2.772   3.173  12.921 -0.0644 -0.5775 -0.1827
  512TMC3    O2 7617   3.107   3.027  13.429 -0.1774 -0.2622 -0.0085
  513MPD2     C 7618   0.440   4.049  13.048  0.3273 -0.2673  0.5524
  513MPD2    C1 7619   0.368   3.931  13.071  0.1776  0.1294 -0.8814
  513MPD2    C2 7620   0.397   3.858  13.187 -0.6370  0.0038 -0.2406
  513MPD2    C3 7621   0.515   3.873  13.261 -0.3971  0.2530  0.8882
  513MPD2    C4 7622   0.597   3.986  13.232 -0.2574  0.3653  0.5992
  513MPD2    C5 7623   0.550   4.077  13.135  0.2853 -0.2721  0.3886
  513MPD2     H 7624   0.327   3.783  13.221 -0.6749 -0.2915 -0.9745
  513MPD2    H1 7625   0.683   4.008  13.293  1.0422 -1.2361 -0.6565
  513MPD2    H2 7626   0.431   4.108  12.957  2.0969 -1.4174 -0.3542
  513MPD2    H3 7627   0.604   4.170  13.124 -0.1549  0.0206  0.6952
  513MPD2     N 7628   0.530   3.773  13.359  0.0093  0.1375 -0.2623
  513MPD2    H5 7629   0.469   3.692  13.355  0.7148 -0.6262  4.0747
  513MPD2    N1 7630   0.265   3.889  12.981  0.2003  0.6310  0.0180
  513MPD2    H7 7631   0.230   3.956  12.913  0.6431  0.0131 -0.8259
  514TMC3    C1 7632   0.159   3.732  12.841  0.1769 -0.4666  0.2616
  514TMC3    C2 7633   0.222   3.790  12.738  0.0359  0.0326 -0.7657
  514TMC3    C3 7634   0.246   3.706  12.634  0.3737 -0.1566 -0.5438
  514TMC3    C4 7635   0.113   3.601  12.844  0.0195  0.9369 -0.2965
  514TMC3    C5 7636   0.142   3.524  12.736  0.0379 -0.1756 -0.0423
  514TMC3    C6 7637   0.217   3.574  12.633 -0.1899  0.0706  0.8660
  514TMC3     C 7638   0.213   3.765  12.976 -0.5278  0.5974  0.0941
  514TMC3     O 7639   0.252   3.662  13.031 -0.3644 -0.0315  0.3551
  514TMC3     H 7640   0.282   3.880  12.744  0.2366 -0.0677 -1.2757
  514TMC3    H1 7641   0.059   3.560  12.929  2.3843 -1.1520  0.1991
  514TMC3    H2 7642   0.258   3.506  12.559 -1.9859 -0.2021  0.1023
  514TMC3    C7 7643   0.175   3.389  12.773  0.7085  0.0651 -0.1487
  514TMC3    C8 7644   0.283   3.776  12.511  0.2717  0.3545  0.2343
  514TMC3    O1 7645   0.171   3.294  12.696  0.7087  0.2295  0.4274
  514TMC3    O2 7646   0.333   3.886  12.522 -0.2495 -0.3999 -0.0724
  515MPD2     C 7647   3.142   0.416  15.117  0.6340 -0.1187  0.1947
  515MPD2    C1 7648   3.236   0.391  15.019 -0.4237  0.8077 -0.0981
  515MPD2    C2 7649   3.342   0.483  15.008  0.2895 -0.3585 -0.0260
  515MPD2    C3 7650   3.368   0.585  15.095  0.2732 -0.2894 -0.3546
  515MPD2    C4 7651   3.273   0.611  15.194 -0.3093 -1.1053  0.5266
  515MPD2    C5 7652   3.167   0.525  15.208  0.0404 -0.4628  0.1502
  515MPD2     H 7653   3.412   0.467  14.926  2.7695  1.7502  1.7087
  515MPD2    H1 7654   3.272   0.691  15.267 -0.2269  1.1340 -1.9482
  515MPD2    H2 7655   3.067   0.345  15.151 -1.3538  0.4965 -2.8584
  515MPD2    H3 7656   3.097   0.539  15.289  0.8475  0.0899  0.7610
  515MPD2     N 7657   3.475   0.675  15.087 -0.9423  0.3447 -0.3212
  515MPD2    H5 7658   3.475   0.749  15.157 -1.4878 -0.9880  1.0914
  515MPD2    N1 7659   3.205   0.284  14.931 -0.2525 -0.5298  0.1647
  515MPD2    H7 7660   3.126   0.223  14.951 -0.1283 -1.2782 -1.6182
  516TMC3    C1 7661   3.219   0.136  14.743 -0.2463 -0.2099  0.6662
  516TMC3    C2 7662   3.099   0.168  14.690 -0.0274 -0.3525  0.4402
  516TMC3    C3 7663   3.007   0.067  14.685  0.1549  0.4849 -0.1328
  516TMC3    C4 7664   3.263   0.010  14.786 -0.5930  0.0700 -0.2115
  516TMC3    C5 7665   3.168   4.639  14.776 -0.3256  0.5224 -0.4321
  516TMC3    C6 7666   3.039   4.670  14.730 -0.2667 -0.4474 -0.2112
  516TMC3     C 7667   3.281   0.241  14.822  0.1352 -0.4065  0.3333
  516TMC3     O 7668   3.387   0.285  14.783  0.7533  0.0375 -0.2874
  516TMC3     H 7669   3.061   0.270  14.687  0.3284 -0.2353 -0.1637
  516TMC3    H1 7670   3.364   4.720  14.825 -1.1930 -0.0251  1.3063
  516TMC3    H2 7671   2.957   4.600  14.746 -1.2711  1.1709  1.8066
  516TMC3    C7 7672   3.162   4.543  14.885  1.0660 -0.0547 -0.0551
  516TMC3    C8 7673   2.873   0.092  14.653 -0.5772 -0.2423 -0.9812
  516TMC3    O1 7674   3.078   4.554  14.974  0.5085 -0.2586 -0.5009
  516TMC3    O2 7675   2.791   0.009  14.689  0.1067 -0.0576  0.2077
  517MPD2     C 7676   1.996   1.755   0.207  0.0240 -0.0466  0.0859
  517MPD2    C1 7677   2.127   1.778   0.178  0.0972 -0.1973 -0.5622
  517MPD2    C2 7678   2.198   1.858   0.265  0.0917 -0.3942  0.3356
  517MPD2    C3 7679   2.138   1.928   0.367 -0.1263 -0.1595  0.1132
  517MPD2    C4 7680   1.998   1.910   0.386 -0.4017 -0.1343 -0.0257
  517MPD2    C5 7681   1.933   1.822   0.306  0.7527 -0.5508  0.1607
  517MPD2     H 7682   2.304   1.870   0.246 -0.4576  0.2481 -2.2515
  517MPD2    H1 7683   1.945   1.968   0.460  1.4392  2.3540 -0.6597
  517MPD2    H2 7684   1.934   1.691   0.145 -0.2311  0.6990 -0.4328
  517MPD2    H3 7685   1.826   1.804   0.303  0.7643 -0.4472 -0.7280
  517MPD2     N 7686   2.210   2.021   0.447 -0.3020 -0.5833  0.2031
  517MPD2    H5 7687   2.151   2.063   0.518 -0.0615 -1.0443  0.6798
  517MPD2    N1 7688   2.199   1.711   0.073  0.5951  0.8161  0.5451
  517MPD2    H7 7689   2.295   1.741   0.057  0.8144  0.8034  1.8110
  518TMC3    C1 7690   2.246   1.567  17.593  0.3453  0.4299  0.0202
  518TMC3    C2 7691   2.241   1.436  17.556 -0.4648  0.6290 -0.3876
  518TMC3    C3 7692   2.279   1.399  17.429 -0.0605  0.4408  0.6364
  518TMC3    C4 7693   2.304   1.663  17.512 -0.3963 -0.1206 -0.1574
  518TMC3    C5 7694   2.344   1.621  17.389 -0.4890 -0.4777  1.3734
  518TMC3    C6 7695   2.328   1.493  17.344  0.4031  0.3018  0.7617
  518TMC3     C 7696   2.154   1.603   0.001 -0.0346 -0.3083 -0.5422
  518TMC3     O 7697   2.061   1.529   0.031 -0.0067  0.5074  0.7575
  518TMC3     H 7698   2.186   1.368  17.619  1.0710  0.1286  0.4074
  518TMC3    H1 7699   2.324   1.767  17.536  0.1539 -0.3618  0.4306
  518TMC3    H2 7700   2.362   1.456  17.247 -2.4658  0.3131 -0.2300
  518TMC3    C7 7701   2.430   1.713  17.315 -0.4637 -0.3664  0.0430
  518TMC3    C8 7702   2.343   1.269  17.413  0.4129 -0.2104  0.1710
  518TMC3    O1 7703   2.419   1.833  17.328 -0.1366 -0.0122 -0.3606
  518TMC3    O2 7704   2.372   1.221  17.303 -0.2887  0.4873  0.1510
  519MPD2     C 7705   0.027   0.810  13.875  0.2098 -0.0248 -0.4543
  519MPD2    C1 7706   4.638   0.732  13.878 -0.0204 -0.0925 -0.5003
  519MPD2    C2 7707   4.643   0.595  13.880  0.7232  0.3121 -0.9025
  519MPD2    C3 7708   0.045   0.537  13.881 -0.4502 -0.3187  0.3355
  519MPD2    C4 7709   0.161   0.608  13.871  0.0791 -0.8956 -0.2513
  519MPD2    C5 7710   0.146   0.747  13.870  0.3891 -0.0389 -0.0606
  519MPD2     H 7711   4.546   0.547  13.887  0.9566  0.2897  2.0641
  519MPD2    H1 7712   0.259   0.562  13.875  0.2717 -0.4605 -0.0013
  519MPD2    H2 7713   0.035   0.917  13.891 -2.9980  0.7333 -4.0372
  519MPD2    H3 7714   0.237   0.806  13.871  0.6897 -0.5248  1.4202
  519MPD2     N 7715   0.064   0.398  13.879  0.0197  0.7688  0.3783
  519MPD2    H5 7716   0.162   0.373  13.870  0.5986  2.8048  1.0990
  519MPD2    N1 7717   4.508   0.785  13.884  0.1360  0.2873  0.3619
  519MPD2    H7 7718   4.428   0.725  13.899  1.5536 -1.3004  1.6479
  520TMC3    C1 7719   0.001   0.175  13.894 -0.5617  0.4220 -0.9203
  520TMC3    C2 7720   4.627   0.083  13.866  0.2284  0.0729  0.2175
  520TMC3    C3 7721   4.654   4.670  13.887  0.0818 -0.0863  0.0611
  520TMC3    C4 7722   0.129   0.133  13.926 -0.2838  0.1182  0.1388
  520TMC3    C5 7723   0.149   4.715  13.948 -0.2134  0.3855 -0.4106
  520TMC3    C6 7724   0.055   4.623  13.925 -0.6886  0.4156  0.5961
  520TMC3     C 7725   4.683   0.303  13.894  0.4066 -0.0347  0.0044
  520TMC3     O 7726   4.560   0.322  13.889 -0.4590  0.1686 -0.1821
  520TMC3     H 7727   4.537   0.121  13.820 -0.4400  0.2576  1.6551
  520TMC3    H1 7728   0.199   0.212  13.949 -3.2719  2.0916  2.3831
  520TMC3    H2 7729   0.082   4.518  13.924  1.9211  1.0774  2.7715
  520TMC3    C7 7730   0.281   4.671  13.984  0.1073  0.1762  0.1188
  520TMC3    C8 7731   4.551   4.574  13.845 -0.5301  0.4808 -0.0572
  520TMC3    O1 7732   0.295   4.595  14.079  0.5845 -0.4127  0.3907
  520TMC3    O2 7733   4.587   4.471  13.787  0.2053  0.5669  0.1895
  521MPD2     C 7734   0.836   3.184  17.578 -0.4523 -0.5002  0.3011
  521MPD2    C1 7735   0.824   3.056  17.519 -0.9016 -0.2723  0.1197
  521MPD2    C2 7736   0.913   3.016  17.416 -0.2070 -0.0448  0.3000
  521MPD2    C3 7737   1.015   3.104  17.379 -0.4728  0.3262  0.7504
  521MPD2    C4 7738   1.025   3.228  17.441 -0.0244  0.8224 -0.6457
  521MPD2    C5 7739   0.930   3.269  17.533  0.5050 -0.3737  0.1509
  521MPD2     H 7740   0.908   2.922  17.361 -0.6186 -0.0708  0.3827
  521MPD2    H1 7741   1.108   3.297  17.432  1.0498 -0.3367  0.4161
  521MPD2    H2 7742   0.775   3.227  17.657 -0.9304 -1.6814  0.5765
  521MPD2    H3 7743   0.938   3.370  17.573  0.4461 -0.5751  0.6587
  521MPD2     N 7744   1.110   3.069  17.285  0.1486 -0.1191  0.3701
  521MPD2    H5 7745   1.092   2.978  17.242  0.9884  0.4122 -1.1060
  521MPD2    N1 7746   0.723   2.972  17.564 -0.1129 -0.2904  0.2245
  521MPD2    H7 7747   0.669   3.008  17.642  0.7024 -2.8103  1.9641
  522TMC3    C1 7748   1.315   3.058  17.172  0.3349 -0.0013  0.1804
  522TMC3    C2 7749   1.451   3.062  17.190 -0.2051  0.7162 -1.0212
  522TMC3    C3 7750   1.529   2.999  17.103 -0.6315 -0.6602  0.1356
  522TMC3    C4 7751   1.253   2.983  17.076  0.1953 -0.0165 -0.3399
  522TMC3    C5 7752   1.339   2.916  16.996 -0.4795 -0.5460  0.2246
  522TMC3    C6 7753   1.477   2.922  17.007 -0.6437  0.7350  0.1150
  522TMC3     C 7754   1.237   3.117  17.276 -0.1797  0.0343 -0.4588
  522TMC3     O 7755   1.301   3.178  17.362 -0.5599  0.4310  0.0237
  522TMC3     H 7756   1.492   3.110  17.278  0.3176  0.7300 -1.2734
  522TMC3    H1 7757   1.147   2.990  17.055 -0.7190  0.4340  4.3017
  522TMC3    H2 7758   1.527   2.853  16.940 -0.0842  0.7995  0.4676
  522TMC3    C7 7759   1.279   2.810  16.915  0.4223 -0.1484 -0.6494
  522TMC3    C8 7760   1.671   2.985  17.127  0.6575 -0.3234  0.3351
  522TMC3    O1 7761   1.328   2.701  16.914 -0.3881 -0.4243  0.3001
  522TMC3    O2 7762   1.707   3.045  17.226  0.2429  0.4806  0.4835
  523MPD2     C 7763   3.472   2.829  10.307  0.0986 -0.7852  0.5481
  523MPD2    C1 7764   3.465   2.791  10.173  0.1125 -0.0201 -0.2367
  523MPD2    C2 7765   3.383   2.870  10.090  0.2979  0.8692 -0.0938
  523MPD2    C3 7766   3.338   2.993  10.134  0.5467 -0.4308 -0.3017
  523MPD2    C4 7767   3.359   3.032  10.265 -0.4490 -0.5180 -0.2565
  523MPD2    C5 7768   3.432   2.950  10.349 -0.9428 -0.2337  0.7248
  523MPD2     H 7769   3.347   2.833   9.995  1.7864 -0.5962 -0.0846
  523MPD2    H1 7770   3.325   3.130  10.296  0.8324 -0.8813  2.2183
  523MPD2    H2 7771   3.513   2.768  10.387 -1.0197  0.2955  1.9297
  523MPD2    H3 7772   3.464   2.985  10.447 -0.9013  0.1820  0.5638
  523MPD2     N 7773   3.265   3.079  10.054 -0.3896 -0.2772  0.2733
  523MPD2    H5 7774   3.231   3.163  10.101 -0.1653  0.1501 -0.3294
  523MPD2    N1 7775   3.516   2.661  10.148  0.1284 -0.0505  0.3234
  523MPD2    H7 7776   3.590   2.619  10.204  0.0370 -0.0500  0.4437
  524TMC3    C1 7777   3.214   3.194   9.856 -0.1659 -0.1005  0.0573
  524TMC3    C2 7778   3.232   3.189   9.724 -0.3957  0.2038  0.1936
  524TMC3    C3 7779   3.200   3.307   9.655  0.8173  0.2430 -0.2441
  524TMC3    C4 7780   3.172   3.301   9.935  0.1064  0.9097 -0.1586
  524TMC3    C5 7781   3.133   3.413   9.860  0.1636  0.8239 -0.3531
  524TMC3    C6 7782   3.147   3.416   9.722 -0.1809 -0.3339  0.3898
  524TMC3     C 7783   3.268   3.073   9.918  0.0713  0.5255 -0.2625
  524TMC3     O 7784   3.338   3.007   9.845 -0.6382 -0.3302 -0.3519
  524TMC3     H 7785   3.230   3.098   9.665  3.5866  1.2427 -1.5084
  524TMC3    H1 7786   3.162   3.302  10.043 -1.7391 -1.5029 -0.2970
  524TMC3    H2 7787   3.106   3.503   9.671  0.7692  0.1492  0.4535
  524TMC3    C7 7788   3.039   3.504   9.925 -0.1923 -0.2558  0.1615
  524TMC3    C8 7789   3.225   3.316   9.508  0.2028 -0.2044  0.4161
  524TMC3    O1 7790   2.971   3.460  10.018 -0.1920 -0.4635  0.0337
  524TMC3    O2 7791   3.159   3.403   9.452  0.4543  0.1086 -0.3555
  525MPD2     C 7792   1.151   4.553  14.599  0.0338 -0.1690 -0.5289
  525MPD2    C1 7793   1.284   4.542  14.646  0.9309  0.8481  0.8118
  525MPD2    C2 7794   1.381   4.627  14.593  0.6817  0.1136  0.7717
  525MPD2    C3 7795   1.352   4.722  14.501 -0.6560  0.0476  0.0412
  525MPD2    C4 7796   1.221   0.015  14.463 -0.4837 -0.1201 -0.0447
  525MPD2    C5 7797   1.121   4.654  14.508  0.1157 -0.1768  0.0590
  525MPD2     H 7798   1.474   4.631  14.648  0.5115  1.2705  0.9626
  525MPD2    H1 7799   1.192   0.110  14.420  0.8253  0.3951  0.2013
  525MPD2    H2 7800   1.067   4.490  14.627  0.6447 -0.8619 -0.2532
  525MPD2    H3 7801   1.016   4.673  14.492  0.2524  0.4646 -0.0681
  525MPD2     N 7802   1.437   0.103  14.464 -0.0436  0.3636 -0.0484
  525MPD2    H5 7803   1.390   0.181  14.419 -0.1109  0.6609  0.5335
  525MPD2    N1 7804   1.328   4.462  14.749 -0.1755 -0.1650  0.2990
  525MPD2    H7 7805   1.413   4.481  14.800 -0.7001  1.1765  0.6750
  526TMC3    C1 7806   1.299   4.299  14.928 -0.2252 -0.4123 -0.9246
  526TMC3    C2 7807   1.203   4.251  15.011  0.8061  0.5119 -0.6038
  526TMC3    C3 7808   1.243   4.190  15.127  0.3824  0.0228 -0.1708
  526TMC3    C4 7809   1.433   4.273  14.942  0.1994 -0.0077  0.1801
  526TMC3    C5 7810   1.475   4.192  15.042  0.6924  0.0831  0.5353
  526TMC3    C6 7811   1.376   4.149  15.136 -0.6491 -0.3644  0.6449
  526TMC3     C 7812   1.250   4.362  14.808  1.6595 -0.5853  0.4113
  526TMC3     O 7813   1.139   4.321  14.771 -0.0118 -0.5001 -0.0735
  526TMC3     H 7814   1.099   4.279  14.998  0.8985  0.8598 -0.5939
  526TMC3    H1 7815   1.501   4.330  14.879 -0.3031  1.4584  0.9493
  526TMC3    H2 7816   1.408   4.094  15.223  1.1737  0.2801  0.3702
  526TMC3    C7 7817   1.616   4.164  15.061  0.0360  0.0664  0.9987
  526TMC3    C8 7818   1.193   4.247  15.249  0.1854  0.1654 -0.3764
  526TMC3    O1 7819   1.652   4.118  15.170  0.4712 -0.0115 -0.9495
  526TMC3    O2 7820   1.270   4.220  15.342 -0.4721  0.1485  0.1234
  527MPD2     C 7821   3.848   2.653   1.089 -0.3137 -0.4077  0.6644
  527MPD2    C1 7822   3.862   2.583   1.208  0.3608  0.2835 -0.4860
  527MPD2    C2 7823   3.983   2.536   1.251 -0.0659 -0.6519 -0.0656
  527MPD2    C3 7824   4.096   2.550   1.171 -0.5089 -0.4289 -0.0449
  527MPD2    C4 7825   4.080   2.621   1.054 -0.6790  0.0642 -0.0218
  527MPD2    C5 7826   3.963   2.672   1.014 -0.5190 -0.0495  0.3595
  527MPD2     H 7827   3.996   2.492   1.349  1.9455  0.7184  0.2782
  527MPD2    H1 7828   4.152   2.623   0.973 -0.4124 -0.3328  0.2050
  527MPD2    H2 7829   3.752   2.690   1.055  1.1623  2.4782 -0.4457
  527MPD2    H3 7830   3.957   2.719   0.916 -1.8155 -1.2732 -0.1442
  527MPD2     N 7831   4.209   2.496   1.228  0.3387  0.5746 -0.3040
  527MPD2    H5 7832   4.206   2.458   1.322  1.3553 -1.7297 -1.2203
  527MPD2    N1 7833   3.753   2.554   1.293  0.4293 -0.1909  0.0044
  527MPD2    H7 7834   3.772   2.498   1.376 -3.9434 -0.7632  0.5913
  528TMC3    C1 7835   3.553   2.556   1.406 -0.4093 -0.1703  0.0343
  528TMC3    C2 7836   3.615   2.556   1.527 -0.5619 -0.2422  0.7267
  528TMC3    C3 7837   3.545   2.513   1.640 -0.6320  0.5103 -0.6936
  528TMC3    C4 7838   3.420   2.547   1.395 -0.2586 -0.6131  0.5892
  528TMC3    C5 7839   3.349   2.517   1.512  0.1278  0.4636 -0.4115
  528TMC3    C6 7840   3.411   2.496   1.632  0.1638  0.9513  0.4692
  528TMC3     C 7841   3.621   2.598   1.288 -0.2611  0.7177  0.3892
  528TMC3     O 7842   3.558   2.650   1.197  0.1710  0.3999 -0.1736
  528TMC3     H 7843   3.722   2.576   1.527 -0.5767 -0.1607  0.9113
  528TMC3    H1 7844   3.371   2.558   1.299  1.3831 -1.2490 -0.3162
  528TMC3    H2 7845   3.351   2.470   1.719 -1.0260 -0.3563 -0.7480
  528TMC3    C7 7846   3.202   2.515   1.517 -0.2061 -0.1228 -0.3858
  528TMC3    C8 7847   3.621   2.510   1.764 -0.2333  0.3783 -0.1325
  528TMC3    O1 7848   3.152   2.514   1.628  0.7545 -0.6035 -0.6428
  528TMC3    O2 7849   3.740   2.504   1.753 -0.1990 -0.1663 -0.3066
  529MPD2     C 7850   1.715   0.826  17.597  0.1002 -0.3398 -0.3239
  529MPD2    C1 7851   1.586   0.863  17.652 -0.3045 -0.0711  0.3066
  529MPD2    C2 7852   1.534   0.987  17.622  0.5893 -0.0662 -0.1002
  529MPD2    C3 7853   1.606   1.080  17.542 -0.0513 -0.1149  0.1517
  529MPD2    C4 7854   1.719   1.041  17.481  0.0666 -0.2001  0.4516
  529MPD2    C5 7855   1.768   0.910  17.505  0.4381 -0.0902 -0.4212
  529MPD2     H 7856   1.441   1.017  17.669  0.8354 -0.5984  0.7193
  529MPD2    H1 7857   1.776   1.110  17.420  1.0776  0.4262  2.1098
  529MPD2    H2 7858   1.755   0.727  17.611 -2.3192 -1.4199 -1.1241
  529MPD2    H3 7859   1.860   0.882  17.455  0.0740  1.2286 -1.8448
  529MPD2     N 7860   1.564   1.213  17.524 -0.1947 -0.6892  0.7062
  529MPD2    H5 7861   1.618   1.282  17.473  0.8995 -1.7248  0.4606
  529MPD2    N1 7862   1.508   0.783   0.048  0.6220  0.4268  0.0895
  529MPD2    H7 7863   1.416   0.817   0.076  0.4667  0.2828 -0.2512
  530TMC3    C1 7864   1.463   0.629   0.216  0.7510 -0.2221  0.3544
  530TMC3    C2 7865   1.484   0.505   0.271 -0.6721 -0.2073 -0.1809
  530TMC3    C3 7866   1.425   0.480   0.392  0.8513  0.5057  0.1800
  530TMC3    C4 7867   1.384   0.726   0.275  0.4842  0.2382 -0.1697
  530TMC3    C5 7868   1.318   0.687   0.394 -0.1210 -0.0114 -0.5974
  530TMC3    C6 7869   1.350   0.564   0.458 -0.1294  0.2823  0.3568
  530TMC3     C 7870   1.546   0.664   0.110  0.3886 -0.2136 -0.3433
  530TMC3     O 7871   1.646   0.593   0.088 -0.1467  0.1155 -0.1706
  530TMC3     H 7872   1.537   0.426   0.218  1.5343  1.0557  0.1046
  530TMC3    H1 7873   1.350   0.816   0.227 -2.4716 -1.9104 -2.0949
  530TMC3    H2 7874   1.298   0.540   0.550 -1.8594 -0.5809 -0.8563
  530TMC3    C7 7875   1.219   0.778   0.447 -0.3706  1.0241 -0.2654
  530TMC3    C8 7876   1.445   0.353   0.450 -0.1970 -0.3070 -0.4753
  530TMC3    O1 7877   1.231   0.896   0.422 -0.0636  0.2555 -0.1024
  530TMC3    O2 7878   1.473   0.263   0.374  0.2119 -0.4028  0.4685
  531MPD2     C 7879   0.360   3.096  13.159  0.3763 -0.5821 -0.2230
  531MPD2    C1 7880   0.389   3.228  13.187 -0.2980 -0.8805  0.9703
  531MPD2    C2 7881   0.353   3.321  13.097  0.2896  0.0181 -0.4348
  531MPD2    C3 7882   0.288   3.289  12.978 -0.0946 -0.0478  0.1934
  531MPD2    C4 7883   0.261   3.155  12.951 -0.6781 -0.5732  0.4284
  531MPD2    C5 7884   0.298   3.063  13.047  0.0412  0.2716 -0.4331
  531MPD2     H 7885   0.379   3.426  13.110  1.1252 -0.0392 -1.6576
  531MPD2    H1 7886   0.225   3.119  12.855  1.9963  0.2320 -0.8865
  531MPD2    H2 7887   0.385   3.024  13.236  3.5723  0.3622 -0.3649
  531MPD2    H3 7888   0.275   2.959  13.027  0.4818 -0.3539  2.3105
  531MPD2     N 7889   0.237   3.394  12.896  0.1654 -0.4554  0.7392
  531MPD2    H5 7890   0.243   3.490  12.931  2.2047 -0.3926  0.2011
  531MPD2    N1 7891   0.434   3.266  13.317  0.0177  0.5494  0.4407
  531MPD2    H7 7892   0.473   3.188  13.369  2.1136  1.2016 -0.1496
  532TMC3    C1 7893   0.525   3.432  13.465  0.2116  0.6124 -0.4134
  532TMC3    C2 7894   0.508   3.562  13.501  0.5902 -0.6782 -0.1922
  532TMC3    C3 7895   0.624   3.635  13.526 -0.7228  0.0422  0.5876
  532TMC3    C4 7896   0.651   3.372  13.454 -0.7892 -1.2555  0.2508
  532TMC3    C5 7897   0.755   3.452  13.503  0.0976  0.0480  0.0346
  532TMC3    C6 7898   0.749   3.581  13.533  0.1630 -0.2877  0.4071
  532TMC3     C 7899   0.427   3.396  13.363 -0.1246  0.3180  0.5667
  532TMC3     O 7900   0.354   3.485  13.327  0.5572 -0.5834 -0.4380
  532TMC3     H 7901   0.407   3.599  13.516  0.0188 -2.9224  1.5306
  532TMC3    H1 7902   0.661   3.266  13.432  1.5309 -1.1879  0.9006
  532TMC3    H2 7903   0.836   3.644  13.539  0.6314 -0.6345 -2.4387
  532TMC3    C7 7904   0.885   3.390  13.518 -0.2813 -0.4992 -0.0823
  532TMC3    C8 7905   0.633   3.755  13.443 -0.6355 -0.6433 -0.5427
  532TMC3    O1 7906   0.987   3.456  13.508  0.2527  0.3147 -0.3910
  532TMC3    O2 7907   0.734   3.824  13.455 -0.5375 -0.1353  0.1728
  533TMC3    C1 7908   1.587   0.269  14.507 -0.2071 -0.2643 -0.1099
  533TMC3    C2 7909   1.717   0.302  14.532  1.2481  0.3176  0.0251
  533TMC3    C3 7910   1.742   0.398  14.619 -0.0209 -0.3816  0.3443
  533TMC3    C4 7911   1.484   0.330  14.572  0.0849  0.2459  0.2216
  533TMC3    C5 7912   1.514   0.421  14.664 -0.0996 -0.4980  0.8464
  533TMC3    C6 7913   1.644   0.457  14.695 -0.2091 -0.6041 -0.8156
  533TMC3     C 7914   1.560   0.124  14.506 -0.1732  0.1768  0.6457
  533TMC3     O 7915   1.636   0.043  14.556 -0.1280 -0.6605 -0.3010
  533TMC3     H 7916   1.795   0.236  14.495 -0.2076 -1.7820  0.7236
  533TMC3    H1 7917   1.384   0.311  14.534  0.2192  1.5878 -0.8437
  533TMC3    H2 7918   1.664   0.543  14.757  1.5713  0.5306 -2.9538
  533TMC3    C7 7919   1.443   0.395  14.785 -0.1314  0.3135 -0.2152
  533TMC3    C8 7920   1.869   0.376  14.690  0.0418 -0.2680 -0.7282
  533TMC3    O1 7921   1.417   0.276  14.807 -0.0378  0.0721  0.0787
  533TMC3    O2 7922   1.968   0.354  14.615  0.2127  0.4275 -0.3400
  534MPD2     C 7923   3.087   1.606   2.163 -0.4145  0.8795 -0.3087
  534MPD2    C1 7924   3.129   1.668   2.051  0.2841  0.6927 -0.3591
  534MPD2    C2 7925   3.090   1.623   1.929 -0.1315 -0.2230  0.2108
  534MPD2    C3 7926   3.021   1.506   1.914 -0.3097 -0.0577  0.2847
  534MPD2    C4 7927   2.982   1.440   2.029  0.2086  0.0193  0.7583
  534MPD2    C5 7928   3.006   1.496   2.153  0.9293  0.1348  0.3565
  534MPD2     H 7929   3.124   1.674   1.839 -1.0874 -0.6195 -0.3699
  534MPD2    H1 7930   2.927   1.346   2.020  1.7635 -0.4220 -4.1978
  534MPD2    H2 7931   3.107   1.657   2.257 -0.3325  0.4677 -0.1033
  534MPD2    H3 7932   2.966   1.442   2.237 -0.7614  0.2981 -0.3422
  534MPD2     N 7933   2.975   1.455   1.786 -1.0192  0.5685  0.6131
  534MPD2    H5 7934   2.940   1.360   1.790  0.7916 -0.2773 -3.0585
  534MPD2    N1 7935   3.220   1.782   2.043  1.0168  0.3255 -0.2897
  534MPD2    H7 7936   3.210   1.824   1.951  0.2234 -0.5119 -0.5865
  535TMC3    C1 7937   2.923   1.446   1.554  0.3474 -0.2462 -0.5405
  535TMC3    C2 7938   2.792   1.417   1.566  0.6644 -0.0010 -0.6137
  535TMC3    C3 7939   2.727   1.398   1.445 -0.2020 -0.5704  0.2350
  535TMC3    C4 7940   2.994   1.458   1.442  0.4541  0.5436 -0.4039
  535TMC3    C5 7941   2.925   1.435   1.328  0.4347  0.2702 -0.1403
  535TMC3    C6 7942   2.796   1.405   1.323  0.3816 -0.2820  0.8508
  535TMC3     C 7943   2.971   1.528   1.666 -0.3425  0.5799 -0.6890
  535TMC3     O 7944   3.036   1.627   1.639  0.2330  0.4525  0.3381
  535TMC3     H 7945   2.752   1.403   1.666 -0.4646 -0.4975 -1.1282
  535TMC3    H1 7946   3.101   1.477   1.444  0.7651 -1.2636 -0.2164
  535TMC3    H2 7947   2.741   1.395   1.230 -0.5651  0.7371  1.2944
  535TMC3    C7 7948   3.005   1.479   1.217 -0.4393 -0.5958 -0.8116
  535TMC3    C8 7949   2.583   1.365   1.440  0.6950  0.0208 -0.0910
  535TMC3    O1 7950   3.122   1.450   1.215  0.1604  0.0079  0.4293
  535TMC3    O2 7951   2.541   1.336   1.330 -0.2956  0.3088 -0.5555
  536MPD2     C 7952   2.538   0.172  16.510 -0.1019 -0.3685  0.5902
  536MPD2    C1 7953   2.495   0.043  16.532  0.7977 -0.2851  0.4765
  536MPD2    C2 7954   2.410   4.715  16.437 -0.0891  0.1786  0.7233
  536MPD2    C3 7955   2.383   0.057  16.313 -0.5709  0.3557  0.2043
  536MPD2    C4 7956   2.442   0.182  16.296  0.6010  0.0304  0.3302
  536MPD2    C5 7957   2.522   0.240  16.389  0.3877 -0.7238  1.0184
  536MPD2     H 7958   2.369   4.616  16.446 -0.1130  0.1619  0.4139
  536MPD2    H1 7959   2.438   0.228  16.198 -1.0603  2.3559  1.5069
  536MPD2    H2 7960   2.609   0.214  16.580 -1.1223  1.7510  0.3411
  536MPD2    H3 7961   2.582   0.326  16.360  0.0768 -1.8505 -2.9836
  536MPD2     N 7962   2.313   4.722  16.214  0.1732  0.5147 -0.3246
  536MPD2    H5 7963   2.283   0.074  16.151 -1.3360  0.4437  0.3184
  536MPD2    N1 7964   2.537   4.705  16.655  0.0525 -0.1019  0.0322
  536MPD2    H7 7965   2.600   0.039  16.712 -2.3347  0.1086  2.4895
  537TMC3    C1 7966   2.599   4.524  16.800  0.2171 -0.2852  0.5486
  537TMC3    C2 7967   2.731   4.555  16.795  0.9220 -0.4398  0.5463
  537TMC3    C3 7968   2.819   4.482  16.871 -0.7269  0.3936  0.0730
  537TMC3    C4 7969   2.554   4.410  16.862 -0.4000 -0.3043 -0.4450
  537TMC3    C5 7970   2.637   4.339  16.935 -0.2080  0.1143  0.2148
  537TMC3    C6 7971   2.767   4.381  16.946 -0.7598  0.0538 -0.0556
  537TMC3     C 7972   2.515   4.573  16.690 -0.4890 -0.2867  0.1132
  537TMC3     O 7973   2.446   4.485  16.638  0.0901 -0.1133  0.6245
  537TMC3     H 7974   2.763   4.643  16.741  0.7137  1.0519  2.8456
  537TMC3    H1 7975   2.451   4.377  16.850 -0.9831  1.8493 -1.3797
  537TMC3    H2 7976   2.820   4.352  17.036 -2.1959  0.6657  0.9960
  537TMC3    C7 7977   2.568   4.246  17.026  1.1640 -0.2595  0.3133
  537TMC3    C8 7978   2.921   4.563  16.936  0.1502  0.0728  0.0863
  537TMC3    O1 7979   2.450   4.277  17.050 -0.4991  0.2545  0.0145
  537TMC3    O2 7980   2.999   4.489  16.999  0.0485  0.2495 -0.1756
  538TMC3    C1 7981   3.822   2.788  10.928 -0.8887 -0.4245  0.0177
  538TMC3    C2 7982   3.891   2.720  10.835 -0.5298 -0.4192  0.0129
  538TMC3    C3 7983   3.884   2.771  10.707 -0.1415  0.3720 -0.4107
  538TMC3    C4 7984   3.732   2.894  10.904  0.0460  0.1615  0.3153
  538TMC3    C5 7985   3.723   2.940  10.773 -0.5519 -0.1799  0.1868
  538TMC3    C6 7986   3.803   2.879  10.674  0.9573 -0.2245  0.2840
  538TMC3     C 7987   3.825   2.759  11.070 -0.1059  0.2807 -0.0726
  538TMC3     O 7988   3.739   2.802  11.140  0.0582 -0.5663  0.5078
  538TMC3     H 7989   3.946   2.629  10.858  1.2820  0.7707  0.3926
  538TMC3    H1 7990   3.669   2.933  10.983 -0.0512 -1.8631  1.2197
  538TMC3    H2 7991   3.826   2.932  10.582  1.2850 -2.1308 -0.7267
  538TMC3    C7 7992   3.644   3.055  10.732 -0.1786 -0.1233 -0.6054
  538TMC3    C8 7993   3.949   2.713  10.593  0.0647 -0.9516  0.7831
  538TMC3    O1 7994   3.625   3.073  10.613  0.0281 -0.3590  0.2597
  538TMC3    O2 7995   3.915   2.740  10.476  0.0999  0.6518  0.2495
  539MPD2     C 7996   3.541   2.199  11.825 -0.3324  0.1869 -0.0192
  539MPD2    C1 7997   3.623   2.233  11.716 -0.1821  0.5972 -0.8076
  539MPD2    C2 7998   3.610   2.363  11.670  0.7169 -0.2088 -0.0905
  539MPD2    C3 7999   3.503   2.444  11.705 -0.1801 -0.4332 -0.4018
  539MPD2    C4 8000   3.416   2.403  11.805  0.8490  0.8404  0.1480
  539MPD2    C5 8001   3.440   2.280  11.860 -0.4962 -0.0753  0.6930
  539MPD2     H 8002   3.674   2.394  11.588  1.1001  1.4354  0.8417
  539MPD2    H1 8003   3.339   2.472  11.839 -2.5861 -2.5352 -0.7662
  539MPD2    H2 8004   3.544   2.101  11.871  2.4558  0.5155  0.4560
  539MPD2    H3 8005   3.375   2.235  11.935  0.5177 -3.2898 -0.3258
  539MPD2     N 8006   3.481   2.577  11.650 -0.1500 -0.1707  0.2628
  539MPD2    H5 8007   3.399   2.627  11.681  1.0962  1.5336  0.8184
  539MPD2    N1 8008   3.719   2.145  11.658  0.4934  0.2602  0.8196
  539MPD2    H7 8009   3.749   2.158  11.562  2.6309 -1.9564  1.1938
  540TMC3    C1 8010   3.498   2.747  11.494 -0.7752 -0.1362 -0.1166
  540TMC3    C2 8011   3.495   2.767  11.356 -0.5169 -0.1349 -0.0647
  540TMC3    C3 8012   3.433   2.879  11.309 -0.0623  0.2365  0.3419
  540TMC3    C4 8013   3.452   2.839  11.579 -0.7868 -0.3800  0.7150
  540TMC3    C5 8014   3.392   2.948  11.533  0.3361  0.3596  0.6931
  540TMC3    C6 8015   3.372   2.963  11.398  0.5497  0.2038  0.2837
  540TMC3     C 8016   3.563   2.634  11.554 -0.1361  0.3847  0.4262
  540TMC3     O 8017   3.663   2.599  11.495  0.8151  0.3510  0.0532
  540TMC3     H 8018   3.539   2.695  11.288 -4.5688 -2.2679 -0.4232
  540TMC3    H1 8019   3.472   2.817  11.684  3.1626 -0.8452 -0.1113
  540TMC3    H2 8020   3.297   3.032  11.362  0.7942 -0.6493 -1.8617
  540TMC3    C7 8021   3.293   3.009  11.617  0.3486 -0.2371 -0.5567
  540TMC3    C8 8022   3.410   2.894  11.168  0.2749 -0.3742 -0.1621
  540TMC3    O1 8023   3.255   2.947  11.714  0.2755 -0.2242 -0.0777
  540TMC3    O2 8024   3.388   3.007  11.128 -0.5493 -0.2257  0.1630
  541MPD2     C 8025   1.374   3.748  13.014  0.0951  0.2600 -0.7642
  541MPD2    C1 8026   1.466   3.644  12.990  0.2199 -0.1539 -0.2305
  541MPD2    C2 8027   1.516   3.633  12.860 -0.4336 -0.2730  0.3226
  541MPD2    C3 8028   1.493   3.731  12.764 -0.1794 -0.1745  0.6702
  541MPD2    C4 8029   1.418   3.838  12.797  0.3975 -0.7189 -0.5392
  541MPD2    C5 8030   1.351   3.847  12.921 -0.6212 -0.1153  0.3540
  541MPD2     H 8031   1.588   3.554  12.840  0.3561  0.9633 -1.6640
  541MPD2    H1 8032   1.404   3.922  12.730  1.6590 -0.7434 -0.8189
  541MPD2    H2 8033   1.319   3.749  13.107 -0.6828 -1.1456 -1.2177
  541MPD2    H3 8034   1.288   3.931  12.947  1.3064  1.3174  0.4043
  541MPD2     N 8035   1.535   3.729  12.633  0.0922 -0.0236 -0.0416
  541MPD2    H5 8036   1.498   3.806  12.578  0.1700  0.1730  0.1799
  541MPD2    N1 8037   1.503   3.551  13.097 -0.1825 -0.4822 -0.5375
  541MPD2    H7 8038   1.444   3.556  13.180 -0.7675  1.4111 -1.0742
  542TMC3    C1 8039   1.622   3.659  12.432  0.6780  0.0422 -0.1483
  542TMC3    C2 8040   1.745   3.647  12.374  0.5585  0.0592  0.0145
  542TMC3    C3 8041   1.752   3.690  12.248 -0.1327 -0.3489 -0.4157
  542TMC3    C4 8042   1.523   3.732  12.378 -0.0679 -0.3685 -0.1731
  542TMC3    C5 8043   1.534   3.771  12.246 -0.6314 -0.3204  0.4574
  542TMC3    C6 8044   1.654   3.763  12.188 -0.5767 -0.4840 -0.4049
  542TMC3     C 8045   1.624   3.639  12.573 -0.5069  0.4958 -0.2877
  542TMC3     O 8046   1.694   3.552  12.623 -0.5820 -0.2484 -0.0504
  542TMC3     H 8047   1.822   3.582  12.414  0.8847 -0.0501 -0.7899
  542TMC3    H1 8048   1.430   3.720  12.432 -0.1815 -1.3926 -0.6018
  542TMC3    H2 8049   1.660   3.799  12.087  3.0684 -0.1617 -0.0668
  542TMC3    C7 8050   1.423   3.798  12.168  0.8403 -0.1845 -1.0533
  542TMC3    C8 8051   1.858   3.640  12.158 -0.0317 -0.6915  0.5854
  542TMC3    O1 8052   1.445   3.819  12.052  0.7163 -0.1133 -0.3391
  542TMC3    O2 8053   1.863   3.689  12.046 -0.3360  0.6433 -0.0092
  543TMC3    C1 8054   1.236   0.049  17.021 -0.6922 -0.4244 -0.4013
  543TMC3    C2 8055   1.293   4.668  16.959 -0.6348  0.4451  0.0410
  543TMC3    C3 8056   1.247   4.549  16.997 -0.4739  0.1597  0.0293
  543TMC3    C4 8057   1.153   0.038  17.130  0.7066 -0.4125  0.2608
  543TMC3    C5 8058   1.123   4.637  17.179 -0.7608 -0.1897 -0.2465
  543TMC3    C6 8059   1.163   4.530  17.106  0.5852  0.5278  0.7123
  543TMC3     C 8060   1.202   0.171  16.943  0.6284 -0.0847  0.5292
  543TMC3     O 8061   1.104   0.235  16.983  0.6991  0.0566  0.2932
  543TMC3     H 8062   1.353   4.677  16.869 -0.5693 -0.8827 -0.0481
  543TMC3    H1 8063   1.122   0.129  17.180 -2.1703 -0.2081 -1.9280
  543TMC3    H2 8064   1.125   4.432  17.133 -2.4993  2.1946  2.3870
  543TMC3    C7 8065   1.049   4.610  17.298  0.3426 -0.1442 -0.1058
  543TMC3    C8 8066   1.335   4.442  16.956 -0.4293  0.0740 -0.4188
  543TMC3    O1 8067   1.030   4.489  17.321 -0.3376 -0.4803 -0.0370
  543TMC3    O2 8068   1.451   4.466  16.924 -0.2753  0.7009 -0.3237
  544MPD2     C 8069   1.341   3.932  16.852  0.4034 -0.1360 -0.4421
  544MPD2    C1 8070   1.450   4.021  16.876  0.8817  0.2047  0.0498
  544MPD2    C2 8071   1.419   4.152  16.902 -0.2431  0.1362  0.0007
  544MPD2    C3 8072   1.291   4.199  16.894  0.3908 -0.0842  0.2517
  544MPD2    C4 8073   1.184   4.114  16.862  0.4049  0.2633 -0.4044
  544MPD2    C5 8074   1.213   3.979  16.844  0.3495 -0.2338 -0.0595
  544MPD2     H 8075   1.497   4.218  16.937  1.3265 -2.0175  0.5202
  544MPD2    H1 8076   1.081   4.140  16.844  0.3501 -1.0067 -1.9284
  544MPD2    H2 8077   1.361   3.828  16.831 -5.0331 -1.4473  0.9340
  544MPD2    H3 8078   1.132   3.909  16.832  0.7700 -0.5328 -1.1713
  544MPD2     N 8079   1.253   4.335  16.927  0.6062 -0.5812  0.4989
  544MPD2    H5 8080   1.154   4.357  16.929  0.8065  0.4283 -1.1913
  544MPD2    N1 8081   1.578   3.962  16.867  0.2505 -0.1232 -0.1264
  544MPD2    H7 8082   1.590   3.863  16.844 -1.2400 -0.3629  0.1614
  545TMC3    C1 8083   1.816   3.952  16.842 -0.1458 -0.2377  0.1507
  545TMC3    C2 8084   1.927   4.018  16.811 -0.4652  0.6884 -0.3979
  545TMC3    C3 8085   2.050   3.952  16.827 -0.1588  0.3355 -0.4054
  545TMC3    C4 8086   1.818   3.824  16.891  0.6694  0.5173 -0.2828
  545TMC3    C5 8087   1.937   3.764  16.903  0.1744 -0.8932 -0.5198
  545TMC3    C6 8088   2.059   3.830  16.886  0.0259 -0.5029  0.3753
  545TMC3     C 8089   1.698   4.030  16.877  0.4221  0.0104 -0.4330
  545TMC3     O 8090   1.713   4.152  16.880 -0.1007 -0.6779 -0.2041
  545TMC3     H 8091   1.922   4.115  16.762 -0.0110  1.1518  0.4568
  545TMC3    H1 8092   1.721   3.786  16.919  1.3306 -0.8550  0.1519
  545TMC3    H2 8093   2.153   3.776  16.875  0.2415 -0.4332  1.8316
  545TMC3    C7 8094   1.949   3.623  16.932 -0.3106  0.0503  0.0537
  545TMC3    C8 8095   2.171   4.027  16.792  0.4955 -0.0916  0.7627
  545TMC3    O1 8096   1.857   3.542  16.911 -0.6725  0.2824 -0.3212
  545TMC3    O2 8097   2.150   4.113  16.710 -0.1205 -0.4668  0.1060
  546MPD2     C 8098   2.826   0.011  17.359 -0.3260 -0.7988 -0.4561
  546MPD2    C1 8099   2.738   0.078  17.275 -0.5209 -0.0395  0.4085
  546MPD2    C2 8100   2.759   0.211  17.242 -0.3104 -0.1883 -0.1902
  546MPD2    C3 8101   2.877   0.272  17.270  0.2210  0.5713 -0.0340
  546MPD2    C4 8102   2.974   0.193  17.334  1.5381  0.1637 -0.1779
  546MPD2    C5 8103   2.942   0.077  17.398  0.5744  0.0589 -0.1843
  546MPD2     H 8104   2.684   0.271  17.191 -1.1433 -1.6829 -0.7127
  546MPD2    H1 8105   3.072   0.233  17.357  0.5954  1.6283  1.3011
  546MPD2    H2 8106   2.814   4.632  17.395  0.9185  0.1204  2.5349
  546MPD2    H3 8107   3.004   0.023  17.469  1.0049  0.3998 -0.3025
  546MPD2     N 8108   2.912   0.405  17.225  0.0496 -0.4441 -0.0908
  546MPD2    H5 8109   3.002   0.441  17.253 -0.2768  0.7923 -0.6698
  546MPD2    N1 8110   2.620   0.003  17.234 -0.7457  0.1525 -0.4446
  546MPD2    H7 8111   2.627   4.625  17.246  0.0728 -0.0333 -2.4337
  547TMC3    C1 8112   2.401   4.713  17.134  0.0302  0.5761  0.1376
  547TMC3    C2 8113   2.337   0.003  17.017  0.2661  0.0340 -0.1324
  547TMC3    C3 8114   2.237   4.633  16.985 -0.6224  0.8870 -0.4500
  547TMC3    C4 8115   2.366   4.617  17.230  0.0298 -0.0066 -0.1926
  547TMC3    C5 8116   2.260   4.534  17.194 -0.7627 -0.3295 -0.7046
  547TMC3    C6 8117   2.199   4.532  17.071  0.0869  0.2864 -0.0818
  547TMC3     C 8118   2.534   0.046  17.136 -0.4179  0.6481  0.2461
  547TMC3     O 8119   2.546   0.149  17.070  0.4963 -0.1738  0.4767
  547TMC3     H 8120   2.377   0.059  16.933 -1.3884  0.9974 -0.2772
  547TMC3    H1 8121   2.408   4.612  17.330 -3.3350  0.5238  1.2858
  547TMC3    H2 8122   2.111   4.470  17.058  1.9167 -1.7958 -2.4127
  547TMC3    C7 8123   2.236   4.415  17.282 -0.0742 -0.3501 -0.9508
  547TMC3    C8 8124   2.187   4.627  16.848  0.2323  0.7966 -0.3386
  547TMC3    O1 8125   2.250   4.428  17.404 -0.1358  0.3886  0.2744
  547TMC3    O2 8126   2.137   4.521  16.810  0.1661  0.1563  0.0970
  548MPD2     C 8127   2.968   0.735  12.202  1.0635 -0.1093  0.8834
  548MPD2    C1 8128   2.929   0.620  12.268 -0.4277 -0.1242  0.9026
  548MPD2    C2 8129   3.033   0.524  12.294  0.4740  0.0350 -0.2455
  548MPD2    C3 8130   3.165   0.549  12.261 -0.8800  0.2369 -0.4306
  548MPD2    C4 8131   3.188   0.673  12.193  0.1373  0.8040 -0.0834
  548MPD2    C5 8132   3.098   0.765  12.179 -0.1263  0.1512 -0.5908
  548MPD2     H 8133   3.010   0.429  12.341  0.9217 -0.0292 -0.1573
  548MPD2    H1 8134   3.282   0.699  12.146  1.0399 -0.2252  1.1640
  548MPD2    H2 8135   2.896   0.810  12.169 -0.9544 -1.7515  1.5211
  548MPD2    H3 8136   3.112   0.864  12.138 -1.8207  1.0373  0.9915
  548MPD2     N 8137   3.271   0.450  12.272 -0.1012  0.5675 -0.0755
  548MPD2    H5 8138   3.258   0.367  12.329 -2.6799 -0.9713 -2.8356
  548MPD2    N1 8139   2.789   0.607  12.300  0.2777  0.0344  0.6469
  548MPD2    H7 8140   2.731   0.684  12.271  0.1466 -0.5426 -0.6345
  549TMC3    C1 8141   2.579   0.518  12.361  0.0743 -1.3017  0.4704
  549TMC3    C2 8142   2.521   0.638  12.331 -0.1867  0.8234 -0.1415
  549TMC3    C3 8143   2.394   0.666  12.367 -0.5191 -0.4744  0.4630
  549TMC3    C4 8144   2.502   0.416  12.410  0.1195  0.4670  0.4868
  549TMC3    C5 8145   2.372   0.443  12.443  0.0828 -0.0334  0.3608
  549TMC3    C6 8146   2.320   0.571  12.435 -0.8178  0.5749  1.1334
  549TMC3     C 8147   2.723   0.492  12.338 -0.2584 -0.2829 -0.2285
  549TMC3     O 8148   2.768   0.380  12.359  0.5383  0.0742 -0.0858
  549TMC3     H 8149   2.573   0.706  12.265  1.6065 -0.9606 -0.5800
  549TMC3    H1 8150   2.550   0.320  12.425 -1.1754  0.0529  1.9499
  549TMC3    H2 8151   2.218   0.581  12.469 -1.4267 -0.9034 -0.2361
  549TMC3    C7 8152   2.302   0.343  12.520 -0.3033 -0.1320  0.3179
  549TMC3    C8 8153   2.323   0.791  12.323 -0.5353 -0.2626 -0.1160
  549TMC3    O1 8154   2.235   0.383  12.613 -0.8398 -0.3354  0.1377
  549TMC3    O2 8155   2.209   0.811  12.361 -0.0409 -0.3340  0.4647
  550TMC3    C1 8156   1.168   3.437  12.303 -0.5950 -0.6828  0.5395
  550TMC3    C2 8157   1.121   3.461  12.427  0.2801 -0.2185 -0.2816
  550TMC3    C3 8158   1.007   3.411  12.467  0.4934 -0.0669 -0.6407
  550TMC3    C4 8159   1.095   3.371  12.214 -0.0956  0.0527 -0.4330
  550TMC3    C5 8160   0.966   3.342  12.250 -0.4574  0.1476  0.7497
  550TMC3    C6 8161   0.913   3.355  12.377 -0.2962  0.0120 -0.2622
  550TMC3     C 8162   1.317   3.428  12.300 -0.3772 -0.1351 -0.2626
  550TMC3     O 8163   1.381   3.471  12.393  0.3915 -0.4140  0.2842
  550TMC3     H 8164   1.191   3.505  12.496  1.3667 -1.2228 -0.7503
  550TMC3    H1 8165   1.131   3.352  12.114 -0.1905 -0.1313 -0.4318
  550TMC3    H2 8166   0.810   3.331  12.399 -0.2511 -2.8824 -3.0851
  550TMC3    C7 8167   0.872   3.313  12.146 -0.1558  1.3587 -0.5327
  550TMC3    C8 8168   0.944   3.507  12.558 -0.4560 -0.2698 -0.3455
  550TMC3    O1 8169   0.755   3.329  12.179 -0.2683  0.4362 -0.2776
  550TMC3    O2 8170   0.968   3.626  12.543  0.1352 -0.1558  0.0472
  551TMC3    C1 8171   3.561   1.281  13.348  0.3230  1.2722  0.4903
  551TMC3    C2 8172   3.670   1.325  13.279  0.7493  0.0687 -0.2239
  551TMC3    C3 8173   3.780   1.358  13.355 -0.4699  0.1121  0.7412
  551TMC3    C4 8174   3.558   1.269  13.485  0.0791  0.1300 -0.2106
  551TMC3    C5 8175   3.670   1.293  13.554 -0.3172  0.1941  0.0331
  551TMC3    C6 8176   3.784   1.337  13.486  0.8466  0.2364  0.4797
  551TMC3     C 8177   3.496   1.176  13.278 -0.5497 -0.3217  0.5256
  551TMC3     O 8178   3.564   1.103  13.205  0.0872  0.2443  0.1012
  551TMC3     H 8179   3.670   1.329  13.170 -0.4165  1.2998 -0.1846
  551TMC3    H1 8180   3.462   1.241  13.526  0.4375 -0.2073  0.4077
  551TMC3    H2 8181   3.865   1.386  13.539  0.7773  1.0893 -0.2070
  551TMC3    C7 8182   3.669   1.298  13.705  0.6057 -0.3266 -0.8041
  551TMC3    C8 8183   3.894   1.413  13.291  0.5556 -0.2975  0.1946
  551TMC3    O1 8184   3.772   1.277  13.772 -0.1162  0.2928  0.9344
  551TMC3    O2 8185   3.999   1.419  13.353  0.0092  0.4887 -0.4769
  552MPD2     C 8186   0.611   3.411  13.831 -0.5360  0.7548  0.0361
  552MPD2    C1 8187   0.643   3.274  13.835 -0.5305 -0.2976 -0.6750
  552MPD2    C2 8188   0.769   3.233  13.867  0.3300  0.2933 -0.1651
  552MPD2    C3 8189   0.871   3.333  13.879 -0.0008 -0.1271 -0.0545
  552MPD2    C4 8190   0.836   3.465  13.864 -0.5105  0.0746  0.3541
  552MPD2    C5 8191   0.706   3.504  13.838 -1.2040 -0.9402 -0.4618
  552MPD2     H 8192   0.790   3.128  13.887 -0.2369 -0.0448 -1.3691
  552MPD2    H1 8193   0.904   3.549  13.871 -1.8770  1.0336  2.2299
  552MPD2    H2 8194   0.511   3.449  13.812 -1.4631 -0.6989  1.9944
  552MPD2    H3 8195   0.681   3.608  13.822  0.8713  0.0451  2.6080
  552MPD2     N 8196   1.001   3.305  13.928  0.6584 -0.2888  0.2761
  552MPD2    H5 8197   1.053   3.390  13.948  0.4029  0.3141 -1.6839
  552MPD2    N1 8198   0.545   3.178  13.823  0.8130  0.4408  0.2991
  552MPD2    H7 8199   0.569   3.084  13.854 -1.8889 -0.2529  0.2736
  553TMC3    C1 8200   0.328   3.099  13.820  0.1516 -0.6111 -0.0820
  553TMC3    C2 8201   0.247   3.039  13.729 -0.1253 -0.3313  0.2449
  553TMC3    C3 8202   0.212   2.906  13.760 -0.5812 -0.2887 -0.4849
  553TMC3    C4 8203   0.370   3.053  13.937 -0.5479  0.5828 -0.0474
  553TMC3    C5 8204   0.334   2.925  13.972  0.5335 -0.1843 -0.2627
  553TMC3    C6 8205   0.267   2.848  13.873  0.5140  0.8606  0.3382
  553TMC3     C 8206   0.419   3.199  13.771  0.2577 -0.8016 -0.5044
  553TMC3     O 8207   0.370   3.293  13.710 -0.4448 -0.2182 -0.3748
  553TMC3     H 8208   0.220   3.083  13.634 -3.2952 -1.1891  0.7492
  553TMC3    H1 8209   0.409   3.116  14.017 -0.1659 -0.3211  0.4732
  553TMC3    H2 8210   0.271   2.741  13.891  2.9153  0.9340  0.2890
  553TMC3    C7 8211   0.441   2.857  14.038 -1.1384 -0.2450  0.3912
  553TMC3    C8 8212   0.229   2.820  13.645  0.2393  0.3724  0.5516
  553TMC3    O1 8213   0.552   2.909  14.021 -0.8059 -0.2832 -0.0181
  553TMC3    O2 8214   0.304   2.858  13.556  0.4525  0.6973  0.1179
  554TMC3    C1 8215   3.168   2.238  11.554 -0.0553  0.1839  0.5344
  554TMC3    C2 8216   3.166   2.137  11.457 -0.0401  0.0313 -0.5138
  554TMC3    C3 8217   3.198   2.177  11.332  0.2776  0.4409 -0.0570
  554TMC3    C4 8218   3.209   2.370  11.523  0.0630  0.4693  0.0556
  554TMC3    C5 8219   3.241   2.401  11.397 -0.1580 -0.0043 -0.1367
  554TMC3    C6 8220   3.242   2.306  11.303 -0.2346 -0.0059  0.2559
  554TMC3     C 8221   3.137   2.217  11.694  0.1949  0.4295  0.2140
  554TMC3     O 8222   3.116   2.317  11.762 -0.1125  0.0602  0.5360
  554TMC3     H 8223   3.143   2.036  11.490 -0.7388  0.5434  0.5752
  554TMC3    H1 8224   3.208   2.437  11.609  0.4515 -1.0243  1.2125
  554TMC3    H2 8225   3.253   2.332  11.199  0.1544  0.5399  0.4341
  554TMC3    C7 8226   3.237   2.542  11.352 -0.0179 -0.8079  0.4120
  554TMC3    C8 8227   3.111   2.143  11.229  0.3508  0.9207 -0.5492
  554TMC3    O1 8228   3.294   2.568  11.244 -0.5144 -0.4414  0.0997
  554TMC3    O2 8229   3.162   2.148  11.120  0.3966 -0.5369  0.5188
  555TMC3    C1 8230   1.697   1.856  14.869  0.0232  0.3530  0.2765
  555TMC3    C2 8231   1.728   1.975  14.940 -0.0401 -0.0268  0.4975
  555TMC3    C3 8232   1.744   1.965  15.074 -0.4734  0.0579  0.7200
  555TMC3    C4 8233   1.696   1.734  14.930 -0.0260 -0.5659  0.3799
  555TMC3    C5 8234   1.723   1.733  15.067  0.6747  0.4663 -0.3292
  555TMC3    C6 8235   1.750   1.846  15.147  0.2057  0.1842 -0.8185
  555TMC3     C 8236   1.623   1.864  14.748  0.3418  0.2212 -0.0025
  555TMC3     O 8237   1.579   1.762  14.689  0.1554  0.0645  0.1787
  555TMC3     H 8238   1.723   2.074  14.895  0.1077 -0.2550 -0.0148
  555TMC3    H1 8239   1.682   1.641  14.877  0.2088 -1.2920  1.5858
  555TMC3    H2 8240   1.757   1.848  15.255 -0.4772 -0.7322 -0.7586
  555TMC3    C7 8241   1.708   1.606  15.141 -0.2091  0.2016  0.2892
  555TMC3    C8 8242   1.769   2.093  15.141  1.0914  0.1055  0.7160
  555TMC3    O1 8243   1.653   1.511  15.085  0.1359 -0.2084  0.5634
  555TMC3    O2 8244   1.736   2.205  15.090 -0.3891 -0.1094  0.5611
  556MPD2     C 8245   4.508   2.715  10.690  0.1915 -0.1258  0.6286
  556MPD2    C1 8246   4.516   2.670  10.819  0.4209  0.3391  0.2312
  556MPD2    C2 8247   4.611   2.568  10.850  0.3954  0.7303  0.3680
  556MPD2    C3 8248   4.681   2.507  10.746 -0.1145  0.1117  0.5504
  556MPD2    C4 8249   4.672   2.559  10.621 -0.0903 -0.0616  0.2016
  556MPD2    C5 8250   4.602   2.676  10.596  0.1646 -0.5180 -0.4079
  556MPD2     H 8251   4.618   2.525  10.949  1.8918  0.7346  0.2572
  556MPD2    H1 8252   0.011   2.531  10.537 -1.0022  1.9009 -1.1248
  556MPD2    H2 8253   4.430   2.785  10.663  0.8699  0.1828 -0.5390
  556MPD2    H3 8254   4.613   2.727  10.500 -0.3776 -1.3532 -0.9072
  556MPD2     N 8255   0.027   2.383  10.774  0.8434  0.6554  0.0067
  556MPD2    H5 8256   0.008   2.333  10.860  1.3739 -0.6914 -0.6665
  556MPD2    N1 8257   4.437   2.725  10.918 -0.0825  0.3358  0.7111
  556MPD2    H7 8258   4.450   2.691  11.013  0.7371 -3.1220 -0.6338
  557TMC3    C1 8259   0.026   2.188  10.668  0.5190 -0.2204 -1.0136
  557TMC3    C2 8260   0.104   2.106  10.589  0.5350  0.0599  0.8806
  557TMC3    C3 8261   0.044   2.047  10.491 -0.1515 -0.6345 -0.0766
  557TMC3    C4 8262   4.614   2.202  10.646 -0.4508 -0.4869 -0.0611
  557TMC3    C5 8263   4.557   2.151  10.534 -0.1800  0.1099  0.7736
  557TMC3    C6 8264   4.637   2.070  10.457  0.2029 -0.3494  0.5907
  557TMC3     C 8265   0.095   2.314  10.683  0.1177 -0.8106 -0.2860
  557TMC3     O 8266   0.136   2.350  10.573  0.0358 -0.1271  0.7837
  557TMC3     H 8267   0.212   2.107  10.581  0.5048  0.9164  0.5269
  557TMC3    H1 8268   4.556   2.274  10.702 -2.0489  0.0302 -2.3777
  557TMC3    H2 8269   4.595   2.034  10.363 -0.4543  0.4022  0.5884
  557TMC3    C7 8270   4.481   2.240  10.448 -0.2295  0.0139  0.1944
  557TMC3    C8 8271   0.140   2.002  10.393 -0.0141 -0.2420 -0.1102
  557TMC3    O1 8272   4.494   2.237  10.327 -0.1513 -0.0631  0.1286
  557TMC3    O2 8273   0.242   1.942  10.421 -0.0767  0.0017  0.8794
  558TMC3    C1 8274   2.486   0.943  10.051 -0.2462 -0.0020 -0.2044
  558TMC3    C2 8275   2.362   0.980  10.106  0.3303  0.2634 -0.1941
  558TMC3    C3 8276   2.266   0.878  10.093  0.6500 -0.5265  0.0178
  558TMC3    C4 8277   2.511   0.842   9.967  0.0076  0.0698 -0.0113
  558TMC3    C5 8278   2.404   0.748   9.952  0.3072  0.3595  0.2374
  558TMC3    C6 8279   2.283   0.770  10.010  0.4696 -0.2127 -0.1994
  558TMC3     C 8280   2.606   1.015  10.090  0.4464  0.6602 -0.7952
  558TMC3     O 8281   2.694   1.024  10.003 -0.4733  1.0018 -0.5430
  558TMC3     H 8282   2.343   1.057  10.180  0.6506 -0.0162  0.1773
  558TMC3    H1 8283   2.615   0.835   9.938  0.8147  0.8991  2.6847
  558TMC3    H2 8284   2.201   0.700   9.997 -0.7815  1.2194 -0.0497
  558TMC3    C7 8285   2.453   0.610   9.943  0.3216 -0.1336 -0.0666
  558TMC3    C8 8286   2.134   0.903  10.152 -0.0668 -0.0023  0.0836
  558TMC3    O1 8287   2.564   0.599   9.997  0.7821 -0.4048  0.1855
  558TMC3    O2 8288   2.031   0.884  10.088  0.0792  0.2533  0.2809
  559MPD2     C 8289   2.494   1.707  10.431 -0.1008  0.0123  0.5230
  559MPD2    C1 8290   2.433   1.670  10.550 -0.5360  0.0403  0.2121
  559MPD2    C2 8291   2.503   1.669  10.669 -0.0987  0.5051  0.5046
  559MPD2    C3 8292   2.636   1.699  10.665 -0.4022 -0.6155  0.3908
  559MPD2    C4 8293   2.705   1.730  10.550 -1.1308 -0.4412 -0.6489
  559MPD2    C5 8294   2.630   1.733  10.432  0.4799 -0.3343  1.0298
  559MPD2     H 8295   2.455   1.650  10.764 -1.7768  0.7175 -0.3037
  559MPD2    H1 8296   2.807   1.766  10.544 -2.1233  2.6678  0.7045
  559MPD2    H2 8297   2.434   1.717  10.341 -1.7280 -1.0777  1.4718
  559MPD2    H3 8298   2.679   1.772  10.343 -0.1987 -2.4549 -0.2574
  559MPD2     N 8299   2.705   1.699  10.788 -0.2935 -0.4081  0.4702
  559MPD2    H5 8300   2.651   1.669  10.868 -1.9729  0.9596 -0.1600
  559MPD2    N1 8301   2.296   1.651  10.559  0.6263  0.3517  0.3659
  559MPD2    H7 8302   2.260   1.658  10.654 -0.8117  0.0718 -0.1577
  560TMC3    C1 8303   2.866   1.718  10.950  0.2332  0.4308 -0.7979
  560TMC3    C2 8304   2.762   1.723  11.039  0.2613 -0.4347 -0.4246
  560TMC3    C3 8305   2.790   1.665  11.162 -0.3295  0.4110 -0.0063
  560TMC3    C4 8306   2.995   1.660  10.980 -0.0174  0.1696 -0.5228
  560TMC3    C5 8307   3.002   1.579  11.094  0.0235  0.1282 -0.4231
  560TMC3    C6 8308   2.904   1.593  11.185 -0.9997  0.1090 -0.0333
  560TMC3     C 8309   2.838   1.727  10.813  0.0372  0.6070  0.8309
  560TMC3     O 8310   2.942   1.730  10.748  0.2826 -0.1807  0.1278
  560TMC3     H 8311   2.664   1.760  11.011 -0.0438 -0.2300  0.9138
  560TMC3    H1 8312   3.068   1.649  10.901  1.9157  1.6620  1.0750
  560TMC3    H2 8313   2.909   1.546  11.283 -0.0869 -0.3758 -0.3178
  560TMC3    C7 8314   3.132   1.566  11.143 -0.2642  0.2326 -0.2307
  560TMC3    C8 8315   2.672   1.625  11.230  1.0666 -0.6089 -0.1982
  560TMC3    O1 8316   3.150   1.490  11.234  0.3277 -0.1661  0.1225
  560TMC3    O2 8317   2.678   1.515  11.289 -0.0603 -0.2929 -0.3408
  561TMC3    C1 8318   0.341   0.894  11.565  0.1914  0.8732  0.2969
  561TMC3    C2 8319   0.217   0.847  11.603  0.4160 -0.6286  0.1216
  561TMC3    C3 8320   0.128   0.940  11.657  0.4259  0.0005  0.3059
  561TMC3    C4 8321   0.370   1.026  11.573 -0.1373  0.1087  0.0728
  561TMC3    C5 8322   0.275   1.108  11.630 -0.4121 -0.0329  0.7848
  561TMC3    C6 8323   0.150   1.075  11.675  0.2807 -0.2269  0.8937
  561TMC3     C 8324   0.436   0.789  11.531 -1.0115  0.2530 -0.1016
  561TMC3     O 8325   0.416   0.670  11.550 -0.5679 -0.4441  0.2256
  561TMC3     H 8326   0.192   0.743  11.583  0.7944 -1.1749  2.5198
  561TMC3    H1 8327   0.468   1.073  11.576  0.6902 -1.5967 -0.6367
  561TMC3    H2 8328   0.071   1.148  11.689  0.8006  0.2215  1.4960
  561TMC3    C7 8329   0.277   1.245  11.581  0.8733  1.0088  0.3447
  561TMC3    C8 8330   4.714   0.893  11.691 -0.1657  0.2932 -0.0136
  561TMC3    O1 8331   0.215   1.326  11.649 -0.3875 -0.5375  0.3636
  561TMC3    O2 8332   4.681   0.778  11.660 -0.4890  0.6665  0.4491
  562TMC3    C1 8333   1.265   2.451  15.995 -0.9534 -0.3054 -0.2169
  562TMC3    C2 8334   1.153   2.518  15.955 -0.7110  0.2166  0.2845
  562TMC3    C3 8335   1.123   2.516  15.820 -0.7964 -0.2382  0.4664
  562TMC3    C4 8336   1.337   2.377  15.908  0.2957 -0.6701  0.0539
  562TMC3    C5 8337   1.303   2.372  15.782  0.1104 -1.4392  0.0675
  562TMC3    C6 8338   1.190   2.440  15.732  0.5468 -0.6220  0.4386
  562TMC3     C 8339   1.307   2.441  16.133 -0.4021  0.5800  0.2887
  562TMC3     O 8340   1.373   2.345  16.172 -0.5118  0.4509  0.8964
  562TMC3     H 8341   1.084   2.557  16.029 -0.0217 -0.9994  1.5772
  562TMC3    H1 8342   1.432   2.352  15.954  0.2569 -0.9840 -0.0359
  562TMC3    H2 8343   1.159   2.436  15.628  1.1523  0.5309  0.2111
  562TMC3    C7 8344   1.382   2.287  15.690  0.0134  0.7414  0.4724
  562TMC3    C8 8345   0.981   2.525  15.799  0.1473  0.2749  0.7048
  562TMC3    O1 8346   1.351   2.307  15.573  0.5040 -0.0492 -0.1329
  562TMC3    O2 8347   0.918   2.460  15.880  0.0845  0.4415 -0.2096
  563MPD2     C 8348   3.695   3.597  15.734 -0.1838 -0.4144  0.1547
  563MPD2    C1 8349   3.736   3.609  15.862  0.7565 -0.0099  0.0743
  563MPD2    C2 8350   3.863   3.569  15.891 -0.3705 -0.1642 -0.5917
  563MPD2    C3 8351   3.947   3.514  15.798 -0.3816  0.1651  0.0690
  563MPD2    C4 8352   3.911   3.519  15.660 -0.0189 -0.1157  0.2938
  563MPD2    C5 8353   3.778   3.549  15.632 -1.3568 -0.0962 -0.1140
  563MPD2     H 8354   3.889   3.560  15.996 -2.9942 -0.5191  0.0376
  563MPD2    H1 8355   3.961   3.469  15.578 -1.0096  1.3640 -1.1931
  563MPD2    H2 8356   3.596   3.617  15.696 -1.2816  0.5823  3.4614
  563MPD2    H3 8357   3.745   3.534  15.530  0.4746  1.0800 -0.8808
  563MPD2     N 8358   4.063   3.454  15.849 -0.0263  0.0425 -0.5041
  563MPD2    H5 8359   4.079   3.448  15.949  0.8216 -2.8958 -0.8195
  563MPD2    N1 8360   3.642   3.641  15.960  0.5017  0.1089 -0.0778
  563MPD2    H7 8361   3.547   3.630  15.925  0.3554 -0.2599  0.4465
  564TMC3    C1 8362   3.575   3.658  16.190  0.0545  0.3007 -0.6912
  564TMC3    C2 8363   3.510   3.543  16.159 -0.7933 -0.2368 -0.4337
  564TMC3    C3 8364   3.524   3.432  16.237  0.0689  0.1649  0.0922
  564TMC3    C4 8365   3.650   3.671  16.307 -0.2964  0.2339 -0.7518
  564TMC3    C5 8366   3.659   3.555  16.384  0.7386  0.3487 -0.5322
  564TMC3    C6 8367   3.593   3.439  16.353  0.6929  0.6383  0.2759
  564TMC3     C 8368   3.669   3.691  16.083  0.9174  0.4633 -0.5171
  564TMC3     O 8369   3.772   3.739  16.127 -0.6862 -0.1245  0.1212
  564TMC3     H 8370   3.440   3.548  16.076  1.1693  1.6761 -1.9978
  564TMC3    H1 8371   3.714   3.754  16.333 -0.4112 -0.7361  2.7119
  564TMC3    H2 8372   3.608   3.348  16.410  0.8529  0.7933  0.4848
  564TMC3    C7 8373   3.764   3.561  16.490  0.6058 -0.7123  0.1677
  564TMC3    C8 8374   3.513   3.302  16.177 -0.4223  0.1568  0.3220
  564TMC3    O1 8375   3.756   3.657  16.560  0.4879 -0.0443 -0.4622
  564TMC3    O2 8376   3.466   3.206  16.245  0.3292 -0.3059  0.0354
  565TMC3    C1 8377   4.462   0.041   9.646 -0.0588 -1.1319  0.4047
  565TMC3    C2 8378   4.468   4.692   9.766  0.1749  0.8141  0.4613
  565TMC3    C3 8379   4.365   4.602   9.773 -0.2710 -0.7723  0.1765
  565TMC3    C4 8380   4.390   0.003   9.532  0.1642  0.2189 -0.2794
  565TMC3    C5 8381   4.293   4.631   9.555 -0.3949 -0.1026  0.3462
  565TMC3    C6 8382   4.282   4.558   9.668  0.4579 -0.1546 -0.2847
  565TMC3     C 8383   4.525   0.173   9.644 -0.4686  0.4334 -0.5005
  565TMC3     O 8384   4.519   0.235   9.541 -0.2687 -0.8449 -0.0132
  565TMC3     H 8385   4.537   4.708   9.848  1.2591  1.3714 -0.5600
  565TMC3    H1 8386   4.396   0.062   9.442 -0.0824 -0.1766 -0.5565
  565TMC3    H2 8387   4.185   4.512   9.684 -0.6065  2.1881 -0.0669
  565TMC3    C7 8388   4.193   4.612   9.453  0.9514 -0.1166  0.2918
  565TMC3    C8 8389   4.322   4.556   9.902 -0.5964  0.5659 -0.2077
  565TMC3    O1 8390   4.190   4.697   9.367 -0.1016 -0.4764  0.1067
  565TMC3    O2 8391   4.388   4.590   9.997  0.1019 -0.1457 -0.6162
  566MPD2     C 8392   1.182   0.940  14.143 -0.3768  0.2307 -0.7168
  566MPD2    C1 8393   1.156   1.074  14.112 -0.9171  0.3752  0.3078
  566MPD2    C2 8394   1.028   1.118  14.090 -0.4875  0.4158  0.0841
  566MPD2    C3 8395   0.920   1.031  14.091 -0.4549 -0.0736 -0.3953
  566MPD2    C4 8396   0.946   0.900  14.123  0.2327  0.1163 -0.3938
  566MPD2    C5 8397   1.076   0.853  14.147 -0.1635 -0.6160 -0.1790
  566MPD2     H 8398   1.011   1.223  14.071  1.2557  0.1677 -2.7155
  566MPD2    H1 8399   0.870   0.823  14.125  0.3565  0.0400  0.9173
  566MPD2    H2 8400   1.283   0.907  14.164 -1.3281 -0.9890  1.9850
  566MPD2    H3 8401   1.091   0.751  14.182  0.7094 -0.2859  0.4044
  566MPD2     N 8402   0.788   1.061  14.045  0.7230  0.2472 -0.1343
  566MPD2    H5 8403   0.719   0.993  14.077  1.4527 -0.9749 -1.1428
  566MPD2    N1 8404   1.269   1.156  14.091 -0.2082 -0.0873 -0.4340
  566MPD2    H7 8405   1.359   1.113  14.110  0.5866  0.7457 -2.3778
  567TMC3    C1 8406   1.397   1.345  14.046  1.3743  0.5586 -0.2257
  567TMC3    C2 8407   1.409   1.448  13.956 -0.3918  0.0581  0.2961
  567TMC3    C3 8408   1.533   1.506  13.947 -0.3335  1.1090 -0.6710
  567TMC3    C4 8409   1.491   1.317  14.136  0.4457 -0.2365  0.1470
  567TMC3    C5 8410   1.616   1.383  14.135 -1.1870  0.3381  0.2472
  567TMC3    C6 8411   1.636   1.470  14.030 -0.1729  0.0120 -0.8385
  567TMC3     C 8412   1.267   1.288  14.049 -0.3728  0.3477  0.0269
  567TMC3     O 8413   1.177   1.358  14.013 -0.3335 -0.1260 -0.1240
  567TMC3     H 8414   1.328   1.472  13.889 -0.0629  1.6401  0.4690
  567TMC3    H1 8415   1.468   1.247  14.216 -0.8647 -0.0035 -0.0278
  567TMC3    H2 8416   1.737   1.509  14.029 -0.3983  0.7645  3.6759
  567TMC3    C7 8417   1.694   1.380  14.249  0.4070 -0.3001  0.3672
  567TMC3    C8 8418   1.557   1.604  13.848  0.1434  0.2151 -0.1473
  567TMC3    O1 8419   1.817   1.375  14.227  0.2117 -0.1036  0.0967
  567TMC3    O2 8420   1.505   1.574  13.738  0.1486  1.2325 -0.4254
  568MPD2     C 8421   3.816   1.950  16.631 -0.2204  0.3655 -0.3159
  568MPD2    C1 8422   3.701   2.019  16.633  0.4397  0.5357  0.3035
  568MPD2    C2 8423   3.697   2.144  16.577 -1.0183  0.5014  0.4791
  568MPD2    C3 8424   3.810   2.209  16.540  0.0140 -0.0982  0.5397
  568MPD2    C4 8425   3.937   2.145  16.551  0.1672 -0.5551  0.4290
  568MPD2    C5 8426   3.935   2.012  16.594 -0.0828 -0.0373 -0.3320
  568MPD2     H 8427   3.602   2.195  16.563  0.4462  2.8757 -0.7859
  568MPD2    H1 8428   4.031   2.194  16.533 -0.5943  1.3032  1.5334
  568MPD2    H2 8429   3.819   1.848  16.669 -0.3646  0.5039  0.0658
  568MPD2    H3 8430   4.028   1.957  16.601 -0.4392 -0.3375  1.9768
  568MPD2     N 8431   3.801   2.348  16.501 -0.3761 -0.5445 -0.4344
  568MPD2    H5 8432   3.706   2.383  16.508 -1.1721 -2.7450 -0.3477
  568MPD2    N1 8433   3.587   1.957  16.671 -0.8233 -0.4509  0.2395
  568MPD2    H7 8434   3.590   1.867  16.716  0.0055 -0.9958 -0.8995
  569TMC3    C1 8435   3.857   2.559  16.404 -0.3444  0.7648  0.7339
  569TMC3    C2 8436   3.748   2.606  16.466 -0.3673 -0.0824  0.0622
  569TMC3    C3 8437   3.662   2.682  16.400 -0.1530  0.0351  0.4444
  569TMC3    C4 8438   3.878   2.576  16.272  0.3914 -0.0509  0.1820
  569TMC3    C5 8439   3.780   2.639  16.195 -0.0336  0.1516  0.3233
  569TMC3    C6 8440   3.669   2.684  16.266 -0.0259 -0.5622  0.1879
  569TMC3     C 8441   3.905   2.421  16.451  0.3760 -0.4062 -0.2980
  569TMC3     O 8442   4.019   2.381  16.417 -0.0750 -0.2750  0.0613
  569TMC3     H 8443   3.749   2.601  16.574  2.1045 -1.8127 -0.0428
  569TMC3    H1 8444   3.964   2.540  16.216 -0.6985 -0.4473 -1.2366
  569TMC3    H2 8445   3.580   2.718  16.213  0.1191 -2.2771 -1.1833
  569TMC3    C7 8446   3.845   2.742  16.115 -0.6972 -0.0063 -0.3776
  569TMC3    C8 8447   3.610   2.814  16.443  1.0373  0.5790 -0.0556
  569TMC3    O1 8448   3.956   2.732  16.074  0.1896  0.3121  0.4821
  569TMC3    O2 8449   3.508   2.855  16.390  0.2802 -0.0233  0.7350
  570TMC3    C1 8450   2.707   0.910  16.070 -0.1107  0.3212  0.2154
  570TMC3    C2 8451   2.830   0.858  16.031  0.0135 -0.1137 -0.1088
  570TMC3    C3 8452   2.924   0.944  15.997  0.0438 -0.4628  0.4328
  570TMC3    C4 8453   2.682   1.045  16.080 -0.4077  0.0596 -0.5189
  570TMC3    C5 8454   2.778   1.124  16.033  0.2223 -0.1735 -0.2471
  570TMC3    C6 8455   2.904   1.079  16.001 -0.8041 -0.4478  0.0497
  570TMC3     C 8456   2.615   0.821  16.132 -0.2354  0.5120  0.3704
  570TMC3     O 8457   2.650   0.708  16.136  0.3940 -0.2063 -0.1363
  570TMC3     H 8458   2.833   0.753  16.008 -0.8424 -0.3736  0.9795
  570TMC3    H1 8459   2.589   1.090  16.113  0.3590  2.1464 -1.2126
  570TMC3    H2 8460   2.987   1.141  15.968  1.1465 -1.7125  2.4814
  570TMC3    C7 8461   2.775   1.264  16.069 -0.4580 -0.2570  0.3403
  570TMC3    C8 8462   3.044   0.911  15.934  0.0147 -0.1263  0.7094
  570TMC3    O1 8463   2.720   1.283  16.176 -0.1954  0.1856  0.2529
  570TMC3    O2 8464   3.151   0.957  15.973  0.0824  0.0303  0.0582
  571MPD2     C 8465   1.022   2.594  17.545  0.0873 -0.7967 -0.4053
  571MPD2    C1 8466   0.918   2.620  17.639  0.0733 -0.1750  0.3347
  571MPD2    C2 8467   0.931   2.741   0.017 -0.6482 -0.5749 -0.2526
  571MPD2    C3 8468   1.028   2.834  17.690 -1.1005 -0.7291 -0.6073
  571MPD2    C4 8469   1.122   2.805  17.597  0.8500 -0.2194  0.8390
  571MPD2    C5 8470   1.116   2.690  17.521 -0.3560  0.3483 -0.4047
  571MPD2     H 8471   0.868   2.768   0.101 -0.1521  0.8225 -0.3316
  571MPD2    H1 8472   1.206   2.868  17.567  1.2048  0.2563  2.8832
  571MPD2    H2 8473   1.033   2.497  17.497  0.2317 -0.9321 -0.1036
  571MPD2    H3 8474   1.189   2.672  17.443 -1.9321 -0.9849 -1.5647
  571MPD2     N 8475   1.041   2.957   0.067 -0.8362  0.4793 -0.5721
  571MPD2    H5 8476   1.119   3.018   0.042 -0.1634 -0.5566 -0.9811
  571MPD2    N1 8477   0.815   2.522  17.663 -0.8310  0.4621 -0.3878
  571MPD2    H7 8478   0.809   2.449  17.592 -1.3772  0.5931 -0.4694
  572TMC3    C1 8479   1.002   3.118   0.226 -0.0609  0.3553  0.1555
  572TMC3    C2 8480   0.941   3.157   0.345 -0.6866 -0.7211  0.0900
  572TMC3    C3 8481   0.929   3.288   0.371 -0.4696  0.5075 -0.7501
  572TMC3    C4 8482   1.079   3.208   0.155  0.7140  0.0791  0.2230
  572TMC3    C5 8483   1.067   3.342   0.191 -0.1436 -0.0218  0.4513
  572TMC3    C6 8484   0.993   3.381   0.295 -1.0865 -0.0570 -0.2752
  572TMC3     C 8485   0.955   3.003   0.165  0.4446 -0.5598 -0.0808
  572TMC3     O 8486   0.861   2.945   0.219 -0.3581  0.1307  0.5285
  572TMC3     H 8487   0.865   3.089   0.382  0.7215 -2.6071 -0.4484
  572TMC3    H1 8488   1.108   3.190   0.052 -1.2069  0.1580 -0.3329
  572TMC3    H2 8489   0.991   3.488   0.312  1.7136 -0.1239  0.4283
  572TMC3    C7 8490   1.126   3.440   0.098 -0.0821 -0.5125  0.6598
  572TMC3    C8 8491   0.827   3.342   0.454  0.7066 -0.3002 -0.6823
  572TMC3    O1 8492   1.071   3.549   0.088 -0.5538 -0.1572 -0.0318
  572TMC3    O2 8493   0.791   3.455   0.435  0.3723 -0.2260 -0.0873
  573MPD2     C 8494   2.152   2.931   0.559 -0.1215 -0.3158  0.0681
  573MPD2    C1 8495   2.275   2.995   0.575 -0.0745 -0.3724 -0.2814
  573MPD2    C2 8496   2.338   3.052   0.469  0.2393 -0.0743 -0.1393
  573MPD2    C3 8497   2.270   3.061   0.345 -0.1521  0.5304  0.3476
  573MPD2    C4 8498   2.153   2.999   0.332 -0.0331 -0.1207 -0.3075
  573MPD2    C5 8499   2.091   2.939   0.435 -0.1203 -0.0855  0.5305
  573MPD2     H 8500   2.430   3.105   0.488  0.5376 -0.3973 -0.6996
  573MPD2    H1 8501   2.097   2.993   0.240 -0.0277 -1.2757 -0.2387
  573MPD2    H2 8502   2.106   2.883   0.644  0.2717 -0.4905  0.1841
  573MPD2    H3 8503   1.998   2.884   0.419 -0.5125 -0.3591  3.6464
  573MPD2     N 8504   2.305   3.140   0.238  0.5613 -0.8632 -0.6988
  573MPD2    H5 8505   2.243   3.141   0.158 -1.2985  2.7616  0.8008
  573MPD2    N1 8506   2.334   2.989   0.706 -0.1648  0.0086 -0.3060
  573MPD2    H7 8507   2.273   2.939   0.770 -2.5076  1.8020 -1.1599
  574TMC3    C1 8508   2.435   3.284   0.111  1.2240  0.6456  0.0773
  574TMC3    C2 8509   2.360   3.247   0.005  0.7018  0.0542 -0.1881
  574TMC3    C3 8510   2.384   3.314  17.582 -0.0560 -0.6460 -0.2917
  574TMC3    C4 8511   2.530   3.384   0.098  0.2239 -0.2822  0.3594
  574TMC3    C5 8512   2.551   3.444  17.669 -0.3558  0.2275 -0.0494
  574TMC3    C6 8513   2.474   3.414  17.560 -0.4570 -0.0707  0.5797
  574TMC3     C 8514   2.425   3.199   0.225 -0.4607 -0.0011 -0.3984
  574TMC3     O 8515   2.520   3.205   0.304  0.1315 -0.4134 -0.6190
  574TMC3     H 8516   2.296   3.159   0.005  0.5505  0.1598  1.2393
  574TMC3    H1 8517   2.587   3.422   0.181 -1.3094  0.0048  1.2715
  574TMC3    H2 8518   2.501   3.444  17.459 -2.8372 -0.6016 -0.2249
  574TMC3    C7 8519   2.659   3.544  17.657 -0.0993 -0.1613 -0.4664
  574TMC3    C8 8520   2.299   3.277  17.470  0.7714 -0.4220  0.7654
  574TMC3    O1 8521   2.651   3.625  17.563  0.1137 -0.2354 -0.4901
  574TMC3    O2 8522   2.234   3.177  17.473 -0.2346  0.1856 -0.2613
  575TMC3    C1 8523   4.413   4.514  10.773 -1.0486  0.7352 -0.0790
  575TMC3    C2 8524   4.354   4.422  10.853 -0.6441 -0.2446  0.0150
  575TMC3    C3 8525   4.276   4.322  10.796 -0.5816  0.5350 -0.7963
  575TMC3    C4 8526   4.378   4.529  10.643 -0.0293  0.7985 -0.1214
  575TMC3    C5 8527   4.291   4.438  10.585 -0.2566 -0.2352 -0.1901
  575TMC3    C6 8528   4.242   4.335  10.665  0.0017  0.1855 -0.0031
  575TMC3     C 8529   4.548   4.558  10.820 -0.2036 -0.0513  0.0496
  575TMC3     O 8530   4.578   4.563  10.939 -0.0018 -0.1212 -0.3750
  575TMC3     H 8531   4.376   4.426  10.959  0.8909  0.2334 -0.3108
  575TMC3    H1 8532   4.425   4.600  10.576  1.0379  1.4148  1.2855
  575TMC3    H2 8533   4.174   4.262  10.622  0.2562 -0.1380  0.1487
  575TMC3    C7 8534   4.267   4.452  10.443 -0.5574  0.1434  0.6135
  575TMC3    C8 8535   4.226   4.213  10.875  0.6647 -0.0622 -0.2798
  575TMC3    O1 8536   4.317   4.541  10.386 -0.2328 -0.0167 -0.0040
  575TMC3    O2 8537   4.206   4.102  10.829  0.2173  0.2124 -0.3021
  576MPD2     C 8538   3.783   1.237  12.823  0.2694 -0.2938 -0.5419
  576MPD2    C1 8539   3.827   1.350  12.757  0.3516 -0.2290 -0.4851
  576MPD2    C2 8540   3.761   1.466  12.782 -0.3604 -0.3039 -0.0664
  576MPD2    C3 8541   3.647   1.471  12.858 -0.1091 -0.2258 -0.5516
  576MPD2    C4 8542   3.604   1.357  12.922  0.4280 -0.4441  0.0142
  576MPD2    C5 8543   3.672   1.242  12.905  0.5882  0.5452 -0.4063
  576MPD2     H 8544   3.792   1.557  12.732 -1.9522  1.6664  2.5256
  576MPD2    H1 8545   3.526   1.365  12.997  0.5728  2.8044 -0.1725
  576MPD2    H2 8546   3.823   1.138  12.803 -1.9270 -0.8766 -2.1501
  576MPD2    H3 8547   3.640   1.149  12.950  0.1863  1.2584  0.7818
  576MPD2     N 8548   3.580   1.601  12.864 -1.0176  0.5226  0.5681
  576MPD2    H5 8549   3.616   1.686  12.820  0.9653 -1.3539 -1.4514
  576MPD2    N1 8550   3.930   1.344  12.657 -0.4161  0.4066  0.0653
  576MPD2    H7 8551   3.949   1.434  12.613 -0.1622  1.4105  2.2063
  577TMC3    C1 8552   4.119   1.247  12.529  0.2826 -0.1471 -0.8724
  577TMC3    C2 8553   4.153   1.139  12.451  0.2465  0.1962  0.3162
  577TMC3    C3 8554   4.229   1.168  12.340 -0.0891  0.0286 -0.2940
  577TMC3    C4 8555   4.159   1.370  12.500  0.0368  0.0365 -0.2165
  577TMC3    C5 8556   4.232   1.391  12.387 -0.5062 -0.2292  1.0853
  577TMC3    C6 8557   4.264   1.294  12.302 -0.0066 -0.5473  0.9189
  577TMC3     C 8558   4.017   1.232  12.630  0.0199  0.4212 -0.3867
  577TMC3     O 8559   4.022   1.126  12.686 -0.2841  0.0038 -0.0856
  577TMC3     H 8560   4.122   1.040  12.482 -0.0534 -0.2813 -1.4710
  577TMC3    H1 8561   4.121   1.454  12.557  2.3697  1.1519 -0.3112
  577TMC3    H2 8562   4.324   1.315  12.214  0.9205 -0.3445  1.6009
  577TMC3    C7 8563   4.266   1.530  12.356  0.6338  0.2332  0.0504
  577TMC3    C8 8564   4.239   1.059  12.238 -0.1288 -0.2670 -0.3214
  577TMC3    O1 8565   4.282   1.606  12.450 -0.6132 -0.2275 -0.3145
  577TMC3    O2 8566   4.168   0.954  12.257 -0.0290  0.2930 -0.0869
  578MPD2     C 8567   1.280   0.966   0.798  1.1543 -0.5692 -0.1967
  578MPD2    C1 8568   1.409   0.933   0.755  0.0850  0.7970 -0.1489
  578MPD2    C2 8569   1.516   0.926   0.835  0.0020  0.0959  0.1690
  578MPD2    C3 8570   1.500   0.940   0.973  0.2582 -0.3190  0.4395
  578MPD2    C4 8571   1.367   0.953   1.019 -0.4662  0.5235  0.1681
  578MPD2    C5 8572   1.268   0.974   0.931 -0.1496  0.2716  0.1078
  578MPD2     H 8573   1.615   0.894   0.803  0.6722 -0.9567  3.2920
  578MPD2    H1 8574   1.347   0.970   1.124  2.4925  2.1047  0.4770
  578MPD2    H2 8575   1.196   0.977   0.731  2.7654  0.4500 -2.0743
  578MPD2    H3 8576   1.172   0.994   0.977  0.0496  0.8254  0.2846
  578MPD2     N 8577   1.609   0.944   1.053 -0.3135  0.2138  0.2851
  578MPD2    H5 8578   1.700   0.913   1.020 -1.0888 -2.4570  0.6562
  578MPD2    N1 8579   1.421   0.943   0.618  0.3522  0.7915  0.2247
  578MPD2    H7 8580   1.340   0.955   0.558  0.9618  0.3899 -0.6798
  579TMC3    C1 8581   1.741   0.975   1.249 -0.2477  0.3362  0.2853
  579TMC3    C2 8582   1.780   1.072   1.336 -0.1161 -0.3930  0.8143
  579TMC3    C3 8583   1.909   1.066   1.385  0.0070 -0.0107  0.7869
  579TMC3    C4 8584   1.822   0.882   1.194  0.3991  0.0213 -1.3132
  579TMC3    C5 8585   1.952   0.876   1.240  0.4659  0.1939 -0.5082
  579TMC3    C6 8586   1.994   0.971   1.331 -0.1111  0.5038 -0.2925
  579TMC3     C 8587   1.602   0.978   1.191  0.1080 -0.6985 -0.0805
  579TMC3     O 8588   1.517   1.045   1.248 -0.5257 -0.4742  0.4569
  579TMC3     H 8589   1.715   1.150   1.374 -2.4794 -2.6287  1.3989
  579TMC3    H1 8590   1.783   0.803   1.131  0.0351 -1.0379  0.2443
  579TMC3    H2 8591   2.099   0.966   1.357 -0.0159  0.3349 -0.7044
  579TMC3    C7 8592   2.033   0.759   1.226  0.4757 -0.0330 -0.4634
  579TMC3    C8 8593   1.960   1.159   1.481 -1.0421 -0.6957  0.5356
  579TMC3    O1 8594   2.145   0.750   1.283 -0.8380  0.2527  0.2385
  579TMC3    O2 8595   1.880   1.219   1.550 -0.5722  0.2557  0.0365
  580TMC3    C1 8596   1.767   0.057  11.585 -0.8241  0.0566  0.4210
  580TMC3    C2 8597   1.799   0.048  11.455 -0.3100 -0.5588  0.3042
  580TMC3    C3 8598   1.818   4.653  11.395 -0.1739  0.1893  0.1837
  580TMC3    C4 8599   1.732   4.667  11.655 -0.3411  0.1447 -0.0671
  580TMC3    C5 8600   1.758   4.550  11.592 -0.6024  0.4618  0.3198
  580TMC3    C6 8601   1.798   4.538  11.463  0.0056 -0.4749  0.2835
  580TMC3     C 8602   1.813   0.177  11.656 -0.3664 -0.1950 -0.1518
  580TMC3     O 8603   1.875   0.260  11.594 -0.3894  0.2041 -0.4166
  580TMC3     H 8604   1.841   0.131  11.400 -0.9523 -0.5666 -0.1991
  580TMC3    H1 8605   1.698   4.662  11.757 -1.6374  0.4614 -0.4791
  580TMC3    H2 8606   1.816   4.440  11.420 -0.6561 -0.1335 -0.7752
  580TMC3    C7 8607   1.797   4.435  11.674 -0.5228  0.6715  0.1527
  580TMC3    C8 8608   1.914   4.637  11.288 -0.3430  0.4347 -0.2569
  580TMC3    O1 8609   1.907   4.381  11.654 -0.3332 -0.4116  0.1809
  580TMC3    O2 8610   1.924   4.529  11.224  0.2401 -0.3250  1.0414
  581MPD2     C 8611   4.326   4.375  15.258  0.0026 -0.0841  0.0266
  581MPD2    C1 8612   4.428   4.461  15.225 -0.2159  0.0979  0.0891
  581MPD2    C2 8613   4.400   4.573  15.150 -0.1360 -0.0243 -0.2136
  581MPD2    C3 8614   4.263   4.595  15.112 -0.0672 -0.3148 -0.4365
  581MPD2    C4 8615   4.165   4.513  15.158  0.1488 -0.6296 -0.0933
  581MPD2    C5 8616   4.198   4.410  15.238  0.4236  0.5700 -0.7369
  581MPD2     H 8617   4.478   4.629  15.101  0.5876 -1.1160 -0.3180
  581MPD2    H1 8618   4.060   4.539  15.146  0.2982  0.4963  1.0284
  581MPD2    H2 8619   4.354   4.280  15.302  0.5706 -0.1101 -0.3865
  581MPD2    H3 8620   4.120   4.356  15.290  0.7339  1.5030  0.7058
  581MPD2     N 8621   4.222   4.697  15.014 -0.1260 -0.3481 -0.0865
  581MPD2    H5 8622   4.292   0.027  14.963 -0.4946 -0.0356 -0.2688
  581MPD2    N1 8623   4.557   4.412  15.250 -0.5583  0.7859  0.3145
  581MPD2    H7 8624   4.557   4.317  15.284 -0.7837  0.3707 -0.8429
  582TMC3    C1 8625   0.062   4.407  15.291  0.7174  0.7513  0.8177
  582TMC3    C2 8626   0.134   4.477  15.382  0.0798 -0.0937  0.0658
  582TMC3    C3 8627   0.203   4.405  15.475 -0.0526  0.2367  0.2965
  582TMC3    C4 8628   0.052   4.272  15.302  0.4770  0.6956 -0.4400
  582TMC3    C5 8629   0.109   4.207  15.410 -0.2176  0.7179 -0.3882
  582TMC3    C6 8630   0.186   4.273  15.492  0.2391  0.3969  0.3077
  582TMC3     C 8631   4.678   4.480  15.230 -0.2378 -0.6015  0.2808
  582TMC3     O 8632   4.691   4.606  15.213  0.1593 -0.2638  0.3189
  582TMC3     H 8633   0.121   4.585  15.377 -3.0525 -0.5771 -2.6537
  582TMC3    H1 8634   4.715   4.210  15.235  0.0847 -0.6829  1.1743
  582TMC3    H2 8635   0.223   4.228  15.583 -3.5456 -1.1653  1.0533
  582TMC3    C7 8636   0.001   4.124  15.474  0.6301  0.5465 -0.7201
  582TMC3    C8 8637   0.229   4.474  15.600 -0.2833 -0.2320  0.2472
  582TMC3    O1 8638   4.679   4.037  15.409 -0.2155 -0.1681 -0.0998
  582TMC3    O2 8639   0.172   4.578  15.625 -0.9194 -0.2160 -0.3439
  583MPD2     C 8640   4.662   1.533  16.698 -0.6554  0.1057 -0.0761
  583MPD2    C1 8641   4.663   1.662  16.644 -0.6033 -0.8268 -0.6604
  583MPD2    C2 8642   4.637   1.766  16.737  0.1452  0.5253 -0.1169
  583MPD2    C3 8643   4.608   1.735  16.870 -0.5385 -0.5495  0.6995
  583MPD2    C4 8644   4.637   1.614  16.918  0.1337 -0.1842 -0.6729
  583MPD2    C5 8645   4.659   1.516  16.832  0.0523 -0.0695 -0.0381
  583MPD2     H 8646   4.614   1.866  16.701 -3.1981 -0.1544  0.1215
  583MPD2    H1 8647   4.610   1.584  17.019  0.6546  2.1960  0.1603
  583MPD2    H2 8648   4.684   1.446  16.638 -0.0849 -0.4733  0.9630
  583MPD2    H3 8649   4.659   1.413  16.866  2.0962  0.2438  0.8564
  583MPD2     N 8650   4.576   1.843  16.956  0.0332 -0.0705  0.3083
  583MPD2    H5 8651   4.594   1.937  16.921 -2.2768  0.8507  1.5944
  583MPD2    N1 8652   4.699   1.695  16.505  0.2973 -1.0121  0.4566
  583MPD2    H7 8653   4.707   1.794  16.485  1.4929 -1.4714 -1.3813
  584TMC3    C1 8654   4.531   1.947  17.165  0.3343 -0.0714  0.2492
  584TMC3    C2 8655   4.540   2.064  17.097  0.0526 -0.2199 -0.2684
  584TMC3    C3 8656   4.518   2.180  17.173  0.8566  0.5137 -0.2733
  584TMC3    C4 8657   4.513   1.927  17.298 -0.5377 -0.0928 -0.1250
  584TMC3    C5 8658   4.489   2.044  17.367  0.0044  0.5401 -0.6544
  584TMC3    C6 8659   4.487   2.169  17.308 -0.2386  0.3468 -0.0499
  584TMC3     C 8660   4.545   1.821  17.091 -0.6011 -0.2678 -0.4312
  584TMC3     O 8661   4.491   1.717  17.138 -0.0775  0.1959  0.1470
  584TMC3     H 8662   4.578   2.082  16.997 -0.5051 -0.1093 -0.4591
  584TMC3    H1 8663   4.519   1.829  17.345 -0.0677 -0.0015  0.0022
  584TMC3    H2 8664   4.469   2.256  17.369  1.2101 -1.2070  2.6023
  584TMC3    C7 8665   4.467   2.026  17.507 -0.3645  0.0324  0.0973
  584TMC3    C8 8666   4.548   2.309  17.120 -0.1608 -1.1681  0.8375
  584TMC3    O1 8667   4.540   1.960  17.573 -0.5829  0.4262 -0.0072
  584TMC3    O2 8668   4.527   2.325  17.003  0.0386  0.0143 -0.1410
  585MPD2     C 8669   3.648   1.231   1.107  0.0873  0.0211  0.5271
  585MPD2    C1 8670   3.702   1.282   0.994  0.3564 -0.0959  0.0522
  585MPD2    C2 8671   3.760   1.199   0.900  0.1100  0.4174  0.0507
  585MPD2    C3 8672   3.784   1.067   0.929 -0.1616  0.0852  1.1557
  585MPD2    C4 8673   3.738   1.023   1.054 -0.0531  0.2909  0.1255
  585MPD2    C5 8674   3.670   1.100   1.141 -0.1363  0.4213 -0.6342
  585MPD2     H 8675   3.765   1.237   0.799  1.0148  0.6632  0.1858
  585MPD2    H1 8676   3.767   0.927   1.095 -0.8593 -0.3296 -0.7510
  585MPD2    H2 8677   3.581   1.286   1.173  1.0211  2.2245 -0.3521
  585MPD2    H3 8678   3.639   1.064   1.239 -1.3049  1.8022 -0.5140
  585MPD2     N 8679   3.844   0.977   0.839  0.3766  0.2317  0.1488
  585MPD2    H5 8680   3.848   0.882   0.874 -2.6867 -0.0040 -0.1248
  585MPD2    N1 8681   3.676   1.416   0.960  0.9835  0.0180  0.0441
  585MPD2    H7 8682   3.605   1.469   1.010  1.6047  0.5480  0.3650
  586TMC3    C1 8683   3.921   0.878   0.635  0.2102  0.3655 -0.1127
  586TMC3    C2 8684   3.952   0.766   0.700 -0.6114 -0.0024 -0.0454
  586TMC3    C3 8685   3.947   0.651   0.627 -0.4439  0.0114 -0.1463
  586TMC3    C4 8686   3.884   0.884   0.505 -0.1625 -0.2143 -1.1093
  586TMC3    C5 8687   3.870   0.767   0.443  0.2951 -0.7742 -0.6961
  586TMC3    C6 8688   3.899   0.647   0.498  0.2383  0.3964  0.5638
  586TMC3     C 8689   3.884   1.000   0.713  0.7129 -0.6278 -0.1128
  586TMC3     O 8690   3.869   1.102   0.653 -0.1035 -0.3151 -0.3497
  586TMC3     H 8691   3.992   0.772   0.801 -0.3020  1.6241 -0.2596
  586TMC3    H1 8692   3.857   0.977   0.455 -0.3976  0.8758  1.0495
  586TMC3    H2 8693   3.893   0.555   0.440 -2.2269  0.5333  0.5693
  586TMC3    C7 8694   3.804   0.775   0.316 -0.3710 -0.3915  0.4334
  586TMC3    C8 8695   4.030   0.544   0.679  0.4091 -0.6389  0.5554
  586TMC3    O1 8696   3.819   0.886   0.268 -0.1353  0.0059 -0.2432
  586TMC3    O2 8697   4.020   0.536   0.800 -0.2430 -0.0581  0.4974
  587TMC3    C1 8698   1.570   3.874  16.501  0.4718  0.0445 -0.0298
  587TMC3    C2 8699   1.524   3.992  16.548 -0.3571 -0.3201  0.6113
  587TMC3    C3 8700   1.611   4.095  16.540 -0.8161  0.0784 -0.5520
  587TMC3    C4 8701   1.706   3.845  16.477  0.1620 -0.5579  0.3117
  587TMC3    C5 8702   1.793   3.954  16.488 -1.0712 -0.1407  0.3096
  587TMC3    C6 8703   1.747   4.081  16.514  0.0632  0.5898  0.4957
  587TMC3     C 8704   1.488   3.753  16.506 -0.1201 -0.2124 -0.1407
  587TMC3     O 8705   1.540   3.644  16.522  0.1124 -0.0581  0.0845
  587TMC3     H 8706   1.431   4.005  16.601 -1.7406 -0.9181 -1.6269
  587TMC3    H1 8707   1.737   3.745  16.449 -0.5171 -1.0429  1.3375
  587TMC3    H2 8708   1.809   4.169  16.497 -0.5753  0.6993 -1.2346
  587TMC3    C7 8709   1.937   3.938  16.477  1.4564  0.0127 -0.2189
  587TMC3    C8 8710   1.564   4.233  16.570 -0.0210 -0.7073 -0.1887
  587TMC3    O1 8711   2.005   4.037  16.441 -0.1269  0.8755 -0.1703
  587TMC3    O2 8712   1.659   4.306  16.593  0.0520  0.4834  0.4542
  588TMC3    C1 8713   3.997   2.078   9.525 -0.3859 -0.4348 -0.1946
  588TMC3    C2 8714   3.973   1.945   9.510  0.1927 -0.8668  0.4387
  588TMC3    C3 8715   3.979   1.875   9.629  0.6805 -1.1480 -0.9357
  588TMC3    C4 8716   4.043   2.130   9.643  0.2893  0.4744  0.4145
  588TMC3    C5 8717   4.042   2.059   9.757 -0.5790 -0.4321  0.0791
  588TMC3    C6 8718   4.003   1.925   9.754 -0.2342 -0.2381 -0.2331
  588TMC3     C 8719   3.935   2.161   9.421  0.4775 -0.9168  0.6931
  588TMC3     O 8720   3.845   2.117   9.352  0.4127 -0.0204 -0.3657
  588TMC3     H 8721   3.945   1.906   9.413 -0.6000  1.0276 -0.0924
  588TMC3    H1 8722   4.066   2.236   9.648  0.3271  0.4609  0.5203
  588TMC3    H2 8723   4.001   1.867   9.845  1.4425  0.1697  0.0636
  588TMC3    C7 8724   4.042   2.130   9.883 -0.1929  0.7014  0.0187
  588TMC3    C8 8725   3.978   1.730   9.613  0.4106 -0.0338 -0.6876
  588TMC3    O1 8726   4.086   2.072   9.984 -0.3156  0.3837 -0.6627
  588TMC3    O2 8727   3.936   1.690   9.510 -0.0994 -0.6796  0.0555
  589TMC3    C1 8728   2.809   3.885   1.060 -0.7852  0.5417 -0.3195
  589TMC3    C2 8729   2.847   3.976   1.154 -0.0735  0.0729  0.0812
  589TMC3    C3 8730   2.980   3.961   1.194 -0.5866  0.6856  0.0937
  589TMC3    C4 8731   2.884   3.774   1.017 -0.5507  0.7782 -0.4574
  589TMC3    C5 8732   3.011   3.768   1.061  0.5355  0.6641 -0.3981
  589TMC3    C6 8733   3.065   3.866   1.137  0.8934  0.1473  0.4538
  589TMC3     C 8734   2.701   3.914   0.959  0.2012  0.4383 -0.2717
  589TMC3     O 8735   2.730   3.885   0.844 -0.0488 -0.2962 -0.3761
  589TMC3     H 8736   2.795   4.069   1.171  3.5699  1.8123  1.6241
  589TMC3    H1 8737   2.845   3.699   0.949  0.2799 -0.7846  0.7916
  589TMC3    H2 8738   3.160   3.840   1.181  1.4833  0.5256 -0.5823
  589TMC3    C7 8739   3.098   3.698   0.972  0.5934 -0.1261 -0.3564
  589TMC3    C8 8740   3.017   4.055   1.292 -0.0595  0.4093  0.0768
  589TMC3    O1 8741   3.051   3.590   0.942 -0.3189 -0.8033 -0.1869
  589TMC3    O2 8742   2.926   4.093   1.364  0.1807  0.0541 -0.1995
  590MPD2     C 8743   2.670   2.599  16.821 -0.7474  0.1507  0.3960
  590MPD2    C1 8744   2.649   2.623  16.689 -0.4950  0.4075  0.2469
  590MPD2    C2 8745   2.742   2.700  16.619 -0.3481 -0.6151  0.2695
  590MPD2    C3 8746   2.860   2.736  16.683  0.5177  0.7499 -0.2495
  590MPD2    C4 8747   2.875   2.706  16.813  0.5555  0.2480 -0.2012
  590MPD2    C5 8748   2.781   2.639  16.883  0.1447 -0.4778  0.1389
  590MPD2     H 8749   2.723   2.745  16.522  0.8301  0.3784  0.5039
  590MPD2    H1 8750   2.959   2.746  16.869  1.7032  0.8446 -2.3766
  590MPD2    H2 8751   2.613   2.523  16.873 -0.3816 -1.2501 -1.2273
  590MPD2    H3 8752   2.793   2.609  16.986  0.0923 -1.2154 -0.0734
  590MPD2     N 8753   2.957   2.811  16.613 -0.0284  0.2356 -0.0608
  590MPD2    H5 8754   2.930   2.846  16.521  1.0187 -0.9380 -0.8218
  590MPD2    N1 8755   2.523   2.580  16.634  0.1203  0.5709 -0.5599
  590MPD2    H7 8756   2.453   2.544  16.698  0.9055  1.1263  0.6052
  591TMC3    C1 8757   3.153   2.898  16.530  0.5077  0.2162 -0.4687
  591TMC3    C2 8758   3.138   2.843  16.401 -0.1942 -0.0631 -0.1790
  591TMC3    C3 8759   3.175   2.924  16.295 -0.0864 -0.2414  0.5096
  591TMC3    C4 8760   3.170   3.028  16.544 -0.5751  0.1827  0.4104
  591TMC3    C5 8761   3.195   3.102  16.435 -0.9777 -0.6113  0.3510
  591TMC3    C6 8762   3.217   3.053  16.308 -0.1215  0.1115 -0.0288
  591TMC3     C 8763   3.090   2.829  16.638 -0.0589 -0.1997 -0.3819
  591TMC3     O 8764   3.160   2.759  16.709  0.3224  0.1843  0.0526
  591TMC3     H 8765   3.098   2.742  16.403  1.6420 -0.7362  1.4286
  591TMC3    H1 8766   3.155   3.077  16.640  2.0064  1.6636  0.0609
  591TMC3    H2 8767   3.240   3.125  16.230  0.4445 -0.4337 -0.3639
  591TMC3    C7 8768   3.184   3.252  16.455 -0.3219 -0.0304 -0.2856
  591TMC3    C8 8769   3.205   2.854  16.171 -0.2908 -0.1366 -0.0657
  591TMC3    O1 8770   3.180   3.293  16.566 -0.3798  1.0386  0.2068
  591TMC3    O2 8771   3.157   2.744  16.160 -0.5357 -0.2675  0.1299
  592MPD2     C 8772   3.149   0.019  11.411  0.1189 -1.2646 -0.6852
  592MPD2    C1 8773   3.182   0.029  11.540 -0.0450  0.3945 -0.1865
  592MPD2    C2 8774   3.115   4.675  11.637  0.0452 -0.2400  0.1490
  592MPD2    C3 8775   3.011   4.584  11.593  0.0313  0.1479 -0.1657
  592MPD2    C4 8776   2.985   4.586  11.460  0.5970 -0.5409  0.2722
  592MPD2    C5 8777   3.057   4.655  11.368 -0.1656 -0.1917  0.3257
  592MPD2     H 8778   3.127   4.682  11.745  1.3971  0.9526 -0.0748
  592MPD2    H1 8779   2.922   4.513  11.411 -1.1286  0.0728  1.5854
  592MPD2    H2 8780   3.198   0.083  11.338 -1.3728  0.2577 -0.3530
  592MPD2    H3 8781   3.032   4.633  11.264  0.2929 -1.7085  0.5357
  592MPD2     N 8782   2.952   4.500  11.690 -0.4016 -0.9393 -1.2576
  592MPD2    H5 8783   2.991   4.514  11.783 -2.0862 -2.4803 -0.3002
  592MPD2    N1 8784   3.289   0.117  11.574 -1.1169 -0.1482 -0.2804
  592MPD2    H7 8785   3.347   0.155  11.500 -1.5178 -0.3217 -0.6847
  593TMC3    C1 8786   3.444   0.229  11.706 -0.7487  1.0414  0.6625
  593TMC3    C2 8787   3.494   0.247  11.834  0.4912  0.2368  1.0326
  593TMC3    C3 8788   3.587   0.344  11.863 -0.1573  0.0852 -0.4264
  593TMC3    C4 8789   3.464   0.326  11.615  0.0533 -0.2519  0.0984
  593TMC3    C5 8790   3.563   0.418  11.646  0.1227 -0.0423  0.7518
  593TMC3    C6 8791   3.626   0.425  11.762  0.3717  0.4741 -0.3818
  593TMC3     C 8792   3.327   0.146  11.702 -0.6909 -0.3421 -0.4385
  593TMC3     O 8793   3.277   0.115  11.810  0.9561  0.1563 -0.4290
  593TMC3     H 8794   3.465   0.175  11.909 -2.0348 -1.3593 -1.4639
  593TMC3    H1 8795   3.408   0.333  11.522  3.2149 -2.1396 -1.9536
  593TMC3    H2 8796   3.708   0.495  11.773  0.7025 -0.3517  2.3461
  593TMC3    C7 8797   3.615   0.499  11.541 -0.4513  0.3006 -0.2848
  593TMC3    C8 8798   3.670   0.304  11.973  0.4925  0.0910 -0.1711
  593TMC3    O1 8799   3.688   0.597  11.569  0.0406 -0.0449 -0.0315
  593TMC3    O2 8800   3.669   0.182  11.996 -0.6316  0.0514 -0.5358
  594MPD2     C 8801   1.567   3.588  13.846 -0.3951  0.4545 -0.1767
  594MPD2    C1 8802   1.555   3.562  13.981  0.1141  0.0240  0.1656
  594MPD2    C2 8803   1.642   3.620  14.067  0.4192 -0.6947 -0.4467
  594MPD2    C3 8804   1.748   3.695  14.022  0.1055  0.3963 -0.1080
  594MPD2    C4 8805   1.763   3.713  13.889  0.2576  0.4492 -0.4854
  594MPD2    C5 8806   1.674   3.659  13.801 -0.2558  0.9174 -0.0094
  594MPD2     H 8807   1.643   3.600  14.174 -0.2895 -2.7046 -0.8189
  594MPD2    H1 8808   1.837   3.777  13.842  2.0378 -1.4023 -0.1922
  594MPD2    H2 8809   1.502   3.540  13.774 -0.7408 -0.6024  0.8242
  594MPD2    H3 8810   1.709   3.669  13.699  0.5714 -0.1518  0.1647
  594MPD2     N 8811   1.825   3.762  14.117  0.2167  0.3722  0.1030
  594MPD2    H5 8812   1.791   3.784  14.210 -0.8032  1.4668 -0.5337
  594MPD2    N1 8813   1.447   3.472  14.016  0.3767  0.6908  0.4355
  594MPD2    H7 8814   1.386   3.442  13.942  1.3539 -0.5001  0.1224
  595TMC3    C1 8815   2.207   3.958  14.287 -0.1110  0.1456 -0.1888
  595TMC3    C2 8816   2.155   3.876  14.192  0.1818 -0.5419 -0.1073
  595TMC3    C3 8817   2.014   3.875  14.191  0.4152 -0.0641  0.0365
  595TMC3    C4 8818   2.137   4.031  14.379 -0.1244 -0.7039 -0.0848
  595TMC3    C5 8819   1.999   4.028  14.364 -0.5906  0.4106 -0.0216
  595TMC3    C6 8820   1.935   3.942  14.283  0.4005 -0.5125 -0.9787
  595TMC3     C 8821   2.346   3.959  14.310 -0.0458 -0.0954  0.1242
  595TMC3     O 8822   2.383   3.995  14.421  0.0650  0.0180  0.0331
  595TMC3     H 8823   2.199   3.797  14.131 -0.8520 -1.1729 -0.0410
  595TMC3    H1 8824   2.178   4.114  14.434 -1.7262  0.6226 -0.8550
  595TMC3    H2 8825   1.826   3.933  14.285  0.6171 -2.5246  2.0915
  595TMC3    C7 8826   1.928   4.055  14.484  0.0412 -0.1806  0.3830
  595TMC3    C8 8827   1.951   3.804  14.082 -0.3284 -0.1664  0.6331
  595TMC3    O1 8828   1.816   4.105  14.468  0.3800  0.3371  0.0401
  595TMC3    O2 8829   2.023   3.762  13.993 -0.1768 -0.0436  0.1768
  596MPD2     C 8830   0.639   1.380  16.747  0.1208  0.2050 -0.7198
  596MPD2    C1 8831   0.691   1.498  16.700  0.0071 -0.7664  0.0088
  596MPD2    C2 8832   0.742   1.507  16.569  0.0045  0.5410 -0.0408
  596MPD2    C3 8833   0.727   1.402  16.477  0.6220  0.4174 -0.6210
  596MPD2    C4 8834   0.669   1.284  16.521 -0.7446 -1.1483 -0.3137
  596MPD2    C5 8835   0.627   1.275  16.654 -0.4894 -0.6225 -0.0772
  596MPD2     H 8836   0.785   1.601  16.536  0.3671  1.2736  2.4744
  596MPD2    H1 8837   0.654   1.202  16.452 -0.4657 -3.9618  2.9844
  596MPD2    H2 8838   0.597   1.370  16.846 -0.5594 -0.3454 -1.0690
  596MPD2    H3 8839   0.592   1.175  16.678  0.3288 -0.5858  1.2685
  596MPD2     N 8840   0.766   1.411  16.343 -0.6847 -0.3695  0.2782
  596MPD2    H5 8841   0.757   1.324  16.292  0.5394  0.4167 -1.2714
  596MPD2    N1 8842   0.702   1.610  16.785 -0.2681 -0.4521  0.3055
  596MPD2    H7 8843   0.756   1.683  16.739  1.3536 -0.9953  1.3346
  597TMC3    C1 8844   0.670   1.775  16.962  0.0567  0.0110 -0.1740
  597TMC3    C2 8845   0.750   1.861  16.896  0.0497  0.4750 -0.4366
  597TMC3    C3 8846   0.766   1.976  16.967 -0.0398 -0.2673  1.0669
  597TMC3    C4 8847   0.609   1.805  17.080  0.8575 -0.0432 -0.0952
  597TMC3    C5 8848   0.632   1.920  17.143  0.1230 -0.3917  0.4235
  597TMC3    C6 8849   0.710   2.008  17.087  0.4430  0.5071 -1.0773
  597TMC3     C 8850   0.649   1.632  16.910  0.4365 -0.8578 -0.6310
  597TMC3     O 8851   0.567   1.568  16.970  0.2956 -0.1562  0.4548
  597TMC3     H 8852   0.813   1.839  16.811  1.2394  2.2974 -0.0281
  597TMC3    H1 8853   0.554   1.726  17.130  0.8086 -0.0240 -0.1198
  597TMC3    H2 8854   0.718   2.110  17.123 -0.1783  0.8203 -1.8163
  597TMC3    C7 8855   0.542   1.957  17.252  0.0545 -0.3103 -0.3583
  597TMC3    C8 8856   0.850   2.081  16.914 -0.0143  0.3920  0.5933
  597TMC3    O1 8857   0.461   1.867  17.283 -0.1511 -0.8449  0.3049
  597TMC3    O2 8858   0.913   2.146  16.994  0.3526 -0.5866 -0.1455
  598TMC3    C1 8859   3.591   2.936  15.307  0.1624 -0.2808  0.1264
  598TMC3    C2 8860   3.497   2.842  15.273 -0.7000  0.1325  0.1337
  598TMC3    C3 8861   3.446   2.850  15.151  0.1136  0.0070  0.0422
  598TMC3    C4 8862   3.653   3.022  15.226  0.0318 -0.3696 -0.1235
  598TMC3    C5 8863   3.598   3.028  15.103  0.3928 -0.1272 -0.5012
  598TMC3    C6 8864   3.494   2.946  15.069 -0.0381  0.2387 -0.0284
  598TMC3     C 8865   3.673   2.908  15.422  0.6452  0.3388  0.0019
  598TMC3     O 8866   3.749   2.994  15.468  0.2985  0.0957 -0.5846
  598TMC3     H 8867   3.448   2.795  15.358 -0.0498  0.4227  0.6662
  598TMC3    H1 8868   3.735   3.077  15.271  0.6671 -0.3861 -1.2579
  598TMC3    H2 8869   3.463   2.945  14.965  0.4922  0.3227 -0.1872
  598TMC3    C7 8870   3.649   3.107  14.996  0.1170 -1.0139  0.0623
  598TMC3    C8 8871   3.307   2.810  15.126 -0.3175 -0.0329  0.1158
  598TMC3    O1 8872   3.630   3.067  14.881  0.4819 -0.1108  0.3752
  598TMC3    O2 8873   3.263   2.824  15.013 -0.6976 -0.7279 -0.1021
  599MPD2     C 8874   4.011   0.832  16.226  0.1571  0.1099  0.3659
  599MPD2    C1 8875   3.937   0.722  16.194 -0.3985 -0.2538  0.4175
  599MPD2    C2 8876   3.801   0.713  16.224  0.3360  0.3820  0.3390
  599MPD2    C3 8877   3.742   0.818  16.282 -0.1222  0.7890 -0.1311
  599MPD2    C4 8878   3.814   0.942  16.289 -0.2368  0.0435  0.3381
  599MPD2    C5 8879   3.948   0.950  16.256 -0.4223  0.0608  0.5995
  599MPD2     H 8880   3.742   0.623  16.209  1.2974 -0.4301  1.3572
  599MPD2    H1 8881   3.767   1.030  16.331 -0.1374 -0.9596  2.5530
  599MPD2    H2 8882   4.118   0.822  16.240  0.4816  0.3092 -1.9984
  599MPD2    H3 8883   4.014   1.035  16.266 -0.6406  0.3196 -0.1574
  599MPD2     N 8884   3.605   0.821  16.326 -0.4079 -0.3652 -0.2216
  599MPD2    H5 8885   3.585   0.905  16.380 -1.2143 -0.9053  0.3051
  599MPD2    N1 8886   4.011   0.612  16.128  0.1405 -0.5229 -0.4105
  599MPD2    H7 8887   4.103   0.642  16.098  0.8882 -0.5770  1.7955
  600TMC3    C1 8888   3.384   0.778  16.349 -0.1525  0.2865  0.0192
  600TMC3    C2 8889   3.276   0.707  16.315  0.6675 -0.4438  0.2513
  600TMC3    C3 8890   3.155   0.737  16.374  0.7928  0.6166  0.2680
  600TMC3    C4 8891   3.375   0.885  16.439 -0.3840 -0.3339  0.3039
  600TMC3    C5 8892   3.252   0.919  16.492  0.5974  0.2988 -0.1103
  600TMC3    C6 8893   3.142   0.852  16.447 -0.4787 -0.7090 -0.7438
  600TMC3     C 8894   3.513   0.732  16.302 -0.0634 -0.1804  0.5162
  600TMC3     O 8895   3.519   0.629  16.235  0.2612 -0.1751  0.0554
  600TMC3     H 8896   3.293   0.615  16.259  0.8339  0.4598 -1.1745
  600TMC3    H1 8897   3.455   0.957  16.451 -2.2337  1.4503  2.1386
  600TMC3    H2 8898   3.046   0.876  16.490  0.1908  2.3614 -0.9093
  600TMC3    C7 8899   3.231   1.057  16.533  0.4108 -0.0724 -0.0908
  600TMC3    C8 8900   3.035   0.667  16.333  0.1993 -0.6272  1.3734
  600TMC3    O1 8901   3.115   1.097  16.519  0.2202 -0.7680 -0.1026
  600TMC3    O2 8902   2.929   0.726  16.332  0.2228  0.7215 -0.2367
  601MPD2     C 8903   1.476   3.602  17.453 -0.6270  0.1931 -1.0239
  601MPD2    C1 8904   1.349   3.645  17.475 -0.1102 -0.1198  0.4584
  601MPD2    C2 8905   1.275   3.578  17.577  0.3420  0.5186 -0.0262
  601MPD2    C3 8906   1.330   3.472  17.648  0.9492  0.2778  0.3105
  601MPD2    C4 8907   1.455   3.423  17.616 -0.9688 -0.2218 -0.0788
  601MPD2    C5 8908   1.523   3.493  17.523 -0.0035 -0.4142 -0.3986
  601MPD2     H 8909   1.171   3.605  17.590 -0.0386 -0.4125 -1.1502
  601MPD2    H1 8910   1.505   3.349  17.678  0.2079  0.6219 -0.0348
  601MPD2    H2 8911   1.546   3.643  17.382 -0.8862  3.0704  0.3826
  601MPD2    H3 8912   1.622   3.464  17.492 -0.2795  0.1482 -1.7935
  601MPD2     N 8913   1.252   3.401   0.050  0.6878  0.1515  0.3000
  601MPD2    H5 8914   1.296   3.319   0.089  1.5011  1.8613  2.9447
  601MPD2    N1 8915   1.294   3.748  17.392  0.0396 -0.1313  0.2435
  601MPD2    H7 8916   1.200   3.772  17.420  0.9544  2.5013  1.0499
  602TMC3    C1 8917   1.237   3.851  17.201  0.1324  0.8407 -0.1879
  602TMC3    C2 8918   1.177   3.967  17.248  0.7836  0.0745 -0.1695
  602TMC3    C3 8919   1.046   3.986  17.214  0.3979  0.1773 -0.0148
  602TMC3    C4 8920   1.179   3.762  17.116 -0.0052 -0.2591 -0.0041
  602TMC3    C5 8921   1.050   3.795  17.083 -0.6359  0.5825 -0.9087
  602TMC3    C6 8922   0.979   3.905  17.130 -0.3600 -0.3068 -0.1620
  602TMC3     C 8923   1.345   3.794  17.274  0.3254 -0.3262  0.0549
  602TMC3     O 8924   1.435   3.749  17.206  0.0365  0.1018 -0.1340
  602TMC3     H 8925   1.230   4.029  17.319 -1.0517  1.1456  0.2773
  602TMC3    H1 8926   1.233   3.670  17.100 -1.7824 -1.2354 -0.3928
  602TMC3    H2 8927   0.886   3.949  17.097  0.5502  1.3759 -0.4874
  602TMC3    C7 8928   0.963   3.683  17.042  0.4353 -0.2710 -0.7647
  602TMC3    C8 8929   0.974   4.087  17.287 -0.5547  0.1506 -0.1351
  602TMC3    O1 8930   1.019   3.595  16.977  0.0577 -0.8532  0.1631
  602TMC3    O2 8931   1.028   4.195  17.297  0.1607 -0.9881 -0.1295
  603TMC3    C1 8932   3.735   3.948  10.862 -1.1537 -0.3499  0.1013
  603TMC3    C2 8933   3.691   3.929  10.988  0.1219  0.0952  0.0769
  603TMC3    C3 8934   3.703   4.036  11.076 -0.1748 -0.8118  0.0593
  603TMC3    C4 8935   3.802   4.065  10.829  0.2624 -0.2899  0.0769
  603TMC3    C5 8936   3.826   4.163  10.925  0.3198  0.2201 -0.4369
  603TMC3    C6 8937   3.763   4.151  11.049 -0.1727 -0.8324 -0.7625
  603TMC3     C 8938   3.707   3.855  10.758  0.1196  0.2498  0.1335
  603TMC3     O 8939   3.770   3.849  10.654  0.3562 -0.2956  0.3443
  603TMC3     H 8940   3.644   3.844  11.036  1.6021 -0.7144  0.0753
  603TMC3    H1 8941   3.846   4.064  10.729  2.3934 -0.7662  1.0091
  603TMC3    H2 8942   3.799   4.221  11.124  1.1102 -1.6815 -0.5821
  603TMC3    C7 8943   3.861   4.308  10.882 -0.3408 -0.6741  0.2216
  603TMC3    C8 8944   3.707   3.997  11.214  0.9297 -0.2402 -0.6522
  603TMC3    O1 8945   3.885   4.392  10.968 -0.3448  0.4554 -0.3274
  603TMC3    O2 8946   3.773   3.897  11.239 -0.4556  0.5543 -0.0980
  604MPD2     C 8947   4.372   2.269  16.277  0.5939 -0.1522 -0.6658
  604MPD2    C1 8948   4.363   2.399  16.236  0.6178 -0.6327 -0.0608
  604MPD2    C2 8949   4.418   2.434  16.116  0.5424  0.2175  0.7213
  604MPD2    C3 8950   4.493   2.344  16.047  0.6056 -0.3351 -1.4158
  604MPD2    C4 8951   4.515   2.216  16.094  0.0309  0.5557  0.1013
  604MPD2    C5 8952   4.452   2.178  16.209 -0.1546  0.7051  0.1339
  604MPD2     H 8953   4.407   2.535  16.079 -0.1043 -0.4219 -0.8486
  604MPD2    H1 8954   4.568   2.135  16.045  1.4062 -0.5667  3.4340
  604MPD2    H2 8955   4.315   2.235  16.363 -0.7501  0.9276 -1.1328
  604MPD2    H3 8956   4.464   2.074  16.237 -0.0038  1.0372  1.2943
  604MPD2     N 8957   4.542   2.379  15.919  0.2890 -0.1325 -0.3776
  604MPD2    H5 8958   4.503   2.464  15.882  1.2610  0.7238  0.5619
  604MPD2    N1 8959   4.298   2.488  16.333  0.6165 -0.0941 -0.1703
  604MPD2    H7 8960   4.285   2.451  16.427  1.3375  1.2662  0.4679
  605TMC3    C1 8961   4.239   2.685  16.440 -0.0329 -0.3226 -0.4835
  605TMC3    C2 8962   4.333   2.656  16.538  0.5784  0.0490  0.0222
  605TMC3    C3 8963   4.346   2.759  16.632 -0.1687 -0.7927  0.5663
  605TMC3    C4 8964   4.159   2.800  16.432 -0.2401 -0.8380 -0.6146
  605TMC3    C5 8965   4.192   2.894  16.521 -0.9779 -0.0199 -0.3210
  605TMC3    C6 8966   4.276   2.874  16.623 -0.8305 -0.1453  0.0198
  605TMC3     C 8967   4.259   2.616  16.314 -0.0709  0.3295 -0.2540
  605TMC3     O 8968   4.244   2.681  16.214  0.1732  0.1962  0.0316
  605TMC3     H 8969   4.384   2.562  16.552 -2.0808 -1.2535  1.0200
  605TMC3    H1 8970   4.080   2.806  16.358 -1.7483 -0.0217  1.0630
  605TMC3    H2 8971   4.294   2.955  16.692 -1.9480 -1.3842  1.7877
  605TMC3    C7 8972   4.123   3.019  16.527 -0.6143  0.9579 -0.3047
  605TMC3    C8 8973   4.489   2.779  16.663 -0.2241 -0.2184  0.4518
  605TMC3    O1 8974   4.114   3.088  16.627 -0.3106  0.6311  0.1007
  605TMC3    O2 8975   4.562   2.718  16.587  0.1414  0.5181  0.1656
  606TMC3    C1 8976   1.092   1.404  16.499  0.1927  0.2369 -0.1135
  606TMC3    C2 8977   1.065   1.487  16.605  0.1692  0.0752  0.4037
  606TMC3    C3 8978   1.028   1.440  16.719  0.6751 -0.6362  0.6127
  606TMC3    C4 8979   1.072   1.268  16.509 -0.3659 -0.1860  0.7249
  606TMC3    C5 8980   1.020   1.226  16.630  0.8443  0.2301  0.2291
  606TMC3    C6 8981   0.997   1.308  16.742  0.1821 -0.4975  0.0022
  606TMC3     C 8982   1.121   1.465  16.374  0.3068  0.8599 -1.4113
  606TMC3     O 8983   1.084   1.582  16.360  0.5343 -0.1825 -0.2424
  606TMC3     H 8984   1.103   1.588  16.597 -0.7483  0.2394 -1.9287
  606TMC3    H1 8985   1.092   1.198  16.429  0.7635  0.8652  0.0920
  606TMC3    H2 8986   0.978   1.264  16.839 -2.5354  1.1969  0.2397
  606TMC3    C7 8987   1.004   1.082  16.640 -0.4860  0.2602 -0.3921
  606TMC3    C8 8988   1.052   1.511  16.845 -0.2891 -0.0986 -0.3327
  606TMC3    O1 8989   1.059   1.016  16.553 -0.2500 -0.1261  0.2375
  606TMC3    O2 8990   1.035   1.450  16.948  0.0190  0.3807 -0.1196
  607MPD2     C 8991   3.158   4.227  11.836 -0.2914  0.4306 -0.0319
  607MPD2    C1 8992   3.261   4.251  11.927 -0.8344 -0.4360 -0.6339
  607MPD2    C2 8993   3.249   4.187  12.051  0.2533  0.1577  0.1959
  607MPD2    C3 8994   3.154   4.085  12.066  0.1720  0.3667  0.4994
  607MPD2    C4 8995   3.061   4.055  11.971  0.6056 -0.5850 -0.6274
  607MPD2    C5 8996   3.066   4.128  11.857  0.2993  0.1133 -0.0319
  607MPD2     H 8997   3.323   4.214  12.125 -1.1704  0.8337  1.3718
  607MPD2    H1 8998   2.989   3.976  11.988  0.2853 -0.5840 -1.9488
  607MPD2    H2 8999   3.142   4.291  11.750  2.4794  1.3115  0.1046
  607MPD2    H3 9000   2.988   4.117  11.783 -0.1470  3.5054 -0.0711
  607MPD2     N 9001   3.156   4.030  12.198 -0.3298  0.1191  0.2319
  607MPD2    H5 9002   3.226   4.075  12.255  0.1983 -0.7482  0.2587
  607MPD2    N1 9003   3.375   4.336  11.916 -0.7607 -0.0641  0.2878
  607MPD2    H7 9004   3.442   4.318  11.990  0.6427  2.5565 -0.3549
  608TMC3    C1 9005   3.517   4.515  11.864 -0.0919 -0.3066  0.6355
  608TMC3    C2 9006   3.552   4.523  11.996 -0.3801  0.8089 -0.9213
  608TMC3    C3 9007   3.676   4.585  12.032  0.5730  0.0482 -0.6373
  608TMC3    C4 9008   3.592   4.583  11.769  0.5387 -0.3542 -0.0584
  608TMC3    C5 9009   3.720   4.628  11.810 -0.2893  0.0319 -0.0726
  608TMC3    C6 9010   3.764   4.639  11.943 -0.2631 -0.5181  0.4789
  608TMC3     C 9011   3.403   4.432  11.825  0.2717 -0.1363  0.0332
  608TMC3     O 9012   3.330   4.467  11.739 -0.1068  0.1288 -0.0507
  608TMC3     H 9013   3.481   4.479  12.064  0.8200 -1.6071 -1.2540
  608TMC3    H1 9014   3.557   4.584  11.666  2.0746  1.2282 -0.5569
  608TMC3    H2 9015   3.863   4.673  11.971 -0.3821  0.9123 -0.8230
  608TMC3    C7 9016   3.780   4.708  11.707  0.3375 -0.3547 -0.3252
  608TMC3    C8 9017   3.710   4.585  12.173 -0.1122  0.4588  0.5013
  608TMC3    O1 9018   3.759   4.686  11.585 -0.9121  0.4133 -0.3832
  608TMC3    O2 9019   3.803   4.654  12.212 -0.0239  0.2854  0.0212
  609TMC3    C1 9020   2.237   3.118   8.500  0.3889  0.1053 -0.0034
  609TMC3    C2 9021   2.238   3.034   8.391 -0.3774  0.7233 -0.7299
  609TMC3    C3 9022   2.356   2.993   8.344  0.6291 -1.1345  0.1056
  609TMC3    C4 9023   2.348   3.148   8.570 -0.0730  0.1180 -0.2407
  609TMC3    C5 9024   2.465   3.101   8.530 -0.1357 -0.0709 -0.6172
  609TMC3    C6 9025   2.472   3.026   8.418  0.2045 -0.2938 -0.0034
  609TMC3     C 9026   2.116   3.154   8.570 -0.1488  0.2357 -0.0082
  609TMC3     O 9027   2.110   3.239   8.653 -1.1627 -0.0361  1.0595
  609TMC3     H 9028   2.145   3.006   8.344  0.2804  0.1908 -1.7329
  609TMC3    H1 9029   2.347   3.201   8.665  0.7112 -0.1490 -0.0860
  609TMC3    H2 9030   2.567   2.984   8.387  0.5368 -0.3714  1.1207
  609TMC3    C7 9031   2.582   3.116   8.620  0.3140  0.1030 -0.3942
  609TMC3    C8 9032   2.379   2.872   8.273 -0.5549  0.4985  0.5277
  609TMC3    O1 9033   2.550   3.126   8.739  0.3372  0.1348 -0.0010
  609TMC3    O2 9034   2.486   2.856   8.217  0.0979 -0.1025  0.3071
  610TMC3    C1 9035   3.540   4.288  13.893  1.0200 -0.0535  0.6984
  610TMC3    C2 9036   3.416   4.338  13.865  0.0549  0.3208 -0.3354
  610TMC3    C3 9037   3.331   4.278  13.770  0.2659  0.2451  0.4313
  610TMC3    C4 9038   3.580   4.167  13.832  0.2634 -0.1533 -0.7627
  610TMC3    C5 9039   3.487   4.114  13.746  0.5537 -0.3817  0.2131
  610TMC3    C6 9040   3.367   4.168  13.703 -0.0695 -1.0498  0.1902
  610TMC3     C 9041   3.628   4.379  13.963  0.2739 -0.0836 -1.0020
  610TMC3     O 9042   3.576   4.474  14.019  0.1496  0.0373 -0.3452
  610TMC3     H 9043   3.387   4.431  13.913  1.3544 -0.4902  2.0728
  610TMC3    H1 9044   3.679   4.124  13.843 -1.0049 -2.8617  0.1314
  610TMC3    H2 9045   3.302   4.146  13.620  0.2513 -3.0485  0.4573
  610TMC3    C7 9046   3.526   3.985  13.694  0.4918  0.3338  0.3801
  610TMC3    C8 9047   3.222   4.360  13.718 -0.1839  0.5293  0.5792
  610TMC3    O1 9048   3.643   3.958  13.683 -0.0786  0.1558  0.4200
  610TMC3    O2 9049   3.188   4.348  13.602 -0.1549 -0.5015 -0.5202
  611MPD2     C 9050   2.984   4.719  10.051  0.2732 -0.2600 -0.1522
  611MPD2    C1 9051   3.032   4.596  10.091 -0.6964 -0.4677  0.5286
  611MPD2    C2 9052   3.159   4.571  10.064 -0.0427 -0.3592  0.3618
  611MPD2    C3 9053   3.248   4.655   9.993  0.5120  0.4501  0.1073
  611MPD2    C4 9054   3.195   0.051   9.948  1.3078  0.1334  0.4664
  611MPD2    C5 9055   3.063   0.086   9.988 -0.5248  0.3778 -0.4006
  611MPD2     H 9056   3.200   4.474  10.093  0.7176  0.0323  0.6091
  611MPD2    H1 9057   3.263   0.119   9.897  3.1567 -1.6970  0.5020
  611MPD2    H2 9058   2.884   0.032  10.075  0.4530 -0.5385  0.9989
  611MPD2    H3 9059   3.021   0.180   9.957 -1.5390 -0.5529 -1.8789
  611MPD2     N 9060   3.378   4.621   9.964 -0.2826 -0.1126 -0.9654
  611MPD2    H5 9061   3.425   4.699   9.917 -0.6081 -0.0406 -1.1695
  611MPD2    N1 9062   2.947   4.509  10.169  0.1024  0.1246  0.1895
  611MPD2    H7 9063   2.860   4.554  10.196  0.4289  1.5562 -1.1198
  612TMC3    C1 9064   3.600   4.538   9.998  0.6802  0.7405 -0.5981
  612TMC3    C2 9065   3.680   4.512  10.107 -0.3268  0.1543 -0.5423
  612TMC3    C3 9066   3.814   4.542  10.100  0.3315  0.3129  0.1849
  612TMC3    C4 9067   3.641   4.593   9.881  0.0828 -0.1057  0.1376
  612TMC3    C5 9068   3.777   4.617   9.874  0.2418 -0.2746  0.1216
  612TMC3    C6 9069   3.860   4.590   9.976  0.0724  0.2446  0.3054
  612TMC3     C 9070   3.457   4.522  10.016  1.2345 -0.4531  0.5177
  612TMC3     O 9071   3.428   4.435  10.094  0.3707  0.6956 -0.1721
  612TMC3     H 9072   3.627   4.491  10.198  1.1475  2.5458  0.8748
  612TMC3    H1 9073   3.573   4.616   9.799  1.0848  1.1155 -0.3590
  612TMC3    H2 9074   3.963   4.622   9.969  0.6601 -2.0295 -1.4164
  612TMC3    C7 9075   3.835   4.681   9.754 -0.0369 -0.4703 -0.4945
  612TMC3    C8 9076   3.891   4.578  10.216 -0.4676  0.7065 -0.3839
  612TMC3    O1 9077   3.958   4.686   9.750 -0.6878  0.5143 -0.2122
  612TMC3    O2 9078   3.985   4.648  10.196  0.2013  0.3886  0.3248
  613MPD2     C 9079   2.204   2.008  16.562  0.1375  0.0643  0.0147
  613MPD2    C1 9080   2.148   2.046  16.439 -0.7235 -0.0117  0.0549
  613MPD2    C2 9081   2.054   1.964  16.377 -0.2178  0.5035  0.0566
  613MPD2    C3 9082   2.027   1.834  16.423  0.8417  0.1702  0.7738
  613MPD2    C4 9083   2.092   1.795  16.544  0.6856  0.0977  0.2053
  613MPD2    C5 9084   2.182   1.881  16.610 -0.2255  0.7309  0.0946
  613MPD2     H 9085   2.001   2.001  16.290  2.2266  1.7838 -0.8661
  613MPD2    H1 9086   2.076   1.698  16.589  0.4975  0.0451  0.0266
  613MPD2    H2 9087   2.268   2.081  16.610  0.4342  0.1523 -0.5083
  613MPD2    H3 9088   2.239   1.858  16.699  1.9376  1.1774 -1.1825
  613MPD2     N 9089   1.948   1.742  16.354  0.4882 -0.0089 -0.6388
  613MPD2    H5 9090   1.960   1.648  16.393  1.0303  0.6029  0.6867
  613MPD2    N1 9091   2.195   2.166  16.386 -0.8673  0.0003  0.1072
  613MPD2    H7 9092   2.246   2.220  16.455 -0.4547  0.5269 -0.6105
  614TMC3    C1 9093   2.144   2.148  16.145  0.1096  0.3261 -0.7549
  614TMC3    C2 9094   2.206   2.025  16.116 -0.4374 -0.8917  0.4254
  614TMC3    C3 9095   2.188   1.973  15.992  0.3153  0.1073  0.7463
  614TMC3    C4 9096   2.076   2.216  16.043 -0.2643 -0.0891 -0.3895
  614TMC3    C5 9097   2.058   2.153  15.922  0.5457 -0.6833 -0.1153
  614TMC3    C6 9098   2.114   2.030  15.898  0.7922  0.5079  0.2391
  614TMC3     C 9099   2.180   2.229  16.258 -0.0321  0.1936  0.1572
  614TMC3     O 9100   2.212   2.342  16.229 -0.3254 -0.5757 -0.3171
  614TMC3     H 9101   2.266   1.974  16.190  2.2435  0.9486 -0.4717
  614TMC3    H1 9102   2.057   2.322  16.056  1.6021 -0.1142  2.6815
  614TMC3    H2 9103   2.087   1.969  15.813  0.8756  0.2048  0.4300
  614TMC3    C7 9104   1.980   2.231  15.822 -0.0108 -0.1087 -0.6223
  614TMC3    C8 9105   2.212   1.831  15.984  0.0947 -0.8002 -0.2057
  614TMC3    O1 9106   1.937   2.338  15.865  0.4991  0.0013  0.9897
  614TMC3    O2 9107   2.208   1.773  16.090  0.1046  0.0539 -0.3764
  615MPD2     C 9108   1.782   2.949  16.078 -0.4262 -0.4329  0.4488
  615MPD2    C1 9109   1.700   3.030  16.009  0.5143 -0.2234  0.1752
  615MPD2    C2 9110   1.632   2.982  15.900  0.6741 -0.3784  0.0602
  615MPD2    C3 9111   1.642   2.849  15.863  0.0180 -0.2122  0.0184
  615MPD2    C4 9112   1.727   2.766  15.934  0.6069 -0.0539 -0.8240
  615MPD2    C5 9113   1.799   2.814  16.042 -0.0780 -0.1493  0.3073
  615MPD2     H 9114   1.556   3.041  15.850  0.4593  0.5114  1.4258
  615MPD2    H1 9115   1.727   2.659  15.916  2.8226 -0.3570  1.0028
  615MPD2    H2 9116   1.853   2.981  16.154 -1.7898  1.7397  0.8058
  615MPD2    H3 9117   1.864   2.755  16.106  2.2783  2.2160  0.0845
  615MPD2     N 9118   1.573   2.812  15.747  0.1012 -0.2366  0.0868
  615MPD2    H5 9119   1.516   2.886  15.706 -1.4574 -1.0835  0.7579
  615MPD2    N1 9120   1.673   3.163  16.044 -0.0664 -0.1733  0.2654
  615MPD2    H7 9121   1.590   3.210  16.009 -0.3592  0.1226  1.3738
  616TMC3    C1 9122   1.703   3.353  16.172  0.5539 -0.2618 -0.3190
  616TMC3    C2 9123   1.783   3.462  16.171 -1.0306 -0.1787 -0.6011
  616TMC3    C3 9124   1.714   3.582  16.187  1.3250 -0.0070  0.0524
  616TMC3    C4 9125   1.570   3.359  16.209 -0.2129  0.3923 -0.2017
  616TMC3    C5 9126   1.515   3.478  16.234 -0.4915  0.2172 -0.2057
  616TMC3    C6 9127   1.578   3.595  16.215 -0.1342  0.1914 -0.1803
  616TMC3     C 9128   1.762   3.236  16.121 -0.1332  0.2047  0.4868
  616TMC3     O 9129   1.877   3.207  16.155 -0.4962 -0.2382 -0.3632
  616TMC3     H 9130   1.888   3.451  16.144 -0.9576 -0.5640 -0.1690
  616TMC3    H1 9131   1.512   3.268  16.216 -0.2591  0.3959 -0.5666
  616TMC3    H2 9132   1.521   3.686  16.227 -2.2177 -1.2814  1.0722
  616TMC3    C7 9133   1.370   3.486  16.219  0.7790  0.4938 -0.2964
  616TMC3    C8 9134   1.783   3.708  16.165  0.7784  0.9246  0.0630
  616TMC3    O1 9135   1.330   3.588  16.165  0.1975  0.1704 -0.4877
  616TMC3    O2 9136   1.707   3.805  16.146 -0.1518  0.8698 -0.3666
  617MPD2     C 9137   4.323   1.350  13.663 -0.3092  0.0124 -0.2075
  617MPD2    C1 9138   4.358   1.344  13.800  0.0014 -0.0216  0.4558
  617MPD2    C2 9139   4.262   1.324  13.895 -0.4712 -0.7709  1.2148
  617MPD2    C3 9140   4.132   1.290  13.855  0.6875 -0.0487 -0.5762
  617MPD2    C4 9141   4.097   1.303  13.723 -0.4975 -0.4424  0.1729
  617MPD2    C5 9142   4.187   1.332  13.624  0.3086 -0.4307 -0.1281
  617MPD2     H 9143   4.286   1.344  13.999  0.4221 -0.9817  1.0516
  617MPD2    H1 9144   3.992   1.284  13.701 -0.3730  0.6590 -1.3504
  617MPD2    H2 9145   4.396   1.368  13.585 -0.4567 -2.7690 -0.9785
  617MPD2    H3 9146   4.144   1.330  13.525  0.0738  3.0757 -0.1179
  617MPD2     N 9147   4.031   1.233  13.938  0.0135 -0.6736  0.0831
  617MPD2    H5 9148   3.941   1.219  13.892 -0.1098 -2.1013  0.7500
  617MPD2    N1 9149   4.497   1.360  13.827  0.8055  0.1606 -0.1352
  617MPD2    H7 9150   4.544   1.368  13.738 -1.3761 -0.3189 -1.3222
  618TMC3    C1 9151   4.700   1.305  13.930 -0.2707 -0.0795  0.0847
  618TMC3    C2 9152   0.029   1.214  14.019 -0.2933 -0.5445  0.1669
  618TMC3    C3 9153   0.162   1.210  14.034 -0.7937  0.5666 -0.4510
  618TMC3    C4 9154   0.054   1.383  13.847 -0.3624  0.2129 -0.2531
  618TMC3    C5 9155   0.188   1.379  13.871  0.0621  0.2831  0.3410
  618TMC3    C6 9156   0.247   1.288  13.959 -0.0005 -0.4965 -0.1379
  618TMC3     C 9157   4.551   1.310  13.942  0.2109 -0.6696  0.7297
  618TMC3     O 9158   4.506   1.287  14.054 -0.8908 -0.1868 -0.0737
  618TMC3     H 9159   4.687   1.146  14.072 -0.5658 -0.3784  0.0476
  618TMC3    H1 9160   0.008   1.469  13.800 -0.5934  0.7633  0.9651
  618TMC3    H2 9161   0.354   1.280  13.967 -0.2330 -1.2312  2.0461
  618TMC3    C7 9162   0.281   1.424  13.764  0.1149  0.1654 -0.3660
  618TMC3    C8 9163   0.216   1.089  14.097  0.9096  0.3399  0.3185
  618TMC3    O1 9164   0.400   1.408  13.778 -0.7318 -0.7327  0.2612
  618TMC3    O2 9165   0.140   1.042  14.179  0.1616  0.3682 -0.1310
  619MPD2     C 9166   0.714   2.190  13.897 -0.7182  0.1796 -0.9540
  619MPD2    C1 9167   0.655   2.277  13.803  0.3413 -0.1594 -0.8443
  619MPD2    C2 9168   0.524   2.317  13.829  0.5368 -0.2115 -0.7743
  619MPD2    C3 9169   0.458   2.275  13.947 -0.1560  0.8762 -0.1334
  619MPD2    C4 9170   0.521   2.193  14.030  0.1239  0.5293 -0.0118
  619MPD2    C5 9171   0.649   2.156  14.004 -0.5019  0.0099 -0.5710
  619MPD2     H 9172   0.473   2.395  13.773 -1.5714  0.2509  1.8048
  619MPD2    H1 9173   0.482   2.163  14.127 -0.5886  1.8591  0.1070
  619MPD2    H2 9174   0.818   2.159  13.901  0.3246  3.5313 -1.9336
  619MPD2    H3 9175   0.699   2.089  14.074 -1.7867 -1.7503 -1.3292
  619MPD2     N 9176   0.326   2.320  13.984 -0.5976 -0.1863 -0.3593
  619MPD2    H5 9177   0.283   2.258  14.052  1.0901 -0.6339  0.3070
  619MPD2    N1 9178   0.721   2.315  13.688 -0.3564  0.3184 -0.3581
  619MPD2    H7 9179   0.666   2.361  13.617 -1.3413  0.4610  0.5043
  620TMC3    C1 9180   0.871   2.345  13.515  0.4302  0.2344  0.2451
  620TMC3    C2 9181   0.753   2.369  13.455  0.3701  0.3370 -0.1313
  620TMC3    C3 9182   0.730   2.488  13.399  0.2497 -0.2717  1.2981
  620TMC3    C4 9183   0.980   2.427  13.501 -0.5406 -0.2381 -0.3471
  620TMC3    C5 9184   0.953   2.552  13.434 -0.2192 -0.4747 -0.4112
  620TMC3    C6 9185   0.834   2.582  13.390  0.1070  0.3915  0.2554
  620TMC3     C 9186   0.854   2.293  13.653  0.4747 -0.1959 -0.1160
  620TMC3     O 9187   0.950   2.242  13.709 -0.1255 -0.3309  0.1784
  620TMC3     H 9188   0.681   2.288  13.450 -0.5238  1.0266  1.5447
  620TMC3    H1 9189   1.079   2.412  13.544  0.2699  0.0616 -2.1130
  620TMC3    H2 9190   0.807   2.673  13.339 -2.7214 -0.4888  0.1980
  620TMC3    C7 9191   1.033   2.660  13.473 -0.0183 -0.0292 -0.3187
  620TMC3    C8 9192   0.597   2.543  13.412  0.4732 -0.1416 -0.6103
  620TMC3    O1 9193   1.155   2.644  13.473 -0.0931 -0.8396 -0.0342
  620TMC3    O2 9194   0.597   2.663  13.429  0.2085 -0.5325  0.8699
  621MPD2     C 9195   1.679   1.722   9.773 -0.7110  0.8807 -0.8819
  621MPD2    C1 9196   1.692   1.806   9.884 -0.0914 -1.0479  0.4662
  621MPD2    C2 9197   1.799   1.893   9.885  0.2976  0.0329 -0.0668
  621MPD2    C3 9198   1.882   1.895   9.776 -0.1840 -0.0808  0.2217
  621MPD2    C4 9199   1.876   1.800   9.680  0.0241  0.7956 -0.1822
  621MPD2    C5 9200   1.774   1.708   9.677  0.5495  0.8959  0.3424
  621MPD2     H 9201   1.798   1.968   9.963 -0.4052 -0.6592  0.5790
  621MPD2    H1 9202   1.942   1.783   9.596 -0.2452 -2.5938  0.3103
  621MPD2    H2 9203   1.594   1.655   9.774 -0.5894  0.7587  0.9409
  621MPD2    H3 9204   1.783   1.632   9.600 -1.9556  2.1902 -1.2151
  621MPD2     N 9205   1.982   1.995   9.779 -0.3080  0.3295 -0.1536
  621MPD2    H5 9206   1.985   2.050   9.864 -0.3561 -0.4585  0.3614
  621MPD2    N1 9207   1.594   1.818   9.981 -0.4726  0.2623  0.3510
  621MPD2    H7 9208   1.606   1.879  10.061 -0.0414  1.6383 -0.7567
  622TMC3    C1 9209   1.395   1.788  10.111 -0.7750 -0.5441  0.5128
  622TMC3    C2 9210   1.417   1.907  10.174 -0.1792  0.4020  0.5907
  622TMC3    C3 9211   1.335   1.936  10.282  0.3595 -0.0153 -0.1111
  622TMC3    C4 9212   1.292   1.705  10.146  0.4509 -0.8379 -0.0041
  622TMC3    C5 9213   1.208   1.743  10.257 -0.1225 -0.2074  0.3458
  622TMC3    C6 9214   1.237   1.856  10.323  0.0673  0.4248 -0.4061
  622TMC3     C 9215   1.478   1.743  10.003  0.2398  0.1214 -0.2586
  622TMC3     O 9216   1.450   1.637   9.953 -0.3739  0.4424 -0.1286
  622TMC3     H 9217   1.496   1.977  10.147 -0.5255  1.5362  2.5109
  622TMC3    H1 9218   1.279   1.620  10.080 -0.6853  1.1469 -2.3312
  622TMC3    H2 9219   1.175   1.882  10.408 -0.8820  1.0336 -1.2828
  622TMC3    C7 9220   1.104   1.652  10.305  0.1428  0.5509 -0.0225
  622TMC3    C8 9221   1.337   2.063  10.336 -0.0934  0.0809 -0.5163
  622TMC3    O1 9222   1.061   1.661  10.420  0.5654 -0.5508 -0.2406
  622TMC3    O2 9223   1.298   2.089  10.449  0.0822 -0.2147  0.3729
  623MPD2     C 9224   0.131   3.178  15.781  0.2595 -0.0126 -0.4586
  623MPD2    C1 9225   0.058   3.144  15.893  0.4765  0.2768  0.1800
  623MPD2    C2 9226   0.137   3.118  16.003  0.1472  0.7174 -0.3865
  623MPD2    C3 9227   0.278   3.120  16.005  0.1012 -0.1217  0.5278
  623MPD2    C4 9228   0.349   3.171  15.899  0.5801  0.5294 -0.7191
  623MPD2    C5 9229   0.271   3.193  15.783  0.3768  0.1155  0.9208
  623MPD2     H 9230   0.069   3.089  16.082  1.1385 -0.1666  0.1514
  623MPD2    H1 9231   0.456   3.173  15.882  0.2529  1.1078 -2.7828
  623MPD2    H2 9232   0.081   3.190  15.685 -0.3980 -1.8441 -0.3539
  623MPD2    H3 9233   0.316   3.221  15.689 -1.3457 -1.8985 -0.5007
  623MPD2     N 9234   0.333   3.083  16.124  0.0064  0.0461 -0.1621
  623MPD2    H5 9235   0.271   3.086  16.205  0.1033  0.8426 -0.1160
  623MPD2    N1 9236   4.640   3.129  15.900 -0.4979  0.1591 -0.1738
  623MPD2    H7 9237   4.600   3.115  15.993 -0.7387  0.8896 -0.1663
  624TMC3    C1 9238   0.625   2.954  16.467 -0.5720  0.1659 -0.0874
  624TMC3    C2 9239   0.518   2.911  16.541 -0.3713  0.0480  0.2825
  624TMC3    C3 9240   0.400   2.894  16.472 -0.3310  0.4937  0.7041
  624TMC3    C4 9241   0.614   3.001  16.335 -0.0231  0.3659 -0.1356
  624TMC3    C5 9242   0.488   2.984  16.272  0.0787 -0.1412 -1.0412
  624TMC3    C6 9243   0.383   2.937  16.345  0.1207  0.0690  0.3655
  624TMC3     C 9244   0.752   2.935  16.532  1.1036  0.0668 -0.4109
  624TMC3     O 9245   0.836   3.021  16.535  0.0260  0.2124  0.1289
  624TMC3     H 9246   0.534   2.866  16.638 -1.1378  0.7013  0.7083
  624TMC3    H1 9247   0.703   3.033  16.283 -0.3158 -1.3367 -1.6860
  624TMC3    H2 9248   0.291   2.921  16.289  0.9621  0.8199 -1.2279
  624TMC3    C7 9249   0.466   3.051  16.146  0.7059  0.5285 -0.6022
  624TMC3    C8 9250   0.275   2.864  16.545 -0.5809  0.5399 -0.3215
  624TMC3    O1 9251   0.566   3.066  16.075 -0.0732  0.1677  0.5171
  624TMC3    O2 9252   0.187   2.818  16.471 -0.8379  0.0401 -0.2056
  625MPD2     C 9253   0.329   4.147   0.371 -0.1894 -0.3508  1.3670
  625MPD2    C1 9254   0.417   4.244   0.412 -0.6847 -0.2677  0.1303
  625MPD2    C2 9255   0.548   4.206   0.431 -0.0789  0.5132 -0.0658
  625MPD2    C3 9256   0.588   4.073   0.411 -0.5235 -0.2116  0.4773
  625MPD2    C4 9257   0.500   3.985   0.358 -0.0482 -0.4503 -0.6807
  625MPD2    C5 9258   0.369   4.020   0.341  0.3543 -0.6194  0.1591
  625MPD2     H 9259   0.617   4.278   0.473  0.0999  1.6782 -2.3447
  625MPD2    H1 9260   0.520   3.879   0.344  1.3961 -0.1686 -0.7753
  625MPD2    H2 9261   0.227   4.167   0.341 -0.2751 -0.2138  1.7532
  625MPD2    H3 9262   0.296   3.947   0.306 -0.8873  0.9468 -0.5445
  625MPD2     N 9263   0.719   4.039   0.454  0.0323  0.3626  0.2557
  625MPD2    H5 9264   0.764   4.115   0.504  1.6418  0.5437 -1.4442
  625MPD2    N1 9265   0.373   4.378   0.445  0.0931 -0.3530  0.9258
  625MPD2    H7 9266   0.442   4.436   0.491  0.0371  0.3061  0.1922
  626TMC3    C1 9267   0.228   4.557   0.467 -0.1777 -0.4925  0.2639
  626TMC3    C2 9268   0.151   4.646   0.393 -0.7861 -0.3796 -0.1979
  626TMC3    C3 9269   0.130   0.049   0.449 -0.6369 -0.1339 -0.4070
  626TMC3    C4 9270   0.288   4.600   0.575 -0.1478  0.2044 -0.3507
  626TMC3    C5 9271   0.250   4.714   0.639 -0.9935  0.3601 -0.2937
  626TMC3    C6 9272   0.177   0.089   0.572  0.4386  0.1171 -0.1525
  626TMC3     C 9273   0.250   4.426   0.407  0.4934  0.3904  0.2973
  626TMC3     O 9274   0.165   4.378   0.338  0.4467 -0.3758 -0.1111
  626TMC3     H 9275   0.110   4.612   0.299  0.2530  0.3301 -0.9057
  626TMC3    H1 9276   0.332   4.527   0.642 -0.5912  2.0703  1.9694
  626TMC3    H2 9277   0.146   0.182   0.618  2.7006  1.2704 -0.9309
  626TMC3    C7 9278   0.275   0.006   0.781 -0.4959  0.3191 -0.7743
  626TMC3    C8 9279   0.073   0.136   0.353  0.5471  0.6801 -0.0769
  626TMC3    O1 9280   0.327   4.630   0.835  0.2977  0.1934  0.5070
  626TMC3    O2 9281   0.030   0.081   0.249 -0.0746 -0.2366 -0.4577
  627MPD2     C 9282   3.560   0.009  14.502  0.5260  0.2489  0.3058
  627MPD2    C1 9283   3.680   4.668  14.516 -1.3011 -0.2097  1.0775
  627MPD2    C2 9284   3.700   4.549  14.458  0.6601 -0.6626 -0.5978
  627MPD2    C3 9285   3.605   4.494  14.375  0.1932  0.3975 -0.5287
  627MPD2    C4 9286   3.483   4.550  14.356  0.3144 -0.4193  0.2391
  627MPD2    C5 9287   3.457   4.667  14.424 -0.1151 -0.8197  0.0935
  627MPD2     H 9288   3.797   4.500  14.465  1.4735  0.7752 -1.8181
  627MPD2    H1 9289   3.409   4.510  14.287 -0.2799 -2.9564  2.3571
  627MPD2    H2 9290   3.549   0.106  14.549  1.2490  1.6729 -2.4740
  627MPD2    H3 9291   3.362   4.719  14.425  1.0133  1.2075  1.1138
  627MPD2     N 9292   3.637   4.365  14.337  0.5724  0.3417  0.8145
  627MPD2    H5 9293   3.723   4.323  14.371  1.4236  1.8039  0.4813
  627MPD2    N1 9294   3.782   0.011  14.586  0.3805 -0.0042  0.3370
  627MPD2    H7 9295   3.863   4.673  14.598  1.1038  0.5129 -1.9888
  628TMC3    C1 9296   3.930   0.154  14.690  0.5007 -0.1594  0.2797
  628TMC3    C2 9297   3.987   0.052  14.755 -0.1564 -0.2775  0.0658
  628TMC3    C3 9298   4.088   0.072  14.839  0.1672  0.7313 -0.3565
  628TMC3    C4 9299   3.977   0.280  14.697 -0.2682  0.4967  1.0211
  628TMC3    C5 9300   4.091   0.294  14.780 -0.4946  0.6553  0.1568
  628TMC3    C6 9301   4.155   0.188  14.845  0.4098 -0.5441  0.2674
  628TMC3     C 9302   3.795   0.136  14.639  0.4016 -0.4261  0.1467
  628TMC3     O 9303   3.727   0.229  14.608  0.0692 -0.5774 -0.3372
  628TMC3     H 9304   3.933   4.680  14.759 -0.8707  0.1536  0.5483
  628TMC3    H1 9305   3.923   0.355  14.640  0.0796  0.0701  0.1204
  628TMC3    H2 9306   4.213   0.220  14.931 -0.1936  3.4991 -0.8331
  628TMC3    C7 9307   4.140   0.431  14.816  0.1063 -0.5333  0.4584
  628TMC3    C8 9308   4.096   4.706  14.955  0.2768 -0.4346 -0.1550
  628TMC3    O1 9309   4.245   0.441  14.879 -0.4061  0.0762  0.4020
  628TMC3    O2 9310   4.001   4.631  14.963 -0.1916  0.0442  0.2932
  629MPD2     C 9311   2.170   4.037  16.142  0.3751 -0.4042  0.4658
  629MPD2    C1 9312   2.227   3.913  16.160 -0.1536 -0.1813  0.0345
  629MPD2    C2 9313   2.139   3.802  16.157  0.7049 -0.0401 -0.1017
  629MPD2    C3 9314   2.003   3.818  16.151  0.0193  0.5068  0.4511
  629MPD2    C4 9315   1.947   3.944  16.131 -0.0430 -0.2096 -0.2543
  629MPD2    C5 9316   2.036   4.054  16.133  0.0247 -0.0871 -0.5833
  629MPD2     H 9317   2.175   3.701  16.173  1.9301  0.9904  3.4674
  629MPD2    H1 9318   1.842   3.965  16.116 -0.1448 -1.4924 -1.3138
  629MPD2    H2 9319   2.237   4.122  16.149 -0.3822  0.2349  0.0343
  629MPD2    H3 9320   1.996   4.152  16.110 -0.3202  0.3689  1.8933
  629MPD2     N 9321   1.916   3.707  16.163  0.3446 -0.3861  0.2387
  629MPD2    H5 9322   1.960   3.624  16.199  3.1883 -0.1200 -2.5917
  629MPD2    N1 9323   2.362   3.917  16.174 -0.6102  0.4205 -0.2312
  629MPD2    H7 9324   2.400   4.010  16.183  1.1797 -0.3778  0.4824
  630TMC3    C1 9325   2.587   3.850  16.206  0.3865  0.1780  0.0369
  630TMC3    C2 9326   2.635   3.967  16.172 -0.2577  0.2076  0.1669
  630TMC3    C3 9327   2.771   3.983  16.172 -0.6412  0.3320 -0.0702
  630TMC3    C4 9328   2.666   3.749  16.257  0.6634 -0.1565 -0.0732
  630TMC3    C5 9329   2.799   3.771  16.263 -0.2140  0.1907  0.1123
  630TMC3    C6 9330   2.852   3.881  16.201 -0.0638  0.2539  0.0749
  630TMC3     C 9331   2.441   3.810  16.189 -0.0902  0.2731  0.0777
  630TMC3     O 9332   2.416   3.695  16.204  0.6121 -0.1323 -0.2290
  630TMC3     H 9333   2.565   4.034  16.126  0.9233 -0.5227 -2.7008
  630TMC3    H1 9334   2.622   3.668  16.315 -1.0688  1.8118  1.3545
  630TMC3    H2 9335   2.960   3.886  16.189 -0.1972  2.5579 -0.1169
  630TMC3    C7 9336   2.862   3.746  16.388  0.2252  0.2614 -0.4479
  630TMC3    C8 9337   2.823   4.100  16.240  0.2294 -0.0286  0.1933
  630TMC3    O1 9338   2.838   3.635  16.432  0.3155  0.2245  0.3727
  630TMC3    O2 9339   2.942   4.091  16.275  0.4428  0.4771  0.6374
  631MPD2     C 9340   0.772   3.083  15.422 -0.6686  0.0695  0.3060
  631MPD2    C1 9341   0.861   3.135  15.333 -0.3494  0.1940  0.8559
  631MPD2    C2 9342   0.985   3.079  15.339  1.6100 -0.3051  0.3671
  631MPD2    C3 9343   1.026   2.975  15.430 -0.0158  0.7312  0.3489
  631MPD2    C4 9344   0.935   2.943  15.528 -0.4507  0.1820  0.1223
  631MPD2    C5 9345   0.805   2.991  15.518  0.0338 -0.1556 -0.6183
  631MPD2     H 9346   1.052   3.099  15.256 -0.1401 -1.9796 -1.4523
  631MPD2    H1 9347   0.947   2.858  15.595 -1.0023  0.5168  0.6426
  631MPD2    H2 9348   0.674   3.129  15.430 -0.6646  0.3945 -1.5549
  631MPD2    H3 9349   0.719   2.961  15.576  0.1477  4.1675  1.7440
  631MPD2     N 9350   1.154   2.916  15.423  0.0610 -0.5704  0.4794
  631MPD2    H5 9351   1.211   2.948  15.345  0.5079  3.0252  2.2896
  631MPD2    N1 9352   0.811   3.245  15.259 -0.2042  0.2758  0.9483
  631MPD2    H7 9353   0.741   3.301  15.305 -0.5927  0.7011 -0.1765
  632TMC3    C1 9354   0.774   3.406  15.101 -0.8464  0.1799 -0.1901
  632TMC3    C2 9355   0.663   3.453  15.172  0.5028  0.1934 -0.1510
  632TMC3    C3 9356   0.572   3.541  15.119 -0.6522 -0.6083 -0.2656
  632TMC3    C4 9357   0.795   3.463  14.978  0.5685 -0.5843  0.5232
  632TMC3    C5 9358   0.708   3.564  14.935  0.1828  0.5756 -0.2909
  632TMC3    C6 9359   0.595   3.601  15.001 -0.0952  0.1067 -0.6943
  632TMC3     C 9360   0.858   3.293  15.145  1.2083  0.6318  0.9418
  632TMC3     O 9361   0.954   3.248  15.081  0.0472  0.3743  0.5496
  632TMC3     H 9362   0.633   3.412  15.267 -1.9583 -0.0358 -1.0176
  632TMC3    H1 9363   0.872   3.417  14.917 -0.2367 -1.5275  0.2177
  632TMC3    H2 9364   0.532   3.685  14.974  1.6663  2.0116  1.0348
  632TMC3    C7 9365   0.729   3.643  14.818  0.5496 -0.9777 -0.1003
  632TMC3    C8 9366   0.449   3.559  15.187  0.0623 -0.2519  0.0689
  632TMC3    O1 9367   0.630   3.693  14.756 -0.1156 -0.7444  0.4872
  632TMC3    O2 9368   0.452   3.556  15.309 -0.1234  0.5977  0.6334
  633MPD2     C 9369   0.129   1.423  17.267  0.4389  0.3782  0.9431
  633MPD2    C1 9370   0.243   1.389  17.193 -0.2286 -0.1308 -0.0771
  633MPD2    C2 9371   0.313   1.279  17.230  0.2982  0.2632  0.4424
  633MPD2    C3 9372   0.274   1.191  17.330 -0.5063 -0.1831  0.3200
  633MPD2    C4 9373   0.159   1.229  17.400 -0.0979  0.3926  0.0972
  633MPD2    C5 9374   0.089   1.342  17.366 -0.2226  0.9786  0.0380
  633MPD2     H 9375   0.399   1.246  17.172 -1.3786 -0.2570 -1.7805
  633MPD2    H1 9376   0.115   1.171  17.481 -0.5595  1.4486  0.6093
  633MPD2    H2 9377   0.069   1.512  17.249  1.1025  0.4844 -0.8259
  633MPD2    H3 9378   0.001   1.369  17.424 -2.9045 -1.3899 -2.9305
  633MPD2     N 9379   0.339   1.070  17.367 -0.0339 -0.4473 -0.4691
  633MPD2    H5 9380   0.322   1.028  17.458  0.8643 -0.7945 -0.4619
  633MPD2    N1 9381   0.286   1.457  17.074  0.4881  0.2708 -0.6360
  633MPD2    H7 9382   0.356   1.414  17.015  1.3488 -1.3228  1.5844
  634TMC3    C1 9383   0.278   1.640  16.910 -0.6526  0.6021 -0.5536
  634TMC3    C2 9384   0.328   1.551  16.824  0.1098 -0.6544 -0.0177
  634TMC3    C3 9385   0.350   1.589  16.693 -0.2835  0.5103  0.0843
  634TMC3    C4 9386   0.241   1.762  16.877 -0.6539 -0.1073 -0.0097
  634TMC3    C5 9387   0.259   1.798  16.746 -0.2687  0.3575 -0.5103
  634TMC3    C6 9388   0.311   1.712  16.653 -0.1821 -0.3961 -0.0109
  634TMC3     C 9389   0.239   1.588  17.040  0.2534  0.3583 -0.4350
  634TMC3     O 9390   0.194   1.670  17.116  0.1560 -0.6664 -0.1413
  634TMC3     H 9391   0.362   1.449  16.841 -1.5385 -1.1659  0.2802
  634TMC3    H1 9392   0.201   1.825  16.956  0.4036  0.6118 -0.0492
  634TMC3    H2 9393   0.295   1.727  16.547 -3.5159 -2.8111  0.1232
  634TMC3    C7 9394   0.209   1.923  16.681  0.0500 -0.0823  1.4996
  634TMC3    C8 9395   0.329   1.473  16.606 -0.4966 -0.0641 -0.2352
  634TMC3    O1 9396   0.225   1.924  16.562  0.3500  0.0893  0.2408
  634TMC3    O2 9397   0.272   1.379  16.663 -0.0850 -0.6944 -0.6398
  635TMC3    C1 9398   0.647   2.400   0.095 -0.1728  0.0654  0.1204
  635TMC3    C2 9399   0.709   2.286   0.053 -0.3546 -0.0222  0.8330
  635TMC3    C3 9400   0.676   2.169   0.109  0.0855 -0.1693 -0.5297
  635TMC3    C4 9401   0.546   2.403   0.189 -0.3943 -0.2848 -0.3741
  635TMC3    C5 9402   0.516   2.280   0.248 -0.6188  0.0417 -0.3037
  635TMC3    C6 9403   0.582   2.163   0.215  0.4475 -0.2543  0.3818
  635TMC3     C 9404   0.717   2.527   0.074 -0.4489  0.6764 -0.5474
  635TMC3     O 9405   0.686   2.612   0.156 -0.1980 -0.3548  0.1448
  635TMC3     H 9406   0.810   2.304   0.017 -1.1160  2.1612 -0.1593
  635TMC3    H1 9407   0.490   2.490   0.222  0.7048  1.9230 -4.3241
  635TMC3    H2 9408   0.568   2.074   0.275 -0.2889 -1.1654 -1.1550
  635TMC3    C7 9409   0.440   2.274   0.375 -0.5183  0.2349  0.5141
  635TMC3    C8 9410   0.719   2.046   0.042  0.5777  0.0349  0.7183
  635TMC3    O1 9411   0.478   2.186   0.452 -0.3580 -0.4607  0.4672
  635TMC3    O2 9412   0.673   1.944   0.090  0.1648  0.1496  0.1057
  636MPD2     C 9413   1.535   2.053  15.571  0.0884  1.0148  0.3118
  636MPD2    C1 9414   1.505   2.069  15.707  0.6148  0.7156 -1.0193
  636MPD2    C2 9415   1.537   1.955  15.786  0.2570  0.2199 -0.1314
  636MPD2    C3 9416   1.609   1.847  15.731 -0.1718  0.3028 -0.4320
  636MPD2    C4 9417   1.641   1.836  15.594 -0.1318  0.8152  0.3380
  636MPD2    C5 9418   1.603   1.942  15.515 -0.4527 -0.0890 -0.9225
  636MPD2     H 9419   1.520   1.953  15.893 -3.4342 -0.1564 -0.7425
  636MPD2    H1 9420   1.681   1.746  15.549  0.3565  1.2744 -0.1527
  636MPD2    H2 9421   1.519   2.125  15.491 -1.4835 -1.1227 -1.2962
  636MPD2    H3 9422   1.622   1.946  15.409  3.5990  2.0250 -0.1426
  636MPD2     N 9423   1.653   1.758  15.828 -0.5413  0.5802  1.1503
  636MPD2    H5 9424   1.624   1.782  15.922 -2.4496 -1.2083  0.9997
  636MPD2    N1 9425   1.435   2.181  15.758  0.2336 -0.0831 -0.0047
  636MPD2    H7 9426   1.420   2.171  15.858  0.6655 -1.1548 -0.0538
  637TMC3    C1 9427   1.759   1.590  15.947  0.6402  0.1695  0.8233
  637TMC3    C2 9428   1.766   1.675  16.054 -0.0925  0.0708 -0.8733
  637TMC3    C3 9429   1.848   1.649  16.161 -0.2405 -0.5912 -0.0977
  637TMC3    C4 9430   1.837   1.482  15.957 -0.6799  0.1598 -0.2537
  637TMC3    C5 9431   1.915   1.459  16.067  0.1882  0.2676  0.3774
  637TMC3    C6 9432   1.919   1.536  16.175  0.6296  0.5267  0.0553
  637TMC3     C 9433   1.725   1.638  15.818 -0.0155  0.0880 -0.0233
  637TMC3     O 9434   1.782   1.595  15.717 -0.1693  0.0944  0.8970
  637TMC3     H 9435   1.701   1.762  16.056  0.9044  0.8474 -1.8658
  637TMC3    H1 9436   1.841   1.417  15.870  1.5644 -2.4305  1.8108
  637TMC3    H2 9437   1.993   1.510  16.250 -0.4174  1.9107  1.5794
  637TMC3    C7 9438   2.010   1.349  16.062 -0.4266 -0.0667  0.4531
  637TMC3    C8 9439   1.879   1.764  16.237 -1.1413  0.7064  0.4864
  637TMC3    O1 9440   2.019   1.285  16.167 -0.4200 -0.2130  0.3133
  637TMC3    O2 9441   1.855   1.867  16.178  0.7348  0.4633 -0.2412
  638MPD2     C 9442   1.341   0.629  15.044  0.4981 -0.1834 -0.4776
  638MPD2    C1 9443   1.372   0.507  14.992 -0.2412  0.5321 -0.2113
  638MPD2    C2 9444   1.333   0.397  15.058  0.1619  0.3050  0.8162
  638MPD2    C3 9445   1.261   0.403  15.173  0.3781  1.0115  0.3459
  638MPD2    C4 9446   1.212   0.525  15.214 -0.3855  0.8900 -0.6930
  638MPD2    C5 9447   1.259   0.637  15.154 -0.7828 -0.5711 -0.1787
  638MPD2     H 9448   1.364   0.297  15.030 -1.5767  0.1461 -0.5271
  638MPD2    H1 9449   1.155   0.529  15.306  1.5553  2.8901  0.4167
  638MPD2    H2 9450   1.378   0.721  15.000  0.4728 -0.8096 -1.8021
  638MPD2    H3 9451   1.238   0.735  15.194  0.4842  0.2466 -1.5133
  638MPD2     N 9452   1.223   0.280  15.233 -0.0200 -0.1274  0.2232
  638MPD2    H5 9453   1.267   0.195  15.201  1.8302  0.8171  0.2523
  638MPD2    N1 9454   1.430   0.508  14.864 -0.2004 -0.3990  0.8164
  638MPD2    H7 9455   1.445   0.601  14.827 -2.6853 -0.8734 -1.4538
  639TMC3    C1 9456   1.104   0.129  15.353  0.7780  0.0866 -0.1341
  639TMC3    C2 9457   1.044   0.074  15.242 -0.6873 -0.2215  0.4824
  639TMC3    C3 9458   1.097   4.676  15.193  0.1809  0.4959 -0.4555
  639TMC3    C4 9459   1.218   0.077  15.405 -0.0229 -0.4207 -0.5508
  639TMC3    C5 9460   1.281   4.697  15.338  0.3110 -0.2422 -0.1599
  639TMC3    C6 9461   1.215   4.630  15.241 -0.3165 -0.3671  0.1286
  639TMC3     C 9462   1.122   0.268  15.325  0.3987  0.2822  0.3440
  639TMC3     O 9463   1.044   0.356  15.362  0.2825 -0.3505 -0.1904
  639TMC3     H 9464   0.952   0.115  15.203 -0.4677  0.5425  0.7605
  639TMC3    H1 9465   1.275   0.130  15.480 -1.3931  2.6192 -1.6583
  639TMC3    H2 9466   1.242   4.528  15.214  1.9916  0.4899 -0.7106
  639TMC3    C7 9467   1.376   4.610  15.410 -0.1710 -0.0630  0.2089
  639TMC3    C8 9468   1.037   4.611  15.081 -0.6599  0.4510 -0.5003
  639TMC3    O1 9469   1.377   4.627  15.532 -0.2886  0.0369  0.3738
  639TMC3    O2 9470   1.118   4.565  15.003 -0.2132 -0.0358 -0.5788
  640MPD2     C 9471   2.155   3.951   9.822  0.0219  0.4779 -0.4825
  640MPD2    C1 9472   2.227   4.071   9.798 -0.0777 -0.1417 -0.2497
  640MPD2    C2 9473   2.169   4.194   9.840  0.2422  0.8660  0.3249
  640MPD2    C3 9474   2.046   4.195   9.897  0.6555  0.8145 -0.3594
  640MPD2    C4 9475   1.971   4.079   9.913 -0.4751 -0.3161 -0.1186
  640MPD2    C5 9476   2.040   3.963   9.892 -0.0479 -0.3228 -0.4940
  640MPD2     H 9477   2.223   4.286   9.820  2.3174 -0.0835  1.5906
  640MPD2    H1 9478   1.874   4.083   9.962 -0.8953  1.8663 -1.1352
  640MPD2    H2 9479   2.181   3.854   9.781 -1.5268 -1.2501  2.6587
  640MPD2    H3 9480   1.980   3.876   9.912 -2.8924  1.7700  0.0383
  640MPD2     N 9481   1.983   4.320   9.942 -0.0083  0.3021  0.0760
  640MPD2    H5 9482   1.889   4.307   9.981 -0.1594 -0.7746 -0.6521
  640MPD2    N1 9483   2.354   4.058   9.734 -0.0944  0.4533  0.4188
  640MPD2    H7 9484   2.368   3.961   9.708 -2.7216 -0.3625  2.0676
  641TMC3    C1 9485   2.562   4.122   9.630 -0.2450 -0.6230  0.2751
  641TMC3    C2 9486   2.596   3.987   9.648 -0.2789  0.0067  0.4840
  641TMC3    C3 9487   2.718   3.950   9.592 -0.2241  0.1496  0.0908
  641TMC3    C4 9488   2.631   4.218   9.548 -0.0925  0.5164 -0.0190
  641TMC3    C5 9489   2.753   4.171   9.502  0.2310 -0.3613  0.4566
  641TMC3    C6 9490   2.793   4.045   9.520 -0.2484 -0.5803  0.7701
  641TMC3     C 9491   2.429   4.163   9.685  0.0866  0.1947  0.3639
  641TMC3     O 9492   2.408   4.283   9.691 -0.0704  1.0442  0.3606
  641TMC3     H 9493   2.555   3.930   9.731  0.2947  0.8824  1.3711
  641TMC3    H1 9494   2.598   4.321   9.537 -2.1961 -0.1824 -0.3875
  641TMC3    H2 9495   2.886   4.008   9.480 -1.0019  1.7207 -3.1209
  641TMC3    C7 9496   2.849   4.263   9.444  0.0807  0.5360 -1.3518
  641TMC3    C8 9497   2.768   3.815   9.605 -0.3477 -0.2800 -0.3916
  641TMC3    O1 9498   2.963   4.217   9.426  0.0122 -0.2311 -0.3295
  641TMC3    O2 9499   2.878   3.791   9.567 -0.4713  0.1444 -0.0793
  642TMC3    C1 9500   3.473   0.328  12.242 -0.0857 -0.2098  0.0718
  642TMC3    C2 9501   3.544   0.323  12.363 -0.6338  0.5013 -0.4157
  642TMC3    C3 9502   3.558   0.210  12.433  0.1714  0.3923 -0.0610
  642TMC3    C4 9503   3.417   0.214  12.192  0.6440 -0.1280  0.2360
  642TMC3    C5 9504   3.435   0.096  12.269 -0.5361  0.3299 -0.2329
  642TMC3    C6 9505   3.505   0.092  12.386 -0.0174  0.6650 -0.1442
  642TMC3     C 9506   3.395   0.456  12.220 -0.0910 -0.3037  0.5164
  642TMC3     O 9507   3.448   0.535  12.142  0.4533  0.2075 -0.9044
  642TMC3     H 9508   3.594   0.410  12.404 -0.8056 -0.4040  1.7132
  642TMC3    H1 9509   3.363   0.210  12.097 -1.7624 -0.1433  1.6044
  642TMC3    H2 9510   3.525   4.720  12.435 -0.0984  0.7154 -0.0150
  642TMC3    C7 9511   3.346   4.702  12.237 -0.3463 -0.0788  0.3466
  642TMC3    C8 9512   3.633   0.202  12.563  0.7545 -0.2346  0.4899
  642TMC3    O1 9513   3.304   4.702  12.119  0.3074 -0.5932  1.0604
  642TMC3    O2 9514   3.653   0.091  12.611  0.2405 -0.3138 -0.6347
  643TMC3    C1 9515   1.956   4.350   0.212 -0.8071 -1.0151 -0.8364
  643TMC3    C2 9516   1.841   4.364   0.129  0.2438  0.3553  0.2378
  643TMC3    C3 9517   1.805   4.249   0.065 -0.5070  0.6193 -0.4658
  643TMC3    C4 9518   2.034   4.242   0.214  0.8514  0.0488  0.5936
  643TMC3    C5 9519   1.999   4.139   0.133 -0.9602 -0.6082  0.3130
  643TMC3    C6 9520   1.871   4.133   0.075 -0.2179  0.0723  0.5745
  643TMC3     C 9521   2.002   4.467   0.286  0.2893 -0.0486 -0.5917
  643TMC3     O 9522   1.947   4.566   0.254  0.2285 -0.1929  0.1642
  643TMC3     H 9523   1.764   4.441   0.138 -0.7811 -0.8649  1.8554
  643TMC3    H1 9524   2.131   4.241   0.263  2.4060 -1.0821 -2.4667
  643TMC3    H2 9525   1.848   4.047   0.014  3.1311  0.5845 -1.4199
  643TMC3    C7 9526   2.078   4.151   0.011 -0.3243 -1.1875  0.3081
  643TMC3    C8 9527   1.772   4.261  17.618 -0.5261 -0.0577 -0.2299
  643TMC3    O1 9528   2.146   4.254   0.007 -0.2024  0.4280  0.3385
  643TMC3    O2 9529   1.745   4.159  17.561  0.6130 -0.0888 -0.5864
  644MPD2     C 9530   2.931   0.251   9.540 -0.0774 -0.5616 -0.5807
  644MPD2    C1 9531   2.842   0.160   9.590  0.0832  0.4666 -0.0974
  644MPD2    C2 9532   2.700   0.179   9.574  0.4403 -0.1402  0.0434
  644MPD2    C3 9533   2.651   0.285   9.502  0.5820  0.1202  0.1880
  644MPD2    C4 9534   2.737   0.371   9.443  0.6081  0.0861  0.5702
  644MPD2    C5 9535   2.872   0.353   9.467  0.1191 -0.8016 -0.0573
  644MPD2     H 9536   2.626   0.108   9.608  0.2191  0.5491  1.0247
  644MPD2    H1 9537   2.706   0.452   9.378 -0.2628  2.1467  3.5347
  644MPD2    H2 9538   3.038   0.247   9.555  0.0503  0.8737 -1.0872
  644MPD2    H3 9539   2.942   0.412   9.409 -0.5278  0.7166  0.7312
  644MPD2     N 9540   2.506   0.308   9.505  0.2444  0.3778  0.8917
  644MPD2    H5 9541   2.445   0.245   9.556  2.1933 -3.1282 -1.0650
  644MPD2    N1 9542   2.895   0.044   9.652 -0.6125 -0.8310  0.1060
  644MPD2    H7 9543   2.997   0.045   9.653 -0.5808 -2.1536 -0.9611
  645TMC3    C1 9544   2.301   0.420   9.494 -0.4161 -0.0149 -0.0863
  645TMC3    C2 9545   2.239   0.302   9.448  0.0763 -0.4157 -0.0687
  645TMC3    C3 9546   2.101   0.294   9.465  0.0440 -0.4029  0.1929
  645TMC3    C4 9547   2.235   0.524   9.558 -0.6428 -0.1710 -0.3506
  645TMC3    C5 9548   2.101   0.504   9.583 -0.4083 -0.0272 -0.0670
  645TMC3    C6 9549   2.041   0.389   9.541 -0.0756 -0.0314  0.4325
  645TMC3     C 9550   2.446   0.430   9.473 -0.5728  0.1006 -0.1144
  645TMC3     O 9551   2.486   0.544   9.444  0.5755 -0.3888  0.5076
  645TMC3     H 9552   2.289   0.234   9.380 -1.6192 -1.7019 -0.0398
  645TMC3    H1 9553   2.282   0.617   9.588  0.8799 -0.9624 -0.2591
  645TMC3    H2 9554   1.934   0.383   9.560 -0.4262  1.4471 -1.0399
  645TMC3    C7 9555   2.047   0.573   9.694 -0.2801 -0.3818  0.6897
  645TMC3    C8 9556   2.013   0.210   9.383  0.3576  0.2019  0.7250
  645TMC3    O1 9557   2.125   0.588   9.784  1.2285 -0.0146 -0.2059
  645TMC3    O2 9558   1.894   0.246   9.387 -0.0287 -0.2770  0.9567
  646MPD2     C 9559   1.554   3.932  14.584 -0.1218 -0.0148 -1.0202
  646MPD2    C1 9560   1.458   3.946  14.686 -0.0136 -0.1214  0.3775
  646MPD2    C2 9561   1.348   4.027  14.664 -0.2656 -0.3474 -0.2728
  646MPD2    C3 9562   1.324   4.085  14.543  0.2614  0.2696 -0.1890
  646MPD2    C4 9563   1.420   4.072  14.452  0.5897 -0.1296  0.4520
  646MPD2    C5 9564   1.536   4.004  14.467 -0.5856  0.3126 -0.0774
  646MPD2     H 9565   1.277   4.031  14.746 -0.1429 -0.1636 -0.1766
  646MPD2    H1 9566   1.409   4.128  14.360 -1.3948 -3.3391 -1.2770
  646MPD2    H2 9567   1.650   3.884  14.604 -0.5623 -0.0007  1.0926
  646MPD2    H3 9568   1.609   4.011  14.388 -0.9484 -1.0601 -0.5374
  646MPD2     N 9569   1.217   4.179  14.528  0.2679  0.2511  0.3982
  646MPD2    H5 9570   1.160   4.180  14.612 -0.3038  1.1906 -0.0054
  646MPD2    N1 9571   1.492   3.886  14.810 -0.3095  0.4902 -0.5793
  646MPD2    H7 9572   1.577   3.830  14.817 -0.7525  0.0569  1.2083
  647TMC3    C1 9573   1.474   3.818  15.038  0.3869 -0.4919  1.0135
  647TMC3    C2 9574   1.398   3.808  15.152 -0.4199 -0.5210 -0.0009
  647TMC3    C3 9575   1.459   3.780  15.270  0.5402 -0.1332  0.3226
  647TMC3    C4 9576   1.610   3.802  15.036 -0.7567 -0.1435 -0.3174
  647TMC3    C5 9577   1.664   3.778  15.157 -0.8234  0.4229  0.4824
  647TMC3    C6 9578   1.598   3.764  15.276  0.0598  0.1410 -0.2113
  647TMC3     C 9579   1.410   3.874  14.918  0.0505 -0.7162  0.3603
  647TMC3     O 9580   1.299   3.916  14.933 -0.5231 -0.3818 -0.3763
  647TMC3     H 9581   1.292   3.830  15.146 -0.5250 -1.3637 -1.1025
  647TMC3    H1 9582   1.674   3.803  14.948 -3.5119 -3.0691 -2.4093
  647TMC3    H2 9583   1.641   3.713  15.361 -1.3771 -0.0415  0.4121
  647TMC3    C7 9584   1.802   3.731  15.153 -0.1819  0.0935  1.0164
  647TMC3    C8 9585   1.399   3.675  15.351  0.1067  0.3290  0.2488
  647TMC3    O1 9586   1.826   3.646  15.062  0.3185  0.5341 -0.4736
  647TMC3    O2 9587   1.359   3.573  15.295 -0.1784 -0.5101  0.1800
  648TMC3    C1 9588   0.787   1.497  16.123 -0.2751 -0.3309 -0.1361
  648TMC3    C2 9589   0.831   1.371  16.081 -0.2679 -0.5059  0.6394
  648TMC3    C3 9590   0.811   1.337  15.952  0.5762 -0.4400  0.5942
  648TMC3    C4 9591   0.730   1.587  16.041 -0.0039 -0.0621  0.4655
  648TMC3    C5 9592   0.718   1.554  15.908 -0.2530  0.1514  0.4788
  648TMC3    C6 9593   0.764   1.431  15.868  0.4579 -0.1079 -0.2757
  648TMC3     C 9594   0.794   1.525  16.265  0.9976  0.0106 -0.6600
  648TMC3     O 9595   0.778   1.643  16.292  0.7217 -0.0851 -0.5960
  648TMC3     H 9596   0.881   1.305  16.150 -0.5883 -0.6920  0.6961
  648TMC3    H1 9597   0.700   1.687  16.071 -0.4915  0.2013 -0.9419
  648TMC3    H2 9598   0.758   1.404  15.763  0.6436 -2.6865  0.3729
  648TMC3    C7 9599   0.606   1.601  15.832  0.2188  0.3128  0.9300
  648TMC3    C8 9600   0.873   1.220  15.888  0.6502  1.1072 -0.2605
  648TMC3    O1 9601   0.548   1.525  15.756  0.2974  0.0547  0.0708
  648TMC3    O2 9602   0.891   1.221  15.767 -0.0647  0.4576 -0.0167
  649TMC3    C1 9603   3.810   2.484  13.198 -0.4267  0.1092 -0.4241
  649TMC3    C2 9604   3.932   2.556  13.190  0.0421 -0.1129  0.2640
  649TMC3    C3 9605   4.024   2.520  13.283 -0.4472 -0.5908  0.3070
  649TMC3    C4 9606   3.792   2.392  13.294 -0.6408 -0.0202  0.1669
  649TMC3    C5 9607   3.883   2.370  13.392  0.4358  1.5035  0.0177
  649TMC3    C6 9608   4.006   2.429  13.382 -0.5937 -0.1767  0.2587
  649TMC3     C 9609   3.705   2.498  13.104  0.3999 -0.3330 -0.1261
  649TMC3     O 9610   3.588   2.496  13.141 -0.4827 -0.6331 -0.0164
  649TMC3     H 9611   3.946   2.623  13.106 -1.3993 -0.5382 -0.3189
  649TMC3    H1 9612   3.687   2.365  13.307 -0.0734 -1.2229  2.2778
  649TMC3    H2 9613   4.074   2.417  13.465 -0.4407  1.2907  0.3509
  649TMC3    C7 9614   3.855   2.295  13.511 -0.1173 -1.2844  0.0397
  649TMC3    C8 9615   4.153   2.584  13.280 -0.0277 -0.2881 -0.2109
  649TMC3    O1 9616   3.902   2.338  13.614  0.7840 -0.2447  0.8674
  649TMC3    O2 9617   4.244   2.523  13.338  0.2971  0.1872  0.0538
  650TMC3    C1 9618   2.282   4.059  12.419  0.0591 -0.2340  0.0581
  650TMC3    C2 9619   2.323   4.195  12.430 -0.8397  0.3614  1.0703
  650TMC3    C3 9620   2.270   4.287  12.344  0.4180  0.3512 -0.3326
  650TMC3    C4 9621   2.187   4.014  12.326  0.5987 -0.6051  0.4154
  650TMC3    C5 9622   2.144   4.113  12.236  0.5863  0.2291 -0.2646
  650TMC3    C6 9623   2.190   4.245  12.245 -0.0738 -0.0237  0.5501
  650TMC3     C 9624   2.398   3.971  12.431  0.1898 -0.1426  0.0344
  650TMC3     O 9625   2.511   4.014  12.449  0.6893 -0.4853 -0.0172
  650TMC3     H 9626   2.409   4.212  12.493 -0.5554  2.8884 -0.0021
  650TMC3    H1 9627   2.154   3.911  12.317  1.0469 -0.4934 -2.6683
  650TMC3    H2 9628   2.154   4.326  12.182  2.3335  0.5782 -0.0754
  650TMC3    C7 9629   2.015   4.090  12.174  0.5145  0.2231  0.6847
  650TMC3    C8 9630   2.279   4.429  12.370  1.1718  0.4459 -0.7396
  650TMC3    O1 9631   1.949   3.993  12.209 -0.4531 -0.0627  0.3244
  650TMC3    O2 9632   2.238   4.507  12.285  0.0735  0.0467 -0.3566
  651MPD2     C 9633   1.272   1.284  10.608 -0.5308 -0.0155 -0.1695
  651MPD2    C1 9634   1.288   1.393  10.689  0.2812 -0.3603 -0.7797
  651MPD2    C2 9635   1.414   1.459  10.693 -0.2889  0.1830 -0.5633
  651MPD2    C3 9636   1.522   1.410  10.623  0.3217 -0.1016  0.2562
  651MPD2    C4 9637   1.499   1.307  10.536  0.1959 -0.2366 -0.4564
  651MPD2    C5 9638   1.374   1.252  10.523 -0.7150  0.2461  0.2081
  651MPD2     H 9639   1.422   1.537  10.769 -2.4634  0.0469 -0.1867
  651MPD2    H1 9640   1.576   1.269  10.470  1.0710  0.9167 -0.0965
  651MPD2    H2 9641   1.176   1.236  10.592  0.3541 -2.2890  1.4024
  651MPD2    H3 9642   1.361   1.177  10.446  2.7464  1.0424 -1.1601
  651MPD2     N 9643   1.648   1.482  10.629  0.0646 -0.1181  0.6025
  651MPD2    H5 9644   1.653   1.577  10.665 -0.9571 -0.4919  1.7402
  651MPD2    N1 9645   1.186   1.438  10.778 -0.3496 -0.2826 -0.4980
  651MPD2    H7 9646   1.199   1.516  10.842 -1.3355 -1.1170  0.7264
  652TMC3    C1 9647   2.068   1.664  10.518  0.2600  0.4418 -0.1408
  652TMC3    C2 9648   1.980   1.559  10.497 -0.0457 -0.4682 -0.1031
  652TMC3    C3 9649   1.864   1.561  10.571  0.1809 -0.3317  0.3586
  652TMC3    C4 9650   2.052   1.765  10.607 -0.6604  0.1199 -0.4195
  652TMC3    C5 9651   1.940   1.763  10.685  0.7084  0.2323 -0.1475
  652TMC3    C6 9652   1.849   1.662  10.672  0.2285  0.0283  1.0499
  652TMC3     C 9653   2.198   1.654  10.462 -0.3879 -0.0552 -0.3554
  652TMC3     O 9654   2.208   1.639  10.340 -0.6188  0.6778 -0.2128
  652TMC3     H 9655   2.007   1.476  10.434 -3.4673 -1.0795 -0.7401
  652TMC3    H1 9656   2.126   1.844  10.605 -0.1417 -0.3454  0.3902
  652TMC3    H2 9657   1.770   1.652  10.745 -1.2914 -0.2876 -0.6365
  652TMC3    C7 9658   1.921   1.864  10.785 -0.9667 -0.0124 -0.5676
  652TMC3    C8 9659   1.765   1.452  10.562 -0.1439  0.9747  0.2085
  652TMC3    O1 9660   1.846   1.844  10.877  0.6137 -0.1937 -0.3115
  652TMC3    O2 9661   1.788   1.356  10.489 -0.5847  0.2755 -0.0397
  653MPD2     C 9662   4.565   1.520   0.087 -0.2159  0.2312  0.6149
  653MPD2    C1 9663   4.529   1.631   0.011 -1.0740 -0.4015 -0.5271
  653MPD2    C2 9664   4.469   1.606  17.578 -0.2300 -0.2682  0.1234
  653MPD2    C3 9665   4.449   1.477  17.533 -0.3172  0.3438  0.3073
  653MPD2    C4 9666   4.507   1.373  17.601 -0.5741  0.0867 -0.3911
  653MPD2    C5 9667   4.562   1.397   0.033 -0.2533  0.2489  1.1196
  653MPD2     H 9668   4.443   1.689  17.514  1.2922 -0.3859 -0.6329
  653MPD2    H1 9669   4.516   1.272  17.562  0.0589  0.0632 -0.1999
  653MPD2    H2 9670   4.617   1.531   0.182  0.4318 -1.5008  0.4563
  653MPD2    H3 9671   4.612   1.315   0.082  0.4786 -0.3482 -0.6427
  653MPD2     N 9672   4.372   1.461  17.419 -0.6483  0.5672 -0.6236
  653MPD2    H5 9673   4.337   1.548  17.381 -0.4365 -0.0802 -2.2774
  653MPD2    N1 9674   4.567   1.759   0.059 -0.2144 -0.2445 -0.6419
  653MPD2    H7 9675   4.554   1.837  17.687  1.6355  0.3932 -0.2390
  654TMC3    C1 9676   4.273   1.367  17.219  0.1963  0.6865  1.0107
  654TMC3    C2 9677   4.161   1.454  17.215  0.5889  0.1954  0.1618
  654TMC3    C3 9678   4.069   1.421  17.122  0.1313 -0.7786  0.2376
  654TMC3    C4 9679   4.303   1.264  17.126 -0.0670 -0.0223 -0.3026
  654TMC3    C5 9680   4.211   1.251  17.028 -0.0722  0.3402 -0.4826
  654TMC3    C6 9681   4.098   1.331  17.025  0.3813 -0.3928  0.2392
  654TMC3     C 9682   4.348   1.345  17.348  0.5724  0.2937  0.4260
  654TMC3     O 9683   4.399   1.238  17.363 -0.3003 -0.3660  0.4358
  654TMC3     H 9684   4.145   1.523  17.297  0.3346  1.3435 -0.8674
  654TMC3    H1 9685   4.390   1.200  17.139 -0.2383  0.2373  2.2407
  654TMC3    H2 9686   4.023   1.296  16.955 -0.1841  0.9631  0.1508
  654TMC3    C7 9687   4.190   1.113  16.974  0.0500 -0.1717  0.0797
  654TMC3    C8 9688   3.948   1.499  17.108  0.4012 -0.6177 -0.2555
  654TMC3    O1 9689   4.114   1.111  16.879 -0.1999  0.4574  0.0638
  654TMC3    O2 9690   3.893   1.510  17.001  0.1481  0.0634  0.5405
  655MPD2     C 9691   1.374   1.651  15.717 -0.2772  0.2868 -0.6751
  655MPD2    C1 9692   1.303   1.725  15.625 -0.5310 -0.1497  0.3293
  655MPD2    C2 9693   1.292   1.678  15.496 -1.0302  0.0007  0.4400
  655MPD2    C3 9694   1.352   1.555  15.459 -0.4196  0.0828  1.5423
  655MPD2    C4 9695   1.430   1.486  15.550 -0.2223  0.1893  0.2203
  655MPD2    C5 9696   1.443   1.538  15.674 -0.4182 -0.5249  0.0692
  655MPD2     H 9697   1.230   1.733  15.426 -0.3440  0.8956  0.5313
  655MPD2    H1 9698   1.485   1.397  15.523 -2.6734 -1.0367 -0.7676
  655MPD2    H2 9699   1.383   1.681  15.820 -1.0874 -0.3508 -0.4239
  655MPD2    H3 9700   1.500   1.485  15.749 -0.3396 -1.1612 -0.4447
  655MPD2     N 9701   1.343   1.487  15.334 -0.0926  0.3097  0.4226
  655MPD2    H5 9702   1.396   1.401  15.331  0.3261  0.5666  0.4318
  655MPD2    N1 9703   1.210   1.828  15.663  0.4224  0.5185  0.8121
  655MPD2    H7 9704   1.161   1.880  15.590  2.4837  0.2591 -0.7509
  656TMC3    C1 9705   1.079   1.969  15.803  0.1390  0.0922 -0.3631
  656TMC3    C2 9706   1.013   1.973  15.922  0.7430  0.0353  0.2995
  656TMC3    C3 9707   0.923   2.075  15.951 -0.6051  0.5463  0.6766
  656TMC3    C4 9708   1.049   2.056  15.705  0.2321 -0.6132 -0.1107
  656TMC3    C5 9709   0.946   2.143  15.733 -0.4819  0.3052  0.3052
  656TMC3    C6 9710   0.889   2.157  15.850 -0.0214 -0.8257  0.2126
  656TMC3     C 9711   1.190   1.873  15.795  0.4926 -0.6302  0.1305
  656TMC3     O 9712   1.228   1.823  15.902 -0.0548  0.2245 -0.1539
  656TMC3     H 9713   1.034   1.906  16.004 -0.9085 -1.5328 -0.5580
  656TMC3    H1 9714   1.101   2.051  15.609  0.8999  0.3055  0.2013
  656TMC3    H2 9715   0.822   2.239  15.873  2.3129  1.0504  0.2984
  656TMC3    C7 9716   0.879   2.191  15.615  0.0224  0.4238  0.0428
  656TMC3    C8 9717   0.812   2.038  16.034 -0.2765 -0.4111  0.8484
  656TMC3    O1 9718   0.949   2.206  15.517 -0.4090  0.0486  0.1017
  656TMC3    O2 9719   0.784   1.920  16.034 -0.1581 -0.2006 -0.3940
  657TMC3    C1 9720   0.044   1.449  14.708 -0.1004 -0.0073  0.4811
  657TMC3    C2 9721   0.065   1.453  14.850 -0.6318 -0.3257  0.9091
  657TMC3    C3 9722   4.684   1.510  14.925 -0.2284  0.2367 -0.2750
  657TMC3    C4 9723   4.653   1.491  14.647 -0.8042 -0.0083  0.1425
  657TMC3    C5 9724   4.568   1.552  14.734 -0.2377  0.2326 -0.6863
  657TMC3    C6 9725   4.585   1.579  14.868 -0.2533 -0.2888 -0.0993
  657TMC3     C 9726   0.148   1.394  14.628 -0.5538  0.5075  0.0924
  657TMC3     O 9727   0.158   1.427  14.512  0.5182  0.6960  0.2085
  657TMC3     H 9728   0.138   1.398  14.909  1.1086  1.0259 -0.0171
  657TMC3    H1 9729   4.632   1.481  14.541 -0.2665 -1.7537  0.2030
  657TMC3    H2 9730   4.498   1.617  14.920 -1.2080 -0.7350 -1.3826
  657TMC3    C7 9731   4.442   1.602  14.682 -0.4504 -0.3836  0.1948
  657TMC3    C8 9732   4.705   1.550  15.061  0.2112  0.4220  0.0177
  657TMC3    O1 9733   4.394   1.701  14.738  0.1784  0.5587 -0.1298
  657TMC3    O2 9734   4.676   1.664  15.087 -0.0342  0.1351  0.4106
  658MPD2     C 9735   1.761   1.415  14.765  0.3781  0.4658  0.2095
  658MPD2    C1 9736   1.628   1.401  14.741  0.2610  0.0354  0.8534
  658MPD2    C2 9737   1.591   1.380  14.607 -0.0542 -0.6005 -0.1193
  658MPD2    C3 9738   1.681   1.379  14.502  0.3039 -0.4376  0.4179
  658MPD2    C4 9739   1.815   1.394  14.529  0.1435 -0.1845  0.2973
  658MPD2    C5 9740   1.857   1.406  14.663 -0.1685 -0.5374  0.2741
  658MPD2     H 9741   1.488   1.359  14.583 -0.2923 -1.7039  1.8102
  658MPD2    H1 9742   1.889   1.395  14.451  0.0970 -0.1554  0.2537
  658MPD2    H2 9743   1.802   1.435  14.864 -0.0065 -0.2098  0.5023
  658MPD2    H3 9744   1.965   1.409  14.673 -0.3548  0.6504  1.9416
  658MPD2     N 9745   1.627   1.375  14.368  0.3084 -0.2166 -0.3579
  658MPD2    H5 9746   1.525   1.377  14.366  0.3469 -0.0103 -1.9506
  658MPD2    N1 9747   1.529   1.403  14.840 -0.0956 -0.1519 -0.2278
  658MPD2    H7 9748   1.551   1.454  14.925  1.8541  2.4856 -2.3257
  659TMC3    C1 9749   1.306   1.394  14.912  0.6516  0.3618  0.1018
  659TMC3    C2 9750   1.331   1.393  15.052 -0.0727  0.6629  0.7281
  659TMC3    C3 9751   1.234   1.419  15.140  0.0173  0.3540  0.2634
  659TMC3    C4 9752   1.184   1.396  14.864  0.4711 -0.1757  0.4066
  659TMC3    C5 9753   1.081   1.411  14.955  0.3239  0.3121 -1.1062
  659TMC3    C6 9754   1.106   1.420  15.088  0.4561  0.3847 -0.1780
  659TMC3     C 9755   1.405   1.338  14.824 -0.2567 -0.0409 -0.2599
  659TMC3     O 9756   1.369   1.256  14.742 -0.4401 -0.4064 -0.1801
  659TMC3     H 9757   1.434   1.388  15.086 -0.2447 -0.7064  1.0510
  659TMC3    H1 9758   1.170   1.388  14.757  1.3145 -0.6477  0.3318
  659TMC3    H2 9759   1.022   1.439  15.154  0.2851 -0.1634 -0.2382
  659TMC3    C7 9760   0.957   1.471  14.903  0.0306 -0.5000 -0.3730
  659TMC3    C8 9761   1.261   1.530  15.228 -0.7718  0.4478  0.5865
  659TMC3    O1 9762   0.878   1.496  14.995 -0.2587 -0.2661 -0.6744
  659TMC3    O2 9763   1.186   1.628  15.225  0.6769 -0.0642 -0.0552
  660MPD2     C 9764   3.904   4.094  12.764  0.3151  0.8500 -0.2785
  660MPD2    C1 9765   3.927   4.224  12.802  0.1313 -0.7500  0.0448
  660MPD2    C2 9766   3.889   4.266  12.933 -0.1026  0.1444 -0.1329
  660MPD2    C3 9767   3.824   4.180  13.012  0.2070 -0.6808  0.1978
  660MPD2    C4 9768   3.819   4.048  12.977  0.4515 -0.0751 -0.6676
  660MPD2    C5 9769   3.855   4.003  12.856  0.8697  0.2057  0.6255
  660MPD2     H 9770   3.911   4.361  12.981  0.4047 -0.0422  0.0059
  660MPD2    H1 9771   3.765   3.976  13.037  1.3738 -0.3308 -0.1367
  660MPD2    H2 9772   3.921   4.066  12.661 -1.7392  1.9944 -0.9344
  660MPD2    H3 9773   3.830   3.901  12.831  2.3742 -0.0812  0.2759
  660MPD2     N 9774   3.770   4.212  13.141  0.2945 -0.0435 -0.7307
  660MPD2    H5 9775   3.761   4.136  13.208 -2.8992  0.9653 -0.0255
  660MPD2    N1 9776   3.990   4.321  12.714 -0.1656  0.1087 -0.1087
  660MPD2    H7 9777   3.991   4.299  12.615  1.7598 -0.6821  0.0766
  661TMC3    C1 9778   4.058   4.529  12.626  0.2023 -0.4004 -0.0204
  661TMC3    C2 9779   4.092   4.463  12.513  0.0670  0.0047  0.0110
  661TMC3    C3 9780   4.090   4.534  12.396  0.0209 -0.1854 -0.2908
  661TMC3    C4 9781   4.029   4.659  12.629  0.3680 -0.3610 -0.3063
  661TMC3    C5 9782   4.041   0.001  12.510  0.8068  0.0202  0.5715
  661TMC3    C6 9783   4.072   4.665  12.393  0.4149 -1.1844 -0.5257
  661TMC3     C 9784   4.025   4.450  12.747 -0.4865  0.6659 -0.0813
  661TMC3     O 9785   4.020   4.510  12.850  0.4038 -0.3973 -0.6451
  661TMC3     H 9786   4.113   4.357  12.505  1.7212  0.3894 -0.8415
  661TMC3    H1 9787   3.999   0.001  12.711 -0.8229 -0.2115 -0.8533
  661TMC3    H2 9788   4.081   4.711  12.296  0.4439 -0.3372 -0.1214
  661TMC3    C7 9789   4.014   0.138  12.511  0.2974  0.6362 -0.3100
  661TMC3    C8 9790   4.166   4.492  12.279 -0.1498  1.0171  0.6181
  661TMC3    O1 9791   4.039   0.210  12.608  0.1420 -0.1720  0.0281
  661TMC3    O2 9792   4.249   4.575  12.237 -0.4821 -0.3340 -0.0602
  662MPD2     C 9793   4.343   0.145   0.598  0.5383 -0.1257  0.4131
  662MPD2    C1 9794   4.319   0.203   0.478 -0.4283  0.3449  0.3780
  662MPD2    C2 9795   4.227   0.307   0.477  0.1947 -0.4361  0.0254
  662MPD2    C3 9796   4.163   0.359   0.589  0.2144  0.3526  0.1830
  662MPD2    C4 9797   4.188   0.291   0.707 -0.4590 -0.3328 -0.3456
  662MPD2    C5 9798   4.278   0.190   0.707 -0.2602 -0.2025  0.2309
  662MPD2     H 9799   4.211   0.362   0.385  0.2200 -0.4491  0.0134
  662MPD2    H1 9800   4.137   0.317   0.799 -0.3189 -0.4272 -0.2414
  662MPD2    H2 9801   4.407   0.058   0.610  0.2153 -0.1135  2.3563
  662MPD2    H3 9802   4.294   0.124   0.792 -0.7039 -1.2394 -0.4956
  662MPD2     N 9803   4.093   0.479   0.580  0.0908 -0.6333  0.4327
  662MPD2    H5 9804   4.094   0.524   0.489  0.3826 -1.9462 -0.2032
  662MPD2    N1 9805   4.393   0.164   0.363  0.1476  0.6498 -0.3991
  662MPD2    H7 9806   4.389   0.231   0.286 -0.5995  0.7434 -0.2776
  663TMC3    C1 9807   4.479   0.015   0.206 -0.1560  0.2425  0.4884
  663TMC3    C2 9808   4.467   0.121   0.121  0.0829  0.3446 -0.4355
  663TMC3    C3 9809   4.471   0.102  17.679  0.5470 -0.1008  0.4259
  663TMC3    C4 9810   4.489   4.611   0.161  0.5040  0.1186  0.7090
  663TMC3    C5 9811   4.504   4.597   0.024 -0.1819  0.2839 -0.1682
  663TMC3    C6 9812   4.488   4.698  17.626 -0.7552 -0.1826  0.0992
  663TMC3     C 9813   4.446   0.038   0.342 -0.2045  0.1033 -0.5818
  663TMC3     O 9814   4.436   4.662   0.413  0.7968  0.6694  0.2944
  663TMC3     H 9815   4.501   0.220   0.148  0.5455  0.2336 -0.6052
  663TMC3    H1 9816   4.486   4.525   0.227 -1.7612 -1.0522 -0.9054
  663TMC3    H2 9817   4.453   4.674  17.526  1.7142 -1.2453 -0.4940
  663TMC3    C7 9818   4.520   4.461  17.661 -0.6941  0.4310  0.1273
  663TMC3    C8 9819   4.347   0.150  17.632  0.4676  0.2067  0.0448
  663TMC3    O1 9820   4.611   4.456  17.577  0.1093 -0.4253 -0.3075
  663TMC3    O2 9821   4.319   0.149  17.509 -0.5786  0.2185 -0.3797
  664MPD2     C 9822   2.539   3.063  17.297 -0.4939 -0.3611 -0.5740
  664MPD2    C1 9823   2.617   3.147  17.373 -0.6022 -0.4275 -0.2536
  664MPD2    C2 9824   2.638   3.105  17.510 -0.2285  0.0001 -0.4645
  664MPD2    C3 9825   2.579   2.993  17.563  0.7005  0.2631 -0.4093
  664MPD2    C4 9826   2.485   2.927  17.487 -0.2674 -0.0403  0.4253
  664MPD2    C5 9827   2.463   2.967  17.360  0.7927 -0.1756  0.1750
  664MPD2     H 9828   2.719   3.149  17.567  0.1895 -1.7107  0.2540
  664MPD2    H1 9829   2.436   2.842  17.533  1.7411  0.3624  3.3051
  664MPD2    H2 9830   2.529   3.077  17.190 -2.5275 -1.4616 -0.5369
  664MPD2    H3 9831   2.402   2.907  17.293  0.7515  1.1312 -0.9710
  664MPD2     N 9832   2.610   2.954   0.005 -0.3055  0.8936  0.0230
  664MPD2    H5 9833   2.677   3.011   0.055  0.5329 -0.5905  0.5843
  664MPD2    N1 9834   2.691   3.261  17.327 -0.0158  0.4944  0.2913
  664MPD2    H7 9835   2.753   3.295  17.399  0.6001 -1.4799  0.6816
  665TMC3    C1 9836   2.597   2.854   0.231 -0.1475 -0.0372 -0.1876
  665TMC3    C2 9837   2.511   2.803   0.322 -0.2098 -0.2886  1.0623
  665TMC3    C3 9838   2.560   2.778   0.449 -0.1328 -0.5710 -0.6068
  665TMC3    C4 9839   2.725   2.891   0.255 -0.5327  0.4998 -0.3647
  665TMC3    C5 9840   2.758   2.886   0.384 -0.2617 -0.4721  0.0344
  665TMC3    C6 9841   2.683   2.831   0.486  0.5759  0.5984  0.1537
  665TMC3     C 9842   2.546   2.860   0.087 -0.1905  0.4211  0.2518
  665TMC3     O 9843   2.452   2.788   0.056 -0.1895 -1.0126  0.2067
  665TMC3     H 9844   2.412   2.776   0.287 -0.1741 -1.2621  1.6994
  665TMC3    H1 9845   2.786   2.927   0.173  0.9876  0.4475  0.7637
  665TMC3    H2 9846   2.719   2.798   0.583 -1.0008 -0.4328  0.3799
  665TMC3    C7 9847   2.865   2.969   0.420  0.2712  0.3483 -0.1571
  665TMC3    C8 9848   2.480   2.717   0.552 -0.8382 -0.0921  0.6071
  665TMC3    O1 9849   2.954   2.981   0.337 -0.3399 -0.7215 -0.2072
  665TMC3    O2 9850   2.527   2.714   0.666  1.4985  0.0907 -0.5810
  666TMC3    C1 9851   2.157   2.130   9.706 -0.0786  0.2767 -0.5153
  666TMC3    C2 9852   2.206   2.145   9.838 -0.6033 -1.1139  0.0046
  666TMC3    C3 9853   2.270   2.266   9.852  0.2282 -0.7044 -0.3319
  666TMC3    C4 9854   2.172   2.215   9.603 -0.0533 -0.8890 -0.1142
  666TMC3    C5 9855   2.217   2.335   9.636  0.0858 -0.5322 -0.6996
  666TMC3    C6 9856   2.280   2.362   9.754 -0.7130  0.4297  0.1330
  666TMC3     C 9857   2.063   2.023   9.678 -0.3582 -0.9809  0.1185
  666TMC3     O 9858   2.078   1.969   9.573 -0.0298  0.1592 -0.3258
  666TMC3     H 9859   2.189   2.079   9.923 -1.2217  0.0400  0.7818
  666TMC3    H1 9860   2.113   2.201   9.513  3.0572 -0.5493 -2.2128
  666TMC3    H2 9861   2.313   2.464   9.771  2.4415 -0.3792 -1.2418
  666TMC3    C7 9862   2.123   2.444   9.601  0.0309 -0.7291 -0.2720
  666TMC3    C8 9863   2.347   2.296   9.974 -0.0335  0.9567 -0.1344
  666TMC3    O1 9864   2.081   2.502   9.697  0.6485 -0.2418  0.2486
  666TMC3    O2 9865   2.317   2.244  10.082  0.0651 -0.6984  0.0853
  667MPD2     C 9866   2.884   2.696  14.571  0.3922 -0.0627 -0.4001
  667MPD2    C1 9867   2.781   2.753  14.633  0.5099 -0.0686  0.5623
  667MPD2    C2 9868   2.655   2.760  14.575 -0.4684  0.5639  0.3025
  667MPD2    C3 9869   2.635   2.713  14.442  0.3841  0.1138 -0.1041
  667MPD2    C4 9870   2.737   2.637  14.385 -0.6523  0.1125  0.3427
  667MPD2    C5 9871   2.860   2.625  14.454 -0.5963 -0.1823  0.0157
  667MPD2     H 9872   2.572   2.788  14.640 -1.3676  0.0303 -0.6199
  667MPD2    H1 9873   2.716   2.588  14.291 -0.1319 -1.2150  0.9284
  667MPD2    H2 9874   2.984   2.690  14.610  0.3149  0.9752 -0.0457
  667MPD2    H3 9875   2.930   2.557  14.407  1.5324 -0.5343  3.7686
  667MPD2     N 9876   2.515   2.719  14.374  0.2137  0.6684 -1.0488
  667MPD2    H5 9877   2.504   2.661  14.291 -2.1592  1.1556 -1.1006
  667MPD2    N1 9878   2.795   2.812  14.760 -0.2162  0.0105  0.4931
  667MPD2    H7 9879   2.713   2.851  14.805 -0.4488  0.9649 -0.7812
  668TMC3    C1 9880   2.899   2.935  14.931  0.8768  0.5999 -0.2235
  668TMC3    C2 9881   3.004   3.014  14.957 -0.1427 -0.5733  0.1910
  668TMC3    C3 9882   3.009   3.060  15.091 -0.1147  0.3285  0.9529
  668TMC3    C4 9883   2.795   2.907  15.016  0.5733  0.4076 -0.2818
  668TMC3    C5 9884   2.800   2.960  15.143  0.5439  0.1236 -0.0359
  668TMC3    C6 9885   2.902   3.049  15.182 -0.2626 -0.6876 -0.0813
  668TMC3     C 9886   2.912   2.861  14.815 -0.1141 -0.1000  0.7763
  668TMC3     O 9887   3.023   2.862  14.770  0.3859  0.4727 -0.8209
  668TMC3     H 9888   3.073   3.043  14.878 -0.5873 -0.1092 -0.0260
  668TMC3    H1 9889   2.710   2.846  14.989 -0.3940  0.4955  2.5690
  668TMC3    H2 9890   2.917   3.073  15.286 -0.7340  0.3896 -0.2682
  668TMC3    C7 9891   2.679   2.957  15.215 -0.5962  0.4288  0.3939
  668TMC3    C8 9892   3.131   3.115  15.147  0.2463 -0.0917 -0.1978
  668TMC3    O1 9893   2.599   2.874  15.167  0.1961 -0.4123 -0.0333
  668TMC3    O2 9894   3.139   3.113  15.271 -0.3528 -0.2509 -0.0652
  669TMC3    C1 9895   1.208   3.168  14.293 -0.4046  0.2434 -0.3861
  669TMC3    C2 9896   1.128   3.132  14.188 -0.2168 -0.1486  0.5036
  669TMC3    C3 9897   1.154   3.188  14.068 -0.9169 -0.2179  0.1119
  669TMC3    C4 9898   1.302   3.267  14.283 -0.0501  0.0332 -0.0021
  669TMC3    C5 9899   1.323   3.326  14.157 -0.3900 -0.5090  0.1347
  669TMC3    C6 9900   1.250   3.282  14.047  0.4353  0.3132 -1.0536
  669TMC3     C 9901   1.158   3.122  14.425  0.5898 -0.0867 -0.3191
  669TMC3     O 9902   1.051   3.061  14.426  0.6949 -0.3981  0.3474
  669TMC3     H 9903   1.032   3.082  14.189 -0.3613  0.1270  0.0508
  669TMC3    H1 9904   1.368   3.290  14.366  0.4162  0.8200 -0.5928
  669TMC3    H2 9905   1.256   3.339  13.956  1.0409  0.2152 -1.0762
  669TMC3    C7 9906   1.434   3.419  14.144  0.0797  0.0412 -0.2736
  669TMC3    C8 9907   1.046   3.183  13.975  0.6433  0.1288  0.1415
  669TMC3    O1 9908   1.506   3.429  14.243 -0.2882  0.3216  0.1028
  669TMC3    O2 9909   0.987   3.081  13.958 -0.3014  0.1109 -0.6294
  670MPD2     C 9910   4.146   1.169  13.070 -0.2528  0.5933  0.2393
  670MPD2    C1 9911   4.260   1.200  13.140  0.5837  0.6764 -0.9545
  670MPD2    C2 9912   4.264   1.157  13.268  0.0405 -0.1242  0.0140
  670MPD2    C3 9913   4.162   1.096  13.335 -0.0187 -0.3937  0.3020
  670MPD2    C4 9914   4.047   1.073  13.269  0.1701  0.3976  0.1354
  670MPD2    C5 9915   4.044   1.110  13.138  0.3625 -0.3452  0.8967
  670MPD2     H 9916   4.354   1.167  13.327 -0.2609  0.6657  0.3342
  670MPD2    H1 9917   3.962   1.018  13.306  0.2430  2.0256  2.7050
  670MPD2    H2 9918   4.139   1.194  12.965  0.3173  2.6317  0.6795
  670MPD2    H3 9919   3.952   1.100  13.082  1.0600 -1.3801 -0.0691
  670MPD2     N 9920   4.185   1.056  13.469  0.3029 -0.3879 -0.5164
  670MPD2    H5 9921   4.279   1.056  13.506 -0.7526 -0.7945  2.1245
  670MPD2    N1 9922   4.380   1.251  13.082 -0.2109  0.2233  0.1751
  670MPD2    H7 9923   4.463   1.270  13.137 -1.2291 -0.8472  2.1125
  671TMC3    C1 9924   4.147   0.987  13.692 -0.3579  0.0798 -0.4404
  671TMC3    C2 9925   4.284   0.991  13.719 -0.6623 -0.4835 -0.3863
  671TMC3    C3 9926   4.327   0.937  13.831  0.2138 -0.8576  0.3036
  671TMC3    C4 9927   4.061   0.928  13.784  0.4885  0.4645  0.5581
  671TMC3    C5 9928   4.103   0.873  13.899  0.9054 -0.6462  0.6995
  671TMC3    C6 9929   4.240   0.877  13.923  0.5326 -0.0259 -0.5550
  671TMC3     C 9930   4.086   1.027  13.563  0.6523  0.2180  0.5662
  671TMC3     O 9931   3.966   1.039  13.556 -0.0143  0.1240  0.0409
  671TMC3     H 9932   4.361   0.998  13.643  0.3206  0.6285  0.7221
  671TMC3    H1 9933   3.953   0.938  13.777  0.2974 -2.2801 -0.4454
  671TMC3    H2 9934   4.276   0.855  14.023  2.1481  0.4547 -1.0345
  671TMC3    C7 9935   4.012   0.780  13.955 -0.5604 -0.9306  0.1466
  671TMC3    C8 9936   4.476   0.912  13.837 -0.3267 -0.5361  0.1412
  671TMC3    O1 9937   3.912   0.749  13.888 -0.4009  0.4382  0.3897
  671TMC3    O2 9938   4.544   0.989  13.771 -0.9448 -0.4377  0.0088
  672MPD2     C 9939   3.432   1.682   1.671 -0.1637 -0.2708  0.6230
  672MPD2    C1 9940   3.551   1.744   1.634 -0.2704 -0.2361 -0.4161
  672MPD2    C2 9941   3.638   1.777   1.736  0.1010  0.3966 -0.6584
  672MPD2    C3 9942   3.610   1.759   1.873 -1.2401 -0.6204 -0.7001
  672MPD2    C4 9943   3.501   1.668   1.898  0.0258 -0.4640  0.5068
  672MPD2    C5 9944   3.418   1.639   1.799 -0.4937  0.2968  0.3889
  672MPD2     H 9945   3.734   1.818   1.706 -0.2047  2.2558  0.8774
  672MPD2    H1 9946   3.489   1.616   1.992 -0.3649 -1.2547  0.0245
  672MPD2    H2 9947   3.366   1.644   1.595 -0.6759  1.1617  0.3537
  672MPD2    H3 9948   3.342   1.568   1.830 -2.5641  1.5161 -1.9288
  672MPD2     N 9949   3.698   1.794   1.973  0.8314 -0.7261  0.6420
  672MPD2    H5 9950   3.682   1.743   2.060  1.9952 -0.2416  1.1491
  672MPD2    N1 9951   3.563   1.789   1.498 -0.2177 -0.2691 -0.1232
  672MPD2    H7 9952   3.488   1.779   1.431  0.5090  0.2491 -1.0278
  673TMC3    C1 9953   3.680   1.861   1.304  0.3179  0.8363  0.1678
  673TMC3    C2 9954   3.797   1.838   1.232 -0.2314  0.1893  0.3064
  673TMC3    C3 9955   3.797   1.852   1.091  0.9314 -0.2911  0.2606
  673TMC3    C4 9956   3.560   1.882   1.239  0.6128  0.0585 -0.0535
  673TMC3    C5 9957   3.566   1.883   1.100 -0.3839  0.0979 -0.3288
  673TMC3    C6 9958   3.681   1.881   1.020  0.2158 -0.7346  0.0732
  673TMC3     C 9959   3.683   1.832   1.441 -0.0645 -0.2850 -0.0099
  673TMC3     O 9960   3.794   1.824   1.492 -0.2145  0.0510  0.5643
  673TMC3     H 9961   3.893   1.824   1.281 -0.2113  0.2552  0.2862
  673TMC3    H1 9962   3.469   1.908   1.292  0.7151 -1.5979  0.9652
  673TMC3    H2 9963   3.692   1.875   0.913 -1.2693  0.6117 -0.1437
  673TMC3    C7 9964   3.441   1.911   1.030  0.0284 -0.2172 -0.4397
  673TMC3    C8 9965   3.911   1.813   1.019  0.0604  0.1589 -0.1006
  673TMC3    O1 9966   3.337   1.931   1.093  0.6928 -0.4014 -0.2406
  673TMC3    O2 9967   3.901   1.834   0.896 -0.6818  0.1621 -0.2415
  674MPD2     C 9968   4.220   1.766   0.290 -0.0155  0.2077  0.4089
  674MPD2    C1 9969   4.221   1.804   0.420 -0.0678  0.0291  0.1397
  674MPD2    C2 9970   4.102   1.820   0.487 -0.7251 -0.2632  0.1111
  674MPD2    C3 9971   3.989   1.785   0.426  0.0377  0.0008  0.2225
  674MPD2    C4 9972   3.986   1.749   0.290 -0.4462  0.5191  0.3069
  674MPD2    C5 9973   4.105   1.737   0.227 -0.7966  0.4088 -0.3468
  674MPD2     H 9974   4.112   1.851   0.590 -0.5893 -1.2271  0.3855
  674MPD2    H1 9975   3.896   1.720   0.238  0.9487  1.3633 -2.5502
  674MPD2    H2 9976   4.317   1.761   0.243  0.2434 -2.9083  1.2519
  674MPD2    H3 9977   4.097   1.720   0.120 -2.5226 -3.5648  0.4157
  674MPD2     N 9978   3.876   1.787   0.510  0.4065  0.2538  0.7228
  674MPD2    H5 9979   3.893   1.816   0.606 -0.4305  2.0606  0.3195
  674MPD2    N1 9980   4.349   1.809   0.479  0.6036  0.5423 -0.0621
  674MPD2    H7 9981   4.425   1.782   0.417  0.7193  2.0416 -0.5541
  675TMC3    C1 9982   4.509   1.806   0.655  0.6641  0.3705  0.2582
  675TMC3    C2 9983   4.560   1.691   0.603 -0.8862 -0.2333 -0.4043
  675TMC3    C3 9984   4.640   1.619   0.680  0.7930  0.1928 -0.2220
  675TMC3    C4 9985   4.551   1.856   0.774 -0.3961  0.3675  0.0713
  675TMC3    C5 9986   4.636   1.784   0.844 -0.2736  0.3719  0.5951
  675TMC3    C6 9987   4.685   1.661   0.799 -0.1554  0.1643 -0.2376
  675TMC3     C 9988   4.376   1.840   0.608 -1.4064 -0.1178 -0.0655
  675TMC3     O 9989   4.313   1.880   0.702  1.2566 -0.3435 -0.2053
  675TMC3     H 9990   4.521   1.639   0.516 -1.7732  1.1978 -0.8778
  675TMC3    H1 9991   4.495   1.936   0.821 -1.2558  0.2207 -0.7021
  675TMC3    H2 9992   0.029   1.599   0.858 -2.1311 -1.0693  0.6931
  675TMC3    C7 9993   4.657   1.813   0.984  0.2657  0.6635 -0.7468
  675TMC3    C8 9994   4.677   1.487   0.638  0.2544  1.0241 -1.0773
  675TMC3    O1 9995   0.017   1.742   1.039 -0.0039 -0.1541  0.2130
  675TMC3    O2 9996   4.684   1.469   0.520  0.3083 -0.7322  0.7854
  676MPD2     C 9997   2.506   3.921  11.211 -0.0568  0.2175  0.3675
  676MPD2    C1 9998   2.377   3.872  11.224  0.1911 -0.5952 -0.0179
  676MPD2    C2 9999   2.333   3.773  11.137  0.0092  0.3675  0.5345
  676MPD2    C310000   2.423   3.721  11.046  0.3999 -0.0529  0.5973
  676MPD2    C410001   2.548   3.772  11.031  0.2084 -0.0070 -0.7084
  676MPD2    C510002   2.589   3.870  11.112  0.8576 -0.1663  0.5630
  676MPD2     H10003   2.230   3.740  11.139  0.0732  0.1272 -0.2870
  676MPD2    H110004   2.615   3.733  10.956  1.1464 -1.4383  0.8828
  676MPD2    H210005   2.550   3.995  11.276  0.7150 -0.4189  0.5646
  676MPD2    H310006   2.692   3.902  11.102  0.8828 -0.0825  1.1220
  676MPD2     N10007   2.400   3.612  10.959  0.1394 -0.0466  0.7774
  676MPD2    H510008   2.479   3.579  10.904  0.4014 -0.9877  1.6977
  676MPD2    N110009   2.300   3.910  11.334 -0.3411 -0.2608  0.6802
  676MPD2    H710010   2.213   3.857  11.339  0.2109 -1.1001  1.3107
  677TMC3    C110011   2.218   4.037  11.515  0.3012  0.2386 -0.3091
  677TMC3    C210012   2.175   3.926  11.579 -0.2849 -0.3470 -0.5344
  677TMC3    C310013   2.119   3.940  11.699 -0.0044 -0.1754  1.1281
  677TMC3    C410014   2.223   4.154  11.584 -0.0741 -0.7899 -0.0678
  677TMC3    C510015   2.179   4.160  11.709  0.2931  0.3529  0.0104
  677TMC3    C610016   2.107   4.057  11.764  0.6082 -0.2060  0.4359
  677TMC3     C10017   2.312   4.023  11.408 -0.1736 -0.4806 -0.3007
  677TMC3     O10018   2.388   4.119  11.386 -0.2742 -0.3929  0.3961
  677TMC3     H10019   2.170   3.825  11.541  2.3623  0.8846 -4.1410
  677TMC3    H110020   2.287   4.231  11.543 -0.8939 -0.3072 -0.4546
  677TMC3    H210021   2.063   4.068  11.863 -0.5238 -1.0339  0.0170
  677TMC3    C710022   2.229   4.254  11.808  0.1690  0.3345 -0.5258
  677TMC3    C810023   2.053   3.822  11.754 -0.4460 -0.5215 -0.5420
  677TMC3    O110024   2.189   4.247  11.923 -0.3713  0.0946 -0.2215
  677TMC3    O210025   1.949   3.785  11.701  0.2818  0.2371 -0.3612
  678MPD2     C10026   3.365   4.270   1.610 -0.0675  0.4253 -0.0808
  678MPD2    C110027   3.439   4.202   1.511 -0.4848 -0.4191 -0.1824
  678MPD2    C210028   3.359   4.133   1.421  0.5231  0.2252  0.3880
  678MPD2    C310029   3.220   4.130   1.422  0.2874 -0.0702  0.5553
  678MPD2    C410030   3.149   4.189   1.525 -0.2802 -0.5023 -0.1960
  678MPD2    C510031   3.230   4.249   1.618  0.0331 -1.0850  0.0536
  678MPD2     H10032   3.410   4.094   1.333 -0.7671  0.8527 -0.6513
  678MPD2    H110033   3.042   4.203   1.534 -0.4646 -3.0153  1.5446
  678MPD2    H210034   3.419   4.315   1.693  0.7330 -0.4295 -0.1293
  678MPD2    H310035   3.178   4.287   1.705 -0.1460  1.5707 -1.1921
  678MPD2     N10036   3.155   4.071   1.309  0.7753 -0.1890 -0.3502
  678MPD2    H510037   3.209   4.030   1.234  0.6192 -1.8634  0.4591
  678MPD2    N110038   3.575   4.222   1.480  0.2036 -0.0094 -0.3890
  678MPD2    H710039   3.625   4.164   1.414 -1.0747  1.3874 -2.5731
  679TMC3    C110040   3.958   4.206   1.374 -0.0433  0.1968  0.0919
  679TMC3    C210041   3.844   4.194   1.454  0.4418 -0.5904  0.0195
  679TMC3    C310042   3.794   4.319   1.491 -0.5927  1.5491  0.3031
  679TMC3    C410043   4.011   4.320   1.323  0.6159 -0.5678  0.6933
  679TMC3    C510044   3.957   4.434   1.364  0.0569 -0.3631  0.2813
  679TMC3    C610045   3.852   4.438   1.452 -0.5627  0.0919 -0.3514
  679TMC3     C10046   4.048   4.096   1.360 -0.7635 -0.1224 -0.5484
  679TMC3     O10047   3.998   3.989   1.333  0.0078 -0.0057  0.1763
  679TMC3     H10048   3.816   4.106   1.511 -0.2081  0.1592  0.8670
  679TMC3    H110049   4.100   4.313   1.263 -0.7620  1.9641 -1.6562
  679TMC3    H210050   3.819   4.533   1.492  1.9533  1.0734 -0.6032
  679TMC3    C710051   3.973   4.546   1.280  0.6648 -0.4720 -0.1170
  679TMC3    C810052   3.650   4.327   1.534 -0.4226  0.2394  0.0803
  679TMC3    O110053   4.017   4.529   1.165 -0.0471  0.3209 -0.4778
  679TMC3    O210054   3.613   4.417   1.605 -0.3851 -0.0650 -0.9004
  680MPD2     C10055   3.719   2.719  14.074  0.1147 -0.1789 -0.3965
  680MPD2    C110056   3.766   2.635  14.173 -1.0165 -0.1460  0.2719
  680MPD2    C210057   3.889   2.657  14.233  0.4511 -0.8245  0.8379
  680MPD2    C310058   3.967   2.770  14.193  0.3987 -0.4197  0.4364
  680MPD2    C410059   3.906   2.865  14.107  0.6268  0.0047  0.9343
  680MPD2    C510060   3.778   2.837  14.058  0.3533  0.2950  0.3579
  680MPD2     H10061   3.918   2.586  14.310 -2.1249 -1.3215  1.3658
  680MPD2    H110062   3.961   2.952  14.073  0.9758 -0.5636  0.0624
  680MPD2    H210063   3.624   2.703  14.024  0.6223 -2.0759 -0.7131
  680MPD2    H310064   3.736   2.909  13.989  0.6021  1.2300  1.1878
  680MPD2     N10065   4.102   2.786  14.228 -0.1235  0.5068  0.0424
  680MPD2    H510066   4.138   2.871  14.186  0.7866  0.7468  1.2880
  680MPD2    N110067   3.679   2.528  14.208 -0.5597 -0.0796  0.5734
  680MPD2    H710068   3.590   2.519  14.160 -0.9053  1.9387  0.8279
  681TMC3    C110069   3.594   2.330  14.300  0.8553  0.0467 -0.4730
  681TMC3    C210070   3.573   2.249  14.408  0.5506  0.0688  0.0393
  681TMC3    C310071   3.521   2.119  14.393  0.4241  1.1943  0.0925
  681TMC3    C410072   3.569   2.280  14.174  0.2985 -0.0672 -0.0633
  681TMC3    C510073   3.530   2.148  14.165  0.1908  0.6160 -0.5414
  681TMC3    C610074   3.498   2.071  14.271 -0.2672 -0.7576 -0.8409
  681TMC3     C10075   3.688   2.441  14.312  0.2242  0.1024 -0.1133
  681TMC3     O10076   3.762   2.445  14.407  0.0604  0.0500 -0.0466
  681TMC3     H10077   3.588   2.293  14.506  2.2342  0.7073 -0.5070
  681TMC3    H110078   3.596   2.332  14.082 -1.4189  0.5766 -0.1926
  681TMC3    H210079   3.487   1.964  14.254 -0.8980 -0.7985 -0.1915
  681TMC3    C710080   3.515   2.083  14.033  0.1344  0.1218 -0.4582
  681TMC3    C810081   3.573   2.027  14.488 -0.3909 -0.6896 -0.4423
  681TMC3    O110082   3.464   1.971  14.042 -0.4155 -0.1996 -0.0941
  681TMC3    O210083   3.518   1.919  14.506  0.3716  0.2774  0.3787
  682MPD2     C10084   1.710   3.640   9.846  0.1774 -0.2035 -0.3378
  682MPD2    C110085   1.650   3.535   9.911  0.3694 -0.1640 -1.2611
  682MPD2    C210086   1.602   3.548  10.042 -0.4098  0.1645  0.1629
  682MPD2    C310087   1.618   3.670  10.106  0.0634 -0.7778  0.0719
  682MPD2    C410088   1.688   3.775  10.048  0.2569 -0.5039 -0.3445
  682MPD2    C510089   1.727   3.763   9.913  0.4362  0.0849  0.3822
  682MPD2     H10090   1.575   3.460  10.099 -1.4741  0.3292 -0.0930
  682MPD2    H110091   1.710   3.865  10.105 -1.0693  2.1079 -3.9540
  682MPD2    H210092   1.749   3.626   9.746  1.7538  1.7506  0.0134
  682MPD2    H310093   1.778   3.837   9.854  0.4384 -0.4683 -0.3098
  682MPD2     N10094   1.575   3.672  10.243  0.0536 -0.1934 -0.0327
  682MPD2    H510095   1.530   3.586  10.271  1.1775 -0.8509 -0.2298
  682MPD2    N110096   1.642   3.403   9.859 -0.5506 -0.2563 -0.2396
  682MPD2    H710097   1.599   3.339   9.925  0.7652 -0.5730  0.3124
  683TMC3    C110098   1.564   3.798  10.694  0.3138 -0.5581 -0.2096
  683TMC3    C210099   1.537   3.672  10.731 -0.5225 -0.0575 -0.0104
  683TMC3    C310100   1.561   3.571  10.640  0.1518 -0.2762  0.0284
  683TMC3    C410101   1.585   3.840  10.561 -0.0776  0.1399  0.4714
  683TMC3    C510102   1.588   3.740  10.467  0.1936 -0.4075  0.3074
  683TMC3    C610103   1.570   3.609  10.501  0.3381  0.8150  0.5054
  683TMC3     C10104   1.537   3.893  10.799  0.0730 -0.4078 -0.4790
  683TMC3     O10105   1.502   3.847  10.908 -0.4940  0.0307 -0.2869
  683TMC3     H10106   1.504   3.643  10.830  0.4812 -3.5100 -0.6844
  683TMC3    H110107   1.604   3.942  10.529 -3.0261  0.5592  0.1329
  683TMC3    H210108   1.556   3.527  10.430 -1.0509  0.9741  0.5991
  683TMC3    C710109   1.586   3.783  10.329  0.2175 -0.2893 -0.1218
  683TMC3    C810110   1.555   3.431  10.675 -0.0989 -0.0992  0.0065
  683TMC3    O110111   1.603   3.900  10.298 -0.6649 -0.0720  0.4874
  683TMC3    O210112   1.512   3.355  10.590 -0.2326  0.3763 -0.1260
  684MPD2     C10113   4.344   3.334  16.452 -0.0101 -0.4042 -1.4865
  684MPD2    C110114   4.344   3.382  16.322 -0.4432  0.6350  0.5506
  684MPD2    C210115   4.385   3.513  16.312 -0.2041 -0.0157  0.3194
  684MPD2    C310116   4.444   3.587  16.404 -0.2414  0.7680 -0.2472
  684MPD2    C410117   4.447   3.542  16.532 -0.4991 -0.2365  0.1082
  684MPD2    C510118   4.403   3.410  16.552  0.4312 -0.4077  0.0723
  684MPD2     H10119   4.389   3.548  16.209  0.5095  0.4045  0.4884
  684MPD2    H110120   4.504   3.598  16.606  3.6490 -2.1951 -1.5714
  684MPD2    H210121   4.334   3.227  16.469 -0.8169  0.0132  0.6274
  684MPD2    H310122   4.431   3.370  16.649  2.0923  0.7314  0.0510
  684MPD2     N10123   4.500   3.720  16.383 -0.7391  0.7260  0.3335
  684MPD2    H510124   4.552   3.766  16.457 -2.4360 -1.0650  2.6330
  684MPD2    N110125   4.312   3.322  16.201  0.4306 -0.0209 -0.0709
  684MPD2    H710126   4.296   3.386  16.124  1.0806 -1.4664 -1.3976
  685TMC3    C110127   4.287   3.177  16.019  0.5040 -0.5051  0.7165
  685TMC3    C210128   4.210   3.271  15.962  0.7283  0.9121 -0.6213
  685TMC3    C310129   4.249   3.318  15.839 -0.6383  0.2751  0.4946
  685TMC3    C410130   4.377   3.109  15.945  0.0108 -0.2113 -0.0036
  685TMC3    C510131   4.417   3.160  15.825 -0.1141 -0.0912  0.3635
  685TMC3    C610132   4.346   3.263  15.762  0.1143 -0.1399  0.0402
  685TMC3     C10133   4.320   3.187  16.162  0.2876 -0.1431 -0.0423
  685TMC3     O10134   4.370   3.093  16.221  0.0963  0.0224  0.0135
  685TMC3     H10135   4.141   3.324  16.025 -0.0870  0.7422 -1.3700
  685TMC3    H110136   4.439   3.034  15.995 -0.4581  0.1116  1.0536
  685TMC3    H210137   4.359   3.291  15.658  0.3532 -1.0516 -0.1826
  685TMC3    C710138   4.562   3.160  15.791  0.4806  0.1070  0.5732
  685TMC3    C810139   4.168   3.417  15.774 -0.1113  0.1739  0.3970
  685TMC3    O110140   4.587   3.209  15.680  0.1424 -0.1586  0.2297
  685TMC3    O210141   4.195   3.453  15.661  0.1978  0.0870  0.6547
  686MPD2     C10142   1.300   3.277  15.316 -0.3153  0.6778 -0.4637
  686MPD2    C110143   1.349   3.185  15.408 -0.1459  0.4626  0.2431
  686MPD2    C210144   1.451   3.098  15.363 -0.3137 -0.0503  0.6644
  686MPD2    C310145   1.488   3.090  15.231 -0.4641  0.3184 -0.1495
  686MPD2    C410146   1.434   3.179  15.143 -0.3018  0.0357  0.3925
  686MPD2    C510147   1.335   3.265  15.191 -0.1466 -0.0956 -0.3405
  686MPD2     H10148   1.495   3.032  15.437 -0.4219 -1.7907 -0.8151
  686MPD2    H110149   1.459   3.174  15.038 -0.6526  0.7538  0.2732
  686MPD2    H210150   1.219   3.345  15.341 -0.4804 -0.0843  1.0406
  686MPD2    H310151   1.289   3.329  15.115 -0.3459  2.3056  1.7939
  686MPD2     N10152   1.569   2.985  15.182 -0.2676 -0.1639  0.1952
  686MPD2    H510153   1.609   3.001  15.090  0.9123  0.0742  0.7502
  686MPD2    N110154   1.284   3.186  15.540  0.0718 -0.0954 -0.5986
  686MPD2    H710155   1.209   3.253  15.549 -1.8605 -2.6439  1.9285
  687TMC3    C110156   1.528   2.805  15.346 -0.1337  0.9474  0.2317
  687TMC3    C210157   1.393   2.809  15.345  0.4675 -0.2826  0.1214
  687TMC3    C310158   1.329   2.764  15.459 -0.4218 -0.4034  0.1512
  687TMC3    C410159   1.596   2.753  15.449 -0.1402 -0.5337 -0.6825
  687TMC3    C510160   1.526   2.707  15.554 -0.4524 -0.2811 -0.6266
  687TMC3    C610161   1.393   2.714  15.566 -0.0096 -0.6621  0.4520
  687TMC3     C10162   1.616   2.869  15.247 -0.5410  0.8358 -0.8565
  687TMC3     O10163   1.713   2.799  15.224  0.2091  0.1844  0.0673
  687TMC3     H10164   1.337   2.860  15.268 -0.3653 -1.7876 -0.2664
  687TMC3    H110165   1.702   2.733  15.458 -0.0784 -0.6054 -1.5232
  687TMC3    H210166   1.351   2.693  15.664 -2.1588 -0.6351 -0.4579
  687TMC3    C710167   1.589   2.691  15.678 -0.4573  0.0302  0.4407
  687TMC3    C810168   1.193   2.805  15.495 -0.8769  0.4069  0.0724
  687TMC3    O110169   1.661   2.595  15.695  0.4793  0.0782 -0.4280
  687TMC3    O210170   1.137   2.749  15.585  0.0437 -0.5304  0.2205
  688MPD2     C10171   0.328   2.278  17.587 -0.2696  0.1981 -0.5267
  688MPD2    C110172   0.331   2.141  17.586  0.4551  0.6646  0.1120
  688MPD2    C210173   0.401   2.074  17.490  0.2149 -0.0350 -0.0861
  688MPD2    C310174   0.477   2.147  17.402  0.7275 -0.2152 -0.2042
  688MPD2    C410175   0.494   2.282  17.414  0.0030  0.7159  1.4591
  688MPD2    C510176   0.421   2.341  17.504  0.0623 -0.8909  0.1549
  688MPD2     H10177   0.401   1.965  17.491 -1.2178 -0.0336  0.6271
  688MPD2    H110178   0.556   2.339  17.346 -1.0811 -1.2280 -1.1567
  688MPD2    H210179   0.263   2.344  17.644  0.2314 -0.4514  0.7790
  688MPD2    H310180   0.429   2.449  17.511 -2.6537 -0.6377 -0.4186
  688MPD2     N10181   0.539   2.087  17.292  0.1205  0.1230 -0.1517
  688MPD2    H510182   0.587   2.158  17.237 -1.1369 -1.7884 -3.7181
  688MPD2    N110183   0.260   2.063  17.685  0.6522  0.3719 -0.3974
  688MPD2    H710184   0.250   1.962  17.681  2.1513  0.1222  1.5925
  689TMC3    C110185   0.141   2.024   0.195 -0.7713 -0.8636 -0.4004
  689TMC3    C210186   0.130   2.067   0.326  0.2558 -0.1799 -0.0595
  689TMC3    C310187   0.015   2.036   0.391  0.7817  0.7238  0.1506
  689TMC3    C410188   0.042   1.956   0.138 -0.1226  0.3286  0.6117
  689TMC3    C510189   4.648   1.924   0.209 -0.5908 -0.0514  0.7748
  689TMC3    C610190   4.631   1.965   0.339 -0.5447  0.7353  0.2542
  689TMC3     C10191   0.207   2.120   0.104  0.4016 -0.1342 -1.0270
  689TMC3     O10192   0.216   2.230   0.155  0.6326 -0.3997 -0.5147
  689TMC3     H10193   0.204   2.127   0.378  0.8813 -1.2669  0.3005
  689TMC3    H110194   0.054   1.924   0.035  1.1888  0.9055  0.5819
  689TMC3    H210195   4.544   1.928   0.393 -0.2536 -1.1543 -0.5745
  689TMC3    C710196   4.589   1.797   0.191  0.5875  0.2168 -0.1314
  689TMC3    C810197   0.010   2.053   0.536 -0.0089  0.5029 -0.6278
  689TMC3    O110198   4.547   1.738   0.292  0.4073  0.1334 -0.1405
  689TMC3    O210199   4.622   2.089   0.577 -0.5022 -0.3129  0.2160
  690MPD2     C10200   2.635   4.338  15.986 -0.0513  0.3481 -0.2860
  690MPD2    C110201   2.663   4.236  15.903 -0.0879  0.4842 -0.0640
  690MPD2    C210202   2.791   4.231  15.843  0.1941  0.3672 -0.3843
  690MPD2    C310203   2.893   4.322  15.871  0.1232 -0.0249 -0.1182
  690MPD2    C410204   2.852   4.433  15.941 -0.0474  0.2687  0.3099
  690MPD2    C510205   2.729   4.440  16.002  0.3089  0.3360  0.5026
  690MPD2     H10206   2.821   4.151  15.776 -1.1187 -0.7012  0.2953
  690MPD2    H110207   2.920   4.516  15.962  0.6837 -0.8513  2.3149
  690MPD2    H210208   2.535   4.364  16.020 -0.9960 -3.8225  0.1811
  690MPD2    H310209   2.704   4.527  16.062  1.3521 -0.2938  1.8545
  690MPD2     N10210   3.028   4.307  15.835 -0.5755  0.7409  0.1615
  690MPD2    H510211   3.047   4.234  15.767  1.3357  1.2478  0.1698
  690MPD2    N110212   2.572   4.140  15.873 -0.8068 -0.5716 -0.5835
  690MPD2    H710213   2.610   4.076  15.805  1.1102  0.1428 -0.1711
  691TMC3    C110214   2.357   4.026  15.843  0.1892  0.4281 -0.2888
  691TMC3    C210215   2.223   4.055  15.822  0.7293  0.3851 -0.6404
  691TMC3    C310216   2.152   3.966  15.750  1.0350 -0.0714  0.1845
  691TMC3    C410217   2.412   3.911  15.790 -0.0111  0.2695  0.3485
  691TMC3    C510218   2.337   3.815  15.728  0.6969 -0.4479  0.0478
  691TMC3    C610219   2.208   3.848  15.705 -0.2003  0.2441  0.0574
  691TMC3     C10220   2.435   4.136  15.899  0.3046  0.2878 -0.2850
  691TMC3     O10221   2.367   4.215  15.963 -0.0103 -0.2635  0.0641
  691TMC3     H10222   2.181   4.150  15.850 -0.3925 -0.2754 -0.0638
  691TMC3    H110223   2.518   3.895  15.808 -0.1656 -1.0953  0.0923
  691TMC3    H210224   2.147   3.772  15.656 -1.0350  0.7106  0.3758
  691TMC3    C710225   2.408   3.704  15.659 -0.1925 -0.7218  0.2233
  691TMC3    C810226   2.014   3.951  15.783  1.2911 -0.1132 -0.3868
  691TMC3    O110227   2.528   3.702  15.656 -0.1490 -0.0224 -0.2273
  691TMC3    O210228   1.969   3.841  15.771 -0.5519 -0.2922  0.1334
  692TMC3    C110229   4.066   0.400  16.043  0.7130  0.0387 -0.1209
  692TMC3    C210230   4.194   0.443  16.058 -0.2640  0.1288 -0.6593
  692TMC3    C310231   4.298   0.352  16.057  0.5999  0.0380  0.0564
  692TMC3    C410232   4.045   0.268  16.037 -0.8190 -0.0122  0.4478
  692TMC3    C510233   4.147   0.176  16.051  0.1788 -0.1921  0.7983
  692TMC3    C610234   4.274   0.220  16.040  0.0492  0.5704  0.6454
  692TMC3     C10235   3.964   0.488  16.094  0.3820  0.6958 -0.7186
  692TMC3     O10236   3.853   0.442  16.106 -0.0175 -0.3861  0.3044
  692TMC3     H10237   4.219   0.547  16.044  1.3684 -0.1874 -0.0149
  692TMC3    H110238   3.942   0.235  16.045 -0.5592 -0.8771  0.2410
  692TMC3    H210239   4.357   0.150  16.040  0.1764  0.7221 -0.2793
  692TMC3    C710240   4.124   0.049  15.995  0.7766 -0.5409 -0.0536
  692TMC3    C810241   4.351   0.361  16.189  0.4283  0.5050 -0.2244
  692TMC3    O110242   4.034   0.053  15.910  0.2864 -0.7275 -0.1514
  692TMC3    O210243   4.381   0.250  16.235 -0.3702  0.5418  0.5132
  693MPD2     C10244   3.344   3.451  10.839 -0.4438  0.1425 -0.8134
  693MPD2    C110245   3.338   3.348  10.747  0.6197 -0.4276  0.6557
  693MPD2    C210246   3.426   3.239  10.740  0.1910  0.4114 -0.0907
  693MPD2    C310247   3.527   3.237  10.830 -0.2169  0.4301 -0.4186
  693MPD2    C410248   3.549   3.350  10.907 -0.2452  0.2502  0.1080
  693MPD2    C510249   3.460   3.453  10.918  0.2945  0.0145  0.0949
  693MPD2     H10250   3.409   3.159  10.669  0.9313  0.9308 -0.8544
  693MPD2    H110251   3.635   3.357  10.973  0.7778 -0.5816 -1.1201
  693MPD2    H210252   3.281   3.538  10.831 -1.3039 -0.4068 -0.0367
  693MPD2    H310253   3.480   3.533  10.988 -0.9665 -1.6029  2.3279
  693MPD2     N10254   3.621   3.134  10.836 -0.7964 -0.1037  0.0257
  693MPD2    H510255   3.676   3.126  10.921  0.8391  0.9697 -0.9363
  693MPD2    N110256   3.227   3.363  10.658  0.4696 -0.2104 -0.7810
  693MPD2    H710257   3.198   3.460  10.651  1.3317  0.1862  0.9194
  694TMC3    C110258   3.158   3.138  10.650 -0.4709  0.6682  0.2396
  694TMC3    C210259   3.138   3.021  10.576 -0.1228 -0.1000 -0.8206
  694TMC3    C310260   3.089   2.913  10.637 -0.0459  0.2305 -0.1872
  694TMC3    C410261   3.142   3.133  10.786  0.0720  0.4556  0.1338
  694TMC3    C510262   3.094   3.021  10.843 -0.2179  0.7001 -0.1702
  694TMC3    C610263   3.061   2.908  10.773 -0.3079  0.4674 -0.8403
  694TMC3     C10264   3.179   3.261  10.578 -1.3727 -0.6111 -0.1326
  694TMC3     O10265   3.111   3.263  10.473 -0.8224 -0.2333 -0.5110
  694TMC3     H10266   3.145   3.029  10.468  0.1062  2.3415 -0.6412
  694TMC3    H110267   3.150   3.221  10.849  0.6010 -0.5441  1.4522
  694TMC3    H210268   3.003   2.828  10.819 -2.6196  2.7898  0.2808
  694TMC3    C710269   3.041   3.028  10.984 -0.2990 -0.2664 -0.0753
  694TMC3    C810270   3.049   2.799  10.559  0.3223  0.3390 -1.0102
  694TMC3    O110271   2.999   3.133  11.029 -0.3030  0.0366  0.2271
  694TMC3    O210272   2.974   2.727  10.622  0.5956  0.1376 -0.2784
  695MPD2     C10273   4.294   4.492  13.706 -0.9494 -0.4735 -0.3151
  695MPD2    C110274   4.306   4.585  13.808 -0.4644 -1.0763 -0.6110
  695MPD2    C210275   4.191   4.664  13.836 -0.8632  0.1273  0.5396
  695MPD2    C310276   4.084   4.658  13.750 -0.4873  0.2994  0.2494
  695MPD2    C410277   4.078   4.565  13.648  0.4057  0.4607 -0.1104
  695MPD2    C510278   4.189   4.488  13.625 -0.1973 -0.2802 -0.0588
  695MPD2     H10279   4.196   0.019  13.911 -1.5548  1.1290 -0.4492
  695MPD2    H110280   3.988   4.546  13.591 -0.6250 -0.1700  1.6923
  695MPD2    H210281   4.375   4.420  13.701  1.4037  2.0432  1.2964
  695MPD2    H310282   4.174   4.411  13.551 -1.6116  1.0437 -1.1461
  695MPD2     N10283   3.971   0.026  13.763  0.0544  0.5689 -0.3199
  695MPD2    H510284   3.979   0.088  13.843  0.5527  1.7514 -1.2730
  695MPD2    N110285   4.428   4.625  13.867 -0.4133  0.5127  0.5333
  695MPD2    H710286   4.429   4.705  13.929  1.5272 -1.3764  2.9218
  696TMC3    C110287   3.770   0.149  13.719 -0.4844  0.4098  1.0206
  696TMC3    C210288   3.745   0.151  13.852  0.4151 -0.1355  0.4322
  696TMC3    C310289   3.650   0.240  13.889  0.2271  0.5549  0.3010
  696TMC3    C410290   3.703   0.229  13.625  0.4113  1.0303  0.2121
  696TMC3    C510291   3.599   0.307  13.669  0.2702 -0.2779 -0.6057
  696TMC3    C610292   3.570   0.303  13.800  0.0300 -0.1408  0.8815
  696TMC3     C10293   3.868   0.051  13.674  0.1918 -0.2782  0.5613
  696TMC3     O10294   3.858   0.024  13.553  0.0108 -0.0160 -0.5896
  696TMC3     H10295   3.804   0.097  13.925  0.6097  0.5076  0.7507
  696TMC3    H110296   3.741   0.217  13.524 -1.9112  0.5654 -0.5924
  696TMC3    H210297   3.481   0.357  13.833  0.8163  0.5836  1.8232
  696TMC3    C710298   3.568   0.433  13.598  0.1248  0.4941 -0.3233
  696TMC3    C810299   3.712   0.350  13.970  0.5110  0.1037  0.3591
  696TMC3    O110300   3.581   0.450  13.477  0.0486 -0.3347 -0.4035
  696TMC3    O210301   3.668   0.462  13.942  0.0295  0.5731  0.0691
  697MPD2     C10302   3.842   1.771  15.708  0.0317 -0.5502 -0.4533
  697MPD2    C110303   3.739   1.741  15.623 -0.0796  1.0186 -0.4174
  697MPD2    C210304   3.674   1.835  15.541 -0.0300  0.8927  0.3346
  697MPD2    C310305   3.723   1.960  15.552 -0.1956 -0.3556 -0.3265
  697MPD2    C410306   3.807   1.999  15.659  0.8493 -0.4048 -0.1470
  697MPD2    C510307   3.865   1.904  15.742  0.1729  0.2357 -0.3722
  697MPD2     H10308   3.595   1.806  15.474 -1.0673 -0.1989  2.0420
  697MPD2    H110309   3.824   2.102  15.688  1.8588 -1.1288  1.8394
  697MPD2    H210310   3.903   1.705  15.768 -1.2168  0.9445  2.4845
  697MPD2    H310311   3.932   1.930  15.823  1.2707  0.8482 -1.4645
  697MPD2     N10312   3.670   2.047  15.456 -0.5330 -0.7255 -0.8365
  697MPD2    H510313   3.607   2.008  15.387 -0.2597 -2.3663 -0.1698
  697MPD2    N110314   3.704   1.605  15.607  0.5684 -0.1428 -0.0520
  697MPD2    H710315   3.661   1.588  15.516 -2.8474 -1.1650  1.7580
  698TMC3    C110316   3.652   2.231  15.321 -0.0933 -0.1604  0.4959
  698TMC3    C210317   3.672   2.367  15.308  0.0107 -0.2503  0.6478
  698TMC3    C310318   3.591   2.427  15.213 -0.0521 -0.0751  0.4721
  698TMC3    C410319   3.581   2.161  15.233  0.9472 -0.4725  0.0795
  698TMC3    C510320   3.502   2.228  15.136 -0.5203  0.0574  0.8529
  698TMC3    C610321   3.503   2.359  15.134 -0.8269  0.1548 -0.1539
  698TMC3     C10322   3.705   2.173  15.444 -0.3131 -0.0878  0.7528
  698TMC3     O10323   3.781   2.242  15.511 -0.4054  0.0369 -0.1269
  698TMC3     H10324   3.723   2.435  15.374  1.1808  0.5558 -1.1148
  698TMC3    H110325   3.577   2.053  15.239  1.4272 -0.3815  2.0294
  698TMC3    H210326   3.430   2.408  15.070 -1.9409 -1.6799 -0.2699
  698TMC3    C710327   3.453   2.165  15.018 -0.5861 -0.4995  0.1082
  698TMC3    C810328   3.637   2.551  15.154 -0.5273  0.6100  0.1590
  698TMC3    O110329   3.382   2.231  14.947 -0.2404  0.0252 -0.4806
  698TMC3    O210330   3.561   2.598  15.070  0.3990  0.0446  0.2963
  699TMC3    C110331   3.736   4.336  13.324  0.8650  0.1829 -1.1437
  699TMC3    C210332   3.834   4.270  13.391 -0.3992 -0.9313 -0.0423
  699TMC3    C310333   3.848   4.299  13.524 -0.3692  0.3655 -0.1008
  699TMC3    C410334   3.673   4.442  13.378  0.3615 -0.1177 -0.5203
  699TMC3    C510335   3.694   4.475  13.504  0.5777  0.7787  0.4713
  699TMC3    C610336   3.776   4.397  13.585 -0.9065 -0.9925 -0.0606
  699TMC3     C10337   3.761   4.340  13.188 -0.2593  0.6356 -0.1668
  699TMC3     O10338   3.763   4.445  13.125  0.0610 -0.2854  0.0260
  699TMC3     H10339   3.897   4.196  13.343  1.5525 -1.4726  3.3966
  699TMC3    H110340   3.594   4.477  13.312  0.3005  0.3326 -0.2058
  699TMC3    H210341   3.770   4.425  13.689 -2.5788 -0.9897 -0.1470
  699TMC3    C710342   3.587   4.556  13.562 -0.1686  0.2948 -0.0918
  699TMC3    C810343   3.897   4.199  13.616 -0.6743  0.2149  0.0836
  699TMC3    O110344   3.562   4.553  13.680  0.1829  0.5567 -0.0654
  699TMC3    O210345   3.867   4.220  13.731 -0.2342  0.0835  0.0286
  700TMC3    C110346   2.757   2.824  17.263  0.0445  0.3442 -0.2357
  700TMC3    C210347   2.722   2.689  17.269  0.1001 -0.2410  0.9567
  700TMC3    C310348   2.777   2.620  17.375 -0.7320  0.6867 -0.2577
  700TMC3    C410349   2.837   2.881  17.355 -0.3582 -0.1262  0.1323
  700TMC3    C510350   2.898   2.806  17.450 -0.7185  0.4265  0.2542
  700TMC3    C610351   2.862   2.675  17.467 -0.4348  0.2829 -0.2453
  700TMC3     C10352   2.739   2.877  17.129  0.2898 -0.6146  0.2639
  700TMC3     O10353   2.638   2.839  17.066  0.3191 -0.6782 -0.6585
  700TMC3     H10354   2.665   2.653  17.184  1.6185 -1.0181  0.2762
  700TMC3    H110355   2.857   2.987  17.346 -1.6930  0.3152  2.3162
  700TMC3    H210356   2.903   2.612  17.545 -0.6742 -0.0707 -0.4047
  700TMC3    C710357   2.979   2.863  17.568  0.2159  0.4123 -0.0110
  700TMC3    C810358   2.818   2.487  17.331  0.0303  0.0813  0.5245
  700TMC3    O110359   2.964   2.799  17.675 -0.1395 -0.5457  1.0266
  700TMC3    O210360   2.940   2.471  17.336 -0.4307  0.2949  0.3982
  701TMC3    C110361   3.087   1.195  15.555  0.0039 -0.1299  0.4562
  701TMC3    C210362   3.134   1.128  15.444 -0.6734 -0.2423 -0.8970
  701TMC3    C310363   3.237   1.181  15.368  0.0106 -0.4092 -0.5846
  701TMC3    C410364   3.160   1.300  15.603  0.0519 -0.0281 -0.0335
  701TMC3    C510365   3.274   1.341  15.533 -0.5042  0.2459  0.6334
  701TMC3    C610366   3.306   1.291  15.408  0.1291 -0.3005 -0.2107
  701TMC3     C10367   2.973   1.158  15.627  0.8001  0.1487  0.1959
  701TMC3     O10368   2.954   1.224  15.726  0.4774 -0.0073  0.1241
  701TMC3     H10369   3.077   1.045  15.403 -1.6673 -0.1508  0.2958
  701TMC3    H110370   3.127   1.356  15.690  0.4817 -0.9098  0.6953
  701TMC3    H210371   3.378   1.337  15.341  0.2397  0.5393  0.4814
  701TMC3    C710372   3.324   1.476  15.559 -0.1826  0.3682 -0.0136
  701TMC3    C810373   3.282   1.117  15.246 -0.3476 -0.1986 -0.0576
  701TMC3    O110374   3.380   1.545  15.475  0.3143  0.0651 -0.7248
  701TMC3    O210375   3.393   1.145  15.194 -0.7016 -0.4836  0.1131
  702MPD2     C10376   2.276   3.753  10.265 -0.1491  0.2387  0.1777
  702MPD2    C110377   2.365   3.742  10.367  0.0284 -0.3850 -0.0080
  702MPD2    C210378   2.471   3.832  10.364 -0.0507 -0.0206  0.1809
  702MPD2    C310379   2.479   3.940  10.275 -0.0357 -0.6372  0.7244
  702MPD2    C410380   2.384   3.948  10.173 -0.5931  1.0861  0.6764
  702MPD2    C510381   2.285   3.853  10.169  0.2173  0.4519  0.7082
  702MPD2     H10382   2.550   3.823  10.437  0.5380 -2.7920 -0.8057
  702MPD2    H110383   2.379   4.033  10.105  2.7069  0.0831 -0.8486
  702MPD2    H210384   2.193   3.683  10.262  1.1693 -1.3821  1.0998
  702MPD2    H310385   2.208   3.848  10.094 -1.2388 -1.2835  2.3340
  702MPD2     N10386   2.583   4.036  10.289  0.0629 -0.4048  0.5867
  702MPD2    H510387   2.567   4.127  10.247 -3.4480 -1.3375 -0.1008
  702MPD2    N110388   2.353   3.650  10.479 -0.3273 -0.7226 -0.5479
  702MPD2    H710389   2.426   3.654  10.549  0.3561 -0.0364 -1.3039
  703TMC3    C110390   2.755   4.147  10.383  0.8785 -0.7170 -0.0444
  703TMC3    C210391   2.665   4.231  10.443  0.2757 -0.9292  0.3609
  703TMC3    C310392   2.698   4.365  10.450  0.6950 -0.3394  0.0921
  703TMC3    C410393   2.857   4.192  10.308  0.5153 -0.1941  0.2681
  703TMC3    C510394   2.890   4.328  10.315  0.5318 -0.7436 -0.3142
  703TMC3    C610395   2.811   4.415  10.394  0.0605  0.0990 -0.7635
  703TMC3     C10396   2.703   4.022  10.354  0.0381 -0.2011 -0.2916
  703TMC3     O10397   2.776   3.928  10.358  0.3122  0.6057  0.4276
  703TMC3     H10398   2.587   4.191  10.507  0.5576  0.5021  1.6008
  703TMC3    H110399   2.913   4.120  10.249 -2.2133 -0.2895 -2.1835
  703TMC3    H210400   2.848   4.517  10.399 -0.4143  0.3052 -1.2853
  703TMC3    C710401   2.975   4.377  10.205  0.1037  0.0007 -0.5844
  703TMC3    C810402   2.616   4.463  10.513 -0.2392  0.0406  0.3075
  703TMC3    O110403   3.055   4.296  10.161 -0.6371 -0.2547  0.4247
  703TMC3    O210404   2.671   4.571  10.538 -0.0292 -0.4905 -0.0340
  704TMC3    C110405   0.087   2.061  12.663  0.0013  0.8917  0.1111
  704TMC3    C210406   0.229   2.064  12.653  0.2016 -0.5315  0.1864
  704TMC3    C310407   0.305   2.009  12.754  0.0103 -0.0807  0.5165
  704TMC3    C410408   0.024   2.015  12.770 -0.3775 -0.1430 -0.3427
  704TMC3    C510409   0.108   1.964  12.867 -0.6277 -0.2620 -0.2267
  704TMC3    C610410   0.248   1.955  12.862 -0.4615  0.8658 -0.2839
  704TMC3     C10411   0.008   2.072  12.539  0.2807  0.5666 -0.3354
  704TMC3     O10412   4.604   2.071  12.539  0.0807  0.2435  0.5723
  704TMC3     H10413   0.284   2.116  12.575 -2.2933  2.7455  0.5933
  704TMC3    H110414   4.638   2.019  12.778 -0.2407  1.5231  0.5788
  704TMC3    H210415   0.309   1.897  12.932 -1.2093  0.1811 -0.2064
  704TMC3    C710416   0.049   1.894  12.992  0.6336 -0.0059  0.0478
  704TMC3    C810417   0.445   1.993  12.743 -0.4063  0.7409  0.7135
  704TMC3    O110418   0.080   1.941  13.099  0.8885  0.7472  0.1532
  704TMC3    O210419   0.480   1.986  12.627  0.2031 -0.3775 -0.1597
  705MPD2     C10420   4.457   4.391  16.556  0.4045 -0.1076 -0.5376
  705MPD2    C110421   4.461   4.529  16.571  0.0046  0.3338 -0.0982
  705MPD2    C210422   4.353   4.593  16.630  0.5571  0.1669  0.2736
  705MPD2    C310423   4.244   4.521  16.665 -0.5133  0.2123 -0.2623
  705MPD2    C410424   4.240   4.383  16.644  0.3346 -0.4691 -0.2904
  705MPD2    C510425   4.348   4.317  16.592  0.4181 -0.1860 -0.1446
  705MPD2     H10426   4.362   4.699  16.649 -0.5730  0.1062  1.1393
  705MPD2    H110427   4.150   4.326  16.662  1.5142 -2.3666 -0.3914
  705MPD2    H210428   4.539   4.334  16.515 -0.4079 -1.4312 -0.3343
  705MPD2    H310429   4.336   4.219  16.548  0.5068  0.2346 -1.1170
  705MPD2     N10430   4.124   4.585  16.702 -0.1211  0.0535  0.3493
  705MPD2    H510431   4.045   4.527  16.727  1.6181 -1.7332  1.6314
  705MPD2    N110432   4.569   4.607  16.539 -0.2279 -0.1488 -0.8416
  705MPD2    H710433   4.557   4.707  16.551  1.5068 -0.3039  2.1243
  706TMC3    C110434   0.232   4.717  16.294  0.2914 -0.2529 -0.4465
  706TMC3    C210435   0.172   0.100  16.240 -0.5748  0.2344 -0.4589
  706TMC3    C310436   0.051   0.137  16.292 -0.6149 -0.1993 -0.3118
  706TMC3    C410437   0.165   4.642  16.389 -0.4151 -0.3789 -0.1752
  706TMC3    C510438   0.041   4.673  16.435  0.6086 -0.2897 -0.4724
  706TMC3    C610439   4.703   0.065  16.385 -0.0303  0.1031  0.3118
  706TMC3     C10440   0.341   4.651  16.233  0.3401 -0.3290  0.5938
  706TMC3     O10441   0.378   4.550  16.294  0.6067  0.3432 -0.2472
  706TMC3     H10442   0.225   0.174  16.181 -0.3753 -0.5922 -1.3228
  706TMC3    H110443   0.212   4.551  16.426  1.3691  0.5031 -0.2342
  706TMC3    H210444   4.604   0.101  16.409  0.0787  0.5600  0.0752
  706TMC3    C710445   4.684   4.568  16.488 -0.9005 -0.5916  0.0480
  706TMC3    C810446   0.010   0.274  16.286  0.1153  0.4676 -0.6783
  706TMC3    O110447   4.721   4.455  16.476  0.5221 -0.3975 -0.0973
  706TMC3    O210448   0.040   0.337  16.185 -0.3516 -0.3708 -0.9468
  707TMC3    C110449   1.875   3.632   1.264 -0.4870 -0.2547 -0.1211
  707TMC3    C210450   1.792   3.601   1.152  0.5774 -0.1335  0.0687
  707TMC3    C310451   1.653   3.608   1.159  0.1895 -0.2085  0.9128
  707TMC3    C410452   1.819   3.658   1.385 -0.5267 -0.3231  0.6615
  707TMC3    C510453   1.678   3.645   1.391 -0.8210 -0.4138 -0.1678
  707TMC3    C610454   1.594   3.634   1.278 -0.0700 -0.0274  0.0733
  707TMC3     C10455   1.987   3.543   1.264 -0.4952 -0.1021  0.1491
  707TMC3     O10456   1.995   3.478   1.162 -0.6044 -0.5139  0.1248
  707TMC3     H10457   1.843   3.583   1.058  0.4768 -1.7182  0.3166
  707TMC3    H110458   1.863   3.661   1.484  0.8673  1.1246 -0.0069
  707TMC3    H210459   1.485   3.636   1.272 -0.0377 -1.9440 -1.2063
  707TMC3    C710460   1.609   3.658   1.524  1.0307 -0.1730 -0.0027
  707TMC3    C810461   1.596   3.498   1.092 -0.7768  0.5887 -0.0560
  707TMC3    O110462   1.689   3.661   1.615  0.0321 -0.0196  0.1510
  707TMC3    O210463   1.478   3.499   1.082  0.0750  0.1085  0.3735
  708MPD2     C10464   2.888   3.065  13.712  0.0887 -0.0831  0.6067
  708MPD2    C110465   2.807   3.151  13.782 -0.1703 -0.0442  0.1959
  708MPD2    C210466   2.796   3.141  13.917 -0.6684  0.0876 -0.0121
  708MPD2    C310467   2.872   3.059  13.992 -0.5765 -0.1329 -0.1137
  708MPD2    C410468   2.957   2.976  13.924  0.1898  0.0205  0.0279
  708MPD2    C510469   2.966   2.982  13.787  0.3117  0.3142 -0.0640
  708MPD2     H10470   2.720   3.195  13.973  1.8589  3.6186  0.0301
  708MPD2    H110471   3.013   2.896  13.971  0.2547  0.3276  0.4841
  708MPD2    H210472   2.893   3.067  13.604  1.1126  1.3283  0.6716
  708MPD2    H310473   3.026   2.910  13.732  1.2494  0.7346  0.4069
  708MPD2     N10474   2.840   3.061  14.130  0.4161 -0.1342 -0.3920
  708MPD2    H510475   2.777   3.135  14.161 -0.2159 -0.9816  0.3486
  708MPD2    N110476   2.731   3.246  13.704 -0.1314  0.0272 -0.2199
  708MPD2    H710477   2.730   3.237  13.603 -0.5462  0.7638 -0.2810
  709TMC3    C110478   2.562   3.414  13.677  0.1238 -0.5424 -0.4092
  709TMC3    C210479   2.486   3.338  13.590  0.0474 -0.1810  0.1103
  709TMC3    C310480   2.351   3.367  13.576 -0.6210  0.1702 -0.2350
  709TMC3    C410481   2.501   3.509  13.751  0.2860  0.1004 -1.0582
  709TMC3    C510482   2.365   3.531  13.733  0.2251  0.6569 -0.7570
  709TMC3    C610483   2.285   3.464  13.650 -0.7542  0.8971  0.1275
  709TMC3     C10484   2.655   3.348  13.759 -0.2791 -0.2596 -0.3417
  709TMC3     O10485   2.649   3.378  13.880 -1.4976  0.3543  0.3563
  709TMC3     H10486   2.535   3.266  13.525  0.8248  0.0691  0.4164
  709TMC3    H110487   2.562   3.565  13.821 -0.3299 -1.6329  0.8527
  709TMC3    H210488   2.177   3.469  13.654 -0.8889 -1.4217 -0.5409
  709TMC3    C710489   2.306   3.527  13.863 -0.8422  0.4919  0.5810
  709TMC3    C810490   2.277   3.270  13.505 -0.0429  0.3401 -0.6118
  709TMC3    O110491   2.186   3.543  13.872 -0.0147 -0.0687  0.4767
  709TMC3    O210492   2.165   3.266  13.550 -0.3023 -0.1032  0.1394
  710TMC3    C110493   3.699   0.367   0.634 -0.7046 -0.6353  0.4004
  710TMC3    C210494   3.736   0.304   0.520  0.3320  0.0379  0.0785
  710TMC3    C310495   3.815   0.195   0.525 -0.0486 -0.0235 -0.1338
  710TMC3    C410496   3.733   0.322   0.759 -1.1242 -0.7112 -0.0531
  710TMC3    C510497   3.830   0.226   0.758 -0.2949  1.3067 -0.5201
  710TMC3    C610498   3.868   0.155   0.643 -0.3469 -0.6609  0.9827
  710TMC3     C10499   3.633   0.495   0.620  0.1935 -0.0157  0.0300
  710TMC3     O10500   3.635   0.532   0.504  0.6101  0.3166  0.8721
  710TMC3     H10501   3.679   0.321   0.429  1.4973 -1.3544 -0.9141
  710TMC3    H110502   3.702   0.383   0.843  1.8934  0.2327  0.3727
  710TMC3    H210503   3.946   0.080   0.638 -0.5597 -0.9837  2.5507
  710TMC3    C710504   3.905   0.175   0.875 -0.0513 -0.6178  1.0683
  710TMC3    C810505   3.894   0.154   0.407 -0.6077 -0.1895 -0.0459
  710TMC3    O110506   3.970   0.069   0.874 -0.1057  0.1797 -0.0140
  710TMC3    O210507   3.982   0.067   0.420 -0.1866 -0.1383  0.5129
  711TMC3    C110508   3.658   0.793  15.005  0.1408  0.0620 -0.8597
  711TMC3    C210509   3.649   0.842  15.132 -0.3467  0.1650 -0.2347
  711TMC3    C310510   3.765   0.844  15.204  0.3601  0.3735  0.1458
  711TMC3    C410511   3.777   0.745  14.948 -1.2703 -0.5602  0.2292
  711TMC3    C510512   3.883   0.726  15.035  0.2976  0.0910  0.4530
  711TMC3    C610513   3.876   0.778  15.162 -0.4127  0.0713 -0.1901
  711TMC3     C10514   3.559   0.688  14.979 -0.2599 -0.2757  0.4529
  711TMC3     O10515   3.570   0.619  14.879 -0.1861 -0.0439 -0.0553
  711TMC3     H10516   3.567   0.905  15.163  0.8236  2.1321 -1.1045
  711TMC3    H110517   3.786   0.711  14.845  0.3777  0.2634  0.0819
  711TMC3    H210518   3.964   0.780  15.225  0.2874 -0.8848 -1.1341
  711TMC3    C710519   3.918   0.587  15.047  0.5867 -0.4478  0.4441
  711TMC3    C810520   3.753   0.861  15.342 -0.2323 -0.0251  0.8380
  711TMC3    O110521   3.994   0.560  15.140  0.2865 -0.0624  0.2858
  711TMC3    O210522   3.636   0.859  15.381 -0.2752  0.3275 -0.0059
  712MPD2     C10523   4.698   1.805  13.381 -0.4091  0.6102 -0.3191
  712MPD2    C110524   4.581   1.851  13.445 -0.5623 -0.2090  0.1723
  712MPD2    C210525   4.588   1.933  13.554  0.1812  0.5633  0.4908
  712MPD2    C310526   4.711   1.985  13.595  0.7739  0.1580 -0.4209
  712MPD2    C410527   0.100   1.950  13.518 -0.3336  0.2281  0.1627
  712MPD2    C510528   0.098   1.859  13.413  0.1738 -0.5311 -0.3936
  712MPD2     H10529   4.497   1.955  13.608 -0.1542  0.4567 -0.0286
  712MPD2    H110530   0.193   2.003  13.533  1.0408 -2.2836  0.3503
  712MPD2    H210531   4.691   1.736  13.298 -0.6558 -0.2017  0.3675
  712MPD2    H310532   0.186   1.832  13.356 -0.6278  0.3319 -2.0422
  712MPD2     N10533   0.003   2.085  13.695  0.2000  0.3077  0.0223
  712MPD2    H510534   0.099   2.114  13.713  0.5526 -2.1447  1.9275
  712MPD2    N110535   4.455   1.816  13.396 -0.0124 -0.5374 -0.0638
  712MPD2    H710536   4.373   1.857  13.439  0.9886  0.1665  1.1863
  713TMC3    C110537   4.669   2.251  13.847  0.1081 -0.1383 -0.1186
  713TMC3    C210538   0.075   2.263  13.889 -0.1936 -0.0664  0.4565
  713TMC3    C310539   0.112   2.387  13.929  0.3872 -0.7003  0.4558
  713TMC3    C410540   4.584   2.355  13.844  0.0966 -0.5431 -0.3159
  713TMC3    C510541   4.629   2.488  13.878  0.1549 -0.0583 -0.2953
  713TMC3    C610542   0.034   2.494  13.916  0.4477  0.0724  0.0524
  713TMC3     C10543   4.628   2.130  13.774  0.0059 -0.0241  0.4265
  713TMC3     O10544   4.510   2.095  13.782 -0.3172 -0.1576  0.6393
  713TMC3     H10545   0.142   2.179  13.904 -1.8025 -1.5360 -0.5380
  713TMC3    H110546   4.484   2.330  13.811 -0.2118 -0.5814  0.6337
  713TMC3    H210547   0.073   2.593  13.940  1.9742 -0.2666 -1.0113
  713TMC3    C710548   4.563   2.604  13.830  0.3324  0.6270  0.1951
  713TMC3    C810549   0.255   2.416  13.924  0.4906  0.5606  0.1612
  713TMC3    O110550   4.644   2.694  13.833 -0.3219 -0.8831  0.2353
  713TMC3    O210551   0.295   2.517  13.868  0.2333 -0.5672 -0.1734
  714MPD2     C10552   1.560   0.030   0.839 -0.3695 -0.4422 -0.1938
  714MPD2    C110553   1.572   0.160   0.889 -0.7382  0.2555  0.3740
  714MPD2    C210554   1.540   0.271   0.805 -0.8019 -0.1954  0.0592
  714MPD2    C310555   1.496   0.247   0.674 -0.2558  0.5551  0.9062
  714MPD2    C410556   1.463   0.117   0.638 -0.0584 -0.5295  0.8679
  714MPD2    C510557   1.500   0.014   0.721 -0.6967  0.5076  0.5452
  714MPD2     H10558   1.573   0.369   0.837  0.0363 -0.3518 -0.3288
  714MPD2    H110559   1.434   0.096   0.536 -1.7321  0.3070  1.1759
  714MPD2    H210560   1.604   4.669   0.892 -0.3598 -0.9918 -1.0581
  714MPD2    H310561   1.489   4.633   0.690  2.2389  0.2333  0.4505
  714MPD2     N10562   1.464   0.352   0.586 -0.4914  0.2013 -0.4195
  714MPD2    H510563   1.464   0.446   0.625 -0.7097  0.1318 -0.2525
  714MPD2    N110564   1.648   0.173   1.006 -0.1026 -0.0905  0.5523
  714MPD2    H710565   1.686   0.094   1.058 -1.5021 -0.9311  0.3045
  715TMC3    C110566   1.781   0.286   1.168 -0.2061 -0.1147  0.0598
  715TMC3    C210567   1.860   0.175   1.166  0.5297  0.3702  0.0046
  715TMC3    C310568   1.951   0.164   1.269  0.0261  0.6456  0.1833
  715TMC3    C410569   1.798   0.393   1.242 -0.1754 -0.3693 -0.5035
  715TMC3    C510570   1.895   0.378   1.339  0.7051  0.5529  0.8779
  715TMC3    C610571   1.972   0.272   1.356 -0.8207  0.5829 -0.2756
  715TMC3     C10572   1.677   0.294   1.068 -1.0181  0.1618  1.1644
  715TMC3     O10573   1.638   0.408   1.043 -0.2770  0.7671  0.2481
  715TMC3     H10574   1.863   0.104   1.085 -0.3331  1.4316 -0.9527
  715TMC3    H110575   1.736   0.482   1.234 -0.9185 -0.8825 -0.3945
  715TMC3    H210576   2.047   0.260   1.433  1.9801  1.8402 -2.8357
  715TMC3    C710577   1.946   0.491   1.415  0.2022 -0.0737  0.2244
  715TMC3    C810578   2.044   0.061   1.266  0.2065  0.1002  0.3470
  715TMC3    O110579   2.062   0.491   1.453  0.3084 -0.0907  0.0802
  715TMC3    O210580   2.054   0.007   1.156  0.0886 -0.8118  0.5153
  716MPD2     C10581   2.576   3.537   9.746  0.3489 -0.3127  0.0200
  716MPD2    C110582   2.663   3.594   9.661  0.9280 -0.9113 -0.0465
  716MPD2    C210583   2.752   3.520   9.592 -0.1780 -0.0536  0.1624
  716MPD2    C310584   2.747   3.380   9.605 -0.9000  0.3028  0.3574
  716MPD2    C410585   2.654   3.328   9.695 -0.5320 -0.3830 -0.5883
  716MPD2    C510586   2.570   3.406   9.763  0.0873 -0.1830 -0.2535
  716MPD2     H10587   2.826   3.556   9.521  0.5298 -0.6314  0.6028
  716MPD2    H110588   2.640   3.222   9.712  1.5871 -0.4702  0.7675
  716MPD2    H210589   2.504   3.598   9.800 -0.3699 -2.6712  1.7273
  716MPD2    H310590   2.495   3.356   9.823  1.2544 -2.5571 -0.7464
  716MPD2     N10591   2.830   3.301   9.522  0.2983  0.3275  0.1158
  716MPD2    H510592   2.881   3.342   9.444  0.6125  2.6876  1.5663
  716MPD2    N110593   2.664   3.732   9.640  0.1960 -0.2141 -0.5674
  716MPD2    H710594   2.575   3.771   9.670  0.8972 -0.1542  1.3782
  717TMC3    C110595   2.908   3.104   9.414 -0.0202  0.1766  0.2497
  717TMC3    C210596   2.882   3.158   9.291 -0.2621  0.0156 -0.2024
  717TMC3    C310597   2.961   3.120   9.186 -0.6219  0.3719 -0.1984
  717TMC3    C410598   2.993   3.004   9.438  0.5435 -0.0316 -0.1679
  717TMC3    C510599   3.064   2.964   9.335  0.6303 -0.2117  0.6397
  717TMC3    C610600   3.052   3.021   9.209  0.5067  0.6248 -0.3705
  717TMC3     C10601   2.844   3.168   9.534  0.0668  0.1800  0.3949
  717TMC3     O10602   2.822   3.103   9.632  0.1322 -0.2960 -0.2753
  717TMC3     H10603   2.797   3.223   9.273  0.8751  1.6422  0.3254
  717TMC3    H110604   3.015   2.962   9.536 -0.4360  1.9684  0.9126
  717TMC3    H210605   3.097   2.973   9.122 -1.7106 -1.2892 -0.4464
  717TMC3    C710606   3.181   2.883   9.373  0.0421  0.3328 -0.5056
  717TMC3    C810607   2.910   3.135   9.049 -0.3235 -0.0702 -0.2007
  717TMC3    O110608   3.217   2.891   9.491 -0.1907 -0.4494  0.3791
  717TMC3    O210609   2.795   3.163   9.038 -0.3085 -0.9628  0.6413
  718MPD2     C10610   1.419   3.073  12.346 -0.1207  0.1302 -0.1728
  718MPD2    C110611   1.319   3.059  12.243 -0.5973  0.0301  0.4694
  718MPD2    C210612   1.198   2.993  12.281 -0.1290  0.9751  0.5961
  718MPD2    C310613   1.182   2.936  12.400  0.0285 -0.5646 -0.4811
  718MPD2    C410614   1.271   2.955  12.503  0.0713 -0.0603  0.1837
  718MPD2    C510615   1.382   3.033  12.474 -0.1711 -0.3872  0.4882
  718MPD2     H10616   1.119   2.982  12.207  0.4697 -0.1887  0.1203
  718MPD2    H110617   1.255   2.912  12.601 -0.7394  0.5782  0.3278
  718MPD2    H210618   1.517   3.117  12.332 -1.3842  3.0751  0.2901
  718MPD2    H310619   1.455   3.034  12.554  0.8045  0.7413 -0.4139
  718MPD2     N10620   1.072   2.851  12.408 -0.4880  0.6620  0.1186
  718MPD2    H510621   1.028   2.850  12.317  1.0064  0.7195 -0.6016
  718MPD2    N110622   1.354   3.088  12.110  0.2970 -0.2563 -0.0330
  718MPD2    H710623   1.453   3.079  12.091 -0.0530  2.1573 -3.1152
  719TMC3    C110624   1.335   3.064  11.883 -0.5971  0.6998  0.2995
  719TMC3    C210625   1.252   2.984  11.808  0.1588  0.6606 -0.1631
  719TMC3    C310626   1.299   2.857  11.772 -0.5002 -0.3048 -0.2179
  719TMC3    C410627   1.470   3.027  11.897  0.3569  0.2058  0.1683
  719TMC3    C510628   1.510   2.908  11.845 -0.1977 -0.0540 -0.7525
  719TMC3    C610629   1.425   2.812  11.794 -0.7405 -0.4123 -0.2310
  719TMC3     C10630   1.267   3.091  12.008  0.6688 -0.0258  0.1736
  719TMC3     O10631   1.145   3.104  12.009 -0.5407 -0.4456 -0.4699
  719TMC3     H10632   1.148   3.012  11.818  0.5669  2.0975  0.0758
  719TMC3    H110633   1.545   3.092  11.940  0.0797  0.5007  0.2102
  719TMC3    H210634   1.461   2.719  11.750 -0.3968 -0.0011 -0.8151
  719TMC3    C710635   1.655   2.872  11.858 -0.1789 -0.8226 -0.1664
  719TMC3    C810636   1.188   2.759  11.766 -0.1001  0.1388  0.1063
  719TMC3    O110637   1.731   2.843  11.764 -0.1348  0.0689 -0.1097
  719TMC3    O210638   1.214   2.643  11.806  0.3564  0.0346 -0.1272
  720MPD2     C10639   0.213   3.746  13.622 -0.3294  0.1608 -0.6674
  720MPD2    C110640   0.261   3.873  13.584  0.4861  0.6863 -0.3901
  720MPD2    C210641   0.372   3.923  13.656 -0.0786  0.4564  0.1778
  720MPD2    C310642   0.421   3.855  13.764 -0.0095  0.1282  0.2678
  720MPD2    C410643   0.364   3.734  13.803  0.0318 -0.0220 -0.4203
  720MPD2    C510644   0.255   3.683  13.740  0.1464  0.1139  1.4166
  720MPD2     H10645   0.417   4.018  13.630  0.2465  1.1409  3.1996
  720MPD2    H110646   0.406   3.687  13.891  1.5563  2.0147 -0.0625
  720MPD2    H210647   0.118   3.712  13.584  0.1340 -1.5803 -0.2759
  720MPD2    H310648   0.199   3.593  13.764 -0.6214  0.1917 -0.0626
  720MPD2     N10649   0.537   3.903  13.823  0.2623 -0.4425 -0.4604
  720MPD2    H510650   0.590   3.973  13.772  2.2353 -2.3122 -0.9944
  720MPD2    N110651   0.198   3.946  13.486 -0.3601 -1.0522  0.0555
  720MPD2    H710652   0.219   4.045  13.496  0.4776 -1.2154 -0.0745
  721TMC3    C110653   0.708   3.935  13.982  0.5482 -1.0696 -0.3060
  721TMC3    C210654   0.742   3.951  14.112 -0.3049  0.0542  0.6243
  721TMC3    C310655   0.865   4.002  14.150 -0.2532 -0.1797 -1.3006
  721TMC3    C410656   0.787   3.986  13.883  0.8722 -0.6080  0.0142
  721TMC3    C510657   0.908   4.042  13.922  0.2199 -0.2292 -1.2142
  721TMC3    C610658   0.945   4.061  14.053 -0.5755  0.3177 -0.0634
  721TMC3     C10659   0.582   3.876  13.952  0.4544 -0.0731  0.3665
  721TMC3     O10660   0.518   3.823  14.047 -0.2647 -0.4049 -0.1417
  721TMC3     H10661   0.685   3.899  14.188  0.6569 -2.1953 -0.1918
  721TMC3    H110662   0.784   3.953  13.779  0.3648  0.6743 -0.3757
  721TMC3    H210663   1.047   4.096  14.070 -0.6565 -0.5821  2.2262
  721TMC3    C710664   1.008   4.064  13.814  0.5340 -0.7189  0.0941
  721TMC3    C810665   0.939   3.965  14.268 -0.7348 -0.6341  0.1808
  721TMC3    O110666   0.972   4.042  13.702 -0.4735 -0.0923  0.1281
  721TMC3    O210667   1.058   3.991  14.260 -0.1395  0.0270  0.4077
  722MPD2     C10668   3.374   2.310  13.573  0.5759  0.0961  1.0630
  722MPD2    C110669   3.348   2.411  13.481  0.3561 -0.1969 -0.2900
  722MPD2    C210670   3.237   2.406  13.400  0.2935 -0.4795 -0.3727
  722MPD2    C310671   3.151   2.293  13.410 -0.6008  0.0933 -0.0196
  722MPD2    C410672   3.174   2.200  13.506 -0.4180  0.9201 -0.6729
  722MPD2    C510673   3.290   2.207  13.576 -0.5191  0.2377  0.4130
  722MPD2     H10674   3.224   2.490  13.332 -0.9234 -2.1266 -2.1628
  722MPD2    H110675   3.114   2.114  13.533  1.7133 -0.1586  0.5788
  722MPD2    H210676   3.455   2.303  13.644  0.2998 -0.2437  1.3452
  722MPD2    H310677   3.324   2.133  13.647 -1.5097  0.8317  1.4946
  722MPD2     N10678   3.041   2.289  13.319 -0.1274 -0.0024 -0.0831
  722MPD2    H510679   3.013   2.372  13.268 -1.5575  0.4405  1.4394
  722MPD2    N110680   3.433   2.525  13.475  0.6987 -0.2505  0.1763
  722MPD2    H710681   3.404   2.608  13.423  3.4509 -1.3076 -3.0139
  723TMC3    C110682   2.862   2.174  13.200  0.8461  0.2471 -0.6693
  723TMC3    C210683   2.825   2.048  13.158  0.1642  0.2723  0.0344
  723TMC3    C310684   2.715   2.046  13.073  0.1626  0.1291 -0.6383
  723TMC3    C410685   2.797   2.289  13.168 -0.0049  0.6996  0.4875
  723TMC3    C510686   2.679   2.280  13.100  0.5997 -0.2456 -0.7177
  723TMC3    C610687   2.648   2.160  13.039  0.3487  0.4576  0.5128
  723TMC3     C10688   2.962   2.175  13.303 -0.0993  0.0150  0.0875
  723TMC3     O10689   2.981   2.065  13.353  0.1100  0.0900  0.2506
  723TMC3     H10690   2.874   1.958  13.194 -0.7314 -1.4726 -3.1653
  723TMC3    H110691   2.832   2.381  13.213  0.5110  0.9264 -0.3675
  723TMC3    H210692   2.554   2.146  12.988  1.1307  2.1349 -1.3950
  723TMC3    C710693   2.646   2.387  13.010 -0.2889  0.0288 -0.1757
  723TMC3    C810694   2.745   1.968  12.950  0.4703 -0.4422 -0.1399
  723TMC3    O110695   2.568   2.364  12.924  0.3441 -0.0711  0.1955
  723TMC3    O210696   2.665   1.990  12.857 -0.2310  0.1071  0.8955
  724TMC3    C110697   4.618   0.694  10.521 -0.3865  0.4212 -0.1259
  724TMC3    C210698   4.572   0.638  10.403 -0.6118  0.9109  0.3316
  724TMC3    C310699   4.632   0.697  10.292 -0.2027  0.3534  0.0427
  724TMC3    C410700   0.011   0.772  10.525  0.4224  0.5193 -0.6234
  724TMC3    C510701   0.085   0.789  10.414 -1.0700 -0.1403 -0.3881
  724TMC3    C610702   0.031   0.760  10.295 -0.4221 -0.0371 -0.9484
  724TMC3     C10703   4.540   0.673  10.644  0.3288 -0.5213  0.4226
  724TMC3     O10704   4.432   0.614  10.631  1.0760 -0.0642  0.5318
  724TMC3     H10705   4.482   0.577  10.399 -0.1788  0.1765  1.6779
  724TMC3    H110706   0.051   0.804  10.621 -0.1476 -0.5889 -0.0216
  724TMC3    H210707   0.091   0.778  10.207 -0.2283  2.7198 -0.2269
  724TMC3    C710708   0.167   0.909  10.406  0.7293  0.1892  0.3237
  724TMC3    C810709   4.552   0.695  10.170  0.0890  0.3882  0.2737
  724TMC3    O110710   0.228   0.921  10.301  0.1008 -0.2494 -0.6936
  724TMC3    O210711   4.448   0.627  10.170  0.6268 -0.2077  0.2776
  725TMC3    C110712   0.741   4.241  12.778 -0.3604 -0.2178 -0.2489
  725TMC3    C210713   0.672   4.302  12.683 -0.2513 -0.2649 -0.3264
  725TMC3    C310714   0.578   4.236  12.609 -0.2719 -0.0680  0.4976
  725TMC3    C410715   0.716   4.109  12.808  0.5916 -0.0135 -0.4591
  725TMC3    C510716   0.617   4.049  12.736  0.3766 -0.1062  0.3032
  725TMC3    C610717   0.544   4.109  12.640  0.3698 -0.3110  0.2689
  725TMC3     C10718   0.868   4.300  12.824 -0.3075  0.1451  0.1757
  725TMC3     O10719   0.858   4.421  12.851  0.3074  0.0814 -0.1027
  725TMC3     H10720   0.681   4.409  12.669  1.5507 -0.3669 -0.0250
  725TMC3    H110721   0.773   4.055  12.883  0.1388 -0.0641 -0.1496
  725TMC3    H210722   0.472   4.049  12.587 -0.3142  0.4730  0.3134
  725TMC3    C710723   0.649   3.912  12.710  0.1195  0.9344  0.0676
  725TMC3    C810724   0.510   4.301  12.494  0.1756 -0.0620 -0.0799
  725TMC3    O110725   0.684   3.892  12.593  0.6184  0.2103 -0.2222
  725TMC3    O210726   0.418   4.236  12.445 -0.0779 -0.4777  0.5467
  726MPD2     C10727   3.878   0.732  10.518  0.1987 -0.0853 -0.6454
  726MPD2    C110728   3.860   0.848  10.594 -0.6083 -0.4301  0.0443
  726MPD2    C210729   3.761   0.862  10.694  0.4647  0.4903  0.0926
  726MPD2    C310730   3.660   0.764  10.702 -0.3396  0.3355 -0.2200
  726MPD2    C410731   3.669   0.653  10.612  0.8149  0.2905 -0.3208
  726MPD2    C510732   3.779   0.632  10.527  0.3254 -0.0391 -0.2587
  726MPD2     H10733   3.743   0.960  10.738 -0.1451  0.5273 -0.2387
  726MPD2    H110734   3.594   0.575  10.612 -0.7659  1.8007  2.5873
  726MPD2    H210735   3.953   0.712  10.442 -0.2042 -0.6481 -0.8897
  726MPD2    H310736   3.789   0.534  10.483 -1.4152 -0.1396 -0.4330
  726MPD2     N10737   3.546   0.786  10.784 -0.4431 -0.1718 -0.2241
  726MPD2    H510738   3.472   0.718  10.770 -1.3710  0.5417  1.2457
  726MPD2    N110739   3.939   0.958  10.560 -0.3870 -0.7308  0.3332
  726MPD2    H710740   3.941   1.037  10.624 -0.0834 -0.2488 -0.2622
  727TMC3    C110741   4.018   1.122  10.413  0.3097  0.2633 -0.0683
  727TMC3    C210742   4.084   1.185  10.513  0.4739  0.2812  0.1855
  727TMC3    C310743   4.115   1.315  10.496  0.3348 -0.2873 -0.0386
  727TMC3    C410744   3.972   1.187  10.303 -0.2896  0.5229 -0.1646
  727TMC3    C510745   4.014   1.315  10.282  0.1642 -0.5861 -0.2010
  727TMC3    C610746   4.087   1.381  10.377 -0.2526 -1.1426  0.2531
  727TMC3     C10747   3.975   0.986  10.427 -0.5360  0.2717 -0.0512
  727TMC3     O10748   3.961   0.931  10.319  0.4551  0.0436  0.7904
  727TMC3     H10749   4.137   1.133  10.592  0.0627  1.5022  1.2782
  727TMC3    H110750   3.914   1.144  10.222  0.2904 -2.1121  0.8231
  727TMC3    H210751   4.115   1.484  10.360  1.8278 -1.2442  3.0901
  727TMC3    C710752   3.949   1.382  10.168  0.1990  0.6488 -0.7705
  727TMC3    C810753   4.206   1.384  10.585 -0.4262  0.3110 -0.2989
  727TMC3    O110754   3.901   1.318  10.077 -0.1935  0.3319 -0.0258
  727TMC3    O210755   4.225   1.497  10.546 -0.4268 -0.4116  0.1308
  728TMC3    C110756   3.242   4.395  15.782  0.6371  0.2539 -0.5606
  728TMC3    C210757   3.327   4.505  15.797  0.5419  0.2170 -0.4923
  728TMC3    C310758   3.386   4.543  15.678 -0.5669  0.1474 -0.2106
  728TMC3    C410759   3.257   4.309  15.675 -0.3885 -0.1273 -0.2292
  728TMC3    C510760   3.332   4.343  15.573 -0.5658  0.3585 -0.6664
  728TMC3    C610761   3.402   4.462  15.573 -0.3432 -0.3866 -0.1415
  728TMC3     C10762   3.132   4.387  15.877  0.1998  0.0778 -0.0021
  728TMC3     O10763   3.142   4.471  15.964 -0.0246 -0.0150  0.3163
  728TMC3     H10764   3.319   4.573  15.881 -0.7563 -1.5792  0.8421
  728TMC3    H110765   3.199   4.217  15.671 -1.5360  0.5404  1.0073
  728TMC3    H210766   3.462   4.493  15.488 -0.4640  1.9500  0.6354
  728TMC3    C710767   3.339   4.257  15.460 -0.1725 -0.3213 -0.2972
  728TMC3    C810768   3.430   4.678  15.677  0.6078 -0.0065  0.1772
  728TMC3    O110769   3.344   4.140  15.478 -0.0638 -0.1874 -0.2959
  728TMC3    O210770   3.437   0.017  15.785  0.4573  0.0541  0.2634
  729MPD2     C10771   4.691   0.893  16.863 -0.3585 -0.3408 -0.0278
  729MPD2    C110772   0.055   0.789  16.844 -0.6058  0.6204  0.5582
  729MPD2    C210773   0.113   0.720  16.956 -0.5920  0.0390 -0.5485
  729MPD2    C310774   0.084   0.768  17.085  0.1514 -0.1987 -0.4772
  729MPD2    C410775   4.721   0.871  17.103  0.4322 -0.4622  0.4981
  729MPD2    C510776   4.663   0.934  16.993  0.6088  0.2981 -0.3486
  729MPD2     H10777   0.186   0.642  16.940  0.0593  0.4496  0.3711
  729MPD2    H110778   4.687   0.912  17.198 -2.2873 -0.7327 -0.3541
  729MPD2    H210779   4.652   0.950  16.779  1.9159 -0.4776 -1.1858
  729MPD2    H310780   4.598   1.020  17.005  0.8430  0.1110  2.1052
  729MPD2     N10781   0.149   0.723  17.208  0.4952  0.9915  0.7773
  729MPD2    H510782   0.132   0.771  17.296 -2.9161 -1.1518  1.3013
  729MPD2    N110783   0.084   0.763  16.712  0.3275 -0.5680 -0.3783
  729MPD2    H710784   0.050   0.831  16.644  3.2774  0.1527 -1.1302
  730TMC3    C110785   0.358   0.672  17.315  0.0649 -0.0006 -0.4520
  730TMC3    C210786   0.479   0.613  17.276 -0.1746  0.1822 -0.1426
  730TMC3    C310787   0.592   0.692  17.272 -0.4657  0.1140 -0.4406
  730TMC3    C410788   0.356   0.802  17.353  0.5002 -0.3811  0.8412
  730TMC3    C510789   0.470   0.880  17.344  1.1492  0.1824 -0.9586
  730TMC3    C610790   0.587   0.821  17.310  0.2790  0.0434 -1.1072
  730TMC3     C10791   0.263   0.648  17.209  0.0942 -0.3265  0.6523
  730TMC3     O10792   0.304   0.564  17.128  0.7219 -0.4304 -0.2674
  730TMC3     H10793   0.488   0.515  17.232  1.0615  0.2566 -0.0689
  730TMC3    H110794   0.268   0.839  17.404 -0.2016 -0.8263 -0.0399
  730TMC3    H210795   0.671   0.888  17.294  0.7140  0.0255  1.0268
  730TMC3    C710796   0.446   1.011  17.301 -0.1333 -0.0725 -0.6565
  730TMC3    C810797   0.671   0.668  17.148 -0.3380  0.2654 -0.2764
  730TMC3    O110798   0.509   1.054  17.205 -0.4539 -0.1053 -0.5653
  730TMC3    O210799   0.695   0.549  17.119 -0.2246  0.0763  0.4873
  731MPD2     C10800   0.249   3.847  12.002  0.7328  0.0722 -0.1013
  731MPD2    C110801   0.232   3.715  12.028  0.1244  0.1684 -0.4513
  731MPD2    C210802   0.232   3.669  12.162 -0.2194  0.3118 -0.3207
  731MPD2    C310803   0.254   3.756  12.267 -0.7489  0.0810  0.3121
  731MPD2    C410804   0.266   3.888  12.236  0.2360  0.4004 -0.0621
  731MPD2    C510805   0.256   3.936  12.104 -0.0726  0.3640 -0.4595
  731MPD2     H10806   0.224   3.566  12.196 -2.4497  0.9788  1.1768
  731MPD2    H110807   0.283   3.964  12.312  1.8138 -1.0496  1.0360
  731MPD2    H210808   0.257   3.889  11.902 -1.2133 -0.3995 -0.4613
  731MPD2    H310809   0.281   4.041  12.088  1.2932 -0.3397 -3.0124
  731MPD2     N10810   0.239   3.705  12.399 -0.2555 -0.1033  0.4255
  731MPD2    H510811   0.216   3.606  12.400 -0.8787  0.0770  2.1722
  731MPD2    N110812   0.210   3.629  11.924  0.3912 -0.2207  0.3356
  731MPD2    H710813   0.229   3.656  11.828  0.1674 -0.4050  0.2375
  732TMC3    C110814   0.153   3.438  11.814  0.2279 -0.8419 -0.1814
  732TMC3    C210815   0.043   3.360  11.785 -0.3506 -0.0196 -0.0100
  732TMC3    C310816   0.059   3.251  11.707 -0.2637 -0.0903 -0.5531
  732TMC3    C410817   0.276   3.404  11.776 -0.7570 -0.0566 -0.1801
  732TMC3    C510818   0.293   3.296  11.691  0.2526  0.0192 -0.3811
  732TMC3    C610819   0.182   3.221  11.655 -0.1498 -0.2615 -0.1436
  732TMC3     C10820   0.140   3.515  11.938 -0.0672 -0.1959 -0.1834
  732TMC3     O10821   0.054   3.478  12.019  0.0535  0.1594  0.4038
  732TMC3     H10822   4.669   3.396  11.819 -0.7036 -1.2370  0.2880
  732TMC3    H110823   0.360   3.472  11.788  0.8337 -2.0472  0.0523
  732TMC3    H210824   0.191   3.146  11.577 -0.5107  0.0691 -0.5065
  732TMC3    C710825   0.423   3.236  11.673 -0.3092 -0.9928 -0.3850
  732TMC3    C810826   4.674   3.152  11.688  0.0688  0.0750  0.0644
  732TMC3    O110827   0.442   3.152  11.586  0.2181  0.0628  0.0314
  732TMC3    O210828   4.675   3.062  11.604  0.1416  0.0978 -0.0488
  733TMC3    C110829   0.664   2.683  12.532  0.0189 -0.0223  0.6563
  733TMC3    C210830   0.790   2.712  12.576 -0.0914 -0.1120  0.0877
  733TMC3    C310831   0.889   2.724  12.480 -0.2829  0.5624  0.0749
  733TMC3    C410832   0.636   2.641  12.407  0.2243 -0.1010 -0.9566
  733TMC3    C510833   0.742   2.639  12.319  0.0502 -0.4102 -0.2040
  733TMC3    C610834   0.864   2.690  12.348 -0.1835  0.6541  0.1896
  733TMC3     C10835   0.548   2.683  12.620 -0.6847 -0.3068 -0.2202
  733TMC3     O10836   0.429   2.666  12.586  0.2571 -0.2257 -0.3504
  733TMC3     H10837   0.818   2.746  12.675 -1.3016  0.0642  0.3735
  733TMC3    H110838   0.533   2.619  12.379 -0.5553  1.7107  0.4239
  733TMC3    H210839   0.947   2.667  12.282 -0.2280  1.5820 -0.1752
  733TMC3    C710840   0.690   2.635  12.180 -0.3830 -0.3914  0.0499
  733TMC3    C810841   1.017   2.779  12.514  0.3587  0.5357 -0.7900
  733TMC3    O110842   0.576   2.655  12.160 -0.7492 -0.5882  0.3437
  733TMC3    O210843   1.044   2.788  12.633  0.5433 -0.8452 -0.2148
  734MPD2     C10844   3.612   4.345  12.616  0.3799  0.8065  0.2531
  734MPD2    C110845   3.535   4.286  12.522  0.0216  0.4700 -0.6433
  734MPD2    C210846   3.544   4.340  12.391 -0.5102  0.2078  0.0042
  734MPD2    C310847   3.638   4.445  12.371 -0.7012  0.7021  0.0988
  734MPD2    C410848   3.714   4.498  12.469 -0.3959  0.2224  0.1338
  734MPD2    C510849   3.701   4.447  12.592  0.1739 -0.6249 -0.2680
  734MPD2     H10850   3.497   4.302  12.302 -1.3703 -0.4593  0.7359
  734MPD2    H110851   3.782   4.581  12.453  1.4442 -1.6375 -1.6731
  734MPD2    H210852   3.598   4.316  12.720 -0.0192 -2.2084 -0.6320
  734MPD2    H310853   3.744   4.502  12.675 -0.1211 -1.4939  0.4554
  734MPD2     N10854   3.636   4.486  12.235 -0.1743 -0.4150 -0.4526
  734MPD2    H510855   3.581   4.433  12.168 -0.3710 -0.6032 -0.1357
  734MPD2    N110856   3.452   4.176  12.560 -0.6728 -0.4577 -0.0743
  734MPD2    H710857   3.447   4.139  12.654  1.0537 -0.1000  0.1481
  735TMC3    C110858   3.287   4.015  12.513  0.0901  0.0365 -0.1985
  735TMC3    C210859   3.168   4.021  12.449 -0.7760  0.1639 -0.2199
  735TMC3    C310860   3.124   3.906  12.390 -0.0540 -0.4805  0.4410
  735TMC3    C410861   3.350   3.898  12.535  0.4318 -0.0172  0.6420
  735TMC3    C510862   3.310   3.787  12.467  0.1596  0.3445  0.0331
  735TMC3    C610863   3.200   3.789  12.399  0.3196  0.1258  0.7755
  735TMC3     C10864   3.366   4.126  12.468 -0.9533 -0.1563 -0.5370
  735TMC3     O10865   3.337   4.159  12.352  0.5631  0.0532 -0.4078
  735TMC3     H10866   3.126   4.117  12.422 -0.7613  0.2909  0.1969
  735TMC3    H110867   3.446   3.900  12.586  0.0339 -0.4067  1.4041
  735TMC3    H210868   3.159   3.706  12.343  3.3735 -0.0337 -1.2459
  735TMC3    C710869   3.421   3.720  12.405 -0.4051  0.5138 -0.2587
  735TMC3    C810870   3.081   3.927  12.253 -0.2166  0.0452  0.2797
  735TMC3    O110871   3.507   3.794  12.363  0.2110  0.7485  0.3553
  735TMC3    O210872   2.993   3.860  12.204 -0.1398 -0.2381 -0.0712
  736MPD2     C10873   3.447   3.366  12.334 -0.3926  0.6079  0.1295
  736MPD2    C110874   3.489   3.488  12.340  0.7428  0.5595  0.1948
  736MPD2    C210875   3.601   3.518  12.274 -0.4042  0.2578 -0.4661
  736MPD2    C310876   3.661   3.421  12.194  0.1677 -0.6319  0.5849
  736MPD2    C410877   3.609   3.293  12.185 -0.4402 -0.3341  0.1726
  736MPD2    C510878   3.508   3.261  12.268  0.2652  0.1125  0.0338
  736MPD2     H10879   3.629   3.623  12.268  0.0485  0.1897  0.4479
  736MPD2    H110880   3.644   3.225  12.109  0.2931  0.4915 -0.2315
  736MPD2    H210881   3.356   3.335  12.385  1.0318 -0.6077  1.9454
  736MPD2    H310882   3.475   3.158  12.271 -2.0329  0.8435 -0.3154
  736MPD2     N10883   3.767   3.451  12.104 -0.4612  0.4382 -0.2451
  736MPD2    H510884   3.769   3.398  12.018 -2.8841 -2.5653  1.5920
  736MPD2    N110885   3.400   3.581  12.401  0.7800 -0.5437 -0.0464
  736MPD2    H710886   3.317   3.551  12.450  1.2433  0.3740  1.3037
  737TMC3    C110887   3.919   3.591  11.993  0.0537  0.3704 -0.4951
  737TMC3    C210888   3.928   3.722  11.966 -0.6068  0.0194  0.4662
  737TMC3    C310889   3.950   3.764  11.840 -0.4176 -0.3878 -0.4007
  737TMC3    C410890   3.936   3.503  11.896  0.1065  0.0564 -0.3871
  737TMC3    C510891   3.976   3.542  11.775  0.0159  0.1343  0.0617
  737TMC3    C610892   3.978   3.673  11.740  0.2300  0.6918  0.0746
  737TMC3     C10893   3.840   3.563  12.119 -0.7671  0.0936 -0.2366
  737TMC3     O10894   3.867   3.607  12.233 -0.7217  0.5327 -0.1449
  737TMC3     H10895   3.900   3.791  12.045 -3.2789 -1.4808  0.8153
  737TMC3    H110896   3.945   3.396  11.914  0.2077 -0.2186 -2.0747
  737TMC3    H210897   4.002   3.697  11.637 -3.3994  2.3041 -0.3916
  737TMC3    C710898   3.972   3.451  11.662  0.0854 -1.2168 -0.2049
  737TMC3    C810899   3.886   3.896  11.817 -0.1958  0.0027 -0.0490
  737TMC3    O110900   4.003   3.338  11.692  0.1833  0.1507  0.7371
  737TMC3    O210901   3.843   3.965  11.911  0.0345  0.7023 -0.1900
  738MPD2     C10902   3.793   2.764  15.025 -0.3761  0.4872  0.1852
  738MPD2    C110903   3.829   2.704  15.148 -0.1885 -0.8002 -0.2367
  738MPD2    C210904   3.949   2.736  15.209  1.1373  0.3054  0.7687
  738MPD2    C310905   4.030   2.842  15.174  0.4585  0.2687 -0.1379
  738MPD2    C410906   4.001   2.893  15.052  0.1183  0.1490  0.3224
  738MPD2    C510907   3.891   2.852  14.972 -0.9133 -0.0513  0.9225
  738MPD2     H10908   3.976   2.685  15.302  0.1369 -1.1248  0.2690
  738MPD2    H110909   4.066   2.966  15.005 -0.4646  0.4889  0.0463
  738MPD2    H210910   3.705   2.740  14.968 -0.3481  1.3115 -0.2081
  738MPD2    H310911   3.880   2.892  14.872 -0.4927 -2.0079  0.0946
  738MPD2     N10912   4.151   2.873  15.230  0.3866  0.3584  0.0179
  738MPD2    H510913   4.208   2.933  15.171  0.4008  0.2115 -0.1195
  738MPD2    N110914   3.755   2.602  15.207 -0.6186 -0.2306 -0.0369
  738MPD2    H710915   3.801   2.563  15.288  0.0799 -0.2429 -0.4425
  739TMC3    C110916   4.359   2.855  15.343  0.4369  0.1545  0.1480
  739TMC3    C210917   4.416   2.873  15.221  0.1459 -0.5004  0.4930
  739TMC3    C310918   4.542   2.926  15.224  0.0556 -0.6754 -0.2592
  739TMC3    C410919   4.429   2.868  15.466 -0.1354  0.8113  0.3767
  739TMC3    C510920   4.560   2.900  15.456 -0.4212 -0.2546  0.6362
  739TMC3    C610921   4.623   2.937  15.338  0.0162 -0.1991  0.5768
  739TMC3     C10922   4.218   2.817  15.339 -0.2623 -0.0513 -0.2030
  739TMC3     O10923   4.172   2.761  15.440 -0.4586  0.3483 -0.3895
  739TMC3     H10924   4.364   2.844  15.131  0.0304 -0.8688  0.6758
  739TMC3    H110925   4.387   2.841  15.562 -3.2502 -0.3487 -1.3003
  739TMC3    H210926   4.722   2.981  15.332 -0.1166  0.0587  0.2804
  739TMC3    C710927   4.642   2.858  15.562  0.0518  0.0780 -0.5207
  739TMC3    C810928   4.589   2.948  15.085  0.1474  0.5269 -0.6567
  739TMC3    O110929   4.583   2.807  15.656 -0.0688 -0.9113 -0.4269
  739TMC3    O210930   4.501   2.963  15.001  0.3419 -0.1479  0.2231
  740TMC3    C110931   0.327   4.263  14.508 -0.1922  0.0933 -0.4381
  740TMC3    C210932   0.372   4.143  14.544  0.0370  0.1324  1.2848
  740TMC3    C310933   0.473   4.087  14.466 -0.2020 -0.0556  0.5334
  740TMC3    C410934   0.371   4.326  14.394  0.0155 -0.0673  0.1910
  740TMC3    C510935   0.474   4.272  14.317 -0.1987  0.6514 -0.1727
  740TMC3    C610936   0.522   4.152  14.360  0.8145  0.4763 -0.1046
  740TMC3     C10937   0.220   4.327  14.591  0.5609  0.5240 -0.6954
  740TMC3     O10938   0.225   4.449  14.594  0.0466  0.4609  0.1194
  740TMC3     H10939   0.346   4.091  14.636  0.2544 -0.5087  0.9821
  740TMC3    H110940   0.327   4.421  14.368  2.4403  1.1794  0.6751
  740TMC3    H210941   0.601   4.106  14.300  1.1117 -0.0194  0.6679
  740TMC3    C710942   0.476   4.276  14.166 -0.4637  0.2183 -0.1983
  740TMC3    C810943   0.493   3.943  14.467 -0.7645 -0.2684 -0.4181
  740TMC3    O110944   0.586   4.307  14.120 -0.7335 -0.2610 -0.1868
  740TMC3    O210945   0.602   3.903  14.431 -0.3068  0.4617  0.0434
  741TMC3    C110946   4.494   3.227  14.501 -0.3988  0.0076 -0.3921
  741TMC3    C210947   4.390   3.151  14.457  0.5200 -0.6266  0.3754
  741TMC3    C310948   4.312   3.094  14.551 -0.3715  0.4539 -0.4767
  741TMC3    C410949   4.511   3.261  14.632 -0.3088 -0.0347 -0.6899
  741TMC3    C510950   4.418   3.214  14.724 -0.3399 -0.2561  0.4117
  741TMC3    C610951   4.315   3.135  14.685 -0.7070 -0.3758  0.1081
  741TMC3     C10952   4.615   3.243  14.418 -0.2739  0.3846 -0.4432
  741TMC3     O10953   0.002   3.263  14.473  0.2571  0.2026 -0.6933
  741TMC3     H10954   4.397   3.112  14.357 -0.6031 -0.9931  0.4425
  741TMC3    H110955   4.593   3.324  14.665 -2.3338  1.6798  1.0492
  741TMC3    H210956   4.235   3.115  14.755  0.7319 -1.1579  1.5439
  741TMC3    C710957   4.444   3.260  14.859 -0.1832 -0.1601  0.1212
  741TMC3    C810958   4.190   3.043  14.508 -0.0115 -0.4461 -0.0442
  741TMC3    O110959   4.548   3.320  14.889 -0.0369 -0.0970 -0.1922
  741TMC3    O210960   4.138   3.084  14.406  0.5997 -0.1532  0.1768
  742TMC3    C110961   4.143   1.593  15.570 -0.6718 -0.5571  0.1758
  742TMC3    C210962   4.038   1.614  15.485 -0.2022 -0.2016  0.1006
  742TMC3    C310963   4.040   1.724  15.399  0.0190  0.8264 -0.0788
  742TMC3    C410964   4.240   1.691  15.589  0.0909 -0.0627  0.5148
  742TMC3    C510965   4.242   1.802  15.498 -0.4194 -1.0216  0.3550
  742TMC3    C610966   4.135   1.820  15.408 -0.3759 -0.3965  0.0774
  742TMC3     C10967   4.116   1.484  15.666  0.1196  0.3015  0.2162
  742TMC3     O10968   4.065   1.384  15.619 -0.2076  0.2445  0.2598
  742TMC3     H10969   3.967   1.533  15.473 -2.4297  1.4950  1.8136
  742TMC3    H110970   4.326   1.681  15.655  0.8371  2.1926 -0.0881
  742TMC3    H210971   4.146   1.892  15.328 -2.8756  0.0159  0.1029
  742TMC3    C710972   4.372   1.837  15.444  0.1910 -0.1657  0.1260
  742TMC3    C810973   3.971   1.723  15.276 -0.3444  0.4197  0.3344
  742TMC3    O110974   4.461   1.760  15.466 -0.1871 -0.3088 -0.4590
  742TMC3    O210975   4.024   1.774  15.182  0.3815 -0.5286 -0.0990
  743MPD2     C10976   2.426   3.124   1.655 -0.4555  0.3622 -0.4826
  743MPD2    C110977   2.464   3.025   1.573 -0.7906  1.3552 -1.1524
  743MPD2    C210978   2.587   2.975   1.584 -0.3186  0.2318  0.0457
  743MPD2    C310979   2.681   3.024   1.678 -0.4306  0.1423 -0.7549
  743MPD2    C410980   2.634   3.125   1.765  0.6941 -0.1411 -0.0070
  743MPD2    C510981   2.503   3.167   1.760 -0.0799 -0.1920 -0.8554
  743MPD2     H10982   2.622   2.886   1.534  2.0119  0.0157  2.0507
  743MPD2    H110983   2.688   3.145   1.857  1.1655  1.1105 -0.5496
  743MPD2    H210984   2.329   3.173   1.652 -0.1630  0.9537 -0.3451
  743MPD2    H310985   2.480   3.236   1.840 -1.7466 -0.3057 -1.2489
  743MPD2     N10986   2.798   2.952   1.687 -0.5028 -0.2582 -1.0505
  743MPD2    H510987   2.832   2.909   1.602 -0.7901  2.1663 -2.3730
  743MPD2    N110988   2.365   2.962   1.492 -0.6715  0.3435 -0.2661
  743MPD2    H710989   2.272   3.001   1.502 -0.1864  1.3284  0.4724
  744TMC3    C110990   2.258   2.805   1.348  0.0225 -0.0748  0.4967
  744TMC3    C210991   2.150   2.885   1.357  0.1319  0.3211 -0.3436
  744TMC3    C310992   2.054   2.869   1.263  0.1949 -0.1731  0.3006
  744TMC3    C410993   2.279   2.728   1.233  1.0245 -0.0622  0.1394
  744TMC3    C510994   2.169   2.701   1.157  0.3509 -0.2728  0.1793
  744TMC3    C610995   2.058   2.776   1.164  0.5472 -0.3431  0.2386
  744TMC3     C10996   2.379   2.842   1.424  0.2870 -0.1461 -0.0355
  744TMC3     O10997   2.467   2.761   1.426 -0.2531  0.3519  0.1287
  744TMC3     H10998   2.133   2.954   1.439  0.3639  0.2018 -0.1940
  744TMC3    H110999   2.368   2.668   1.222  1.1031 -0.4539  2.9274
  744TMC3    H211000   1.989   2.769   1.081  1.0385 -1.2170 -0.0898
  744TMC3    C711001   2.209   2.682   1.015 -0.2606  0.2856  0.4166
  744TMC3    C811002   1.971   2.982   1.240 -0.2398  0.1956 -0.8524
  744TMC3    O111003   2.330   2.685   0.993 -0.2263 -0.5855  0.0903
  744TMC3    O211004   2.010   3.088   1.279 -0.4590 -0.4401  0.2757
  745TMC3    C111005   4.283   1.758  13.269 -0.2152  0.6873 -0.0713
  745TMC3    C211006   4.215   1.672  13.362 -0.5714 -0.1077 -0.2680
  745TMC3    C311007   4.091   1.713  13.411  0.0316  0.4142 -0.3188
  745TMC3    C411008   4.226   1.876  13.227 -0.5968 -0.0871 -0.2862
  745TMC3    C511009   4.099   1.906  13.277 -0.4710  0.2384 -0.2104
  745TMC3    C611010   4.030   1.832  13.373 -0.4714  0.4547  0.6902
  745TMC3     C11011   4.423   1.751  13.278 -0.0198  0.2256 -0.6123
  745TMC3     O11012   4.485   1.704  13.186 -0.0108 -0.1177 -0.4062
  745TMC3     H11013   4.269   1.583  13.394 -1.4921 -0.0067  1.5831
  745TMC3    H111014   4.271   1.934  13.147 -1.1471  2.2115  1.0716
  745TMC3    H211015   3.938   1.863  13.421  0.0062 -0.4200  2.1553
  745TMC3    C711016   4.030   2.026  13.239 -0.1111  0.2972  0.1539
  745TMC3    C811017   4.070   1.692  13.557 -0.0542 -1.3075  0.1925
  745TMC3    O111018   3.909   2.048  13.255 -0.8987 -0.4316 -0.1681
  745TMC3    O211019   3.964   1.720  13.609  0.0397  0.0911 -0.1004
  746TMC3    C111020   2.277   3.461  10.830 -0.0207 -0.0326  0.2091
  746TMC3    C211021   2.289   3.534  10.717  0.3320 -0.0508 -0.2287
  746TMC3    C311022   2.285   3.466  10.599  0.4255  0.4984  0.5255
  746TMC3    C411023   2.263   3.327  10.833  0.0081 -0.6833 -0.0160
  746TMC3    C511024   2.262   3.265  10.712  0.0299 -0.1344 -0.3276
  746TMC3    C611025   2.267   3.332  10.599 -0.8295  0.4579  0.2418
  746TMC3     C11026   2.281   3.540  10.954 -0.7114  0.0426  0.4687
  746TMC3     O11027   2.170   3.562  11.000 -0.2778 -1.0120  0.2058
  746TMC3     H11028   2.286   3.642  10.726 -0.6875  0.0117 -1.2287
  746TMC3    H111029   2.268   3.272  10.927  0.3652 -1.7269 -0.6513
  746TMC3    H211030   2.242   3.292  10.501  0.3320 -0.3709  0.2830
  746TMC3    C711031   2.214   3.127  10.702  0.4227 -0.4965 -0.5110
  746TMC3    C811032   2.289   3.532  10.470 -0.3325 -0.4104 -0.6626
  746TMC3    O111033   2.167   3.087  10.596  0.0987  0.3407  0.1033
  746TMC3    O211034   2.239   3.476  10.370 -0.0875  0.2449 -0.3712
  747TMC3    C111035   4.301   2.881  11.017  0.4001 -0.8126  0.0362
  747TMC3    C211036   4.180   2.938  11.009  0.0287  0.6111  0.2529
  747TMC3    C311037   4.126   2.981  11.125 -0.4733  0.3127  0.5640
  747TMC3    C411038   4.372   2.870  11.135  0.0168  0.0347 -0.0053
  747TMC3    C511039   4.319   2.922  11.249  0.0512  0.2222  0.8512
  747TMC3    C611040   4.196   2.972  11.241 -0.3804  0.6806  0.0807
  747TMC3     C11041   4.339   2.821  10.896 -0.2735 -0.8266 -0.2064
  747TMC3     O11042   4.264   2.831  10.799  0.4006  0.2653 -0.2719
  747TMC3     H11043   4.123   2.959  10.919 -0.2539 -0.1543  0.2520
  747TMC3    H111044   4.471   2.827  11.135 -0.0209 -0.0461  0.8414
  747TMC3    H211045   4.148   2.995  11.335  0.7318 -0.9490  1.0359
  747TMC3    C711046   4.397   3.023  11.308  0.7610  0.3351 -0.1067
  747TMC3    C811047   4.019   3.080  11.117  0.4146 -0.0642  0.4165
  747TMC3    O111048   4.331   3.118  11.355 -0.1561 -0.8245 -0.0337
  747TMC3    O211049   3.934   3.088  11.024  0.1049  0.2170  0.3603
  748MPD2     C11050   1.049   3.897   1.516 -0.1169  1.0607 -0.4711
  748MPD2    C111051   1.156   3.922   1.600  0.0705  0.0837  0.5678
  748MPD2    C211052   1.278   3.959   1.541  0.8761 -0.2990  1.0620
  748MPD2    C311053   1.290   3.938   1.404 -0.3072  0.6810  0.1406
  748MPD2    C411054   1.189   3.879   1.328 -0.6166 -0.0347  0.0060
  748MPD2    C511055   1.067   3.861   1.385 -0.1882 -0.5209  0.0891
  748MPD2     H11056   1.367   4.004   1.583  2.0268  0.5673 -2.2791
  748MPD2    H111057   1.195   3.857   1.222 -0.8452 -1.8164  0.3774
  748MPD2    H211058   0.950   3.893   1.560  0.3671 -0.1034  0.4994
  748MPD2    H311059   0.978   3.843   1.325 -0.6741 -0.4173  0.7795
  748MPD2     N11060   1.414   3.982   1.355 -0.0833 -0.2582  0.7163
  748MPD2    H511061   1.481   4.028   1.417 -2.8302  1.4370  2.4206
  748MPD2    N111062   1.134   3.932   1.737  0.3112 -0.1135 -0.7037
  748MPD2    H711063   1.051   3.888   1.777  0.9223 -0.8274 -0.2279
  749TMC3    C111064   1.584   4.009   1.181 -0.1891  0.6640 -0.4348
  749TMC3    C211065   1.683   3.990   1.275 -0.0027 -0.1839  0.5489
  749TMC3    C311066   1.815   3.992   1.225  0.1171 -0.2845 -0.1301
  749TMC3    C411067   1.607   4.031   1.051 -0.1749  0.3509 -0.2664
  749TMC3    C511068   1.739   4.055   1.026  0.1579 -0.1602  0.2125
  749TMC3    C611069   1.847   4.042   1.108  0.0590 -1.0660 -0.2945
  749TMC3     C11070   1.443   3.983   1.219  0.4256 -0.3167 -0.6361
  749TMC3     O11071   1.374   3.948   1.126 -0.8123 -0.4433 -0.3587
  749TMC3     H11072   1.665   3.965   1.379  1.6747  0.1492  0.9220
  749TMC3    H111073   1.523   4.034   0.982  1.3845  0.6560 -2.1511
  749TMC3    H211074   1.945   4.084   1.086 -0.4468  0.4398  0.2779
  749TMC3    C711075   1.772   4.129   0.901  0.3077  0.4933  0.0275
  749TMC3    C811076   1.926   3.977   1.322 -0.4312  0.0596 -0.0195
  749TMC3    O111077   1.864   4.214   0.905  0.4671 -0.1722  0.2191
  749TMC3    O211078   1.890   3.953   1.434 -0.2449 -0.2532  0.6178
  750MPD2     C11079   2.748   0.723  11.589 -0.4072  0.3734  0.4385
  750MPD2    C111080   2.614   0.689  11.584  0.7417  0.4349 -0.0236
  750MPD2    C211081   2.560   0.628  11.471 -0.4122  0.6792 -0.1629
  750MPD2    C311082   2.644   0.586  11.372 -0.1236  0.1307  0.8712
  750MPD2    C411083   2.779   0.599  11.388 -0.3284 -0.8211 -0.2001
  750MPD2    C511084   2.830   0.681  11.483  0.2690  0.1263  0.1614
  750MPD2     H11085   2.456   0.600  11.460  0.7040 -3.3370 -0.5501
  750MPD2    H111086   2.844   0.547  11.319  0.8194  0.3466 -0.0165
  750MPD2    H211087   2.781   0.782  11.673  0.9783  0.5526 -0.2321
  750MPD2    H311088   2.938   0.687  11.486  0.1575  1.3233  1.6370
  750MPD2     N11089   2.598   0.517  11.250 -0.8659 -0.0014  0.0382
  750MPD2    H511090   2.664   0.458  11.201 -1.8751 -0.6349 -0.5602
  750MPD2    N111091   2.541   0.716  11.701  0.4581 -0.2261 -0.1325
  750MPD2    H711092   2.587   0.779  11.766  2.0086  0.2242 -1.6818
  751TMC3    C111093   2.436   0.440  11.093  0.1921  0.5380  0.0661
  751TMC3    C211094   2.304   0.404  11.076 -0.5379 -0.3759  0.4466
  751TMC3    C311095   2.273   0.363  10.951  0.1157  0.0917 -0.0544
  751TMC3    C411096   2.537   0.414  11.007  0.5763  0.3883  0.3490
  751TMC3    C511097   2.502   0.346  10.893  0.3732  0.0514 -0.9469
  751TMC3    C611098   2.369   0.333  10.862  0.7257 -0.7471  0.2430
  751TMC3     C11099   2.465   0.526  11.208  0.2415  0.0147  0.5699
  751TMC3     O11100   2.368   0.579  11.256 -0.2811  0.7501  0.3359
  751TMC3     H11101   2.242   0.427  11.162  0.0472  2.2047  0.1687
  751TMC3    H111102   2.639   0.450  11.011  0.7566 -0.0334 -0.4467
  751TMC3    H211103   2.331   0.270  10.782 -0.8552 -0.1271  0.4959
  751TMC3    C711104   2.606   0.288  10.815 -0.4059  0.1846 -0.4736
  751TMC3    C811105   2.134   0.324  10.932 -0.8464 -0.4818 -0.1630
  751TMC3    O111106   2.572   0.267  10.697 -0.4115  0.3697 -0.4849
  751TMC3    O211107   2.120   0.248  10.836  0.2030 -0.2701 -0.1007
  752TMC3    C111108   0.852   0.019  16.927  0.2753  0.3520  0.9871
  752TMC3    C211109   0.890   4.609  16.919 -0.3827  0.3315  0.5880
  752TMC3    C311110   0.848   4.526  17.018 -0.1481 -0.6546  0.1140
  752TMC3    C411111   0.787   0.068  17.035 -0.2365  0.0966 -0.1623
  752TMC3    C511112   0.749   4.701  17.135 -0.6002 -0.3742  0.1266
  752TMC3    C611113   0.770   4.570  17.124  0.1286  0.1449  0.2251
  752TMC3     C11114   0.851   0.082  16.798 -0.2910  0.2245  0.7350
  752TMC3     O11115   0.895   0.007  16.709  0.3246  0.4666  0.2469
  752TMC3     H11116   0.954   4.579  16.837 -0.6144  0.0146  0.5263
  752TMC3    H111117   0.755   0.171  17.045  0.0170  0.4609 -2.9654
  752TMC3    H211118   0.740   4.507  17.208  0.0815  0.0576  0.1426
  752TMC3    C711119   0.651   0.023  17.235  0.1105 -0.5272  0.2329
  752TMC3    C811120   0.845   4.388  16.983 -0.1127  0.0449  0.0854
  752TMC3    O111121   0.587   4.660  17.291 -0.5150 -0.2829  0.2253
  752TMC3    O211122   0.942   4.349  16.917  0.0633  0.2312  0.4019
  753TMC3    C111123   2.600   1.530  13.442 -0.4179 -0.1051 -0.4803
  753TMC3    C211124   2.622   1.486  13.568 -0.6461  0.0197 -1.0638
  753TMC3    C311125   2.643   1.356  13.592 -0.3023  0.3590  0.0855
  753TMC3    C411126   2.595   1.446  13.333  0.4534 -0.3143  0.3415
  753TMC3    C511127   2.634   1.315  13.354 -0.7010 -0.3386  0.2336
  753TMC3    C611128   2.647   1.271  13.481 -0.5415  0.3280 -0.2590
  753TMC3     C11129   2.578   1.674  13.426  0.3040 -0.2898  0.5131
  753TMC3     O11130   2.496   1.702  13.341 -0.5499  0.3185  0.2562
  753TMC3     H11131   2.624   1.557  13.649  4.0744 -1.2619 -0.0330
  753TMC3    H111132   2.590   1.479  13.230  1.1638 -1.2042  0.0189
  753TMC3    H211133   2.666   1.165  13.493  0.8105  0.7708  1.6753
  753TMC3    C711134   2.656   1.225  13.242 -0.2896  0.3382 -0.2011
  753TMC3    C811135   2.711   1.311  13.715  0.0598  0.2057  0.2786
  753TMC3    O111136   2.701   1.282  13.143  0.4037 -0.0021  0.1454
  753TMC3    O211137   2.748   1.192  13.717 -0.4414 -0.0772  0.3488
  754MPD2     C11138   1.882   0.534  12.413  0.5776  0.3339 -0.0070
  754MPD2    C111139   1.888   0.398  12.434  0.1616 -0.9294 -0.1415
  754MPD2    C211140   1.794   0.341  12.526  0.6984 -0.2110  0.7928
  754MPD2    C311141   1.709   0.423  12.596  0.2720  0.6024 -0.5037
  754MPD2    C411142   1.715   0.563  12.575  0.2283 -0.0084  0.7865
  754MPD2    C511143   1.801   0.613  12.485 -0.0564 -0.2748  0.3197
  754MPD2     H11144   1.790   0.234  12.545  0.1370 -0.0810  1.4270
  754MPD2    H111145   1.654   0.634  12.629 -0.7371  0.2773 -0.6859
  754MPD2    H211146   1.951   0.583  12.346  2.0777 -1.5565  0.1630
  754MPD2    H311147   1.821   0.718  12.464 -1.2252 -0.1808 -0.2696
  754MPD2     N11148   1.617   0.373  12.690  0.2624  0.4917 -0.0909
  754MPD2    H511149   1.563   0.434  12.751  0.9986  0.6926  0.3619
  754MPD2    N111150   1.990   0.326  12.364 -0.0607  0.1544  0.5296
  754MPD2    H711151   2.045   0.379  12.297  2.5429 -2.0822  0.9128
  755MPD2     C11152   1.163   0.846  13.228  0.5143 -0.0065 -0.0448
  755MPD2    C111153   1.185   0.732  13.304 -0.0392  0.1267  0.0242
  755MPD2    C211154   1.233   0.612  13.247 -0.4277 -0.5617  0.2627
  755MPD2    C311155   1.267   0.612  13.110 -0.1246 -0.5987  0.0947
  755MPD2    C411156   1.252   0.727  13.036 -0.3687 -0.3313 -0.0770
  755MPD2    C511157   1.196   0.837  13.095 -0.0449  0.1651 -0.4606
  755MPD2     H11158   1.235   0.519  13.302  3.3554  0.5519  1.9814
  755MPD2    H111159   1.278   0.722  12.931 -0.4643 -0.6694 -0.0854
  755MPD2    H211160   1.116   0.935  13.267 -1.6795 -1.0570 -0.3279
  755MPD2    H311161   1.165   0.919  13.032  1.8891 -0.1292 -1.7867
  755MPD2     N11162   1.303   0.494  13.045 -0.0311  0.2169  0.3280
  755MPD2    H511163   1.343   0.502  12.953 -1.4499 -0.4690 -0.3557
  755MPD2    N111164   1.151   0.722  13.436 -0.5149  0.0600  0.4856
  755MPD2    H711165   1.192   0.636  13.471  1.6340  0.4341 -1.0974
  756MPD2     C11166   2.529   0.333   9.891 -0.2493  0.4820 -0.5522
  756MPD2    C111167   2.399   0.381   9.869  0.1729 -0.2257 -0.3099
  756MPD2    C211168   2.298   0.296   9.836  0.3478  0.1177  1.0388
  756MPD2    C311169   2.315   0.162   9.800 -1.0787 -0.1136  0.2875
  756MPD2    C411170   2.445   0.113   9.816  0.4587  0.8625 -0.4333
  756MPD2    C511171   2.548   0.199   9.860  0.2061  0.8254 -0.4383
  756MPD2     H11172   2.198   0.339   9.833  0.5665  0.5112 -0.5268
  756MPD2    H111173   2.480   0.011   9.799 -1.0446  0.0299  1.4037
  756MPD2    H211174   2.615   0.397   9.911 -0.2849 -0.1794  1.6792
  756MPD2    H311175   2.647   0.158   9.875 -0.8938 -0.4811  3.1752
  756MPD2     N11176   2.205   0.084   9.756 -0.1939  0.0526 -0.1711
  756MPD2    H511177   2.112   0.124   9.765  0.2178  0.1861  3.4868
  756MPD2    N111178   2.365   0.519   9.888 -0.6316  0.0171 -0.0983
  756MPD2    H711179   2.275   0.554   9.856 -1.0789 -0.8224  0.2620
  757MPD2     C11180   1.289   0.095   9.852 -0.0665 -0.2298  0.9286
  757MPD2    C111181   1.281   4.719   9.766  0.0386 -0.2438  0.4199
  757MPD2    C211182   1.394   4.684   9.695 -0.1056  0.0602  0.0377
  757MPD2    C311183   1.509   0.038   9.701 -0.1361 -0.1565 -0.1955
  757MPD2    C411184   1.511   0.147   9.781 -0.0288 -0.3842  0.2847
  757MPD2    C511185   1.401   0.172   9.858 -0.4155  0.6756  0.0855
  757MPD2     H11186   1.403   4.595   9.633  2.3359  2.0731 -2.5254
  757MPD2    H111187   1.591   0.215   9.806 -0.6896 -0.2692  2.0383
  757MPD2    H211188   1.205   0.120   9.916 -1.3020 -3.1582  0.4818
  757MPD2    H311189   1.405   0.255   9.928  2.1069  2.0518 -1.7114
  757MPD2     N11190   1.630   4.710   9.640  0.2200 -0.2305 -0.0372
  757MPD2    H511191   1.625   4.617   9.598 -0.3202 -0.1084 -0.2482
  757MPD2    N111192   1.157   4.643   9.767 -0.2174  0.2502  0.1836
  757MPD2    H711193   1.089   4.674   9.836 -0.0412  0.1222  0.4163
  758MPD2     C11194   1.821   0.242  15.697  0.6062 -0.4663  1.0540
  758MPD2    C111195   1.850   0.197  15.825 -0.0718  0.1589  0.8042
  758MPD2    C211196   1.859   0.284  15.931  1.0528  0.5004 -0.3553
  758MPD2    C311197   1.813   0.412  15.917  0.4998 -0.7562 -0.6602
  758MPD2    C411198   1.784   0.466  15.793  0.6679  0.4685  0.4482
  758MPD2    C511199   1.790   0.378  15.685 -0.7222  0.2274 -0.5977
  758MPD2     H11200   1.879   0.253  16.033 -1.3641  0.9611  0.2435
  758MPD2    H111201   1.763   0.570  15.772  2.0892  0.2055 -2.3896
  758MPD2    H211202   1.810   0.173  15.614  1.5014  0.0245  0.5297
  758MPD2    H311203   1.758   0.411  15.586  0.7338  2.4347 -0.2998
  758MPD2     N11204   1.804   0.502  16.030 -0.3425  0.2466  0.2466
  758MPD2    H511205   1.749   0.586  16.012  1.0854  0.9490 -0.8596
  758MPD2    N111206   1.873   0.059  15.840 -0.3793  0.4924 -0.6532
  758MPD2    H711207   1.889   0.009  15.753 -0.9947  1.2864 -1.2274
  759MPD2     C11208   1.308   3.315   9.717 -0.0661 -0.4678 -0.0075
  759MPD2    C111209   1.295   3.228   9.618  0.7604  0.3740 -0.3288
  759MPD2    C211210   1.324   3.276   9.494  0.0961 -0.1015 -0.1006
  759MPD2    C311211   1.348   3.407   9.465  0.4702  0.0900  0.2096
  759MPD2    C411212   1.341   3.492   9.568  0.2718 -0.4410 -0.0511
  759MPD2    C511213   1.319   3.446   9.692  0.3015  0.1913 -0.4917
  759MPD2     H11214   1.328   3.202   9.414  2.2020 -0.1002 -0.0094
  759MPD2    H111215   1.344   3.600   9.554  1.7220 -0.3892  0.6817
  759MPD2    H211216   1.303   3.293   9.823 -0.8954 -2.4567 -0.4466
  759MPD2    H311217   1.307   3.518   9.772  2.2078  1.1609 -1.0979
  759MPD2     N11218   1.383   3.436   9.335 -1.5277  0.4210  0.4701
  759MPD2    H511219   1.377   3.354   9.275 -1.4648  0.4951  0.3624
  759MPD2    N111220   1.267   3.085   9.641 -0.3708 -0.0173  0.1744
  759MPD2    H711221   1.240   3.033   9.558 -0.3715 -0.5473  0.5123
  760MPD2     C11222   0.430   1.040  11.907  0.4000  0.0915  0.0518
  760MPD2    C111223   0.561   1.002  11.875 -0.5617  0.0380 -0.0582
  760MPD2    C211224   0.593   0.867  11.874  0.2322  0.3413 -1.3065
  760MPD2    C311225   0.504   0.772  11.908 -0.1256  1.1067  0.2464
  760MPD2    C411226   0.372   0.810  11.945  1.1177 -0.1215 -0.0624
  760MPD2    C511227   0.335   0.946  11.942  0.2925 -0.1154  0.1907
  760MPD2     H11228   0.686   0.838  11.828  0.5226 -0.6424 -0.1132
  760MPD2    H111229   0.306   0.736  11.989 -0.6164  1.2064 -0.4592
  760MPD2    H211230   0.400   1.143  11.921 -4.0680 -1.1843 -0.0865
  760MPD2    H311231   0.234   0.972  11.973 -0.7823 -3.3000 -0.5898
  760MPD2     N11232   0.530   0.634  11.916  0.9505  0.2341  0.4759
  760MPD2    H511233   0.459   0.573  11.956 -0.7321  1.4367 -0.7030
  760MPD2    N111234   0.658   1.101  11.838 -0.0694 -0.0614  0.3460
  760MPD2    H711235   0.752   1.067  11.817 -0.0868 -0.2522  0.5754
  761MPD2     C11236   1.674   0.195  11.108 -0.1588 -0.9900 -0.0746
  761MPD2    C111237   1.748   0.137  11.008  0.3016  0.8213 -0.4394
  761MPD2    C211238   1.871   0.195  10.972 -0.6000  0.0178 -0.3563
  761MPD2    C311239   1.916   0.308  11.042  0.9294  0.5465 -0.1941
  761MPD2    C411240   1.844   0.360  11.148  0.8692  0.3319 -0.0364
  761MPD2    C511241   1.721   0.307  11.178  0.1087 -0.1540 -0.0428
  761MPD2     H11242   1.924   0.146  10.891  0.0895  1.4078 -0.7409
  761MPD2    H111243   1.887   0.437  11.211  1.1661 -1.3009  1.7714
  761MPD2    H211244   1.581   0.160  11.151 -0.0940  0.4599  1.2361
  761MPD2    H311245   1.664   0.350  11.260  0.1026 -0.9937  0.3949
  761MPD2     N11246   2.050   0.350  11.035 -0.1393  0.2545  0.1009
  761MPD2    H511247   2.079   0.419  11.104  1.4633 -0.8146  0.4964
  761MPD2    N111248   1.690   0.026  10.952  0.4511 -0.7954  0.6649
  761MPD2    H711249   1.595   4.722  10.975  0.1420 -3.3163 -3.6140
  762MPD2     C11250   2.182   4.673  10.686  0.1350 -0.4870  0.8532
  762MPD2    C111251   2.161   4.535  10.674  0.3828 -0.2611  0.3750
  762MPD2    C211252   2.263   4.455  10.630 -0.0260 -0.4819 -0.5068
  762MPD2    C311253   2.383   4.502  10.585 -0.0488  0.0839  0.5978
  762MPD2    C411254   2.405   4.636  10.585  0.3041 -0.3349  0.5146
  762MPD2    C511255   2.306   0.002  10.637  0.2582 -0.1290  0.9045
  762MPD2     H11256   2.240   4.351  10.607 -1.1144 -0.7281  1.7215
  762MPD2    H111257   2.492   4.678  10.536  1.2840 -1.5278  1.2470
  762MPD2    H211258   2.100   0.014  10.715 -1.5933 -2.2053 -0.2874
  762MPD2    H311259   2.320   0.108  10.621 -0.1174 -0.7423 -3.4671
  762MPD2     N11260   2.489   4.424  10.539 -0.3018  1.0389 -0.2461
  762MPD2    H511261   2.456   4.334  10.505  0.9792  0.5865 -0.2901
  762MPD2    N111262   2.035   4.492  10.722 -0.2684  0.2388  0.3669
  762MPD2    H711263   1.967   4.564  10.741 -0.6123 -0.3374  1.3190
  763MPD2     C11264   3.941   4.693  16.275  0.3575  0.5060 -0.0519
  763MPD2    C111265   3.834   0.029  16.221  0.5585 -0.1987  0.3278
  763MPD2    C211266   3.779   0.140  16.277 -0.3614  0.3598  0.0598
  763MPD2    C311267   3.848   0.194  16.383  0.2583 -0.0901 -0.3017
  763MPD2    C411268   3.969   0.145  16.428  0.2748  0.5272 -0.3979
  763MPD2    C511269   4.009   0.025  16.381 -0.0070 -1.0072 -0.3458
  763MPD2     H11270   3.698   0.194  16.229  0.8300  1.3013 -0.8875
  763MPD2    H111271   4.020   0.208  16.500 -0.2423  0.0792  0.3562
  763MPD2    H211272   3.987   4.602  16.235  1.9195  1.0365  0.5272
  763MPD2    H311273   4.108   4.713  16.408 -0.0720 -0.7642  0.2037
  763MPD2     N11274   3.813   0.320  16.433 -0.6327 -0.3731 -0.6607
  763MPD2    H511275   3.880   0.365  16.495  0.0833  0.9504 -2.3752
  763MPD2    N111276   3.775   4.696  16.105  0.0740 -0.0878  0.5741
  763MPD2    H711277   3.688   0.014  16.070 -0.3279 -1.7860 -0.4028
  764MPD2     C11278   2.049   1.935  17.202 -0.2673  0.7152 -0.3036
  764MPD2    C111279   1.933   1.900  17.130  0.3979 -0.3110 -0.3570
  764MPD2    C211280   1.830   1.828  17.188 -0.1576  0.2096 -0.0756
  764MPD2    C311281   1.842   1.783  17.317 -0.3941 -0.4650 -0.6983
  764MPD2    C411282   1.959   1.814  17.380  0.7873 -0.4355  0.4496
  764MPD2    C511283   2.051   1.900  17.332  0.0997 -0.5501  0.0004
  764MPD2     H11284   1.743   1.809  17.127 -1.9097 -0.4572  2.6693
  764MPD2    H111285   1.974   1.771  17.478  0.8155 -0.4492  0.4390
  764MPD2    H211286   2.133   1.992  17.163 -0.1239 -0.9549 -2.4309
  764MPD2    H311287   2.126   1.938  17.400 -2.0654  1.7770  1.0766
  764MPD2     N11288   1.734   1.718  17.370 -0.2444 -0.0177 -0.1451
  764MPD2    H511289   1.657   1.708  17.305  0.0040  1.1213 -0.6085
  764MPD2    N111290   1.908   1.931  16.994  0.3957 -0.2468  0.4458
  764MPD2    H711291   1.820   1.895  16.956  0.8640  0.8798 -1.7322
  765MPD2     C11292   1.538   4.101  15.891 -0.0169  0.0477 -0.9825
  765MPD2    C111293   1.610   4.219  15.887 -0.4854 -0.6301 -0.7529
  765MPD2    C211294   1.740   4.206  15.843 -0.0687  0.0836  0.1973
  765MPD2    C311295   1.798   4.081  15.826  0.0507  0.5421  0.2718
  765MPD2    C411296   1.719   3.969  15.832 -0.5176 -0.2103 -0.6558
  765MPD2    C511297   1.584   3.981  15.854  0.6466  0.4144  0.0165
  765MPD2     H11298   1.813   4.286  15.839  0.4556 -0.4911 -1.4507
  765MPD2    H111299   1.755   3.872  15.802 -0.2102 -0.6809  1.2522
  765MPD2    H211300   1.433   4.112  15.917  0.5751 -2.0652  2.3074
  765MPD2    H311301   1.516   3.896  15.853 -0.6487  1.4338  1.2897
  765MPD2     N11302   1.943   4.070  15.799 -0.0811 -0.2977 -0.8061
  765MPD2    H511303   1.994   4.157  15.804  1.6258 -1.4507  1.9657
  765MPD2    N111304   1.538   4.340  15.911  0.0222 -0.5613 -0.2775
  765MPD2    H711305   1.446   4.333  15.952  1.4271 -2.2964  2.5926
  766MPD2     C11306   0.928   4.510  15.601 -0.6065  0.0520  0.5198
  766MPD2    C111307   1.066   4.483  15.581  0.1203  0.5445 -0.6919
  766MPD2    C211308   1.110   4.409  15.472  0.5773 -0.4416  0.0127
  766MPD2    C311309   1.022   4.384  15.368 -0.0482  0.0946  0.0843
  766MPD2    C411310   0.888   4.412  15.386 -0.7746 -0.7928  0.2053
  766MPD2    C511311   0.847   4.482  15.501 -0.0465  0.3587 -0.1990
  766MPD2     H11312   1.214   4.378  15.472  0.3057 -1.3502  0.2891
  766MPD2    H111313   0.817   4.399  15.306 -1.1653 -0.6277  0.5239
  766MPD2    H211314   0.887   4.546  15.694  0.8957 -0.8467  1.5236
  766MPD2    H311315   0.741   4.506  15.508 -0.8829 -2.9631 -1.7563
  766MPD2     N11316   1.065   4.307  15.254 -0.1528 -0.0743 -0.0761
  766MPD2    H511317   0.995   4.287  15.183  1.0916 -1.5171 -0.8979
  766MPD2    N111318   1.156   4.517  15.682  0.1983 -0.6175 -0.0482
  766MPD2    H711319   1.253   4.498  15.659 -1.0342 -4.1177 -2.2964
  767MPD2     C11320   0.675   4.569  15.023 -0.0207  0.7585 -0.2050
  767MPD2    C111321   0.811   4.553  15.001 -0.1319  0.8594 -0.4892
  767MPD2    C211322   0.852   4.494  14.881 -0.1371  0.6814  0.6649
  767MPD2    C311323   0.763   4.453  14.788 -0.1758  0.0461  0.4066
  767MPD2    C411324   0.625   4.468  14.814 -0.4358 -0.4855  0.6753
  767MPD2    C511325   0.584   4.531  14.928  0.3327 -0.2350  0.3816
  767MPD2     H11326   0.959   4.486  14.864  0.1209 -0.6419  2.9779
  767MPD2    H111327   0.545   4.430  14.751  0.3952  1.0351 -1.3060
  767MPD2    H211328   0.638   4.607  15.118 -0.8566 -3.1982  1.0484
  767MPD2    H311329   0.479   4.543  14.950  0.4950 -1.6016  1.8762
  767MPD2     N11330   0.812   4.394  14.674  0.3007  0.2120  0.4268
  767MPD2    H511331   0.913   4.378  14.674  0.1235 -0.9072 -0.5294
  767MPD2    N111332   0.898   4.599  15.096 -0.8128 -0.7345 -0.3227
  767MPD2    H711333   0.865   4.629  15.188  1.7299 -0.6649  0.5632
  768MPD2     C11334   2.351   2.802  10.208 -0.3567 -0.6496 -0.3945
  768MPD2    C111335   2.356   2.708  10.310 -0.8963 -0.2351 -0.1055
  768MPD2    C211336   2.403   2.739  10.436 -0.2649  0.1598 -0.2414
  768MPD2    C311337   2.435   2.869  10.464  0.4469 -0.3625  0.5178
  768MPD2    C411338   2.411   2.967  10.368  0.0613 -0.3893  0.6319
  768MPD2    C511339   2.377   2.936  10.240 -0.3857  0.1901  0.0626
  768MPD2     H11340   2.415   2.657  10.505  1.0074  0.2984 -0.2958
  768MPD2    H111341   2.449   3.064  10.395  1.8116 -0.7881 -0.4062
  768MPD2    H211342   2.336   2.773  10.104 -0.8075  0.5001 -0.6417
  768MPD2    H311343   2.365   3.019  10.172  0.8418 -0.3488 -0.8360
  768MPD2     N11344   2.483   2.914  10.589  0.1930 -0.6553  0.0101
  768MPD2    H511345   2.482   3.015  10.602 -0.2866 -0.5241 -1.1006
  768MPD2    N111346   2.307   2.576  10.291  0.5123 -0.0028 -0.2387
  768MPD2    H711347   2.321   2.506  10.362 -0.1817 -0.5548 -0.6480
  769MPD2     C11348   3.203   0.819  14.836  0.6930  0.5788 -0.8758
  769MPD2    C111349   3.104   0.797  14.925  0.1852 -0.6534 -0.2621
  769MPD2    C211350   3.095   0.876  15.038 -0.2829 -0.7844  0.0124
  769MPD2    C311351   3.194   0.962  15.070 -0.3239 -0.1599  0.4875
  769MPD2    C411352   3.299   0.973  14.981 -0.2885 -0.1466 -0.6041
  769MPD2    C511353   3.299   0.909  14.866 -0.7032  0.1734 -1.0705
  769MPD2     H11354   3.027   0.854  15.120  0.8149  2.3742  1.7610
  769MPD2    H111355   3.383   1.036  15.009 -0.0623 -0.2104 -1.1502
  769MPD2    H211356   3.213   0.761  14.745  2.1386  1.5325 -1.3202
  769MPD2    H311357   3.381   0.924  14.797  2.4493  0.9152  2.8592
  769MPD2     N11358   3.183   1.032  15.197  0.1413 -0.1567  0.2216
  769MPD2    H511359   3.103   1.001  15.251  0.8940 -1.8166  0.3869
  769MPD2    N111360   3.005   0.706  14.887  0.1533  0.3974 -0.0960
  769MPD2    H711361   3.023   0.662  14.798 -1.7122 -1.0871  0.2861
  770MPD2     C11362   2.685   4.526  15.119  0.1991  0.8803  0.3319
  770MPD2    C111363   2.570   4.556  15.052  0.0195 -0.6966 -0.8392
  770MPD2    C211364   2.562   4.687  14.996  0.8814 -0.1336  0.5478
  770MPD2    C311365   2.670   0.047  14.994  0.5519 -0.3046 -0.1548
  770MPD2    C411366   2.787   0.006  15.063 -0.2525 -0.4644  0.0459
  770MPD2    C511367   2.795   4.604  15.119 -0.6992 -0.5155  0.1856
  770MPD2     H11368   2.464   4.713  14.955  1.1145 -2.0990 -1.2818
  770MPD2    H111369   2.878   0.064  15.060  0.1134 -0.9879  0.9376
  770MPD2    H211370   2.693   4.430  15.170  1.2873  1.0095  0.4107
  770MPD2    H311371   2.886   4.565  15.165 -0.0603  1.1660  0.3403
  770MPD2     N11372   2.654   0.177  14.946  0.5103  0.1523 -0.1353
  770MPD2    H511373   2.564   0.204  14.907 -1.1165 -2.5393  1.8105
  770MPD2    N111374   2.458   4.468  15.054 -0.2943  0.2546  0.1850
  770MPD2    H711375   2.480   4.377  15.093  0.9972  1.6517  2.7810
  771MPD2     C11376   3.419   3.193  13.823 -0.1396  0.2525 -0.3309
  771MPD2    C111377   3.377   3.318  13.791  0.1139 -0.2390  0.0164
  771MPD2    C211378   3.290   3.325  13.688 -0.7026  0.0727  0.2941
  771MPD2    C311379   3.240   3.219  13.616  0.0619  1.0500  0.0990
  771MPD2    C411380   3.283   3.097  13.656  0.0153  0.1201 -0.2269
  771MPD2    C511381   3.374   3.087  13.760  0.0444 -0.3411 -0.9437
  771MPD2     H11382   3.257   3.425  13.662 -0.5844 -0.3098 -1.3196
  771MPD2    H111383   3.238   3.007  13.615 -0.2703  0.7736 -1.3561
  771MPD2    H211384   3.491   3.181  13.903 -1.9713 -0.9587  1.1338
  771MPD2    H311385   3.402   2.990  13.800  2.8727  1.4758  1.4198
  771MPD2     N11386   3.137   3.238  13.520  0.0313  0.2969  0.6069
  771MPD2    H511387   3.096   3.331  13.514  2.8193  1.3408 -2.1730
  771MPD2    N111388   3.417   3.433  13.866  0.1689  0.3581  0.5413
  771MPD2    H711389   3.360   3.514  13.845 -0.1315 -0.3508 -1.3401
  772MPD2     C11390   3.117   4.071  13.970 -0.1493 -0.6863  0.1197
  772MPD2    C111391   3.124   3.945  13.909  0.4540 -0.2816 -0.2400
  772MPD2    C211392   3.018   3.900  13.834  0.3867  0.8120 -0.2980
  772MPD2    C311393   2.901   3.971  13.823  0.2373 -0.3356 -0.3977
  772MPD2    C411394   2.898   4.095  13.885  0.3114 -0.5596  0.5467
  772MPD2    C511395   3.006   4.142  13.956 -0.5150  0.5926  0.3589
  772MPD2     H11396   3.044   3.822  13.763  3.0651  3.7500 -2.5262
  772MPD2    H111397   2.816   4.162  13.864  1.2020  0.2999 -0.1831
  772MPD2    H211398   3.200   4.115  14.024 -0.6185 -2.5055  2.2819
  772MPD2    H311399   2.995   4.237  14.007  1.9133  1.1608 -0.2065
  772MPD2     N11400   2.789   3.952  13.743 -0.4637 -0.0578 -0.1031
  772MPD2    H511401   2.723   4.029  13.745 -0.7594 -0.3265  0.6455
  772MPD2    N111402   3.237   3.867  13.911 -0.1422  0.5694  0.0961
  772MPD2    H711403   3.232   3.776  13.867  0.7746 -1.0721  3.3893
  773MPD2     C11404   2.453   0.384  17.403 -0.1066  0.0591  0.1703
  773MPD2    C111405   2.339   0.308  17.444  0.2325  0.9011  0.1229
  773MPD2    C211406   2.333   0.247  17.568 -0.1459  0.4281  0.2756
  773MPD2    C311407   2.450   0.246  17.647 -0.1526  0.2096 -0.1006
  773MPD2    C411408   2.561   0.319  17.602  0.0710  0.7968 -0.0991
  773MPD2    C511409   2.557   0.393  17.490 -0.3431 -0.1655  0.5112
  773MPD2     H11410   2.239   0.208  17.604  0.3217 -2.3442 -1.5189
  773MPD2    H111411   2.655   0.309  17.655 -0.3401  1.2474  0.7115
  773MPD2    H211412   2.470   0.438  17.310 -1.3435 -0.4917 -0.3856
  773MPD2    H311413   2.646   0.448  17.462 -0.0428 -0.3705  1.0623
  773MPD2     N11414   2.437   0.169   0.074 -0.1199 -0.1107  0.2733
  773MPD2    H511415   2.352   0.115   0.085 -0.1261 -0.0950  0.3022
  773MPD2    N111416   2.218   0.300  17.363  0.9508 -0.3601 -0.3323
  773MPD2    H711417   2.147   0.237  17.398  0.3373 -0.0951 -1.0852
  774MPD2     C11418   1.783   4.012  12.678  0.4500  0.0672  0.5800
  774MPD2    C111419   1.745   4.103  12.777  0.8830  0.0907 -0.2218
  774MPD2    C211420   1.767   4.234  12.757 -0.9038 -0.1889 -0.0213
  774MPD2    C311421   1.841   4.281  12.649  1.0762  0.0578  0.0754
  774MPD2    C411422   1.871   4.192  12.551  0.3592  0.1014 -0.7994
  774MPD2    C511423   1.844   4.058  12.562 -0.5708  0.7257 -0.5639
  774MPD2     H11424   1.755   4.308  12.834  0.4003 -2.1205  2.0465
  774MPD2    H111425   1.925   4.225  12.463 -0.6653  0.4207 -1.3084
  774MPD2    H211426   1.757   3.907  12.689 -4.5683  0.9858 -2.4870
  774MPD2    H311427   1.877   3.985  12.489  0.3868  0.0664  0.5314
  774MPD2     N11428   1.877   4.414  12.637  0.2853  0.0587  0.1711
  774MPD2    H511429   1.849   4.474  12.713  0.2513 -0.9929  0.9889
  774MPD2    N111430   1.690   4.042  12.890 -0.4206  0.2800  0.2859
  774MPD2    H711431   1.700   3.942  12.901  1.2758  0.5411  1.1265
  775MPD2     C11432   3.102   0.735  15.625  1.0829 -0.0746  0.0531
  775MPD2    C111433   3.132   0.838  15.715 -0.3537 -0.0440  0.3840
  775MPD2    C211434   3.248   0.915  15.707 -0.2824  0.3588  0.0045
  775MPD2    C311435   3.345   0.892  15.611 -0.4134  0.1427  0.1700
  775MPD2    C411436   3.328   0.779  15.538  0.7491 -0.0681 -0.3703
  775MPD2    C511437   3.209   0.703  15.539 -0.6268  0.3020 -0.0967
  775MPD2     H11438   3.256   1.010  15.758 -4.5049  0.3300  0.6605
  775MPD2    H111439   3.412   0.755  15.475 -0.1175 -1.4578 -1.0176
  775MPD2    H211440   3.010   0.678  15.628  1.1099 -0.1024  0.4187
  775MPD2    H311441   3.201   0.617  15.473  0.8704 -2.0184  2.7324
  775MPD2     N11442   3.456   0.981  15.582 -0.3977 -0.4129  0.5844
  775MPD2    H511443   3.507   0.963  15.497 -1.1462 -0.1119  0.0764
  775MPD2    N111444   3.028   0.842  15.819 -0.1995  0.2017  0.5620
  775MPD2    H711445   2.942   0.792  15.801 -0.4427  1.1006 -0.8262
  776MPD2     C11446   1.968   1.271  11.962  0.4164 -0.7505 -0.3948
  776MPD2    C111447   2.099   1.242  11.936 -0.8550  0.0098 -0.1939
  776MPD2    C211448   2.173   1.338  11.872 -0.0524  0.0438 -0.3183
  776MPD2    C311449   2.118   1.464  11.842 -0.1165 -0.2055  0.1229
  776MPD2    C411450   1.993   1.497  11.894  0.5610 -0.4392  0.3375
  776MPD2    C511451   1.912   1.396  11.945 -0.6466 -0.1904  0.2135
  776MPD2     H11452   2.276   1.313  11.850 -0.1146 -1.3728  1.0329
  776MPD2    H111453   1.948   1.594  11.881  0.4863 -0.7769 -1.9203
  776MPD2    H211454   1.902   1.201  12.012  0.5504 -1.6489 -1.4883
  776MPD2    H311455   1.810   1.408  11.979  0.0320  1.4144  1.6787
  776MPD2     N11456   2.196   1.569  11.784  0.8609  0.0328  0.0359
  776MPD2    H511457   2.175   1.665  11.808 -0.2383 -0.1310 -0.2546
  776MPD2    N111458   2.148   1.109  11.976  0.3246  0.1576  0.1358
  776MPD2    H711459   2.074   1.045  12.004 -1.0309  1.5149 -0.2844
  777MPD2     C11460   3.067   3.300   0.748  0.3383 -0.1615  1.1883
  777MPD2    C111461   2.938   3.268   0.783  0.0793 -0.6877  0.4336
  777MPD2    C211462   2.858   3.185   0.716 -0.3570  0.0347 -0.1893
  777MPD2    C311463   2.914   3.122   0.606 -0.0398 -0.0690 -0.3058
  777MPD2    C411464   3.042   3.148   0.566 -0.3245 -0.2362  0.6207
  777MPD2    C511465   3.113   3.235   0.639  0.0462  0.1762  0.3374
  777MPD2     H11466   2.750   3.187   0.728 -0.4983 -2.9008 -0.9659
  777MPD2    H111467   3.087   3.097   0.482  0.9634 -1.6441  2.1696
  777MPD2    H211468   3.124   3.373   0.804  3.4170 -1.8069  0.1605
  777MPD2    H311469   3.209   3.266   0.598 -0.1993 -2.1451 -2.0173
  777MPD2     N11470   2.826   3.040   0.530  0.0065  0.5451  0.0591
  777MPD2    H511471   2.729   3.033   0.560  0.4240 -2.4969  0.7375
  777MPD2    N111472   2.879   3.341   0.890 -0.0540  0.2756  0.7396
  777MPD2    H711473   2.941   3.393   0.951  1.1089  0.6307 -0.7469
  778MPD2     C11474   3.381   3.263  15.195  0.3548 -0.5570 -1.0876
  778MPD2    C111475   3.320   3.261  15.075 -0.6781  0.2240  0.1702
  778MPD2    C211476   3.366   3.355  14.976  0.0642  0.6297  0.5242
  778MPD2    C311477   3.476   3.436  14.995 -0.0971  0.0208  0.5842
  778MPD2    C411478   3.535   3.433  15.122 -0.3766 -0.1956 -0.3359
  778MPD2    C511479   3.490   3.348  15.218 -0.1418 -0.7750  0.3000
  778MPD2     H11480   3.320   3.358  14.879  0.6553  0.4686  0.2381
  778MPD2    H111481   3.619   3.498  15.146 -1.2946  0.5312  0.9448
  778MPD2    H211482   3.363   3.190  15.273 -0.3651 -3.0452 -3.6047
  778MPD2    H311483   3.527   3.363  15.319  0.7514 -0.0299 -0.1420
  778MPD2     N11484   3.532   3.517  14.894 -0.1064  0.0001 -0.0135
  778MPD2    H511485   3.491   3.503  14.803 -1.2996  1.8710  0.2432
  778MPD2    N111486   3.206   3.178  15.052  0.2782  0.2723  0.1804
  778MPD2    H711487   3.165   3.185  14.960  0.7612  1.8058  0.0762
  779MPD2     C11488   3.239   2.287  13.982 -0.5363  0.5060 -0.3180
  779MPD2    C111489   3.232   2.297  14.117  0.3114  0.2716  0.4113
  779MPD2    C211490   3.279   2.416  14.177 -0.4651 -0.2272 -0.2100
  779MPD2    C311491   3.334   2.513  14.102  0.4970  0.2510 -0.0201
  779MPD2    C411492   3.340   2.497  13.965  0.7215  0.5224 -0.1236
  779MPD2    C511493   3.286   2.388  13.906  0.7717 -0.3606  0.0634
  779MPD2     H11494   3.267   2.439  14.282 -1.8669 -0.1852 -0.3791
  779MPD2    H111495   3.386   2.570  13.900  1.2725 -0.0154 -0.3414
  779MPD2    H211496   3.196   2.201  13.932  0.4454  0.5826 -1.2879
  779MPD2    H311497   3.277   2.367  13.800 -1.8285 -1.0237  0.4402
  779MPD2     N11498   3.351   2.640  14.159 -0.2207 -0.8101 -0.3314
  779MPD2    H511499   3.334   2.644  14.259  3.6500  0.0408  0.2735
  779MPD2    N111500   3.168   2.210  14.209  0.8143  0.2694  0.6265
  779MPD2    H711501   3.174   2.250  14.302  0.5191 -0.1501  0.8302
  780MPD2     C11502   1.935   2.311   1.209  0.3759  0.3023 -0.7653
  780MPD2    C111503   1.885   2.275   1.086  0.2297  0.4003 -0.4384
  780MPD2    C211504   1.972   2.252   0.984  0.0978 -0.2778  0.0777
  780MPD2    C311505   2.107   2.274   0.990 -0.4570 -0.3379 -0.1805
  780MPD2    C411506   2.157   2.303   1.118  0.9707  0.2570  0.0502
  780MPD2    C511507   2.073   2.321   1.225 -0.2959  0.4426 -0.1688
  780MPD2     H11508   1.925   2.216   0.892  0.7432  1.3419 -0.8829
  780MPD2    H111509   2.262   2.311   1.144  0.1511 -2.1315  4.0707
  780MPD2    H211510   1.867   2.328   1.291  1.0571 -1.0424  0.0732
  780MPD2    H311511   2.110   2.333   1.327  0.2119 -2.9593  0.0719
  780MPD2     N11512   2.193   2.241   0.882 -0.5792  0.3042 -0.0348
  780MPD2    H511513   2.151   2.234   0.790  1.2745  3.0406 -1.1023
  780MPD2    N111514   1.746   2.231   1.088  0.2707 -0.2170 -0.0472
  780MPD2    H711515   1.699   2.233   1.177 -0.2865  0.5826 -0.3537
  781MPD2     C11516   0.088   4.316  12.110 -0.3104  0.2018 -0.3585
  781MPD2    C111517   0.029   4.195  12.142 -0.0694  0.0692 -0.0716
  781MPD2    C211518   4.694   4.106  12.049 -0.3202 -0.0801 -0.2800
  781MPD2    C311519   4.717   4.140  11.917  0.3047 -0.6051  0.0734
  781MPD2    C411520   0.054   4.257  11.887 -0.0481  0.1212  0.0270
  781MPD2    C511521   0.099   4.347  11.980 -0.4423 -0.2893 -0.0835
  781MPD2     H11522   4.635   4.018  12.073 -0.1273  1.0796  4.5444
  781MPD2    H111523   0.076   4.278  11.783 -0.2130 -0.2233 -0.0765
  781MPD2    H211524   0.133   4.380  12.184 -0.4667 -0.1489  0.0430
  781MPD2    H311525   0.147   4.441  11.954 -0.3711 -0.9729 -2.4185
  781MPD2     N11526   4.681   4.052  11.815  0.0007 -0.8954  0.3605
  781MPD2    H511527   4.693   4.087  11.720 -1.8000 -1.2244 -0.0033
  781MPD2    N111528   0.009   4.171  12.281  0.0758 -0.3227  0.0293
  781MPD2    H711529   0.038   4.245  12.343 -0.3298  0.3073 -0.5247
  782MPD2     C11530   2.943   0.705  10.270 -0.0508  0.8237 -0.9795
  782MPD2    C111531   3.050   0.638  10.318 -0.7162  0.4896  0.3622
  782MPD2    C211532   3.115   0.686  10.432 -0.0515  0.2882 -0.1517
  782MPD2    C311533   3.061   0.781  10.509  0.2216  0.1944 -0.2543
  782MPD2    C411534   2.951   0.850  10.455  0.6001  0.1817  0.2013
  782MPD2    C511535   2.898   0.820  10.331 -0.9737 -0.0545  0.7180
  782MPD2     H11536   3.206   0.648  10.477 -0.0096  1.1800  0.5383
  782MPD2    H111537   2.918   0.941  10.504 -2.0827 -0.8539  0.3560
  782MPD2    H211538   2.879   0.667  10.191  1.7090  0.4097 -2.1913
  782MPD2    H311539   2.818   0.883  10.295  0.0519  0.9096  0.1433
  782MPD2     N11540   3.126   0.828  10.625 -0.3647 -0.0155  0.2801
  782MPD2    H511541   3.219   0.792  10.642 -0.2891 -0.3846 -0.9811
  782MPD2    N111542   3.084   0.513  10.261 -1.4474  0.2224  0.2328
  782MPD2    H711543   3.029   0.471  10.187  2.2205 -3.5587 -0.4233
  783MPD2     C11544   2.918   0.123  10.942  0.1799 -0.2067 -0.3443
  783MPD2    C111545   2.839   0.182  10.841  0.4767  0.6620 -0.3560
  783MPD2    C211546   2.867   0.152  10.706 -0.1115  0.0227 -0.6114
  783MPD2    C311547   2.986   0.087  10.673  0.4687 -0.6817  0.5431
  783MPD2    C411548   3.066   0.031  10.776 -0.3447  0.2241  0.2798
  783MPD2    C511549   3.031   0.052  10.907 -0.1361 -0.3081  0.0960
  783MPD2     H11550   2.799   0.186  10.629 -0.9948  0.4063  0.3515
  783MPD2    H111551   3.158   4.697  10.764  1.1711  2.6682  0.2596
  783MPD2    H211552   2.905   0.140  11.048  0.9097 -1.5996 -0.0220
  783MPD2    H311553   3.094   0.017  10.988  0.3323 -0.9247 -0.5323
  783MPD2     N11554   3.031   0.095  10.534 -0.3554  0.1526 -0.6634
  783MPD2    H511555   2.972   0.144  10.468  0.5893  2.7287  0.4136
  783MPD2    N111556   2.722   0.247  10.889  0.2467  0.2819  0.3084
  783MPD2    H711557   2.711   0.255  10.990  3.1240 -0.4244  0.6686
  784MPD2     C11558   4.336   1.534   0.911 -0.3337 -0.0793  0.9061
  784MPD2    C111559   4.331   1.571   1.044 -0.0684  0.1026 -0.5535
  784MPD2    C211560   4.225   1.650   1.090  0.6826 -0.0844  0.0258
  784MPD2    C311561   4.121   1.673   1.013  0.6225 -0.2159 -0.9919
  784MPD2    C411562   4.125   1.640   0.880  0.3886  0.2836  0.4063
  784MPD2    C511563   4.232   1.573   0.830 -0.3543  0.2471 -0.0684
  784MPD2     H11564   4.238   1.686   1.192 -0.3355  1.0659 -0.2560
  784MPD2    H111565   4.047   1.656   0.806 -0.8262  1.0076  1.8291
  784MPD2    H211566   4.415   1.470   0.875  0.5761  0.5188  1.8711
  784MPD2    H311567   4.232   1.541   0.727 -0.7606 -1.3292  0.4236
  784MPD2     N11568   4.020   1.740   1.078 -0.0310 -0.1388  0.5042
  784MPD2    H511569   4.031   1.759   1.177  0.9946  0.0204  0.3623
  784MPD2    N111570   4.427   1.535   1.139  0.2616 -0.2411  0.5402
  784MPD2    H711571   4.393   1.545   1.234 -0.3663  0.6467  0.2293
  785MPD2     C11572   0.012   3.151  10.833  0.0333  0.0166  0.2725
  785MPD2    C111573   4.607   3.196  10.862 -0.4785  0.9524 -0.0973
  785MPD2    C211574   4.509   3.153  10.771  0.2217  0.0618  0.2827
  785MPD2    C311575   4.539   3.082  10.659 -0.4134 -0.1245 -0.0400
  785MPD2    C411576   4.666   3.046  10.627 -0.4512  0.1693 -0.0292
  785MPD2    C511577   0.041   3.076  10.721 -0.1222 -0.0029 -0.4316
  785MPD2     H11578   4.406   3.186  10.775  0.1166 -0.1516 -0.7180
  785MPD2    H111579   4.691   2.988  10.539 -0.7121  1.8363 -1.2060
  785MPD2    H211580   0.092   3.169  10.904  1.1573  1.7251 -1.4615
  785MPD2    H311581   0.146   3.060  10.698  0.5331  0.2400  2.4079
  785MPD2     N11582   4.427   3.054  10.576  0.2287  0.1986 -0.3037
  785MPD2    H511583   4.338   3.071  10.621 -0.8237 -0.1531 -2.2616
  785MPD2    N111584   4.574   3.274  10.974 -0.5198  0.5275  0.1411
  785MPD2    H711585   4.650   3.315  11.029 -0.1628 -1.4966  1.1605
  786MPD2     C11586   3.587   1.485  15.028 -0.2300 -0.7391  0.2273
  786MPD2    C111587   3.716   1.521  14.989 -0.0169 -0.2138  0.5151
  786MPD2    C211588   3.801   1.584  15.068  1.4307 -0.7153  0.4377
  786MPD2    C311589   3.763   1.606  15.200 -0.3268 -0.5136 -0.8663
  786MPD2    C411590   3.633   1.581  15.242 -0.4613  0.0990  0.5228
  786MPD2    C511591   3.541   1.521  15.154 -0.1841  0.1572 -0.0509
  786MPD2     H11592   3.901   1.609  15.034  0.7730  1.0944 -0.1772
  786MPD2    H111593   3.603   1.618  15.339  2.0526 -0.9661  1.7032
  786MPD2    H211594   3.518   1.432  14.964 -0.9310  0.7354 -0.2189
  786MPD2    H311595   3.436   1.509  15.179  0.4986 -1.1115  2.2144
  786MPD2     N11596   3.852   1.653  15.301 -0.1311 -0.1590  0.2267
  786MPD2    H511597   3.816   1.668  15.395  1.4648 -1.3033  1.0302
  786MPD2    N111598   3.765   1.487  14.858 -0.1927  0.8154 -0.7257
  786MPD2    H711599   3.866   1.484  14.851 -0.0494  0.2532  1.5825
  787MPD2     C11600   4.311   1.323  14.878 -0.6468 -0.4552 -0.3875
  787MPD2    C111601   4.277   1.281  14.749  0.5384  0.5187  0.5862
  787MPD2    C211602   4.372   1.209  14.677 -0.1395 -0.1898  0.2143
  787MPD2    C311603   4.493   1.169  14.741 -0.8829 -0.6457  0.4319
  787MPD2    C411604   4.523   1.213  14.865 -0.2151 -0.3469 -0.7427
  787MPD2    C511605   4.430   1.283  14.939  0.0583 -0.2441  0.3302
  787MPD2     H11606   4.343   1.177  14.577  2.2340  4.0233 -1.8613
  787MPD2    H111607   4.612   1.175  14.914 -0.4573 -1.7550 -1.3801
  787MPD2    H211608   4.238   1.385  14.929  0.9821  0.9996  0.1994
  787MPD2    H311609   4.441   1.318  15.041  0.1312  1.6026 -0.2988
  787MPD2     N11610   4.583   1.079  14.681  0.2629 -0.9334  0.9007
  787MPD2    H511611   4.550   1.049  14.589  1.8973  1.6871 -0.5278
  787MPD2    N111612   4.157   1.335  14.686 -0.0922  0.8496 -0.4014
  787MPD2    H711613   4.108   1.416  14.724  1.1008 -0.3752  3.6683
  788MPD2     C11614   1.286   4.256   0.861  0.3171 -0.7155  0.0691
  788MPD2    C111615   1.189   4.255   0.764 -0.1336  0.8693  1.3048
  788MPD2    C211616   1.141   4.376   0.723  0.0921  0.3710  0.4457
  788MPD2    C311617   1.184   4.496   0.780 -0.2799 -0.0620 -0.2469
  788MPD2    C411618   1.289   4.497   0.870 -0.7614 -0.1023 -0.0582
  788MPD2    C511619   1.341   4.377   0.903 -0.3401 -0.0577  0.5603
  788MPD2     H11620   1.063   4.378   0.647  0.8520 -3.3341 -0.4435
  788MPD2    H111621   1.332   4.585   0.916  0.3925  0.1190 -1.5623
  788MPD2    H211622   1.334   4.161   0.881 -0.6245 -1.4304 -1.0767
  788MPD2    H311623   1.424   4.370   0.972  0.3137  2.3757  0.0298
  788MPD2     N11624   1.117   4.616   0.740 -0.0129 -0.4905  0.3080
  788MPD2    H511625   1.150   4.705   0.775  0.2606 -0.8271  0.9087
  788MPD2    N111626   1.130   4.144   0.695  0.4500 -0.6523 -0.1293
  788MPD2    H711627   1.063   4.159   0.620  0.4259  1.7987  0.3988
  789MPD2     C11628   1.438   4.506  16.583 -0.1234 -0.1551  0.0966
  789MPD2    C111629   1.371   4.388  16.566 -0.1510 -0.2784 -1.3002
  789MPD2    C211630   1.234   4.395  16.564  0.5565 -0.0759 -0.1644
  789MPD2    C311631   1.164   4.512  16.578  0.0488 -0.6254  0.1683
  789MPD2    C411632   1.231   4.627  16.601 -0.0424  0.5513  0.0306
  789MPD2    C511633   1.371   4.619  16.612 -0.3264 -0.0629 -1.0114
  789MPD2     H11634   1.181   4.301  16.555  1.6703 -0.9646  2.5274
  789MPD2    H111635   1.181   0.001  16.603  0.0639  0.6242 -1.0105
  789MPD2    H211636   1.546   4.503  16.582 -0.1154  0.6877 -1.2741
  789MPD2    H311637   1.434   4.706  16.630  0.2728 -0.7118  0.0507
  789MPD2     N11638   1.024   4.522  16.563  0.2624  0.2323  0.5944
  789MPD2    H511639   0.987   4.612  16.593 -1.5445  0.5976 -2.7834
  789MPD2    N111640   1.430   4.259  16.555 -0.1458 -0.2668 -0.2594
  789MPD2    H711641   1.372   4.178  16.536 -1.5828  0.5387  0.7091
  790MPD2     C11642   2.259   1.315  13.525 -0.2094 -0.6147 -0.0014
  790MPD2    C111643   2.312   1.189  13.492 -0.7271 -0.2730 -0.1819
  790MPD2    C211644   2.317   1.151  13.354 -0.2811 -0.0484  0.2634
  790MPD2    C311645   2.276   1.238  13.253 -0.6631  0.1781  0.0533
  790MPD2    C411646   2.215   1.356  13.291  0.2352 -0.0422 -0.8414
  790MPD2    C511647   2.218   1.397  13.425  0.5021 -0.4138  0.5878
  790MPD2     H11648   2.357   1.057  13.318 -0.7766 -0.3050  0.3801
  790MPD2    H111649   2.162   1.416  13.218 -0.5469 -1.1295 -1.1624
  790MPD2    H211650   2.239   1.344  13.627  0.2795  0.5938 -0.2453
  790MPD2    H311651   2.165   1.488  13.453  0.8966 -0.0574  0.1796
  790MPD2     N11652   2.274   1.193  13.119  0.0703 -0.6784 -0.2831
  790MPD2    H511653   2.304   1.099  13.096  2.2456 -0.1761  0.4792
  790MPD2    N111654   2.352   1.104  13.599 -0.1557 -0.7192  0.1336
  790MPD2    H711655   2.323   1.127  13.693 -0.9981 -1.4602  0.0481
  791MPD2     C11656   1.756   1.456  12.664 -0.1602  0.1196  0.2411
  791MPD2    C111657   1.788   1.326  12.629 -0.0372  0.5559  0.4056
  791MPD2    C211658   1.689   1.250  12.564 -0.1717 -0.1327  0.1650
  791MPD2    C311659   1.576   1.314  12.520 -0.5733 -0.7890  0.6831
  791MPD2    C411660   1.557   1.449  12.551 -0.4410 -1.2244 -0.5943
  791MPD2    C511661   1.647   1.519  12.622 -0.4603  0.2041  0.2604
  791MPD2     H11662   1.709   1.148  12.532 -0.8791  0.1618 -1.2385
  791MPD2    H111663   1.482   1.510  12.501 -0.9209 -0.0496  1.5967
  791MPD2    H211664   1.826   1.512  12.725 -0.9978  0.9011  0.4864
  791MPD2    H311665   1.625   1.624  12.639  1.8862  0.8981 -0.9353
  791MPD2     N11666   1.487   1.234  12.442 -0.0091  0.2854 -0.3465
  791MPD2    H511667   1.511   1.135  12.449  1.7982  0.7953  0.6636
  791MPD2    N111668   1.915   1.278  12.677  0.1298  0.1897 -0.2545
  791MPD2    H711669   1.965   1.340  12.741 -1.1967 -0.8331  1.7706
  792MPD2     C11670   2.328   1.761  11.211 -0.2622 -0.0569 -0.3118
  792MPD2    C111671   2.431   1.668  11.221 -0.0736 -0.9369 -0.2776
  792MPD2    C211672   2.396   1.538  11.206 -0.3751  0.9796  0.3439
  792MPD2    C311673   2.265   1.495  11.188 -0.3008 -0.2844  0.0330
  792MPD2    C411674   2.165   1.589  11.195 -0.1168 -0.2348  0.1860
  792MPD2    C511675   2.202   1.720  11.198  0.9299  0.0201  0.3890
  792MPD2     H11676   2.467   1.457  11.195 -1.0389  0.3089  0.9829
  792MPD2    H111677   2.062   1.557  11.204  0.1816 -1.8718 -2.0634
  792MPD2    H211678   2.348   1.866  11.197  3.7478 -1.1778 -3.1383
  792MPD2    H311679   2.128   1.798  11.188 -0.8068 -1.9421 -1.8546
  792MPD2     N11680   2.238   1.356  11.171 -0.9337 -0.3620 -0.6010
  792MPD2    H511681   2.308   1.289  11.201 -0.7697  1.0946  2.3105
  792MPD2    N111682   2.565   1.713  11.217  0.3240 -0.2782 -0.1285
  792MPD2    H711683   2.576   1.811  11.193  2.6262 -0.5408 -0.1443
  793MPD2     C11684   1.895   0.957  10.332 -1.0168 -0.2226  0.2011
  793MPD2    C111685   2.027   0.944  10.373  0.2230 -0.0531 -0.0479
  793MPD2    C211686   2.054   0.946  10.506 -0.1620  0.2307 -0.3278
  793MPD2    C311687   1.953   0.951  10.601 -0.5725 -0.2214 -0.1548
  793MPD2    C411688   1.818   0.967  10.560  0.5669  0.3617  0.1320
  793MPD2    C511689   1.789   0.971  10.425  0.9567 -0.3977  0.2308
  793MPD2     H11690   2.156   0.940  10.542  0.0089 -0.8456 -1.0100
  793MPD2    H111691   1.738   0.993  10.629  0.8239  0.8730  0.2424
  793MPD2    H211692   1.864   0.951  10.229  1.8761  0.8316 -0.7374
  793MPD2    H311693   1.689   0.986  10.385  0.6945  0.3556  1.1765
  793MPD2     N11694   1.972   0.960  10.744  0.0489  0.1491  0.3048
  793MPD2    H511695   1.892   1.001  10.791 -0.4151 -0.4711  0.0482
  793MPD2    N111696   2.143   0.914  10.286  0.2398  0.0005 -0.0857
  793MPD2    H711697   2.232   0.922  10.334 -0.5124  0.6048  1.2006
  794MPD2     C11698   1.601   0.578  16.898 -0.0752  0.2290  0.6781
  794MPD2    C111699   1.727   0.611  16.851 -0.1658  0.4839  0.4075
  794MPD2    C211700   1.739   0.710  16.763 -0.3731 -0.2098  1.3224
  794MPD2    C311701   1.628   0.777  16.713  0.5528 -0.0213  0.6263
  794MPD2    C411702   1.506   0.750  16.766 -0.1712  0.2063 -0.0431
  794MPD2    C511703   1.490   0.646  16.858 -0.3783 -0.0516 -0.5897
  794MPD2     H11704   1.838   0.727  16.724 -0.7087 -1.2645  0.0015
  794MPD2    H111705   1.418   0.807  16.738 -0.1414 -0.3182 -1.1944
  794MPD2    H211706   1.588   0.488  16.956 -0.3660 -0.6564 -0.7620
  794MPD2    H311707   1.393   0.625  16.902 -0.7479  0.6602 -1.0675
  794MPD2     N11708   1.642   0.882  16.618  0.2125  0.0273 -0.0961
  794MPD2    H511709   1.556   0.935  16.604 -0.2825 -0.6749  0.2756
  794MPD2    N111710   1.841   0.536  16.889 -0.4710 -0.1997 -0.3376
  794MPD2    H711711   1.935   0.572  16.874 -0.9323  0.7902 -0.8131
  795MPD2     C11712   4.241   2.859  13.546  0.8891  0.5683 -0.1521
  795MPD2    C111713   4.173   2.765  13.617 -0.0723  0.8595 -0.3197
  795MPD2    C211714   4.243   2.671  13.684 -0.1309  0.0886 -0.2377
  795MPD2    C311715   4.376   2.676  13.699  0.3333 -0.0424  0.4009
  795MPD2    C411716   4.446   2.770  13.627  0.3200  0.5521  0.4990
  795MPD2    C511717   4.379   2.860  13.552  0.5835 -0.5771  0.3291
  795MPD2     H11718   4.187   2.598  13.742  0.8367  0.2412  0.8738
  795MPD2    H111719   4.552   2.786  13.640  1.2029 -3.7115 -1.3791
  795MPD2    H211720   4.188   2.935  13.490  0.0280 -1.2115 -1.7500
  795MPD2    H311721   4.440   2.924  13.489 -1.4306  1.4808  0.4757
  795MPD2     N11722   4.436   2.591  13.783 -0.4778  0.0072 -0.2771
  795MPD2    H511723   4.381   2.515  13.823 -1.7644 -0.5302 -3.0329
  795MPD2    N111724   4.035   2.751  13.606 -0.1830 -0.1234  0.0327
  795MPD2    H711725   3.984   2.691  13.671 -0.2489  0.3876  0.4567
  796MPD2     C11726   4.216   4.271  15.925 -0.2864 -0.2166  0.2007
  796MPD2    C111727   4.308   4.317  16.019  0.0716  0.4386 -0.5055
  796MPD2    C211728   4.298   4.451  16.059  0.5084  0.3124  0.1925
  796MPD2    C311729   4.204   4.538  16.004 -0.6265 -0.2286  0.4412
  796MPD2    C411730   4.114   4.482  15.918 -0.2948 -0.1222 -0.2222
  796MPD2    C511731   4.123   4.355  15.874 -0.4895 -0.5142 -0.0168
  796MPD2     H11732   4.357   4.487  16.142  2.2238 -1.3955 -0.2917
  796MPD2    H111733   4.040   4.542  15.866 -0.3329 -1.3770 -1.6227
  796MPD2    H211734   4.214   4.164  15.908 -0.4525 -0.2498  0.4233
  796MPD2    H311735   4.055   4.308  15.804 -0.3259 -0.7454 -0.0179
  796MPD2     N11736   4.199   4.668  16.051  0.7378 -0.0527 -0.3502
  796MPD2    H511737   4.263   4.690  16.127  1.7156  0.0979 -1.2134
  796MPD2    N111738   4.397   4.228  16.089  0.7650 -0.0030 -0.2794
  796MPD2    H711739   4.408   4.135  16.048 -1.0379  0.0647 -0.9064
  797MPD2     C11740   0.699   3.575  16.944 -0.0341  0.2951 -0.3956
  797MPD2    C111741   0.718   3.647  17.064  0.6725  0.4294  0.0709
  797MPD2    C211742   0.610   3.644  17.148  0.3018  0.0766  0.0017
  797MPD2    C311743   0.484   3.605  17.104 -0.1439  0.0831  0.1477
  797MPD2    C411744   0.474   3.535  16.988  0.7466 -0.2156 -0.1974
  797MPD2    C511745   0.577   3.518  16.906  0.0913  0.2688 -0.3888
  797MPD2     H11746   0.629   3.684  17.248 -0.3797  0.3686  0.0143
  797MPD2    H111747   0.376   3.496  16.962 -0.5467  2.4752  0.6788
  797MPD2    H211748   0.788   3.567  16.883  0.6222 -0.4974  0.6523
  797MPD2    H311749   0.573   3.465  16.811 -1.4115  1.8269 -1.2003
  797MPD2     N11750   0.368   3.628  17.179 -0.0068  0.0060 -0.3637
  797MPD2    H511751   0.287   3.583  17.138 -0.6998  0.0737  0.9466
  797MPD2    N111752   0.838   3.706  17.099 -0.3998 -0.3241 -0.1923
  797MPD2    H711753   0.829   3.776  17.173  0.9667 -0.9885  0.5910
  798MPD2     C11754   0.497   4.267  17.408 -0.0849  0.6264  0.5636
  798MPD2    C111755   0.489   4.128  17.397  0.6349 -0.4251  0.1176
  798MPD2    C211756   0.607   4.060  17.379  0.2969  0.0883 -0.2225
  798MPD2    C311757   0.732   4.122  17.358  0.5185  0.2163  0.1735
  798MPD2    C411758   0.739   4.258  17.382  0.2960 -0.5350  0.1570
  798MPD2    C511759   0.621   4.335  17.407  0.4926 -0.5417 -0.5996
  798MPD2     H11760   0.595   3.954  17.365 -0.6007  0.2466 -0.6201
  798MPD2    H111761   0.832   4.310  17.365 -1.1004  1.9756  0.1200
  798MPD2    H211762   0.411   4.331  17.425 -0.7893 -0.8713  2.6441
  798MPD2    H311763   0.631   4.441  17.427  1.6051 -1.2485  2.5101
  798MPD2     N11764   0.845   4.044  17.318  0.1792 -0.1788 -0.3759
  798MPD2    H511765   0.835   3.943  17.327 -1.8817  0.0145 -0.3908
  798MPD2    N111766   0.377   4.046  17.406  0.1125  0.1101  0.1704
  798MPD2    H711767   0.392   3.946  17.419  1.1820  0.2286 -0.1582
  799MPD2     C11768   4.189   0.732  14.799 -0.9004  0.0227  0.4664
  799MPD2    C111769   4.099   0.658  14.721  0.8284  0.0052  0.0258
  799MPD2    C211770   4.042   0.722  14.605  0.4864 -0.3523 -0.5196
  799MPD2    C311771   4.084   0.848  14.568  0.8023 -0.2489  0.6230
  799MPD2    C411772   4.162   0.923  14.659 -0.8204  0.0588 -0.3799
  799MPD2    C511773   4.208   0.866  14.772 -0.2827  0.9806 -0.6390
  799MPD2     H11774   3.970   0.665  14.547 -0.0128  1.8342 -2.0250
  799MPD2    H111775   4.200   1.021  14.633 -0.4152  0.0870  0.3250
  799MPD2    H211776   4.236   0.681  14.883 -0.8809  0.7688  0.9051
  799MPD2    H311777   4.266   0.926  14.841 -0.2385  0.4432 -0.2038
  799MPD2     N11778   4.021   0.927  14.466  0.5010 -0.3368 -0.9463
  799MPD2    H511779   4.057   1.017  14.436  0.1094  1.6091  4.3585
  799MPD2    N111780   4.077   0.520  14.740  0.4535 -0.2553 -0.3055
  799MPD2    H711781   4.006   0.471  14.686 -1.1176  2.3329 -0.5968
  800MPD2     C11782   4.274   1.735  14.022 -0.1008 -0.2903 -0.4803
  800MPD2    C111783   4.372   1.721  13.930 -0.0116  0.2167 -0.0959
  800MPD2    C211784   4.346   1.698  13.797 -0.0031  0.9541  0.3244
  800MPD2    C311785   4.219   1.685  13.752 -0.1816  0.6766 -0.2272
  800MPD2    C411786   4.120   1.698  13.850  0.2413 -0.3759  0.2230
  800MPD2    C511787   4.147   1.717  13.984  0.1263 -0.3590  0.1479
  800MPD2     H11788   4.419   1.666  13.723 -0.6869  0.1705 -0.0190
  800MPD2    H111789   4.018   1.679  13.819  0.4271  1.8248 -1.7850
  800MPD2    H211790   4.283   1.761  14.127  0.8445  0.5861 -0.7727
  800MPD2    H311791   4.064   1.738  14.052 -1.1184 -0.7637 -1.2602
  800MPD2     N11792   4.196   1.672  13.617  0.0902 -0.7281  0.0444
  800MPD2    H511793   4.278   1.659  13.559  0.0295 -0.3721 -0.1140
  800MPD2    N111794   4.501   1.749  13.979  0.1964 -0.0200  0.4441
  800MPD2    H711795   4.514   1.777  14.076  1.2435 -0.4652  0.4387
  801MPD2     C11796   0.006   2.359  14.287 -0.6280 -0.2239  1.1050
  801MPD2    C111797   4.650   2.250  14.311  0.3847 -0.1028  0.5493
  801MPD2    C211798   4.545   2.244  14.397  0.1826 -0.0273  0.0060
  801MPD2    C311799   4.537   2.350  14.482 -0.1520 -0.1440 -0.6456
  801MPD2    C411800   4.626   2.467  14.469  0.0615 -0.2787 -0.3701
  801MPD2    C511801   4.719   2.466  14.366  0.2301 -0.0737  0.4343
  801MPD2     H11802   4.487   2.153  14.401 -0.9029  0.7389  1.5787
  801MPD2    H111803   4.618   2.549  14.541  2.7106  2.3742 -3.1114
  801MPD2    H211804   0.073   2.368  14.202 -2.2140 -1.8611 -0.3124
  801MPD2    H311805   0.056   2.556  14.357 -0.1275  0.0775 -0.3635
  801MPD2     N11806   4.460   2.327  14.598 -0.8193  0.2948 -0.8712
  801MPD2    H511807   4.410   2.238  14.600  1.4625 -0.9849 -0.4653
  801MPD2    N111808   4.687   2.131  14.240 -0.0349 -0.1016  0.6592
  801MPD2    H711809   4.620   2.054  14.246  0.4666 -0.5126  0.9357
  802MPD2     C11810   3.472   2.522  17.333  0.6847 -0.2286 -0.1024
  802MPD2    C111811   3.537   2.538  17.454  0.1583  0.0326  0.0531
  802MPD2    C211812   3.674   2.511  17.467  0.9341 -0.2947  1.1483
  802MPD2    C311813   3.746   2.472  17.360 -0.6827 -0.2506  0.2190
  802MPD2    C411814   3.680   2.446  17.236  0.1926 -0.3621  0.0996
  802MPD2    C511815   3.543   2.472  17.231  0.2940  0.3867 -0.4368
  802MPD2     H11816   3.728   2.537  17.557  1.0814 -0.3783  1.0829
  802MPD2    H111817   3.732   2.409  17.149 -1.5994 -1.2760 -0.5790
  802MPD2    H211818   3.365   2.520  17.316  0.5282 -0.9455  0.9628
  802MPD2    H311819   3.497   2.462  17.134 -1.5211  0.5530  0.4099
  802MPD2     N11820   3.889   2.468  17.368  0.4630 -0.1882  0.2340
  802MPD2    H511821   3.925   2.507  17.454 -1.3650 -1.6663  1.6729
  802MPD2    N111822   3.468   2.604  17.565 -0.3128  0.0009  0.2264
  802MPD2    H711823   3.532   2.619  17.641 -1.5461  0.7553  1.1061
  803MPD2     C11824   0.919   1.933  11.967 -0.2476  0.0590  0.0734
  803MPD2    C111825   0.882   1.938  12.100  0.3093 -0.5126  0.2245
  803MPD2    C211826   0.755   1.888  12.134 -0.8148  0.2811  0.1919
  803MPD2    C311827   0.662   1.849  12.038  0.0379 -0.0320  0.0376
  803MPD2    C411828   0.701   1.847  11.906  0.4401 -0.1153 -0.9214
  803MPD2    C511829   0.830   1.885  11.873 -0.4051  0.7730 -0.2349
  803MPD2     H11830   0.722   1.890  12.237  0.3810 -1.4541  0.5906
  803MPD2    H111831   0.634   1.816  11.827  1.5094 -0.4524 -1.6905
  803MPD2    H211832   1.013   1.969  11.926  0.7749 -0.4384  1.9426
  803MPD2    H311833   0.851   1.885  11.767 -0.7164 -1.4258 -0.3033
  803MPD2     N11834   0.532   1.800  12.062  0.5841  0.0088 -0.3785
  803MPD2    H511835   0.495   1.750  11.982  0.7943  0.6195 -0.8566
  803MPD2    N111836   0.971   1.979  12.203 -0.3517 -0.4974 -0.1998
  803MPD2    H711837   0.933   1.998  12.295  0.3827 -0.8726  0.1788
  804MPD2     C11838   4.687   2.561  17.071  0.1775  0.3880  0.2434
  804MPD2    C111839   4.698   2.493  17.189  0.0897  0.2272  0.2716
  804MPD2    C211840   0.078   2.530  17.279  0.1146 -0.1560  0.1427
  804MPD2    C311841   0.156   2.642  17.257 -0.1569  0.4908 -0.3068
  804MPD2    C411842   0.143   2.711  17.138 -0.3481 -0.0748 -0.5564
  804MPD2    C511843   0.052   2.663  17.050  0.4747 -0.4600  0.3873
  804MPD2     H11844   0.092   2.471  17.368 -3.4553 -0.0601  0.7395
  804MPD2    H111845   0.198   2.801  17.113  0.4048  0.1409  1.8939
  804MPD2    H211846   4.619   2.539  16.990  1.2608  1.5823 -0.9806
  804MPD2    H311847   0.056   2.712  16.954  2.1976 -0.2358  0.5687
  804MPD2     N11848   0.231   2.701  17.357 -0.2957 -0.1010 -1.0566
  804MPD2    H511849   0.283   2.784  17.328  1.5730 -0.9625 -0.1136
  804MPD2    N111850   4.628   2.375  17.214 -0.7617  0.2688  0.7369
  804MPD2    H711851   4.648   2.330  17.303  0.9506  2.6538  1.5888
  805MPD2     C11852   3.787   0.827  15.642 -0.4713 -0.6534 -0.3055
  805MPD2    C111853   3.884   0.885  15.557  0.6364 -0.5430 -0.2113
  805MPD2    C211854   4.005   0.921  15.617  0.3014  0.3107 -0.0864
  805MPD2    C311855   4.045   0.899  15.750 -0.1468 -0.5160  0.0791
  805MPD2    C411856   3.950   0.834  15.829  0.7132 -0.7614  0.0914
  805MPD2    C511857   3.825   0.809  15.778  0.1304 -0.6480 -0.0978
  805MPD2     H11858   4.079   0.969  15.553  1.4352  0.2571  1.1924
  805MPD2    H111859   3.958   0.809  15.935  1.4659 -0.0464  0.2025
  805MPD2    H211860   3.693   0.796  15.600 -1.7692  2.5530  0.2121
  805MPD2    H311861   3.756   0.747  15.833 -1.8300  0.9432 -0.7451
  805MPD2     N11862   4.169   0.939  15.797  0.2086 -0.2804 -0.1591
  805MPD2    H511863   4.229   1.001  15.743  2.9638 -1.3984  1.6348
  805MPD2    N111864   3.866   0.889  15.417  0.4156 -0.2149 -0.2831
  805MPD2    H711865   3.947   0.913  15.361  0.2632  0.9048 -0.0153
  806MPD2     C11866   0.074   0.988   0.712  0.0751 -0.7488 -0.1501
  806MPD2    C111867   0.000   1.042   0.816  0.1629 -0.2384 -0.4150
  806MPD2    C211868   4.707   1.178   0.828 -0.1784 -0.2342  0.0999
  806MPD2    C311869   0.003   1.252   0.718  0.4158  1.5861 -0.1367
  806MPD2    C411870   0.057   1.199   0.607 -0.2276  0.2467  0.4322
  806MPD2    C511871   0.103   1.072   0.604  0.0521  0.0143  0.0794
  806MPD2     H11872   4.669   1.229   0.915 -1.3611  0.6844 -0.9481
  806MPD2    H111873   0.099   1.255   0.524 -0.4408  0.4966  0.4913
  806MPD2    H211874   0.109   0.886   0.715  2.7108  0.1213 -0.7178
  806MPD2    H311875   0.171   1.034   0.529  2.8172  1.5466  1.8097
  806MPD2     N11876   4.699   1.392   0.734 -0.1945  0.0106  0.4142
  806MPD2    H511877   4.675   1.426   0.826 -0.2258 -0.4023  0.5596
  806MPD2    N111878   4.696   0.953   0.920 -0.0659  0.2753  0.4202
  806MPD2    H711879   0.015   0.861   0.915  1.1556  0.7077  3.1894
  807MPD2     C11880   4.181   0.579   1.501 -0.1222 -0.3285 -0.1717
  807MPD2    C111881   4.312   0.537   1.505 -0.2324  0.5156 -0.1609
  807MPD2    C211882   4.351   0.438   1.591 -0.3702  0.2426 -0.4090
  807MPD2    C311883   4.256   0.380   1.677 -0.1276  0.0480 -0.0972
  807MPD2    C411884   4.127   0.429   1.674  0.4205 -0.1894 -0.0187
  807MPD2    C511885   4.091   0.526   1.585 -0.1263 -0.0444  0.5617
  807MPD2     H11886   4.456   0.413   1.597 -0.7571 -1.0643  1.1069
  807MPD2    H111887   4.052   0.400   1.747 -1.2172  1.3895 -1.0752
  807MPD2    H211888   4.150   0.653   1.428 -0.2985 -1.7762 -1.5439
  807MPD2    H311889   3.994   0.573   1.590 -0.6133 -0.9682 -0.2279
  807MPD2     N11890   4.300   0.275   1.755  0.1500  0.0205 -0.3228
  807MPD2    H511891   4.397   0.248   1.758 -1.2156 -4.9261 -1.0905
  807MPD2    N111892   4.405   0.586   1.412 -0.6840 -0.0788  0.2289
  807MPD2    H711893   4.494   0.537   1.409 -0.9411 -0.5157 -0.1453
  808MPD2     C11894   4.640   1.717   9.178 -0.2984  0.1258  1.0253
  808MPD2    C111895   4.696   1.737   9.299 -0.5454 -0.2256 -0.0980
  808MPD2    C211896   0.065   1.838   9.313  0.7367 -0.0103  1.1837
  808MPD2    C311897   0.098   1.927   9.212  0.1946 -0.2968 -0.4316
  808MPD2    C411898   0.037   1.901   9.091  0.4366 -0.0183  0.7665
  808MPD2    C511899   4.659   1.807   9.073 -0.0196 -0.3412  0.2458
  808MPD2     H11900   0.118   1.834   9.408  0.9511  0.9266  1.1028
  808MPD2    H111901   0.067   1.955   9.002 -1.0205  0.6506  0.6790
  808MPD2    H211902   4.557   1.648   9.165  2.8608 -3.8895  2.1640
  808MPD2    H311903   4.618   1.801   8.973  1.1575 -0.2597 -0.2409
  808MPD2     N11904   0.216   2.010   9.216 -0.5181  0.4674 -0.4520
  808MPD2    H511905   0.247   2.059   9.133 -1.6632  0.0223 -1.1514
  808MPD2    N111906   4.671   1.664   9.416  0.5846  0.3116  0.1564
  808MPD2    H711907   4.708   1.704   9.502  1.7263 -0.3617 -0.0162
  809MPD2     C11908   0.584   1.407   9.153  0.5903 -0.3941  0.2130
  809MPD2    C111909   0.620   1.472   9.269 -0.4435  0.6190 -0.3406
  809MPD2    C211910   0.623   1.610   9.270  0.3542  0.2232 -0.7319
  809MPD2    C311911   0.609   1.676   9.145  0.0732 -0.0067  0.0277
  809MPD2    C411912   0.573   1.617   9.026 -0.0558  0.3723  0.3663
  809MPD2    C511913   0.568   1.477   9.031 -0.3078  0.8528 -0.0499
  809MPD2     H11914   0.636   1.661   9.365  1.2806 -1.2769 -0.0662
  809MPD2    H111915   0.558   1.676   8.936 -2.2475 -2.6644 -1.2673
  809MPD2    H211916   0.570   1.300   9.145 -1.6881 -0.1527  1.0375
  809MPD2    H311917   0.553   1.418   8.942 -1.6344 -0.0219  0.7532
  809MPD2     N11918   0.632   1.814   9.144 -0.0623  0.7873  0.3469
  809MPD2    H511919   0.617   1.872   9.062 -2.1192 -0.0789  0.1067
  809MPD2    N111920   0.642   1.399   9.386 -0.1177 -0.2275 -0.4916
  809MPD2    H711921   0.664   1.457   9.467  1.6146 -1.6729  0.0863
  810MPD2     C11922   0.065   1.498  10.050 -0.1332 -0.4923  0.0675
  810MPD2    C111923   0.019   1.441  10.167 -0.5407  0.0325 -0.6366
  810MPD2    C211924   0.047   1.496  10.290 -0.0646  0.5556 -0.3435
  810MPD2    C311925   0.107   1.621  10.295 -0.0234 -0.5043  0.3103
  810MPD2    C411926   0.147   1.675  10.177  0.5667  0.7091 -0.3404
  810MPD2    C511927   0.131   1.613  10.059  0.1792  0.0787 -0.1920
  810MPD2     H11928   0.007   1.449  10.379  0.8970 -0.3953 -0.4154
  810MPD2    H111929   0.199   1.770  10.173  1.5750  0.1284 -1.0612
  810MPD2    H211930   0.034   1.456   9.955  0.3319 -0.2373 -0.1942
  810MPD2    H311931   0.169   1.660   9.969  1.2545 -0.7868 -0.1930
  810MPD2     N11932   0.123   1.693  10.416  0.8196 -0.2034  0.7437
  810MPD2    H511933   0.182   1.776  10.414 -1.0492  1.1500  1.4842
  810MPD2    N111934   4.655   1.327  10.148  0.7005  0.0644  0.2904
  810MPD2    H711935   4.637   1.300  10.052 -0.9909 -2.7408  1.4205
  811MPD2     C11936   4.104   1.266   9.761  0.6276  0.1288  0.0795
  811MPD2    C111937   4.149   1.352   9.856 -0.6203  0.1898 -0.1368
  811MPD2    C211938   4.134   1.488   9.837 -0.1903  0.3987  0.1027
  811MPD2    C311939   4.075   1.526   9.718 -0.0099  0.1464  0.5256
  811MPD2    C411940   4.038   1.441   9.618 -0.2872 -0.1841 -0.8800
  811MPD2    C511941   4.062   1.308   9.637  0.1704  0.0958 -0.3294
  811MPD2     H11942   4.165   1.555   9.916 -0.3603 -0.7806  1.1679
  811MPD2    H111943   3.973   1.467   9.535  0.4082  1.1968 -1.0024
  811MPD2    H211944   4.105   1.158   9.769 -0.8891  0.1241  0.3157
  811MPD2    H311945   4.012   1.235   9.575 -0.0638 -1.7787  2.0909
  811MPD2     N11946   4.050   1.667   9.713  0.1897 -0.4603  0.2361
  811MPD2    H511947   4.070   1.715   9.800  2.6088 -0.4967 -0.2988
  811MPD2    N111948   4.207   1.306   9.974 -0.2919  0.1912 -0.5743
  811MPD2    H711949   4.264   1.370  10.027  0.0290 -0.0687 -0.6055
  812MPD2     C11950   3.577   0.959  12.149  0.0975 -1.0473 -0.2878
  812MPD2    C111951   3.462   1.003  12.205  0.5064 -0.4644  0.1191
  812MPD2    C211952   3.410   0.948  12.322 -0.9512  0.1064 -0.0364
  812MPD2    C311953   3.459   0.827  12.368  0.0924  0.1975 -0.0744
  812MPD2    C411954   3.573   0.778  12.308 -1.0380  0.6164 -0.0303
  812MPD2    C511955   3.635   0.849  12.205 -0.1176  0.4760  0.2501
  812MPD2     H11956   3.315   0.983  12.358 -1.2093 -0.7863  0.1417
  812MPD2    H111957   3.621   0.686  12.339 -1.1752  0.6225  0.1990
  812MPD2    H211958   3.625   1.012  12.068 -0.4374  0.0585  0.1222
  812MPD2    H311959   3.738   0.825  12.183  0.5382  2.4627  1.1251
  812MPD2     N11960   3.401   0.768  12.486 -0.3332 -0.3326  0.2560
  812MPD2    H511961   3.323   0.815  12.530  0.0981  1.1814 -0.6231
  812MPD2    N111962   3.408   1.118  12.147 -0.0433 -0.5018 -0.2018
  812MPD2    H711963   3.445   1.150  12.058  0.1547 -3.8542 -1.3227
  813MPD2     C11964   1.985   2.701  12.870  0.3375  0.6301  0.2308
  813MPD2    C111965   1.980   2.830  12.816 -0.5421  0.2419 -0.2875
  813MPD2    C211966   1.914   2.930  12.880  0.6088 -0.3657 -0.1424
  813MPD2    C311967   1.859   2.907  13.004  0.1907 -0.2848  0.1168
  813MPD2    C411968   1.864   2.782  13.056  0.0091  0.7043  0.3544
  813MPD2    C511969   1.912   2.674  12.984  0.0994  0.1892 -0.0274
  813MPD2     H11970   1.921   3.035  12.851  0.1490 -0.3016 -0.0229
  813MPD2    H111971   1.825   2.763  13.156  0.1931 -0.3668  0.2236
  813MPD2    H211972   2.043   2.624  12.821 -0.7345 -1.2285  1.9382
  813MPD2    H311973   1.905   2.580  13.037  0.4033 -0.5940 -1.3657
  813MPD2     N11974   1.795   3.013  13.069  0.7730 -0.7077  0.1443
  813MPD2    H511975   1.790   3.099  13.015 -2.8069 -1.2294 -0.3650
  813MPD2    N111976   2.056   2.844  12.691  0.3265  0.7282 -0.5283
  813MPD2    H711977   2.122   2.768  12.679 -0.4188 -0.0205  0.0942
  814MPD2     C11978   3.018   4.341  12.405  1.3637 -0.6924  0.2865
  814MPD2    C111979   3.033   4.394  12.278  0.0996 -0.6492  0.2916
  814MPD2    C211980   3.127   4.494  12.266 -0.0576  0.0036  1.0827
  814MPD2    C311981   3.216   4.531  12.368 -0.8104  0.4339  0.2085
  814MPD2    C411982   3.198   4.466  12.490 -0.0351  0.4842 -0.0750
  814MPD2    C511983   3.098   4.376  12.506 -0.1570  0.3197 -0.7066
  814MPD2     H11984   3.148   4.541  12.171  2.9462 -0.6216  1.4187
  814MPD2    H111985   3.271   4.477  12.569  0.5414 -0.2244 -0.5060
  814MPD2    H211986   2.939   4.267  12.402 -0.2523  1.0625 -0.8717
  814MPD2    H311987   3.079   4.317  12.595 -0.9682  0.7912 -0.5687
  814MPD2     N11988   3.316   4.628  12.354  0.1108  0.4836  0.3152
  814MPD2    H511989   3.358   4.652  12.443 -0.4048  2.0262  0.1340
  814MPD2    N111990   2.945   4.383  12.169  0.1138  0.0485 -0.6594
  814MPD2    H711991   2.971   4.435  12.086  1.2650  0.5272  0.0113
  815MPD2     C11992   3.152   3.343  11.655 -0.0202  0.5375  0.1255
  815MPD2    C111993   3.162   3.207  11.658  0.6046  0.0805 -0.9323
  815MPD2    C211994   3.049   3.141  11.710  0.5917 -0.0340 -0.0378
  815MPD2    C311995   2.938   3.203  11.755  0.1260 -0.5070  0.4461
  815MPD2    C411996   2.930   3.339  11.753 -0.7678  0.1312  0.0260
  815MPD2    C511997   3.040   3.413  11.702  0.2381  0.0356 -0.0444
  815MPD2     H11998   3.042   3.033  11.713  0.4243 -0.0151  0.3310
  815MPD2    H111999   2.845   3.390  11.797 -0.6474 -1.1710  1.7727
  815MPD2    H212000   3.229   3.415  11.631 -2.2122  2.9466  0.2912
  815MPD2    H312001   3.033   3.522  11.700  1.2044  0.1176  1.1228
  815MPD2     N12002   2.831   3.122  11.800  0.9636 -0.3737  0.2935
  815MPD2    H512003   2.853   3.023  11.809  0.8960 -0.2156  2.3241
  815MPD2    N112004   3.279   3.143  11.602 -0.0706 -0.2376  0.1006
  815MPD2    H712005   3.343   3.192  11.540 -2.0225 -0.6521 -2.2505
  816MPD2     C12006   2.638   2.296  17.087 -0.3242 -0.1663 -0.9320
  816MPD2    C112007   2.744   2.327  17.160 -0.0561  0.7938 -0.2257
  816MPD2    C212008   2.870   2.278  17.123  0.4366  0.3267  1.0303
  816MPD2    C312009   2.884   2.194  17.011 -0.2635 -0.3801 -0.5335
  816MPD2    C412010   2.769   2.149  16.955 -0.1063 -0.2736  0.4056
  816MPD2    C512011   2.642   2.200  16.988  0.4268 -0.4747  0.4175
  816MPD2     H12012   2.957   2.305  17.182 -0.2839  1.7078  1.4422
  816MPD2    H112013   2.758   2.080  16.872  1.7806  0.8227 -0.7501
  816MPD2    H212014   2.544   2.341  17.116 -0.6219 -0.6344 -1.1807
  816MPD2    H312015   2.557   2.171  16.927  0.5208  0.6311 -0.2444
  816MPD2     N12016   3.015   2.142  16.977  0.1446 -0.3129  0.3923
  816MPD2    H512017   3.091   2.165  17.040  0.8272  1.8320 -1.2240
  816MPD2    N112018   2.717   2.415  17.265 -0.5761  0.0125  0.0766
  816MPD2    H712019   2.626   2.448  17.294  1.4020  2.1252  3.9885
  817MPD2     C12020   2.840   3.713   9.958 -0.2898 -0.0420 -0.0535
  817MPD2    C112021   2.965   3.739   9.907 -0.1115 -0.0365 -0.4281
  817MPD2    C212022   2.992   3.873   9.886 -0.0475 -0.2517  0.3343
  817MPD2    C312023   2.910   3.977   9.910 -0.3124 -0.1334  0.2796
  817MPD2    C412024   2.786   3.945   9.965  0.6803  0.7530  0.2994
  817MPD2    C512025   2.757   3.814   9.986  0.1636 -0.0479 -0.2524
  817MPD2     H12026   3.089   3.887   9.840 -0.1655  1.9908  0.7612
  817MPD2    H112027   2.706   4.015   9.986 -0.9885 -1.1050  0.2352
  817MPD2    H212028   2.795   3.617   9.978  0.3260 -0.0341  1.3220
  817MPD2    H312029   2.661   3.784  10.027 -0.6041  1.5654 -0.8841
  817MPD2     N12030   2.952   4.107   9.879 -0.0748 -0.1738 -0.0541
  817MPD2    H512031   3.040   4.123   9.831 -0.4459 -1.6756 -1.2555
  817MPD2    N112032   3.050   3.634   9.872  0.6002 -0.4221  0.2469
  817MPD2    H712033   3.131   3.655   9.815  0.1515 -3.4661 -1.5205
  818MPD2     C12034   1.897   2.773   9.289 -0.0080 -0.0289 -0.1920
  818MPD2    C112035   1.888   2.755   9.422  0.4448  0.2537  1.2034
  818MPD2    C212036   1.965   2.659   9.479  0.5805  0.0115  0.0499
  818MPD2    C312037   2.040   2.576   9.405 -0.7979  0.0113 -0.2837
  818MPD2    C412038   2.038   2.584   9.267 -0.1701  0.4361  0.2817
  818MPD2    C512039   1.969   2.686   9.212  0.0646 -0.5380  0.3732
  818MPD2     H12040   1.971   2.664   9.587  1.1073 -0.1277  0.0257
  818MPD2    H112041   2.080   2.501   9.212  1.3913  1.9464 -0.8124
  818MPD2    H212042   1.848   2.861   9.250  0.0176  0.3800  0.7155
  818MPD2    H312043   1.980   2.703   9.105 -0.7797  1.2282  0.5701
  818MPD2     N12044   2.104   2.461   9.463  0.3485  0.0262 -0.6519
  818MPD2    H512045   2.155   2.403   9.397 -0.1292 -1.3899  0.2254
  818MPD2    N112046   1.825   2.842   9.505 -0.0537 -0.7802 -0.4266
  818MPD2    H712047   1.804   2.802   9.596  1.0040 -0.2819  0.0295
  819MPD2     C12048   4.285   0.554  15.685  0.0943  0.1855  0.3708
  819MPD2    C112049   4.342   0.432  15.709  0.0126 -0.0932  0.0974
  819MPD2    C212050   4.465   0.419  15.768  0.2547  0.1918 -0.2079
  819MPD2    C312051   4.531   0.533  15.810 -0.2531  0.1744 -0.2172
  819MPD2    C412052   4.467   0.654  15.800  0.2496  0.1567  0.0771
  819MPD2    C512053   4.352   0.667  15.722 -0.2822 -0.1400 -0.3787
  819MPD2     H12054   4.511   0.323  15.785 -0.0995  0.3323  1.5717
  819MPD2    H112055   4.525   0.744  15.819  1.3722 -0.4804 -0.3400
  819MPD2    H212056   4.190   0.565  15.634  0.5873 -3.2473 -1.2431
  819MPD2    H312057   4.322   0.766  15.692  0.9208  0.4326  0.3273
  819MPD2     N12058   4.656   0.514  15.874 -0.3770  0.0930 -0.3202
  819MPD2    H512059   4.713   0.433  15.852 -1.0132 -0.0209 -1.5202
  819MPD2    N112060   4.260   0.325  15.671  0.1707 -0.2357 -0.4197
  819MPD2    H712061   4.173   0.354  15.627 -0.4192 -0.6149  0.4947
  820MPD2     C12062   3.721   0.301  14.938 -0.0929  0.4726  0.3045
  820MPD2    C112063   3.822   0.369  14.999  0.5791  1.0530 -0.6078
  820MPD2    C212064   3.908   0.293  15.081 -0.1070  0.2933  0.2196
  820MPD2    C312065   3.870   0.164  15.120  1.0798 -0.6801 -0.4365
  820MPD2    C412066   3.756   0.101  15.069 -0.3006 -0.0257 -0.4305
  820MPD2    C512067   3.689   0.168  14.972  0.0803  0.1767  0.2607
  820MPD2     H12068   3.999   0.340  15.119  1.7474 -0.2391 -3.5972
  820MPD2    H112069   3.716   0.005  15.100 -0.4358 -0.5220 -2.1811
  820MPD2    H212070   3.675   0.349  14.853 -2.3713 -0.4045  1.0571
  820MPD2    H312071   3.612   0.109  14.923  0.6588 -0.0445 -0.3824
  820MPD2     N12072   3.939   0.094  15.223 -0.4305 -0.1054 -1.1011
  820MPD2    H512073   3.894   0.012  15.263  0.7573 -0.1536  0.1439
  820MPD2    N112074   3.827   0.510  14.977  0.5869  0.1501 -0.4606
  820MPD2    H712075   3.749   0.555  14.931  1.6985  1.4860 -1.0149
  821MPD2     C12076   3.988   2.202  13.013 -0.2008  0.8287 -0.0249
  821MPD2    C112077   4.106   2.201  13.090  0.3744 -0.3357 -0.6364
  821MPD2    C212078   4.200   2.298  13.063 -0.2414 -0.5382  0.3161
  821MPD2    C312079   4.178   2.383  12.955  0.8191 -0.5996 -0.1161
  821MPD2    C412080   4.069   2.375  12.870 -0.1841  0.3852  0.3977
  821MPD2    C512081   3.972   2.282  12.902 -0.0741  0.1284  0.5126
  821MPD2     H12082   4.286   2.307  13.127  0.7652 -0.5994 -1.0171
  821MPD2    H112083   4.050   2.446  12.790 -0.6169 -0.4693 -0.2664
  821MPD2    H212084   3.909   2.139  13.051 -0.2903  1.1657  0.3445
  821MPD2    H312085   3.878   2.271  12.848 -0.5593  3.8163  0.5680
  821MPD2     N12086   4.281   2.470  12.922 -0.1775 -0.4235 -0.4312
  821MPD2    H512087   4.269   2.524  12.837  2.6536  1.2190  0.1964
  821MPD2    N112088   4.125   2.115  13.194 -0.0288  0.3510 -0.7584
  821MPD2    H712089   4.223   2.094  13.214  0.4653  1.7544 -1.6752
  822MPD2     C12090   0.361   1.750  15.738 -0.5437 -0.1667  0.3756
  822MPD2    C112091   0.462   1.805  15.810 -0.2980 -0.6747  0.5365
  822MPD2    C212092   0.436   1.935  15.860  0.2885  0.7611 -0.1821
  822MPD2    C312093   0.319   2.000  15.836 -0.2818 -0.3422  0.3870
  822MPD2    C412094   0.213   1.932  15.775  0.2681  0.2018  0.0192
  822MPD2    C512095   0.235   1.808  15.721  0.3168  0.8047 -0.2841
  822MPD2     H12096   0.510   1.986  15.922 -0.6291  0.5081  1.1265
  822MPD2    H112097   0.115   1.978  15.763 -0.2346 -0.3333  2.0895
  822MPD2    H212098   0.385   1.660  15.682  1.7361  0.0110  1.0694
  822MPD2    H312099   0.157   1.769  15.657  1.4921  0.4528 -1.5016
  822MPD2     N12100   0.292   2.129  15.881 -0.0887  0.3855  1.0461
  822MPD2    H512101   0.195   2.154  15.899  0.1849  0.6011  2.2387
  822MPD2    N112102   0.571   1.733  15.865 -0.2586 -0.3970  0.0910
  822MPD2    H712103   0.630   1.783  15.931 -1.3398  2.4507 -1.1259
  823MPD2     C12104   0.020   2.398  16.630 -0.1957  0.7656  1.0601
  823MPD2    C112105   0.071   2.310  16.539  0.1258  0.9641 -0.1416
  823MPD2    C212106   0.118   2.190  16.587  0.8627 -0.2700 -0.3904
  823MPD2    C312107   0.114   2.151  16.723  0.6733  0.2456 -0.5601
  823MPD2    C412108   0.058   2.246  16.814  0.0751  0.1052  0.4700
  823MPD2    C512109   0.020   2.367  16.763 -1.0851 -0.3145  0.4131
  823MPD2     H12110   0.162   2.125  16.512  1.2767 -1.4906  0.9138
  823MPD2    H112111   0.053   2.218  16.919  0.4636 -1.1394  0.1491
  823MPD2    H212112   4.722   2.501  16.603 -2.7711  0.8546  3.4244
  823MPD2    H312113   4.701   2.432  16.839  2.7096  2.1612  0.3965
  823MPD2     N12114   0.151   2.019  16.765 -0.3468 -0.9971  0.0986
  823MPD2    H512115   0.162   2.004  16.865  1.5427  1.9118  0.3078
  823MPD2    N112116   0.088   2.364  16.409  0.0948 -0.4988 -0.1628
  823MPD2    H712117   0.082   2.464  16.391 -2.1497 -0.2852  1.7592
  824MPD2     C12118   0.954   0.892  16.026 -0.4259  0.2731  0.3528
  824MPD2    C112119   0.964   0.999  15.950 -0.6122 -0.0943  0.6925
  824MPD2    C212120   1.044   0.990  15.838  0.7068 -0.1301  0.2675
  824MPD2    C312121   1.104   0.871  15.795  0.6722 -0.2208 -0.5775
  824MPD2    C412122   1.085   0.759  15.874  0.0489 -0.5785 -0.1346
  824MPD2    C512123   1.013   0.772  15.995  0.2950 -0.3261 -0.1252
  824MPD2     H12124   1.059   1.084  15.784  0.1240  0.4852  1.1820
  824MPD2    H112125   1.125   0.660  15.861 -1.7546 -1.2016 -0.9567
  824MPD2    H212126   0.909   0.903  16.124 -0.9504  0.5160  0.0855
  824MPD2    H312127   0.997   0.682  16.053  3.4318 -0.4438  0.5452
  824MPD2     N12128   1.184   0.853  15.676 -0.5593  0.2977  0.1418
  824MPD2    H512129   1.218   0.761  15.650  0.3503  0.0712  2.0972
  824MPD2    N112130   0.896   1.121  15.979 -0.2923  0.4772 -0.2516
  824MPD2    H712131   0.843   1.133  16.065  0.1654 -0.4534  0.1614
  825MPD2     C12132   1.875   1.221  15.418  0.0966  0.2674 -1.0006
  825MPD2    C112133   1.755   1.242  15.362 -0.0673  0.0027  0.0951
  825MPD2    C212134   1.729   1.362  15.307 -0.7253  0.2458  0.8322
  825MPD2    C312135   1.815   1.467  15.307 -0.2196 -0.7443 -0.5066
  825MPD2    C412136   1.938   1.446  15.365 -0.3184 -0.1723  0.3422
  825MPD2    C512137   1.966   1.321  15.415 -0.0025  0.5687 -0.2723
  825MPD2     H12138   1.629   1.381  15.270 -0.2318 -1.3638 -1.3539
  825MPD2    H112139   2.009   1.528  15.369 -1.7937  0.9951  2.3299
  825MPD2    H212140   1.904   1.122  15.452  1.6287  0.3145 -2.1489
  825MPD2    H312141   2.061   1.316  15.467  0.5337  1.1108 -1.1981
  825MPD2     N12142   1.794   1.594  15.248 -0.0504  0.3849 -0.0303
  825MPD2    H512143   1.858   1.669  15.272 -1.4422  1.2698  0.9457
  825MPD2    N112144   1.665   1.132  15.351  0.2644 -0.1100 -0.4823
  825MPD2    H712145   1.696   1.038  15.374  1.2117  0.2555 -0.2545
  826MPD2     C12146   1.514   0.869  13.645 -0.3594  0.0281  0.2316
  826MPD2    C112147   1.451   0.946  13.544  0.3635  0.8410 -0.1825
  826MPD2    C212148   1.336   1.022  13.573  0.4676  0.1689  0.5025
  826MPD2    C312149   1.303   1.040  13.705 -0.0200 -0.1058 -0.8984
  826MPD2    C412150   1.368   0.971  13.801  0.0033  0.1917  0.3886
  826MPD2    C512151   1.465   0.876  13.777  0.2971 -1.1471 -0.2594
  826MPD2     H12152   1.271   1.073  13.502 -2.0399 -2.8443  0.6394
  826MPD2    H112153   1.341   0.989  13.904 -1.9289  1.0113 -0.2608
  826MPD2    H212154   1.582   0.789  13.618 -0.1767  0.8206 -1.6628
  826MPD2    H312155   1.502   0.812  13.857  1.0092 -1.8509 -1.1649
  826MPD2     N12156   1.202   1.130  13.753 -0.4285  0.4259 -0.4182
  826MPD2    H512157   1.183   1.133  13.853 -0.6302  0.8878 -0.4688
  826MPD2    N112158   1.506   0.928  13.410 -0.7246 -0.5770 -0.4364
  826MPD2    H712159   1.595   0.879  13.411 -0.1950  0.3735 -0.3405
  827MPD2     C12160   2.630   2.060   9.891  0.3666  0.7928 -0.4600
  827MPD2    C112161   2.571   2.020  10.010 -0.3950  0.5087  0.4795
  827MPD2    C212162   2.471   1.923  10.000  0.2557  0.3753 -0.2963
  827MPD2    C312163   2.426   1.868   9.878 -0.0817 -0.2433  0.2958
  827MPD2    C412164   2.481   1.927   9.766  0.4620 -0.2893 -0.1074
  827MPD2    C512165   2.579   2.021   9.773 -0.0180 -0.0275  0.0712
  827MPD2     H12166   2.433   1.876  10.091  1.3426  0.4946  0.2209
  827MPD2    H112167   2.443   1.903   9.667  0.3277  0.7229 -0.2988
  827MPD2    H212168   2.709   2.134   9.892  1.9212 -0.8938  1.6025
  827MPD2    H312169   2.612   2.060   9.677  2.2916  1.4008  1.4466
  827MPD2     N12170   2.319   1.774   9.870 -0.3703  0.2572 -1.0921
  827MPD2    H512171   2.264   1.759   9.954  0.2518 -0.0712 -0.7430
  827MPD2    N112172   2.632   2.069  10.127 -0.2857 -0.0163  1.0143
  827MPD2    H712173   2.712   2.129  10.111 -0.0220  0.1281  2.8801
  828MPD2     C12174   0.156   2.344  12.906  0.0242 -0.4449  0.2928
  828MPD2    C112175   0.201   2.355  12.777 -0.6902 -0.1820 -1.2184
  828MPD2    C212176   0.334   2.352  12.747  0.6442 -0.4064 -0.0992
  828MPD2    C312177   0.419   2.322  12.855 -0.3880  0.1206 -0.2538
  828MPD2    C412178   0.373   2.313  12.984  0.6872 -0.3346  0.4313
  828MPD2    C512179   0.239   2.322  13.005 -0.3507  0.1197  0.4689
  828MPD2     H12180   0.371   2.375  12.648  0.7342 -1.2504 -0.2628
  828MPD2    H112181   0.447   2.288  13.059  0.2072 -1.7089  0.4630
  828MPD2    H212182   0.051   2.347  12.934 -0.1355  0.2005 -0.3700
  828MPD2    H312183   0.197   2.328  13.105  0.6035 -1.9159  0.9989
  828MPD2     N12184   0.560   2.312  12.850 -0.2853 -0.2684  0.1047
  828MPD2    H512185   0.603   2.301  12.941 -0.4934 -0.1934  0.2121
  828MPD2    N112186   0.117   2.385  12.666  0.3098 -0.0239 -0.3161
  828MPD2    H712187   0.165   2.413  12.581  1.1145  1.2107  0.5497
  829MPD2     C12188   0.290   2.437  11.807 -0.3124  0.2735  0.2902
  829MPD2    C112189   0.158   2.409  11.791 -0.0726 -0.2242 -0.8327
  829MPD2    C212190   0.083   2.403  11.911  0.2511 -0.0146 -0.4295
  829MPD2    C312191   0.140   2.429  12.036 -0.4548  0.1056 -0.1272
  829MPD2    C412192   0.268   2.470  12.042  0.4214 -0.0143 -0.1015
  829MPD2    C512193   0.347   2.465  11.934 -0.0917 -0.4704  0.0047
  829MPD2     H12194   4.700   2.377  11.908  0.6495 -1.4861 -1.9312
  829MPD2    H112195   0.309   2.515  12.132 -0.8890 -0.1104  0.5364
  829MPD2    H212196   0.352   2.443  11.719  0.4886 -1.8251  0.7242
  829MPD2    H312197   0.452   2.491  11.943 -0.3399  0.4710  0.2438
  829MPD2     N12198   0.068   2.442  12.157 -0.8333 -0.0649 -0.2579
  829MPD2    H512199   0.126   2.486  12.227 -0.8215 -1.1724  0.4344
  829MPD2    N112200   0.106   2.386  11.663 -0.7554 -0.3679  0.5440
  829MPD2    H712201   0.179   2.389  11.592  0.3294  0.5191  1.7126
  830MPD2     C12202   0.231   0.535  15.362  0.5136  0.6958 -0.7706
  830MPD2    C112203   0.334   0.577  15.452 -0.4672  0.5530 -0.6409
  830MPD2    C212204   0.443   0.644  15.397  0.1696 -0.4216  0.1618
  830MPD2    C312205   0.472   0.638  15.263  0.2719  0.0164  0.1353
  830MPD2    C412206   0.378   0.574  15.188  0.0308  0.2528 -0.3895
  830MPD2    C512207   0.258   0.533  15.231  0.2385  0.0476 -0.5756
  830MPD2     H12208   0.515   0.693  15.462 -0.2595 -0.6977  0.8447
  830MPD2    H112209   0.395   0.570  15.082 -0.4090 -2.4547 -0.3638
  830MPD2    H212210   0.133   0.509  15.400  1.4032  1.1681  1.8258
  830MPD2    H312211   0.187   0.486  15.163 -1.6049 -0.3240  1.6165
  830MPD2     N12212   0.581   0.701  15.203  0.2401 -0.4424  0.5073
  830MPD2    H512213   0.590   0.681  15.104  0.2963  0.4613  0.3311
  830MPD2    N112214   0.304   0.570  15.591  0.1368  0.5476  0.2942
  830MPD2    H712215   0.225   0.515  15.621  0.1581  0.8606  0.9189
  831MPD2     C12216   0.616   2.251  16.260  0.5340 -0.4689  0.2622
  831MPD2    C112217   0.654   2.143  16.192  0.0904  0.3194 -0.7933
  831MPD2    C212218   0.570   2.038  16.197 -0.0479  0.7328 -0.6549
  831MPD2    C312219   0.463   2.032  16.281  0.3296  0.1447  0.6020
  831MPD2    C412220   0.435   2.142  16.356  0.6059  0.1451 -0.2986
  831MPD2    C512221   0.515   2.255  16.349  0.4339  0.1018 -0.0204
  831MPD2     H12222   0.590   1.956  16.129 -0.9155  0.7152 -0.8842
  831MPD2    H112223   0.345   2.159  16.415 -1.1085 -2.0728 -2.2911
  831MPD2    H212224   0.676   2.341  16.247 -1.0436  0.8306  1.9871
  831MPD2    H312225   0.491   2.347  16.400  0.1773 -0.5859  1.0916
  831MPD2     N12226   0.361   1.935  16.262 -0.2902  0.4719 -0.0917
  831MPD2    H512227   0.276   1.965  16.309  0.4444  2.5598 -0.0880
  831MPD2    N112228   0.765   2.142  16.112  0.0919 -0.5313  0.3945
  831MPD2    H712229   0.821   2.227  16.111 -2.0816  0.9057  1.1301
  832MPD2     C12230   3.893   3.235  17.491 -0.7901  0.3786 -0.8298
  832MPD2    C112231   3.851   3.362  17.486 -0.7770 -0.4956 -0.1470
  832MPD2    C212232   3.761   3.397  17.386 -0.7158  0.4364  0.0966
  832MPD2    C312233   3.714   3.295  17.304 -0.0708 -0.0073  0.2807
  832MPD2    C412234   3.762   3.168  17.312  0.1037 -0.8238  0.4082
  832MPD2    C512235   3.855   3.135  17.407  0.0416 -0.1010 -0.0658
  832MPD2     H12236   3.726   3.500  17.379 -1.2536  0.4541  3.2884
  832MPD2    H112237   3.730   3.090  17.244  0.1370  0.1631 -0.7512
  832MPD2    H212238   3.971   3.210  17.563 -0.0033  0.9859 -1.4633
  832MPD2    H312239   3.894   3.034  17.409 -1.7586 -0.7571  1.7005
  832MPD2     N12240   3.633   3.325  17.199  0.0315 -0.4680  0.1254
  832MPD2    H512241   3.592   3.246  17.149  1.2894 -0.0343 -1.6215
  832MPD2    N112242   3.897   3.458  17.575  0.4958  0.4893  0.0015
  832MPD2    H712243   3.971   3.430  17.638  0.0161  2.0479  1.2695
  833MPD2     C12244   1.023   4.246  12.079 -0.2592 -0.4560 -0.1892
  833MPD2    C112245   1.105   4.350  12.045  0.0978 -0.2277 -1.1478
  833MPD2    C212246   1.168   4.335  11.922 -0.5846 -0.3265 -0.1757
  833MPD2    C312247   1.141   4.235  11.828  0.2188 -0.2868 -0.0578
  833MPD2    C412248   1.055   4.142  11.861  0.5120  0.4308  0.4744
  833MPD2    C512249   0.993   4.150  11.983  0.3141  0.3916 -0.4620
  833MPD2     H12250   1.244   4.406  11.891 -0.0187  0.0587  2.0241
  833MPD2    H112251   1.020   4.058  11.803  0.9287  0.4206  0.2371
  833MPD2    H212252   0.978   4.232  12.176 -0.7647 -0.2311 -0.3918
  833MPD2    H312253   0.926   4.071  12.014 -0.5995  2.2955  2.5018
  833MPD2     N12254   1.216   4.227  11.710 -0.0623 -0.6910  0.1803
  833MPD2    H512255   1.279   4.306  11.702 -2.3957  1.1303 -0.3207
  833MPD2    N112256   1.115   4.469  12.126  0.2339  0.5742  0.0569
  833MPD2    H712257   1.085   4.460  12.223 -0.3466  0.7975 -0.1020
  834MPD2     C12258   1.475   4.240  10.747 -0.1615 -0.0701 -0.1425
  834MPD2    C112259   1.475   4.125  10.819  0.8245  0.0188 -0.0990
  834MPD2    C212260   1.402   4.118  10.943  0.0020 -0.1439  0.1794
  834MPD2    C312261   1.338   4.233  10.985 -0.2066  0.2018 -0.0642
  834MPD2    C412262   1.345   4.353  10.912 -0.7313  0.2571 -0.6983
  834MPD2    C512263   1.419   4.353  10.799 -0.5366  0.3717 -0.1593
  834MPD2     H12264   1.392   4.031  11.007 -2.5282  0.3139  0.3700
  834MPD2    H112265   1.305   4.450  10.937  1.3528  0.9812 -0.1524
  834MPD2    H212266   1.527   4.246  10.652  0.0892  0.0872  0.0055
  834MPD2    H312267   1.428   4.450  10.751 -3.9063 -0.5110 -2.5793
  834MPD2     N12268   1.270   4.227  11.113  0.2691  0.5132  0.3860
  834MPD2    H512269   1.282   4.139  11.163  2.1947  0.0537 -0.8760
  834MPD2    N112270   1.523   4.018  10.746 -0.4419  0.3331  0.1973
  834MPD2    H712271   1.545   4.035  10.648 -0.4197  0.8912  0.2980
  835MPD2     C12272   1.261   2.801  10.868  0.9965  0.2002 -0.0774
  835MPD2    C112273   1.138   2.737  10.860 -0.0327 -0.1329  0.1222
  835MPD2    C212274   1.075   2.714  10.977  0.5138 -1.2058 -0.3977
  835MPD2    C312275   1.129   2.742  11.098  1.0066  0.0707  0.1569
  835MPD2    C412276   1.248   2.800  11.107 -1.1174 -0.0130 -1.0024
  835MPD2    C512277   1.315   2.827  10.989 -0.1427  0.5143  0.0150
  835MPD2     H12278   0.980   2.662  10.979  0.0240 -0.3003 -0.1430
  835MPD2    H112279   1.298   2.822  11.201 -0.0169 -0.2397 -1.5398
  835MPD2    H212280   1.330   2.811  10.785  1.7067  0.4917  0.5541
  835MPD2    H312281   1.417   2.862  10.994 -0.1403  0.6843 -1.1896
  835MPD2     N12282   1.062   2.710  11.219  0.1889 -0.3852 -0.4896
  835MPD2    H512283   1.117   2.725  11.303  0.6319 -1.2589 -0.6177
  835MPD2    N112284   1.084   2.689  10.743  0.7275 -0.0015 -0.0740
  835MPD2    H712285   0.990   2.651  10.739 -0.1765  2.1747  0.1216
  836MPD2     C12286   0.320   2.799  11.342  0.0905  0.1022 -0.6770
  836MPD2    C112287   0.365   2.733  11.465 -0.6167  0.0746  0.5254
  836MPD2    C212288   0.290   2.730  11.578 -0.5672  0.5086  0.2958
  836MPD2    C312289   0.160   2.774  11.571  0.3774 -0.9023 -0.1371
  836MPD2    C412290   0.108   2.825  11.452 -0.4898 -0.3839  0.2195
  836MPD2    C512291   0.190   2.842  11.344 -0.2794  0.3562 -0.0980
  836MPD2     H12292   0.345   2.697  11.666  2.0627  2.5987 -0.5526
  836MPD2    H112293   0.014   2.879  11.446  0.4320  1.0397 -1.4089
  836MPD2    H212294   0.385   2.804  11.255  1.5378 -1.5509  0.3141
  836MPD2    H312295   0.157   2.895  11.255 -0.4642 -0.1412 -0.3264
  836MPD2     N12296   0.072   2.767  11.677  0.0400  0.4592  0.2400
  836MPD2    H512297   4.698   2.793  11.659 -0.4642  0.3600  2.8625
  836MPD2    N112298   0.496   2.688  11.461 -0.8356  0.0320  0.1111
  836MPD2    H712299   0.549   2.735  11.388 -0.0563 -2.0964 -0.6931
  837MPD2     C12300   4.008   2.349  10.085 -0.0794 -0.9628  0.3301
  837MPD2    C112301   3.964   2.354   9.957  0.0228 -0.1951  0.6279
  837MPD2    C212302   3.891   2.463   9.903  0.2134  0.8660 -0.3126
  837MPD2    C312303   3.884   2.576   9.974 -1.0901  0.5968 -0.0455
  837MPD2    C412304   3.924   2.574  10.105  0.0035  0.5434  0.7549
  837MPD2    C512305   3.981   2.465  10.160 -0.2425 -0.1447 -0.2548
  837MPD2     H12306   3.853   2.453   9.802 -0.1934  1.6953 -0.2420
  837MPD2    H112307   3.935   2.661  10.168  0.9215  0.3911  0.7982
  837MPD2    H212308   4.067   2.270  10.130 -1.4122 -1.1634  1.7600
  837MPD2    H312309   4.005   2.463  10.265  0.8559 -0.6280 -0.5099
  837MPD2     N12310   3.829   2.683   9.905 -0.2502  0.5494 -0.5222
  837MPD2    H512311   3.788   2.657   9.816 -2.1620  0.0810  0.4902
  837MPD2    N112312   3.979   2.249   9.864  0.2177  0.1697  0.1699
  837MPD2    H712313   3.933   2.266   9.775  0.2246 -0.8718 -0.0237
  838MPD2     C12314   2.395   0.004  11.118 -0.4246 -0.2809 -0.0529
  838MPD2    C112315   2.370   0.080  11.235  0.5945 -0.2037 -0.4864
  838MPD2    C212316   2.239   0.086  11.290  0.4401  0.6123  0.7588
  838MPD2    C312317   2.138   0.013  11.238  0.0224 -0.0774 -0.1594
  838MPD2    C412318   2.163   4.670  11.120 -0.2167  0.4297 -0.1199
  838MPD2    C512319   2.284   4.664  11.058  0.5946 -0.4026  0.9229
  838MPD2     H12320   2.228   0.140  11.383  0.9298  1.4946  0.3048
  838MPD2    H112321   2.086   4.607  11.078  1.3985 -0.1583 -2.1671
  838MPD2    H212322   2.489   4.722  11.065 -1.3820 -2.0885 -1.5780
  838MPD2    H312323   2.290   4.609  10.965  1.5981  3.1357 -1.0902
  838MPD2     N12324   2.017   4.722  11.311  0.0847  0.8454  0.0596
  838MPD2    H512325   2.013   0.050  11.400  0.3829  0.4651  0.2879
  838MPD2    N112326   2.464   0.160  11.294  0.0399 -0.0224  0.1458
  838MPD2    H712327   2.433   0.209  11.377 -1.4309  0.4462 -0.6736
  839MPD2     C12328   2.393   4.463  11.949  0.2989 -0.2098  0.2443
  839MPD2    C112329   2.400   4.432  11.817  1.3440  0.3147 -0.5028
  839MPD2    C212330   2.483   4.507  11.740 -0.1840 -0.1917  0.2198
  839MPD2    C312331   2.552   4.614  11.797  0.6992 -0.4910  0.6079
  839MPD2    C412332   2.553   4.643  11.931  0.5282  0.3124 -0.5920
  839MPD2    C512333   2.469   4.563  11.998 -0.3047  0.4394  0.3836
  839MPD2     H12334   2.499   4.482  11.636  1.6091  1.1287  0.1918
  839MPD2    H112335   2.602   0.002  11.983 -1.3466 -0.9906  3.2505
  839MPD2    H212336   2.315   4.415  12.007 -0.8882 -0.6502 -1.7193
  839MPD2    H312337   2.468   4.588  12.103 -2.2152  2.6361 -0.1559
  839MPD2     N12338   2.631   4.685  11.705 -0.3485 -0.4117  0.2198
  839MPD2    H512339   2.637   4.646  11.611  0.5666  2.0693 -0.7710
  839MPD2    N112340   2.319   4.339  11.751 -0.2600 -0.5262 -0.5024
  839MPD2    H712341   2.327   4.338  11.650  0.3230 -1.5352 -0.4426
  840MPD2     C12342   3.079   2.480  10.154  0.4877  0.1558  1.1540
  840MPD2    C112343   3.036   2.465  10.283 -0.0131  0.3535 -0.0119
  840MPD2    C212344   3.037   2.567  10.378 -0.5435  0.2466 -0.3142
  840MPD2    C312345   3.082   2.691  10.342 -0.9252  0.1984  1.0831
  840MPD2    C412346   3.114   2.714  10.209  1.0447 -0.0946 -0.1515
  840MPD2    C512347   3.116   2.610  10.118 -1.0930  0.0802 -0.1197
  840MPD2     H12348   3.020   2.544  10.483  0.9141 -0.0277 -0.1343
  840MPD2    H112349   3.122   2.814  10.167 -0.8185 -0.3069 -1.0139
  840MPD2    H212350   3.091   2.401  10.082 -1.9352  3.3266 -2.7301
  840MPD2    H312351   3.139   2.630  10.014 -0.4201 -3.6369 -0.6898
  840MPD2     N12352   3.095   2.795  10.431  0.0150 -0.1337 -0.8166
  840MPD2    H512353   3.162   2.860  10.391  0.5080 -0.1486  0.0064
  840MPD2    N112354   2.997   2.335  10.323 -0.5194  0.4169 -0.0180
  840MPD2    H712355   2.993   2.269  10.246  0.1683  0.9339 -0.4942
  841MPD2     C12356   1.980   2.110  14.690 -0.3285 -0.1419  0.3220
  841MPD2    C112357   2.007   2.077  14.554 -0.3138 -0.6029 -0.0052
  841MPD2    C212358   2.010   2.183  14.466  0.0701  0.0855  0.3972
  841MPD2    C312359   1.989   2.314  14.506  0.6386  0.4644  0.0687
  841MPD2    C412360   1.949   2.345  14.631 -0.0507 -0.3354 -0.3768
  841MPD2    C512361   1.934   2.240  14.713  0.6552 -0.3257  0.1517
  841MPD2     H12362   2.012   2.163  14.360  0.2316 -3.4416  1.0595
  841MPD2    H112363   1.926   2.445  14.666 -1.2264 -0.8896  0.4553
  841MPD2    H212364   1.974   2.037  14.770 -2.8259  1.0513  1.2327
  841MPD2    H312365   1.905   2.250  14.816 -0.8183 -0.6396 -0.2400
  841MPD2     N12366   2.014   2.417  14.410 -0.1225 -0.3645  0.0609
  841MPD2    H512367   2.039   2.390  14.316 -0.6818 -0.5289 -0.0377
  841MPD2    N112368   2.022   1.950  14.504  0.5215  0.1204 -0.2760
  841MPD2    H712369   2.013   1.957  14.403 -2.2721 -0.6306 -0.0902
  842MPD2     C12370   3.070   3.959  16.600  0.4077 -0.3050  0.8118
  842MPD2    C112371   3.003   3.843  16.569  0.1431 -0.3576  0.2138
  842MPD2    C212372   2.997   3.740  16.662  0.0553 -0.1914 -0.1505
  842MPD2    C312373   3.041   3.770  16.791  0.4250 -0.2863  0.1510
  842MPD2    C412374   3.112   3.880  16.821 -0.4249 -1.1888  0.6535
  842MPD2    C512375   3.118   3.972  16.727 -0.0005 -0.1435 -0.2826
  842MPD2     H12376   2.919   3.667  16.643 -0.3449  0.7050 -1.8743
  842MPD2    H112377   3.171   3.899  16.910 -1.3179  3.8206  0.1923
  842MPD2    H212378   3.079   4.046  16.536  1.7027  0.2186  1.7223
  842MPD2    H312379   3.172   4.062  16.754 -1.2276  0.4589  0.1590
  842MPD2     N12380   3.038   3.674  16.894 -0.3196 -0.2875 -0.1592
  842MPD2    H512381   3.090   3.691  16.979  0.9131 -0.4271 -0.8761
  842MPD2    N112382   2.940   3.843  16.439 -0.6511 -0.2499 -0.5438
  842MPD2    H712383   2.956   3.926  16.382  0.0457  1.7729  2.6069
  843MPD2     C12384   4.403   4.138   0.369  0.2617 -0.0718 -0.7870
  843MPD2    C112385   4.452   4.045   0.279 -0.1276  0.3642 -0.0516
  843MPD2    C212386   4.554   4.087   0.192 -0.8573 -0.4386 -0.2281
  843MPD2    C312387   4.621   4.205   0.216  0.0803 -0.1895 -0.0202
  843MPD2    C412388   4.579   4.283   0.319  0.0170  0.6389  0.1369
  843MPD2    C512389   4.463   4.259   0.383 -0.1701 -0.8146 -0.4263
  843MPD2     H12390   4.591   4.013   0.122 -0.7903 -0.1827 -0.4618
  843MPD2    H112391   4.632   4.375   0.340  0.6973  0.0385  1.0466
  843MPD2    H212392   4.315   4.110   0.425 -0.4160  0.6595 -1.4794
  843MPD2    H312393   4.428   4.330   0.457 -0.7422 -0.5088 -0.9932
  843MPD2     N12394   0.013   4.237   0.154 -0.2836  0.1690 -0.0780
  843MPD2    H512395   0.047   4.332   0.165  1.3240 -0.6103  1.6330
  843MPD2    N112396   4.399   3.916   0.281 -0.2054 -0.0133 -0.8623
  843MPD2    H712397   4.320   3.899   0.343  0.1838 -2.8979 -1.1744
  844MPD2     C12398   3.553   3.082  16.555 -0.1889  0.1928 -0.0396
  844MPD2    C112399   3.668   3.008  16.578 -0.1613 -0.1380 -0.4863
  844MPD2    C212400   3.766   3.052  16.669  0.0502 -0.3039 -0.1138
  844MPD2    C312401   3.759   3.173  16.738  0.5155 -0.9963 -0.2321
  844MPD2    C412402   3.640   3.251  16.707  0.1460  0.3331  0.1863
  844MPD2    C512403   3.542   3.205  16.619 -0.0180 -0.7063 -0.6370
  844MPD2     H12404   3.860   2.998  16.666  0.1350 -0.0236 -2.2995
  844MPD2    H112405   3.622   3.346  16.756  1.1214  1.7228 -2.1899
  844MPD2    H212406   3.474   3.039  16.495  0.1967 -0.5790  0.0155
  844MPD2    H312407   3.452   3.260  16.598  0.6025  1.9849  3.8346
  844MPD2     N12408   3.861   3.215  16.824  0.1997 -0.2730 -0.1698
  844MPD2    H512409   3.936   3.151  16.848  0.4879 -0.6132 -1.9831
  844MPD2    N112410   3.691   2.880  16.535  0.7700 -0.4164  0.1357
  844MPD2    H712411   3.783   2.840  16.551  0.2097 -1.2288  1.2979
  845MPD2     C12412   4.393   4.079  16.839 -0.1792 -0.4389 -0.4476
  845MPD2    C112413   4.301   4.057  16.939  0.0792  0.6524 -0.2622
  845MPD2    C212414   4.229   3.937  16.939 -0.6667 -0.1684 -0.2210
  845MPD2    C312415   4.271   3.830  16.868  0.2421 -0.2228 -0.6253
  845MPD2    C412416   4.372   3.854  16.779 -0.3995 -0.0386 -0.1732
  845MPD2    C512417   4.428   3.976  16.761  0.3396 -0.6829 -0.1870
  845MPD2     H12418   4.155   3.918  17.015  2.2610  0.2160  2.7508
  845MPD2    H112419   4.420   3.780  16.716  0.5913  0.9420 -0.5810
  845MPD2    H212420   4.450   4.171  16.842 -1.4349  0.4044 -2.4845
  845MPD2    H312421   4.508   3.983  16.687 -1.0499  0.0892 -1.6105
  845MPD2     N12422   4.226   3.701  16.909 -0.4670  0.2330 -0.3401
  845MPD2    H512423   4.142   3.692  16.967 -2.3177  1.5629 -2.8189
  845MPD2    N112424   4.275   4.168  17.024 -0.0755 -0.5367 -0.0899
  845MPD2    H712425   4.300   4.264  17.003 -2.2953 -0.3453 -1.9021
  846MPD2     C12426   0.235   4.268  13.705  0.4261 -0.6645  0.9225
  846MPD2    C112427   0.363   4.285  13.737  0.1789 -0.0725  0.0992
  846MPD2    C212428   0.403   4.290  13.864  0.3847 -0.0067 -0.1762
  846MPD2    C312429   0.315   4.256  13.975  0.6487 -0.0650  0.1529
  846MPD2    C412430   0.180   4.244  13.940 -0.2405 -0.0231 -0.1030
  846MPD2    C512431   0.148   4.252  13.809 -0.6979 -0.1713 -0.0100
  846MPD2     H12432   0.507   4.307  13.890  0.4532 -1.1967  0.3135
  846MPD2    H112433   0.100   4.226  14.011  0.4320  1.1290  0.9338
  846MPD2    H212434   0.209   4.280  13.600  1.5865 -1.0774  0.5850
  846MPD2    H312435   0.044   4.243  13.778 -0.3776  1.0705 -1.4138
  846MPD2     N12436   0.353   4.248  14.118 -0.1575 -0.0582 -0.1194
  846MPD2    H512437   0.279   4.220  14.181 -0.7145  2.8532  0.5279
  846MPD2    N112438   0.467   4.312  13.647  0.1666  0.0458 -0.7394
  846MPD2    H712439   0.561   4.313  13.685 -0.5326  1.5008  0.9268
  847MPD2     C12440   1.042   0.288  14.335 -1.0038  0.9060 -0.3195
  847MPD2    C112441   0.981   0.252  14.457  0.1040  0.6801  0.4502
  847MPD2    C212442   0.872   0.169  14.449  0.4468 -0.0318  0.8054
  847MPD2    C312443   0.811   0.137  14.328  0.6961  0.3412 -0.1627
  847MPD2    C412444   0.885   0.157  14.210 -0.1167 -0.0429 -0.2243
  847MPD2    C512445   1.003   0.231  14.218  0.3829 -0.5512 -0.2808
  847MPD2     H12446   0.820   0.143  14.541  1.3268  0.9297  1.5621
  847MPD2    H112447   0.848   0.133  14.111 -4.8010 -1.7168  1.9086
  847MPD2    H212448   1.123   0.360  14.337 -1.2791  1.2119 -0.0851
  847MPD2    H312449   1.064   0.250  14.130 -0.1828  1.5274 -0.2370
  847MPD2     N12450   0.689   0.063  14.312  0.0701  0.2613  0.0025
  847MPD2    H512451   0.664   0.039  14.216 -0.3488 -1.4968  0.5563
  847MPD2    N112452   1.021   0.297  14.587  0.6486  0.3430  0.0589
  847MPD2    H712453   0.967   0.268  14.668  0.0639  0.3804 -0.3197
  848MPD2     C12454   3.477   3.853  16.576 -0.3213  0.7245  0.0934
  848MPD2    C112455   3.444   3.873  16.708 -0.1894 -0.5030 -0.9046
  848MPD2    C212456   3.425   3.998  16.758 -0.5516  0.2135 -0.0155
  848MPD2    C312457   3.437   4.114  16.678  0.0891 -0.9997  0.1195
  848MPD2    C412458   3.469   4.092  16.543  0.3246 -0.3917  0.4072
  848MPD2    C512459   3.498   3.968  16.500 -0.2864  0.0316  0.1357
  848MPD2     H12460   3.394   4.006  16.862 -2.2217  0.5898 -0.5431
  848MPD2    H112461   3.464   4.166  16.464 -0.1456 -2.4865 -1.5323
  848MPD2    H212462   3.488   3.753  16.534  2.9653  1.8334 -1.7187
  848MPD2    H312463   3.527   3.948  16.397 -2.1416 -0.1909 -0.3437
  848MPD2     N12464   3.394   4.242  16.717 -0.0289 -0.6555 -1.1253
  848MPD2    H512465   3.386   4.309  16.640 -0.3189  1.3896  0.6827
  848MPD2    N112466   3.424   3.760  16.794 -0.0203  0.9900  0.3987
  848MPD2    H712467   3.403   3.781  16.891 -1.8007  1.9140 -0.1868
  849MPD2     C12468   2.250   3.493  14.153  0.6710  0.4155 -0.1485
  849MPD2    C112469   2.364   3.461  14.094 -0.2039  0.0844 -0.1458
  849MPD2    C212470   2.466   3.410  14.168 -0.0876  0.5707  0.1162
  849MPD2    C312471   2.436   3.357  14.291  0.8136 -0.8718  0.3129
  849MPD2    C412472   2.316   3.381  14.351  0.2501 -0.0334  0.3097
  849MPD2    C512473   2.225   3.454  14.280 -0.0704 -0.2252  0.1709
  849MPD2     H12474   2.563   3.376  14.131  0.8504  3.0225  0.3263
  849MPD2    H112475   2.299   3.359  14.455 -0.1433  2.0321  0.6826
  849MPD2    H212476   2.172   3.542  14.095  1.1772  0.4057 -0.8459
  849MPD2    H312477   2.129   3.473  14.328 -0.3013  0.3939 -0.5354
  849MPD2     N12478   2.532   3.264  14.345 -0.3563 -0.2059 -0.2291
  849MPD2    H512479   2.610   3.240  14.285 -2.9914 -3.6719 -2.2597
  849MPD2    N112480   2.388   3.478  13.957 -0.2655  0.3409 -0.3423
  849MPD2    H712481   2.477   3.438  13.927  1.0843  2.8092  0.3120
  850MPD2     C12482   0.670   1.717  14.554  1.0983 -0.1832 -0.4936
  850MPD2    C112483   0.655   1.687  14.692  0.1020 -0.9530  0.2382
  850MPD2    C212484   0.748   1.616  14.761 -0.6131  0.1168  0.1354
  850MPD2    C312485   0.857   1.573  14.698 -0.1530  0.2183  0.1690
  850MPD2    C412486   0.872   1.593  14.564  0.0709 -0.1577  0.7316
  850MPD2    C512487   0.777   1.664  14.489 -0.1002 -0.0401 -0.1051
  850MPD2     H12488   0.731   1.577  14.860  0.1443  1.0189  0.6313
  850MPD2    H112489   0.957   1.545  14.517  0.4044  0.2973  0.8714
  850MPD2    H212490   0.605   1.784  14.499  0.4842  0.3103  0.8226
  850MPD2    H312491   0.779   1.679  14.382 -2.5427  1.3953  0.0633
  850MPD2     N12492   0.956   1.502  14.769  0.3609 -0.8421  0.5366
  850MPD2    H512493   1.042   1.480  14.719 -0.0554  0.4622 -0.7555
  850MPD2    N112494   0.545   1.727  14.772  0.8480  0.5128  0.3296
  850MPD2    H712495   0.539   1.695  14.868 -0.2490 -0.9797 -0.2328
  851MPD2     C12496   0.557   1.539  15.402  0.5599  0.1455 -0.1401
  851MPD2    C112497   0.537   1.496  15.271 -0.0179 -0.1466 -0.6439
  851MPD2    C212498   0.620   1.406  15.211 -0.1219  0.3571  0.1146
  851MPD2    C312499   0.727   1.344  15.278  0.4462  0.5090 -0.1702
  851MPD2    C412500   0.740   1.387  15.415 -0.1527  0.0630 -0.2485
  851MPD2    C512501   0.661   1.482  15.466  0.0710 -0.8145  0.5679
  851MPD2     H12502   0.597   1.365  15.114  1.1594  0.2936 -0.1572
  851MPD2    H112503   0.818   1.338  15.472 -0.9387 -2.5232 -1.3883
  851MPD2    H212504   0.493   1.614  15.449  0.2124  0.2329 -0.7574
  851MPD2    H312505   0.684   1.509  15.568  0.0547  0.0119  0.3536
  851MPD2     N12506   0.786   1.238  15.208 -0.1109  0.7971 -0.4197
  851MPD2    H512507   0.757   1.231  15.111  1.4836 -0.7605 -0.7832
  851MPD2    N112508   0.432   1.563  15.203 -1.0908 -0.3185 -0.7307
  851MPD2    H712509   0.399   1.651  15.242  4.3979  1.4225 -0.0476
  852MPD2     C12510   4.195   3.490  10.017  0.4387  0.5152  0.0249
  852MPD2    C112511   4.290   3.440  10.101 -0.1639 -0.0042 -0.4263
  852MPD2    C212512   4.408   3.507  10.121 -0.1537 -0.2459 -0.1720
  852MPD2    C312513   4.428   3.636  10.069 -0.0049  0.3712 -0.5286
  852MPD2    C412514   4.347   3.678   9.969 -0.4864 -0.5074  0.6874
  852MPD2    C512515   4.231   3.601   9.948 -0.4707 -0.1807  0.2063
  852MPD2     H12516   4.480   3.468  10.193 -2.0160 -1.0068  1.2725
  852MPD2    H112517   4.371   3.766   9.910  0.2804 -1.5752 -0.6052
  852MPD2    H212518   4.102   3.449   9.979  0.7456 -0.6253  0.5077
  852MPD2    H312519   4.175   3.641   9.864  1.4347 -0.6541 -1.2856
  852MPD2     N12520   4.540   3.704  10.115  0.2463 -0.2847  0.2099
  852MPD2    H512521   4.601   3.654  10.179 -0.7194 -0.4648  1.0071
  852MPD2    N112522   4.279   3.310  10.167 -0.4344  0.2693 -0.0575
  852MPD2    H712523   4.360   3.285  10.223 -0.0378  0.3610 -0.5926
  853MPD2     C12524   2.138   3.387  12.193 -0.4556 -0.3749 -0.2149
  853MPD2    C112525   2.035   3.458  12.136  0.5483  0.0164 -0.5847
  853MPD2    C212526   2.016   3.450  11.998  0.8037  0.1230 -0.3258
  853MPD2    C312527   2.105   3.383  11.911 -0.9575  0.2878 -1.0220
  853MPD2    C412528   2.209   3.322  11.979  0.6665 -1.0892 -0.3150
  853MPD2    C512529   2.223   3.323  12.113  0.3638 -0.5692 -0.1565
  853MPD2     H12530   1.920   3.482  11.960  1.3992  1.4685 -0.7014
  853MPD2    H112531   2.296   3.280  11.930  1.1446  0.5466 -0.8677
  853MPD2    H212532   2.173   3.405  12.294  0.5207  0.1911 -0.6551
  853MPD2    H312533   2.314   3.286  12.161  1.0501  1.4858  0.1063
  853MPD2     N12534   2.105   3.386  11.769  0.3686  0.6654  0.3288
  853MPD2    H512535   2.186   3.339  11.729  0.6203  0.4979  1.0443
  853MPD2    N112536   1.951   3.547  12.216  0.4668 -0.3346 -0.1250
  853MPD2    H712537   1.958   3.537  12.317  0.7120 -0.1178 -0.1222
  854MPD2     C12538   3.308   3.754  13.525 -0.5232  0.2917 -0.7282
  854MPD2    C112539   3.422   3.787  13.589  0.2026 -0.2961  0.4737
  854MPD2    C212540   3.525   3.697  13.600  0.1577 -0.7269  0.1329
  854MPD2    C312541   3.514   3.571  13.530 -0.5071 -0.7500  0.2251
  854MPD2    C412542   3.404   3.549  13.450 -0.8238 -1.0556 -0.1330
  854MPD2    C512543   3.301   3.639  13.447  0.0476 -0.0364  0.4389
  854MPD2     H12544   3.607   3.723  13.667 -0.0689 -1.5625  0.7319
  854MPD2    H112545   3.405   3.460  13.389 -0.8688 -0.4645 -0.9955
  854MPD2    H212546   3.225   3.819  13.550 -1.2815 -0.8217 -0.3820
  854MPD2    H312547   3.217   3.609  13.386 -0.3044 -0.9028  1.3457
  854MPD2     N12548   3.618   3.478  13.531  0.2804 -0.8019 -0.2765
  854MPD2    H512549   3.614   3.409  13.457 -1.5862  0.2951 -1.1802
  854MPD2    N112550   3.418   3.915  13.645 -0.2302  0.1482  0.5589
  854MPD2    H712551   3.324   3.952  13.661  0.1606  1.5488 -0.3616
  855MPD2     C12552   4.581   3.035  13.826 -0.1903 -0.9236  0.7470
  855MPD2    C112553   4.464   3.043  13.899  0.1839  0.7020  0.3857
  855MPD2    C212554   4.358   3.120  13.853  0.6521  0.1699  0.8854
  855MPD2    C312555   4.368   3.182  13.728  0.2631 -0.3670  0.6924
  855MPD2    C412556   4.484   3.175  13.653  0.2312  0.6097 -0.0174
  855MPD2    C512557   4.588   3.103  13.707  0.0659  0.4396  0.6907
  855MPD2     H12558   4.269   3.128  13.914  0.4279 -1.1712  0.7224
  855MPD2    H112559   4.493   3.235  13.563 -1.7186  0.1171 -0.5298
  855MPD2    H212560   4.663   2.972  13.861 -0.5202 -0.6542  2.0174
  855MPD2    H312561   4.687   3.095  13.664  1.0580  0.8480  2.8917
  855MPD2     N12562   4.260   3.239  13.664 -0.1318  0.1785 -0.1299
  855MPD2    H512563   4.283   3.282  13.575  0.6124 -1.0409 -0.5258
  855MPD2    N112564   4.440   2.984  14.026  0.2478  0.8106  0.3337
  855MPD2    H712565   4.347   2.992  14.066  0.0658  2.5636 -0.4323
  856MPD2     C12566   1.746   4.328  13.437 -0.2409  0.3866  0.0360
  856MPD2    C112567   1.785   4.372  13.555 -0.0479  0.0172 -0.0160
  856MPD2    C212568   1.748   4.498  13.593 -0.4908  0.2149 -0.3891
  856MPD2    C312569   1.671   4.582  13.513  0.1061  0.1079  0.3172
  856MPD2    C412570   1.633   4.533  13.386  0.1128  0.1018 -0.1122
  856MPD2    C512571   1.681   4.412  13.346 -0.0922  0.1585  0.0536
  856MPD2     H12572   1.769   4.518  13.697 -2.4021 -1.7976  0.3736
  856MPD2    H112573   1.585   4.601  13.317  0.8369  1.3299  0.5903
  856MPD2    H212574   1.777   4.230  13.401  0.0517 -0.6565  3.1501
  856MPD2    H312575   1.664   4.375  13.246 -0.2731 -1.0551  0.5268
  856MPD2     N12576   1.613   4.703  13.560  0.2331 -0.0828  0.3115
  856MPD2    H512577   1.547   0.033  13.504 -0.4639 -1.1122  0.1717
  856MPD2    N112578   1.860   4.295  13.645  0.0040  0.2335 -0.6143
  856MPD2    H712579   1.899   4.351  13.721 -1.4318  0.4160 -0.0118
  857MPD2     C12580   3.011   1.720  12.598 -0.5785  0.2023 -0.1025
  857MPD2    C112581   3.053   1.665  12.720 -0.4460  0.4518  0.1595
  857MPD2    C212582   3.004   1.728  12.839  0.1643 -1.0647  0.3872
  857MPD2    C312583   2.911   1.831  12.826 -0.2818  0.0619  0.3664
  857MPD2    C412584   2.878   1.877  12.696  0.6574  0.2045  0.1164
  857MPD2    C512585   2.930   1.826  12.582  0.1250 -0.3351 -0.2008
  857MPD2     H12586   3.025   1.685  12.937 -0.2926  0.3190  1.0950
  857MPD2    H112587   2.804   1.955  12.682 -0.5567 -0.7193  1.3873
  857MPD2    H212588   3.056   1.686  12.505 -2.6900 -0.7961 -0.7567
  857MPD2    H312589   2.903   1.868  12.485  0.4388 -1.9062 -0.9565
  857MPD2     N12590   2.861   1.889  12.945  0.2774 -0.9470  0.2862
  857MPD2    H512591   2.907   1.869  13.033  0.0716 -3.5495 -0.1871
  857MPD2    N112592   3.141   1.553  12.716 -0.1527 -0.8801 -0.1073
  857MPD2    H712593   3.161   1.523  12.621 -1.9054 -2.4644  0.0232
  858MPD2     C12594   3.119   0.651  16.729  0.5106  0.4160 -0.4733
  858MPD2    C112595   3.240   0.707  16.754  0.6645 -0.6327  0.5468
  858MPD2    C212596   3.244   0.818  16.837 -0.0804  0.4747  0.2014
  858MPD2    C312597   3.126   0.878  16.882  0.0702 -0.0293 -0.0156
  858MPD2    C412598   3.003   0.829  16.844  0.9049 -0.8595  0.3555
  858MPD2    C512599   3.008   0.720  16.763  0.1154  0.4741  0.0416
  858MPD2     H12600   3.343   0.846  16.872  0.4418 -1.1366  0.0178
  858MPD2    H112601   2.907   0.877  16.862  0.5299 -0.3977 -3.0040
  858MPD2    H212602   3.112   0.558  16.673  2.8170  0.2406 -0.4945
  858MPD2    H312603   2.908   0.694  16.729  1.0208 -2.2140 -0.5339
  858MPD2     N12604   3.131   0.999  16.957 -0.0358  0.2643 -0.9407
  858MPD2    H512605   3.040   1.035  16.984 -0.6258 -1.4982 -0.6343
  858MPD2    N112606   3.359   0.644  16.717  0.7220  0.1557 -0.2788
  858MPD2    H712607   3.357   0.543  16.704 -0.3080 -0.0073  1.1512
  859MPD2     C12608   2.170   2.863  14.780 -0.4713  0.0573 -1.3799
  859MPD2    C112609   2.293   2.876  14.828 -0.2848 -0.1031 -0.3350
  859MPD2    C212610   2.377   2.762  14.843  0.1108  0.1026  0.4792
  859MPD2    C312611   2.331   2.634  14.816  0.5417 -0.1584  0.3732
  859MPD2    C412612   2.198   2.623  14.771 -0.3697  0.0027  0.0557
  859MPD2    C512613   2.126   2.742  14.755 -0.4716  0.0052 -0.2101
  859MPD2     H12614   2.478   2.778  14.880  0.3357 -0.1820 -0.0170
  859MPD2    H112615   2.153   2.526  14.750 -1.1602 -0.0506  2.0165
  859MPD2    H212616   2.097   2.942  14.768 -0.6233  0.2400  0.8964
  859MPD2    H312617   2.022   2.727  14.727 -0.2176 -0.8173 -0.7177
  859MPD2     N12618   2.416   2.523  14.817 -0.1004 -0.6872  0.3688
  859MPD2    H512619   2.391   2.439  14.767  0.4913 -0.0534 -0.9950
  859MPD2    N112620   2.334   3.013  14.855 -0.2853 -0.0837 -0.1248
  859MPD2    H712621   2.261   3.083  14.843 -0.5626 -0.2230  0.7136
  860MPD2     C12622   4.431   2.988  11.765  0.0841 -0.6512 -0.2136
  860MPD2    C112623   4.491   3.082  11.843  0.3146 -0.3909 -0.4846
  860MPD2    C212624   4.440   3.109  11.967 -0.3696  0.2026 -0.4136
  860MPD2    C312625   4.324   3.041  12.013  0.1697 -0.2675 -0.1280
  860MPD2    C412626   4.258   2.956  11.930  1.0354  0.1941 -0.4424
  860MPD2    C512627   4.314   2.927  11.805  0.1886 -0.0430 -0.2288
  860MPD2     H12628   4.487   3.182  12.032  0.3206  0.2489 -0.9713
  860MPD2    H112629   4.167   2.904  11.956  0.5452  0.9371 -0.6786
  860MPD2    H212630   4.485   2.969  11.673 -0.6369 -0.2747 -0.7168
  860MPD2    H312631   4.258   2.870  11.731  0.3120 -0.2001 -0.2006
  860MPD2     N12632   4.281   3.073  12.147 -0.6889  0.2927  0.0536
  860MPD2    H512633   4.342   3.132  12.202 -1.7228  2.0025 -0.6548
  860MPD2    N112634   4.593   3.169  11.793  0.4241  0.0377  0.0083
  860MPD2    H712635   4.629   3.234  11.863 -0.0626 -0.4461  0.7046
  861MPD2     C12636   4.018   1.999  11.026  0.2099  0.5175 -0.0196
  861MPD2    C112637   3.897   1.974  11.097 -0.0620 -0.1217  0.2674
  861MPD2    C212638   3.782   1.986  11.017  1.0313  0.0531 -0.5755
  861MPD2    C312639   3.792   1.995  10.875 -0.7282 -0.0187 -0.1207
  861MPD2    C412640   3.915   2.002  10.812 -0.1356 -0.0964 -0.5072
  861MPD2    C512641   4.030   2.012  10.888 -0.6699 -0.0707  0.3099
  861MPD2     H12642   3.688   1.987  11.072  0.6087  0.7391 -1.2971
  861MPD2    H112643   3.916   2.021  10.705  2.1839 -2.3239 -0.8867
  861MPD2    H212644   4.101   2.020  11.093 -0.7882  1.2341  1.0134
  861MPD2    H312645   4.129   2.021  10.845  0.4224 -1.7123  2.4356
  861MPD2     N12646   3.685   2.005  10.782  0.2634 -0.2492  0.0900
  861MPD2    H512647   3.717   2.038  10.691 -3.5953  1.6159 -0.6001
  861MPD2    N112648   3.888   1.942  11.237  0.3563  0.2820  0.2727
  861MPD2    H712649   3.797   1.936  11.281  1.1181 -1.5486  1.5895
  862MPD2     C12650   3.346   2.034  10.105  0.4668  0.0134  0.3344
  862MPD2    C112651   3.399   1.968  10.210  0.7331  0.0700 -0.1410
  862MPD2    C212652   3.413   1.829  10.202 -0.7895 -0.2303  0.1501
  862MPD2    C312653   3.348   1.758  10.104 -0.7508  0.6689  0.5929
  862MPD2    C412654   3.287   1.829  10.003  0.1110 -0.4654  0.2397
  862MPD2    C512655   3.276   1.967  10.002 -0.0133  0.4845 -0.5375
  862MPD2     H12656   3.473   1.789  10.284 -0.2132 -1.9994 -1.1174
  862MPD2    H112657   3.233   1.775   9.926 -1.6414  0.9435  0.4728
  862MPD2    H212658   3.317   2.137  10.123 -1.8380 -0.7604  1.1404
  862MPD2    H312659   3.202   2.008   9.935 -0.6301  0.1110 -0.0827
  862MPD2     N12660   3.348   1.612  10.096 -0.0028 -0.4626 -0.2095
  862MPD2    H512661   3.291   1.575  10.020 -1.0695 -0.0965  0.4123
  862MPD2    N112662   3.436   2.029  10.331  0.0839 -0.0170 -0.2913
  862MPD2    H712663   3.473   1.967  10.403  0.7457  0.3320 -0.3278
  863MPD2     C12664   2.051   0.133  16.423 -0.0190 -0.0405 -0.4005
  863MPD2    C112665   2.081   0.229  16.509 -0.0404 -0.5189  0.5176
  863MPD2    C212666   2.125   0.198  16.637 -0.1019 -0.0204 -0.0897
  863MPD2    C312667   2.141   0.064  16.666  0.8944  0.0700 -0.4138
  863MPD2    C412668   2.099   4.691  16.581 -0.5295 -0.4346  0.2849
  863MPD2    C512669   2.042   0.005  16.466  0.1888 -0.5207  0.7577
  863MPD2     H12670   2.154   0.270  16.714 -0.2318  1.7389 -1.6837
  863MPD2    H112671   2.108   4.586  16.605 -1.9084 -0.3573  1.1102
  863MPD2    H212672   2.019   0.151  16.321  0.0722  2.0485 -0.0725
  863MPD2    H312673   2.015   4.653  16.392  1.0069  0.2162 -0.2759
  863MPD2     N12674   2.183   0.032  16.791  0.2538  0.7217  0.5668
  863MPD2    H512675   2.229   0.103  16.847  0.6531 -0.6882  2.0412
  863MPD2    N112676   2.047   0.354  16.453 -0.3885 -0.6090  0.3869
  863MPD2    H712677   2.002   0.352  16.363  0.8928  3.2576 -0.3418
  864MPD2     C12678   2.234   1.645  17.012 -0.5329  0.4203 -0.7770
  864MPD2    C112679   2.303   1.544  16.959 -0.0620  0.3479  0.5896
  864MPD2    C212680   2.422   1.567  16.888  0.9963 -0.1769  0.6151
  864MPD2    C312681   2.473   1.700  16.864  0.1018 -0.1812 -0.0094
  864MPD2    C412682   2.394   1.802  16.913  0.0670  0.2259 -0.3998
  864MPD2    C512683   2.283   1.773  16.989  0.4391  0.1870  0.3470
  864MPD2     H12684   2.468   1.481  16.840  0.2698  0.5710 -1.4173
  864MPD2    H112685   2.422   1.905  16.895  1.8044  0.3430  2.7685
  864MPD2    H212686   2.147   1.626  17.074  0.5778 -3.7891 -0.5076
  864MPD2    H312687   2.233   1.859  17.032 -1.5764 -0.9461  0.2770
  864MPD2     N12688   2.605   1.713  16.805 -0.4942 -0.8378 -0.3491
  864MPD2    H512689   2.664   1.631  16.803 -1.2840 -1.3811 -1.8279
  864MPD2    N112690   2.244   1.414  16.974 -0.1822 -0.4850  0.1814
  864MPD2    H712691   2.153   1.414  17.018  0.4384  1.0025  1.4533
  865MPD2     C12692   2.946   1.540  15.906 -0.0175 -0.1453 -0.6824
  865MPD2    C112693   2.871   1.479  16.002 -0.3744 -0.0487  0.2156
  865MPD2    C212694   2.859   1.548  16.126  0.0315  0.7277  0.1069
  865MPD2    C312695   2.913   1.680  16.142  0.4095 -0.6728 -1.0490
  865MPD2    C412696   2.967   1.740  16.034  0.2074 -0.6473 -0.3619
  865MPD2    C512697   2.985   1.668  15.919 -0.2818 -0.2090  0.0592
  865MPD2     H12698   2.810   1.496  16.207  0.8705 -0.2174  0.0208
  865MPD2    H112699   2.983   1.847  16.026 -0.5539 -0.3123  2.5618
  865MPD2    H212700   2.957   1.501  15.805 -4.0552  1.1113 -1.6127
  865MPD2    H312701   3.019   1.720  15.830  2.1977  1.8160  2.2007
  865MPD2     N12702   2.895   1.752  16.258  0.3699 -0.4922  0.1588
  865MPD2    H512703   2.944   1.841  16.254 -0.5350  0.0349  0.8119
  865MPD2    N112704   2.827   1.347  15.974  0.3373  0.5421  0.7290
  865MPD2    H712705   2.858   1.296  15.891  1.2014 -2.6136  2.9918
  866MPD2     C12706   4.200   2.228  11.663 -0.0197  0.4891  0.4907
  866MPD2    C112707   4.213   2.194  11.533  0.3142  0.9821 -0.3387
  866MPD2    C212708   4.112   2.233  11.448  1.5990  0.1060  0.3555
  866MPD2    C312709   4.005   2.307  11.495 -0.0083  0.5268 -0.4362
  866MPD2    C412710   3.993   2.347  11.631 -0.3004 -0.6236  0.8203
  866MPD2    C512711   4.095   2.301  11.708 -0.4138  0.2789 -0.2501
  866MPD2     H12712   4.116   2.200  11.344  0.2366 -0.9197  0.6335
  866MPD2    H112713   3.914   2.402  11.682  2.0690  1.2277  2.5162
  866MPD2    H212714   4.288   2.202  11.720  1.4988 -0.6100 -2.3693
  866MPD2    H312715   4.105   2.335  11.810 -1.9103  2.2395 -0.7573
  866MPD2     N12716   3.912   2.360  11.413 -0.5090 -0.0972 -0.2950
  866MPD2    H512717   3.853   2.420  11.470  2.1978  0.9788  1.3384
  866MPD2    N112718   4.317   2.109  11.492 -0.2717 -0.8499 -0.0889
  866MPD2    H712719   4.369   2.065  11.567 -0.8575  0.2918  0.9748
  867MPD2     C12720   1.456   1.620  16.192 -0.2122  0.0958  0.0656
  867MPD2    C112721   1.539   1.572  16.291  0.2963  0.0431  0.2112
  867MPD2    C212722   1.598   1.671  16.371 -0.8335 -0.0735  0.0613
  867MPD2    C312723   1.579   1.805  16.358 -0.2707 -0.4866  0.3011
  867MPD2    C412724   1.511   1.848  16.247 -0.2938  0.1909 -0.6734
  867MPD2    C512725   1.442   1.756  16.166  0.8491 -0.2776  0.2732
  867MPD2     H12726   1.659   1.625  16.447 -0.0940  1.7680  0.5700
  867MPD2    H112727   1.485   1.952  16.229 -1.0636  0.1128 -0.0234
  867MPD2    H212728   1.400   1.549  16.132 -1.7500 -0.9482  2.7380
  867MPD2    H312729   1.374   1.785  16.086  3.3556  1.2962 -1.3031
  867MPD2     N12730   1.609   1.898  16.458  0.2227  0.8054  0.7503
  867MPD2    H512731   1.605   1.997  16.436 -0.8257  0.5935 -0.0347
  867MPD2    N112732   1.569   1.438  16.295  0.1873 -0.2844 -0.0717
  867MPD2    H712733   1.539   1.391  16.210 -0.4652 -0.3700  0.2042
  868MPD2     C12734   3.442   0.137  13.429  0.7944 -0.2748  0.3157
  868MPD2    C112735   3.448   0.024  13.510 -0.0703  0.0730  0.2502
  868MPD2    C212736   3.354   0.002  13.609  0.2791  1.1013  0.5917
  868MPD2    C312737   3.264   0.107  13.638  0.1546 -0.7669 -0.3379
  868MPD2    C412738   3.280   0.223  13.573 -0.3153 -0.0455  0.6253
  868MPD2    C512739   3.359   0.236  13.465 -0.6386 -0.3706 -0.5245
  868MPD2     H12740   3.341   4.633  13.666 -0.8467  0.5092 -0.6162
  868MPD2    H112741   3.231   0.316  13.602 -0.0474  0.3272 -0.1269
  868MPD2    H212742   3.503   0.144  13.340 -2.1059  0.4402 -1.6267
  868MPD2    H312743   3.370   0.332  13.415 -0.0667  0.3314  0.9362
  868MPD2     N12744   3.177   0.093  13.749  0.0633 -0.3902 -0.8700
  868MPD2    H512745   3.184   0.010  13.807 -1.9661 -0.4074 -0.6453
  868MPD2    N112746   3.543   4.646  13.473 -0.7750  0.2952 -0.1396
  868MPD2    H712747   3.592   4.659  13.386 -0.8289  0.3298 -0.1649
  869MPD2     C12748   4.084   2.755   1.632 -0.8053  0.0162  0.5640
  869MPD2    C112749   4.197   2.810   1.688 -0.0898  0.2303  0.2099
  869MPD2    C212750   4.279   2.891   1.606  0.5388  0.3249 -0.3757
  869MPD2    C312751   4.235   2.935   1.485 -0.4806 -0.5645  0.1757
  869MPD2    C412752   4.126   2.868   1.432  0.0055  0.5675 -0.3499
  869MPD2    C512753   4.059   2.774   1.495  0.1036  0.1703 -0.4520
  869MPD2     H12754   4.366   2.939   1.649  0.8997  0.5761 -1.3670
  869MPD2    H112755   4.081   2.894   1.337 -2.0571 -1.3671  0.1292
  869MPD2    H212756   4.028   2.687   1.694  1.1619 -1.6492  0.5311
  869MPD2    H312757   3.970   2.740   1.443  1.0522 -2.8491 -0.0661
  869MPD2     N12758   4.295   3.029   1.400 -0.5386  0.1532 -0.5011
  869MPD2    H512759   4.251   3.042   1.310 -0.0416 -0.7251 -0.8755
  869MPD2    N112760   4.211   2.783   1.823 -0.1894  0.0736  0.4909
  869MPD2    H712761   4.142   2.718   1.858  1.8339 -2.0571  0.4989
  870MPD2     C12762   3.785   2.189   1.607  0.1711  0.2326 -0.6676
  870MPD2    C112763   3.653   2.188   1.641 -0.5171  0.0377  0.6025
  870MPD2    C212764   3.566   2.209   1.531  0.5235  0.4088 -0.1902
  870MPD2    C312765   3.599   2.221   1.400  0.5495  0.3504  0.0367
  870MPD2    C412766   3.733   2.213   1.370 -0.4128  0.4697  0.2542
  870MPD2    C512767   3.826   2.209   1.475 -0.0285  0.2751 -0.2753
  870MPD2     H12768   3.462   2.186   1.551  1.1953 -0.8419  1.7957
  870MPD2    H112769   3.770   2.212   1.268 -0.6434 -0.6065  0.1728
  870MPD2    H212770   3.861   2.184   1.684  0.6151  1.5955 -1.0183
  870MPD2    H312771   3.930   2.213   1.444  0.1896  1.5471  0.6050
  870MPD2     N12772   3.497   2.242   1.301  0.6157 -0.2788 -0.0936
  870MPD2    H512773   3.402   2.236   1.336  0.1566 -0.0958 -1.3072
  870MPD2    N112774   3.609   2.150   1.766 -0.7068 -0.4704  0.4059
  870MPD2    H712775   3.674   2.119   1.838  2.5473 -1.8615 -3.0971
  871MPD2     C12776   0.435   1.433  16.261  0.0057 -0.2920 -0.9192
  871MPD2    C112777   0.373   1.396  16.374  0.0164  0.0695 -0.2775
  871MPD2    C212778   0.316   1.271  16.379  0.6480  0.4963  0.1719
  871MPD2    C312779   0.335   1.175  16.282 -0.9907 -0.1555 -0.4005
  871MPD2    C412780   0.411   1.216  16.171  0.4579 -0.5193  0.2792
  871MPD2    C512781   0.453   1.344  16.159  0.3586  0.2002 -0.6739
  871MPD2     H12782   0.245   1.246  16.457  0.6350  2.1875  0.7020
  871MPD2    H112783   0.420   1.157  16.080  0.9801 -0.1204  0.0687
  871MPD2    H212784   0.478   1.532  16.258 -0.9482  0.1082 -1.1936
  871MPD2    H312785   0.494   1.367  16.061  0.5719 -2.2389 -1.1516
  871MPD2     N12786   0.297   1.039  16.281 -0.3852 -0.0747 -0.7111
  871MPD2    H512787   0.332   0.969  16.217  1.7465  1.0960 -0.8128
  871MPD2    N112788   0.374   1.493  16.475  0.4068  0.2657  0.0719
  871MPD2    H712789   0.435   1.572  16.455 -1.0591  2.1934  3.3243
  872MPD2     C12790   1.404   4.281  13.586  0.0601  0.1549  0.1378
  872MPD2    C112791   1.339   4.166  13.554 -0.0759 -0.3814  0.5230
  872MPD2    C212792   1.242   4.118  13.633 -0.1626  0.4377  0.5594
  872MPD2    C312793   1.206   4.182  13.750 -0.0942  0.1633  0.6970
  872MPD2    C412794   1.276   4.295  13.786 -0.4676 -0.5576 -0.3380
  872MPD2    C512795   1.374   4.344  13.700  0.2657 -0.4366  0.2035
  872MPD2     H12796   1.188   4.030  13.600 -0.8838  0.5231  1.5229
  872MPD2    H112797   1.247   4.346  13.877 -0.5698  3.8024 -2.7894
  872MPD2    H212798   1.458   4.328  13.505  2.3126  0.9447  2.1149
  872MPD2    H312799   1.403   4.448  13.714 -0.4023 -0.2320  0.0969
  872MPD2     N12800   1.117   4.135  13.846 -0.2637  0.5387 -0.5012
  872MPD2    H512801   1.118   4.181  13.936  1.2194 -0.9665  0.2443
  872MPD2    N112802   1.383   4.115  13.435  0.6005 -0.1636 -0.1743
  872MPD2    H712803   1.416   4.180  13.364  0.5201 -1.3000 -1.2553
  873MPD2     C12804   3.360   3.815   0.743  0.4574  0.5159  0.2303
  873MPD2    C112805   3.297   3.729   0.830  0.0630  0.6970 -0.1420
  873MPD2    C212806   3.319   3.591   0.826  0.0963  0.7384 -0.9866
  873MPD2    C312807   3.426   3.539   0.754  0.5083  0.0656 -0.0945
  873MPD2    C412808   3.498   3.628   0.676 -0.7075 -0.9379  0.1790
  873MPD2    C512809   3.459   3.760   0.654  0.4090 -0.1556 -0.4957
  873MPD2     H12810   3.265   3.522   0.890  1.4415  2.1935  1.7106
  873MPD2    H112811   3.577   3.590   0.612  0.6245 -0.0025  1.2566
  873MPD2    H212812   3.334   3.920   0.729 -3.1596 -0.4928 -0.7571
  873MPD2    H312813   3.515   3.822   0.586 -0.2057 -0.1825 -1.0277
  873MPD2     N12814   3.468   3.401   0.748  0.2039  1.3647 -0.0504
  873MPD2    H512815   3.535   3.370   0.678 -0.5278 -0.9494  0.2861
  873MPD2    N112816   3.195   3.782   0.919 -0.2338  0.1365  0.0104
  873MPD2    H712817   3.199   3.881   0.938 -1.0275  0.2521 -0.4321
  874MPD2     C12818   2.683   4.420  16.316 -0.6680 -0.1094 -0.2315
  874MPD2    C112819   2.772   4.318  16.327 -0.1179  0.1471 -0.2458
  874MPD2    C212820   2.889   4.342  16.401  0.4003  0.1966  0.1580
  874MPD2    C312821   2.909   4.462  16.459 -0.0222 -0.2422  0.0617
  874MPD2    C412822   2.818   4.567  16.446 -0.3602 -0.7563 -0.0055
  874MPD2    C512823   2.710   4.546  16.369 -0.3896  0.1427 -0.6673
  874MPD2     H12824   2.965   4.265  16.412  0.1750  0.3430  2.5949
  874MPD2    H112825   2.825   4.671  16.476 -3.0975 -0.1524 -1.4772
  874MPD2    H212826   2.590   4.418  16.260  0.3186 -2.8438 -1.7814
  874MPD2    H312827   2.645   4.629  16.344 -1.7170 -0.7710 -0.2627
  874MPD2     N12828   3.037   4.470  16.523  0.2825 -0.0866 -0.1209
  874MPD2    H512829   3.100   4.391  16.517  0.7093  0.0586  2.2841
  874MPD2    N112830   2.733   4.201  16.264 -0.2520 -0.6583 -0.2803
  874MPD2    H712831   2.639   4.185  16.229 -0.5162 -0.4144  0.3166
  875MPD2     C12832   3.308   1.746  14.759  0.3315  0.9513  0.2035
  875MPD2    C112833   3.279   1.880  14.732 -0.0471 -0.1831 -0.0545
  875MPD2    C212834   3.333   1.974  14.818  0.4593  0.2532 -0.1772
  875MPD2    C312835   3.412   1.938  14.924  0.6147  0.0543  0.2028
  875MPD2    C412836   3.444   1.808  14.947 -0.3035 -0.3556 -0.7093
  875MPD2    C512837   3.402   1.715  14.857  0.2226  0.1936  0.0764
  875MPD2     H12838   3.308   2.075  14.787 -1.1105  0.1836  0.8758
  875MPD2    H112839   3.510   1.779  15.028  0.2705  0.2871 -0.9482
  875MPD2    H212840   3.267   1.658  14.710  2.3242 -0.3730  0.8986
  875MPD2    H312841   3.416   1.609  14.878 -0.4556 -0.4143 -2.5266
  875MPD2     N12842   3.480   2.030  15.010 -0.4440  0.5324 -0.2735
  875MPD2    H512843   3.554   1.988  15.065 -2.6167 -2.1405  0.5899
  875MPD2    N112844   3.199   1.919  14.628 -0.2102  0.2384  0.3380
  875MPD2    H712845   3.184   2.020  14.626 -1.1299  0.1359  1.6970
  876MPD2     C12846   3.204   3.722  16.246 -0.8831 -0.1903  0.9340
  876MPD2    C112847   3.148   3.635  16.156 -1.1288  0.6911  0.3460
  876MPD2    C212848   3.130   3.502  16.183  0.0852  0.2612  0.1382
  876MPD2    C312849   3.170   3.458  16.311 -0.3234  0.1841  0.2503
  876MPD2    C412850   3.212   3.551  16.406  0.5414  0.5718 -0.3039
  876MPD2    C512851   3.236   3.678  16.369  1.3119 -0.4090 -0.8876
  876MPD2     H12852   3.090   3.436  16.107 -1.9327  1.2416  0.3352
  876MPD2    H112853   3.236   3.518  16.506 -0.6053 -1.6233 -0.7456
  876MPD2    H212854   3.225   3.824  16.216 -0.2573 -1.0273 -1.4659
  876MPD2    H312855   3.283   3.750  16.434 -1.5033  0.3676  0.2879
  876MPD2     N12856   3.167   3.320  16.334 -0.2060 -0.0751  0.1611
  876MPD2    H512857   3.144   3.270  16.249  0.6422 -0.2134  0.0159
  876MPD2    N112858   3.112   3.683  16.024  0.2374  0.1730 -0.7169
  876MPD2    H712859   3.154   3.768  15.987  1.7236 -0.1851  0.1803
  877MPD2     C12860   2.964   4.213  15.452 -0.2659  0.1368 -0.1946
  877MPD2    C112861   3.012   4.091  15.408 -0.6201 -0.5145  0.2239
  877MPD2    C212862   3.017   4.056  15.279 -0.1132 -0.2902  0.2043
  877MPD2    C312863   2.994   4.158  15.184 -0.2963  0.0330  0.2395
  877MPD2    C412864   2.941   4.273  15.219 -0.1698 -0.8962  0.6828
  877MPD2    C512865   2.936   4.309  15.355 -0.2450  0.3935  0.4516
  877MPD2     H12866   3.047   3.955  15.253  0.8669  0.3691 -1.2450
  877MPD2    H112867   2.896   4.340  15.146 -1.4960  0.2663  2.5663
  877MPD2    H212868   2.946   4.236  15.557  1.6537 -0.2835  0.2192
  877MPD2    H312869   2.901   4.408  15.383  1.4808  0.4986  2.2255
  877MPD2     N12870   3.023   4.141  15.046  0.0709 -0.0626 -0.4572
  877MPD2    H512871   3.006   4.221  14.986  0.3230  0.0481 -0.3858
  877MPD2    N112872   3.052   3.979  15.485 -0.5645 -0.0360 -0.1498
  877MPD2    H712873   3.102   3.909  15.431  0.5227 -0.2539  1.1177
  878MPD2     C12874   2.167   2.924  13.136 -0.7171  0.0824  0.1010
  878MPD2    C112875   2.263   3.009  13.088 -0.4112  0.0164 -1.0410
  878MPD2    C212876   2.311   3.111  13.170 -0.0153  0.0200 -0.2224
  878MPD2    C312877   2.260   3.140  13.300  0.3691 -0.6322 -0.1520
  878MPD2    C412878   2.159   3.048  13.339 -0.2580  0.7511  0.2434
  878MPD2    C512879   2.112   2.947  13.258  0.1457  0.7354  0.7933
  878MPD2     H12880   2.393   3.171  13.132 -1.1641  1.7253 -0.0445
  878MPD2    H112881   2.100   3.069  13.428 -1.4757  0.1016 -0.4166
  878MPD2    H212882   2.126   2.847  13.071 -1.2347 -0.1171  0.6642
  878MPD2    H312883   2.040   2.871  13.287  2.3902 -1.5586  0.3097
  878MPD2     N12884   2.329   3.221  13.395 -0.6890 -0.2922 -0.1597
  878MPD2    H512885   2.407   3.272  13.355 -1.5271  0.7303 -0.4767
  878MPD2    N112886   2.310   2.991  12.957 -0.5345  0.3058 -0.2261
  878MPD2    H712887   2.284   2.900  12.920 -2.4533  1.2192 -1.1199
  879MPD2     C12888   3.196   0.264  17.022  0.3114  0.6672  0.1974
  879MPD2    C112889   3.197   0.140  17.083 -0.2630  0.1956 -0.4397
  879MPD2    C212890   3.101   0.042  17.054 -0.7540 -0.0739  0.1109
  879MPD2    C312891   3.006   0.070  16.963  0.8819 -0.5288 -0.0760
  879MPD2    C412892   3.001   0.194  16.904  0.3151  0.1852  0.3880
  879MPD2    C512893   3.096   0.287  16.931 -0.5847  0.3865  0.5377
  879MPD2     H12894   3.110   4.667  17.102 -2.5490  0.9365  2.5103
  879MPD2    H112895   2.933   0.225  16.826 -0.1142 -0.0274  0.6718
  879MPD2    H212896   3.267   0.337  17.060 -0.3986  0.9649  0.9453
  879MPD2    H312897   3.095   0.384  16.882 -1.0497  0.2719  0.3211
  879MPD2     N12898   2.911   4.695  16.912 -0.7232  0.0640 -0.2959
  879MPD2    H512899   2.830   0.000  16.857 -0.7505  2.0115  0.7374
  879MPD2    N112900   3.285   0.125  17.195  0.3555  0.1200 -0.3660
  879MPD2    H712901   3.329   0.212  17.225 -1.4273  1.0126 -0.3143
  880MPD2     C12902   3.217   2.000   0.574  0.4813 -0.6614  0.4157
  880MPD2    C112903   3.354   2.006   0.561 -0.5564  0.1292 -0.0887
  880MPD2    C212904   3.434   1.989   0.669 -0.0360 -0.1527  0.4797
  880MPD2    C312905   3.382   1.962   0.793 -0.0185  1.0855  0.3533
  880MPD2    C412906   3.245   1.959   0.809 -0.0545  0.3318  0.2055
  880MPD2    C512907   3.164   1.973   0.700  0.1454  0.4844  0.2764
  880MPD2     H12908   3.539   1.989   0.644 -0.4655  0.7477 -1.3628
  880MPD2    H112909   3.196   1.924   0.899 -2.0010 -0.6910 -1.2522
  880MPD2    H212910   3.157   2.018   0.485 -0.4315 -0.2675  1.1132
  880MPD2    H312911   3.058   1.954   0.714 -0.2728  3.1413  0.9299
  880MPD2     N12912   3.468   1.926   0.899 -0.2746 -1.3235  0.4236
  880MPD2    H512913   3.568   1.929   0.878 -0.6842  1.1940 -1.2476
  880MPD2    N112914   3.405   2.027   0.427  0.1098 -0.2600 -0.4808
  880MPD2    H712915   3.340   2.032   0.350  1.4101  1.8814 -1.4369
  881MPD2     C12916   4.372   2.097   0.087  0.5375 -0.9169 -0.4522
  881MPD2    C112917   4.292   2.090  17.669  1.3534  0.2431  0.0035
  881MPD2    C212918   4.149   2.096  17.679 -0.1473 -0.6280 -0.2616
  881MPD2    C312919   4.092   2.097   0.115  0.2695  0.1715 -0.3822
  881MPD2    C412920   4.167   2.117   0.231  0.1116  0.4819  0.4905
  881MPD2    C512921   4.309   2.111   0.212  0.6515 -0.4940 -0.3163
  881MPD2     H12922   4.089   2.092  17.589 -0.3676 -2.0535 -0.0521
  881MPD2    H112923   4.125   2.115   0.331 -1.1447 -0.8798 -0.0598
  881MPD2    H212924   4.479   2.107   0.068 -0.0206 -0.0880 -3.1960
  881MPD2    H312925   4.369   2.119   0.302  0.1118 -1.8229  0.1582
  881MPD2     N12926   3.957   2.089   0.137  0.1105 -0.0598  0.6644
  881MPD2    H512927   3.935   2.070   0.234  1.1735 -0.4809  0.8201
  881MPD2    N112928   4.350   2.089  17.541  0.0051 -0.0315  0.5421
  881MPD2    H712929   4.283   2.106  17.467  0.4332 -2.2647 -0.3754
  882MPD2     C12930   2.851   3.896  14.200  0.0063  0.1082 -0.5530
  882MPD2    C112931   2.788   3.933  14.323 -0.8788 -0.4798  0.0058
  882MPD2    C212932   2.648   3.922  14.335  0.1450 -0.2641 -0.0212
  882MPD2    C312933   2.569   3.891  14.220 -0.5238  0.1584  0.0836
  882MPD2    C412934   2.629   3.855  14.106  0.1766 -0.3017 -0.1398
  882MPD2    C512935   2.767   3.860  14.101 -0.3216  0.3332 -0.4437
  882MPD2     H12936   2.595   3.948  14.426  1.7585 -0.5358  1.0052
  882MPD2    H112937   2.578   3.847  14.010 -2.6179  3.5858  1.0281
  882MPD2    H212938   2.957   3.903  14.176  0.6311 -2.9674  1.2508
  882MPD2    H312939   2.818   3.826  14.011 -0.8121 -1.5707 -0.0196
  882MPD2     N12940   2.427   3.908  14.210 -0.4928 -0.4378 -0.1423
  882MPD2    H512941   2.390   3.891  14.117  0.5775 -2.6609 -0.1569
  882MPD2    N112942   2.872   3.973  14.428 -0.0822  0.6385  0.8379
  882MPD2    H712943   2.962   4.009  14.400  0.4339 -1.3613 -0.0302
  883MPD2     C12944   0.010   3.414  16.253  0.4914  0.6032 -0.0086
  883MPD2    C112945   0.067   3.524  16.183  0.0595 -0.3583 -0.0674
  883MPD2    C212946   0.138   3.615  16.247 -0.6987  0.3264  0.0374
  883MPD2    C312947   0.145   3.600  16.389 -0.1695 -0.2017 -0.1453
  883MPD2    C412948   0.063   3.507  16.454 -0.0753  0.0751 -0.1774
  883MPD2    C512949   0.006   3.406  16.391 -0.9640  0.8240 -0.2740
  883MPD2     H12950   0.192   3.690  16.189  1.8023 -0.4723  1.3772
  883MPD2    H112951   0.060   3.516  16.562 -0.9224  1.6852 -0.3338
  883MPD2    H212952   4.664   3.349  16.200  2.1521 -1.0887 -0.0889
  883MPD2    H312953   4.662   3.336  16.439  1.8378 -2.4244 -1.1896
  883MPD2     N12954   0.244   3.676  16.454 -0.3250 -1.3441 -0.3073
  883MPD2    H512955   0.302   3.739  16.400 -1.8212 -0.2037 -0.6057
  883MPD2    N112956   0.030   3.550  16.054  0.8289 -0.8934  0.6634
  883MPD2    H712957   0.064   3.635  16.011 -1.4631 -0.7365 -0.9055
  884MPD2     C12958   1.812   4.348  15.442 -0.5985 -0.8832 -0.9886
  884MPD2    C112959   1.798   4.381  15.311  0.0006 -0.5960 -0.7146
  884MPD2    C212960   1.684   4.452  15.279  0.0179  0.0043  0.0943
  884MPD2    C312961   1.584   4.478  15.375 -0.0393 -0.0843  0.6886
  884MPD2    C412962   1.587   4.427  15.502 -0.2741 -0.5138  0.3651
  884MPD2    C512963   1.706   4.354  15.527 -0.3019  0.2488 -0.4902
  884MPD2     H12964   1.669   4.496  15.181  1.2903 -0.8850 -0.4960
  884MPD2    H112965   1.502   4.412  15.568 -1.1528  0.5691 -0.5215
  884MPD2    H212966   1.901   4.295  15.476  0.0602  1.0569  0.3286
  884MPD2    H312967   1.725   4.308  15.623 -2.6424 -1.5999 -0.9073
  884MPD2     N12968   1.475   4.558  15.332  0.0112  0.5120 -0.2291
  884MPD2    H512969   1.470   4.584  15.234  4.3193 -1.9147 -1.0813
  884MPD2    N112970   1.898   4.357  15.219  0.0309  0.3976 -0.0255
  884MPD2    H712971   1.883   4.391  15.124 -1.0827  1.8757  0.7019
  885MPD2     C12972   0.106   0.503   0.295 -0.1251  0.4634 -0.0319
  885MPD2    C112973   0.097   0.367   0.265  0.1552 -0.2225  0.4599
  885MPD2    C212974   0.089   0.333   0.136  0.0866  0.0905  0.2617
  885MPD2    C312975   0.085   0.431   0.032 -0.2008  0.0184 -0.1318
  885MPD2    C412976   0.101   0.562   0.067  0.3060 -0.6266  0.4338
  885MPD2    C512977   0.112   0.596   0.196  0.0925  0.2852 -0.3682
  885MPD2     H12978   0.088   0.229   0.105  2.2773 -0.2351  1.3397
  885MPD2    H112979   0.109   0.638  17.682  1.4273 -1.7865 -0.5977
  885MPD2    H212980   0.117   0.541   0.396  2.0299  0.6693 -0.3390
  885MPD2    H312981   0.127   0.700   0.220 -0.1391  0.4133 -0.7823
  885MPD2     N12982   0.079   0.382  17.591 -0.2607  0.1663  0.0718
  885MPD2    H512983   0.067   0.281  17.584 -0.8239  0.1482  1.3187
  885MPD2    N112984   0.096   0.270   0.368  0.9426  0.0548 -0.4504
  885MPD2    H712985   0.111   0.302   0.463 -0.9235 -0.0803 -0.1246
  886MPD2     C12986   1.625   3.399  15.721 -0.7744  0.7702 -0.2426
  886MPD2    C112987   1.600   3.366  15.592 -0.7327  1.3265  0.3778
  886MPD2    C212988   1.517   3.451  15.518 -0.0796 -0.4488 -0.0915
  886MPD2    C312989   1.481   3.574  15.568 -0.5559 -0.0208 -0.2777
  886MPD2    C412990   1.505   3.601  15.698 -0.3841  0.1606 -0.5138
  886MPD2    C512991   1.578   3.518  15.776 -0.1566 -0.3547  0.6196
  886MPD2     H12992   1.500   3.430  15.413 -0.5240  0.7708 -0.2657
  886MPD2    H112993   1.459   3.692  15.735  0.2455 -0.6363  2.2277
  886MPD2    H212994   1.661   3.327  15.794 -0.7156 -0.4943 -1.5034
  886MPD2    H312995   1.590   3.530  15.883  1.8563 -0.4465  0.4032
  886MPD2     N12996   1.439   3.683  15.484 -0.5444 -0.0093  0.0370
  886MPD2    H512997   1.432   3.774  15.530  1.1354  0.3336 -0.3856
  886MPD2    N112998   1.655   3.254  15.534 -0.5659 -0.6104 -0.3429
  886MPD2    H712999   1.630   3.241  15.436 -0.7178  0.2961 -0.4287
  887MPD2     C13000   2.345   3.261  15.390 -0.1755  0.1704  0.0222
  887MPD2    C113001   2.218   3.316  15.419 -0.7027  0.4342  0.2222
  887MPD2    C213002   2.216   3.432  15.498 -0.3840  0.2830  0.3893
  887MPD2    C313003   2.332   3.495  15.541 -0.5120 -0.2768 -0.3468
  887MPD2    C413004   2.452   3.447  15.505 -1.1175  0.6937  0.5848
  887MPD2    C513005   2.452   3.323  15.443  0.0686  0.7080 -0.2612
  887MPD2     H13006   2.128   3.489  15.524 -0.3978 -0.5667  2.2383
  887MPD2    H113007   2.543   3.494  15.541 -0.0461 -1.3339  0.5244
  887MPD2    H213008   2.360   3.169  15.336  0.4915 -1.2857  2.6818
  887MPD2    H313009   2.552   3.281  15.435  0.9131  2.7499 -0.4315
  887MPD2     N13010   2.315   3.612  15.620  0.4403 -0.1276 -0.6275
  887MPD2    H513011   2.217   3.616  15.644  0.2627 -0.2060 -1.3338
  887MPD2    N113012   2.093   3.253  15.391 -0.2847 -0.0961  0.1940
  887MPD2    H713013   2.005   3.297  15.416 -1.7188 -1.9983 -1.4034
  888MPD2     C13014   3.880   3.188  14.832 -0.5857 -0.0339 -0.0071
  888MPD2    C113015   3.849   3.246  14.958  0.5659 -0.5575  0.0700
  888MPD2    C213016   3.921   3.357  14.997  0.1242 -0.2777 -0.0074
  888MPD2    C313017   4.022   3.422  14.928 -0.5747 -0.1983  0.3074
  888MPD2    C413018   4.044   3.369  14.802  0.1050 -0.3373 -0.7505
  888MPD2    C513019   3.974   3.257  14.757  0.2565  0.7016 -0.0179
  888MPD2     H13020   3.892   3.412  15.086 -2.4368 -1.8444  0.1223
  888MPD2    H113021   4.114   3.406  14.728 -0.2921  1.4921 -0.2320
  888MPD2    H213022   3.834   3.103  14.783  1.2165  0.6105 -2.7636
  888MPD2    H313023   3.992   3.230  14.653 -1.6619 -0.7318  0.0315
  888MPD2     N13024   4.083   3.540  14.977 -0.6216 -0.0638  0.4034
  888MPD2    H513025   4.063   3.566  15.073 -2.6805 -0.7044  0.1418
  888MPD2    N113026   3.746   3.193  15.044 -0.5058  0.2246  0.1472
  888MPD2    H713027   3.752   3.223  15.140  1.3399 -0.4063  0.2209
  889MPD2     C13028   2.612   2.655  12.864  0.3213  0.2832 -1.2559
  889MPD2    C113029   2.707   2.630  12.973  0.0965 -0.3073  0.1220
  889MPD2    C213030   2.778   2.742  13.026 -0.1204 -0.0066 -0.2922
  889MPD2    C313031   2.752   2.873  12.981 -0.0624 -0.0401  1.0567
  889MPD2    C413032   2.668   2.890  12.868 -0.2639 -0.2767  0.5002
  889MPD2    C513033   2.597   2.783  12.814 -0.0173 -0.1335 -0.0784
  889MPD2     H13034   2.823   2.726  13.123  0.9327 -0.3269 -0.8392
  889MPD2    H113035   2.657   2.991  12.830  1.1020 -0.3302 -0.0453
  889MPD2    H213036   2.539   2.581  12.834 -0.3204 -0.0445  1.1453
  889MPD2    H313037   2.528   2.800  12.732  0.1891  0.3343 -0.1533
  889MPD2     N13038   2.821   2.982  13.047 -0.2873 -0.4298 -0.8998
  889MPD2    H513039   2.863   2.959  13.137  1.6054  1.7650 -1.2199
  889MPD2    N113040   2.705   2.504  13.041 -0.5109 -0.3057 -0.1407
  889MPD2    H713041   2.770   2.500  13.119 -0.3308 -3.1103 -0.4440
  890MPD2     C13042   3.394   4.260  14.936  0.4826  0.5416 -0.3553
  890MPD2    C113043   3.310   4.364  14.977  0.2171  0.3562 -0.2713
  890MPD2    C213044   3.274   4.376  15.110  0.2670 -0.4516  0.4758
  890MPD2    C313045   3.313   4.279  15.208 -0.5802 -0.2650  0.0516
  890MPD2    C413046   3.397   4.180  15.166 -0.4290 -0.3572 -0.4051
  890MPD2    C513047   3.437   4.171  15.033 -0.2824 -0.7633  0.5017
  890MPD2     H13048   3.208   4.457  15.141  0.9655  0.0928  0.5454
  890MPD2    H113049   3.442   4.116  15.241 -1.2957  0.9738  1.2657
  890MPD2    H213050   3.441   4.248  14.839 -1.5408 -0.6784 -1.1993
  890MPD2    H313051   3.509   4.096  15.003  0.4498 -0.2325  0.9175
  890MPD2     N13052   3.304   4.326  15.345  0.1837  0.4359  0.2802
  890MPD2    H513053   3.264   4.419  15.349 -2.1381 -0.5049 -0.3495
  890MPD2    N113054   3.270   4.458  14.880 -0.0872  0.0311  0.0088
  890MPD2    H713055   3.318   4.453  14.791 -0.4204  0.4645 -0.1967
  891MPD2     C13056   0.841   2.623  16.717  0.0469 -0.1251  0.8804
  891MPD2    C113057   0.862   2.755  16.672 -0.1743 -0.2012  0.2883
  891MPD2    C213058   0.968   2.826  16.713  0.2243 -0.6806  0.0128
  891MPD2    C313059   1.068   2.761  16.791  0.7444  0.0083  0.0188
  891MPD2    C413060   1.057   2.631  16.827 -0.6118  0.4714  0.2280
  891MPD2    C513061   0.940   2.569  16.799 -0.7310 -0.3802 -0.3407
  891MPD2     H13062   0.972   2.932  16.689  2.4661 -0.3081  2.0478
  891MPD2    H113063   1.129   2.575  16.885 -0.6603 -0.0932 -0.2555
  891MPD2    H213064   0.754   2.560  16.704  1.9473 -1.8513 -3.9094
  891MPD2    H313065   0.924   2.467  16.834  0.4053 -0.3554  0.2718
  891MPD2     N13066   1.162   2.849  16.852  0.1370  0.5831  0.4158
  891MPD2    H513067   1.147   2.947  16.831  1.5529  0.4015 -1.5079
  891MPD2    N113068   0.759   2.808  16.591  0.2758  0.2098 -0.3748
  891MPD2    H713069   0.678   2.748  16.584  0.1637  0.2902  0.1677
  892MPD2     C13070   1.878   4.027  14.996 -0.0946  0.3087  0.2081
  892MPD2    C113071   1.791   4.074  14.901 -0.2663  0.1358 -0.0104
  892MPD2    C213072   1.820   4.069  14.765 -0.0589  0.5574 -0.0800
  892MPD2    C313073   1.937   4.005  14.731  0.5225 -0.2012  0.1728
  892MPD2    C413074   2.024   3.958  14.825  0.1563 -1.1887  1.0045
  892MPD2    C513075   1.991   3.958  14.957 -0.1213  0.8654  0.6621
  892MPD2     H13076   1.757   4.118  14.692  0.1817  0.9219 -0.0412
  892MPD2    H113077   2.115   3.907  14.797  0.8641  1.3603 -1.3647
  892MPD2    H213078   1.854   4.033  15.101 -1.6595  2.1112 -0.2535
  892MPD2    H313079   2.063   3.911  15.023  1.0135  0.2523 -1.0175
  892MPD2     N13080   1.993   4.010  14.602 -0.0074  0.2665 -0.0392
  892MPD2    H513081   2.088   3.972  14.598  0.0041  0.3014 -0.1011
  892MPD2    N113082   1.675   4.149  14.936  0.1720 -0.0937 -0.3209
  892MPD2    H713083   1.625   4.192  14.859  1.3276  0.0217 -0.9958
  893MPD2     C13084   2.965   2.580   1.253  0.2893 -0.0959 -0.3438
  893MPD2    C113085   3.005   2.581   1.386  0.7762  0.1668  0.6570
  893MPD2    C213086   2.910   2.603   1.482 -0.0283 -0.4495  0.1470
  893MPD2    C313087   2.777   2.622   1.461 -0.1786  0.5909 -1.1420
  893MPD2    C413088   2.736   2.633   1.329  0.7237 -0.0134 -0.2862
  893MPD2    C513089   2.830   2.612   1.229  0.2663  0.2407 -0.8632
  893MPD2     H13090   2.942   2.609   1.586  2.5179  2.9016 -0.8253
  893MPD2    H113091   2.643   2.685   1.312  0.3343  0.4655  3.4015
  893MPD2    H213092   3.029   2.560   1.168  0.4077  0.1008 -0.3015
  893MPD2    H313093   2.803   2.631   1.126  1.2264 -0.8159 -1.3006
  893MPD2     N13094   2.680   2.643   1.558  0.0552 -0.1546  0.0553
  893MPD2    H513095   2.591   2.677   1.521  0.3764  0.9977  0.3445
  893MPD2    N113096   3.139   2.536   1.405 -0.2265 -0.1080  0.0704
  893MPD2    H713097   3.192   2.536   1.318  0.8654  0.1163  0.7445
  894MPD2     C13098   0.815   0.900   0.750 -0.0138 -0.2243  0.0394
  894MPD2    C113099   0.836   0.765   0.763 -0.3040 -0.1471  0.3193
  894MPD2    C213100   0.930   0.712   0.679  0.1075 -0.0755 -0.0975
  894MPD2    C313101   1.008   0.780   0.591  0.0198 -0.1129 -0.1585
  894MPD2    C413102   0.981   0.915   0.582  0.1599 -0.1999  0.6148
  894MPD2    C513103   0.889   0.969   0.664 -0.2461  0.3540  0.2744
  894MPD2     H13104   0.932   0.603   0.681  0.4004 -0.0622  0.4367
  894MPD2    H113105   1.040   0.977   0.516  2.0152 -1.5953  0.9831
  894MPD2    H213106   0.734   0.952   0.799 -0.9558 -0.7506 -0.9371
  894MPD2    H313107   0.868   1.072   0.637 -0.1078  0.1334 -0.6948
  894MPD2     N13108   1.121   0.718   0.529 -0.2959 -0.2490 -0.6946
  894MPD2    H513109   1.122   0.617   0.539 -2.4633 -0.2920 -0.9854
  894MPD2    N113110   0.768   0.674   0.846 -0.1787 -0.1906  0.1316
  894MPD2    H713111   0.799   0.578   0.850 -0.8712 -0.3216  2.6478
  895MPD2     C13112   1.097   3.178  13.546  0.0357  0.3299 -0.6649
  895MPD2    C113113   0.957   3.150  13.542 -0.6041  0.6454  0.0837
  895MPD2    C213114   0.920   3.012  13.529  0.1996  0.4425  0.4123
  895MPD2    C313115   1.006   2.905  13.519 -0.4188  0.3045  0.1317
  895MPD2    C413116   1.144   2.942  13.526 -0.2616 -0.4375  0.5146
  895MPD2    C513117   1.185   3.072  13.539  0.4939 -0.7865 -0.2576
  895MPD2     H13118   0.814   2.996  13.516  1.0183 -2.0061 -3.2819
  895MPD2    H113119   1.223   2.870  13.508  0.1170  0.8417 -3.0162
  895MPD2    H213120   1.143   3.275  13.557 -1.3254  1.0217 -1.0291
  895MPD2    H313121   1.290   3.089  13.554  0.7545 -3.0546  0.5944
  895MPD2     N13122   0.959   2.776  13.481 -0.4735  0.3410 -0.7273
  895MPD2    H513123   0.859   2.762  13.479 -0.2119 -1.4712 -0.8936
  895MPD2    N113124   0.864   3.253  13.546 -0.0629 -0.1708 -0.3742
  895MPD2    H713125   0.767   3.225  13.543 -0.0330 -0.3852  0.8098
  896MPD2     C13126   2.345   1.399   1.716 -0.9359 -0.7668 -0.0330
  896MPD2    C113127   2.388   1.358   1.595  0.6210 -0.2359 -0.5961
  896MPD2    C213128   2.299   1.284   1.511  0.2917 -0.2802 -0.9234
  896MPD2    C313129   2.175   1.250   1.551  0.2718  0.0667 -0.4347
  896MPD2    C413130   2.137   1.286   1.681 -0.5340 -0.5755  0.4325
  896MPD2    C513131   2.219   1.369   1.759  0.1145  0.2005 -0.9490
  896MPD2     H13132   2.330   1.261   1.410  0.6622  1.8115 -1.2992
  896MPD2    H113133   2.039   1.261   1.722  0.3004 -2.1049  1.4687
  896MPD2    H213134   2.411   1.441   1.791 -0.8492 -2.1489  0.6682
  896MPD2    H313135   2.182   1.406   1.854  0.3378 -1.5244 -0.1867
  896MPD2     N13136   2.093   1.186   1.464  0.4334  0.1816 -0.1286
  896MPD2    H513137   2.135   1.149   1.379  1.0243  0.8309 -0.1184
  896MPD2    N113138   2.522   1.400   1.556  0.3883 -0.6002  0.3232
  896MPD2    H713139   2.587   1.440   1.624 -0.9202 -2.2232  2.5257
  897MPD2     C13140   4.328   2.488  10.356  0.4786 -0.6533  0.4584
  897MPD2    C113141   4.324   2.442  10.480  0.1274  0.3808 -0.2169
  897MPD2    C213142   4.245   2.501  10.574 -0.1870 -1.0556  0.3182
  897MPD2    C313143   4.164   2.604  10.543 -0.1004 -0.6901  0.1530
  897MPD2    C413144   4.173   2.648  10.415  0.8236 -0.2203 -0.4504
  897MPD2    C513145   4.250   2.595  10.316  0.4847  0.4192  0.1702
  897MPD2     H13146   4.231   2.459  10.673 -0.7910 -2.4937 -0.3806
  897MPD2    H113147   4.108   2.728  10.379  2.3646 -0.7373 -4.3304
  897MPD2    H213148   4.391   2.446  10.279  2.6653 -0.1679  2.0021
  897MPD2    H313149   4.255   2.632  10.214  2.6119  0.9999  0.4854
  897MPD2     N13150   4.068   2.653  10.630  0.1787 -0.0856  0.1304
  897MPD2    H513151   4.083   2.640  10.729  1.4375  1.4639  0.1454
  897MPD2    N113152   4.401   2.331  10.526  0.1336  0.0573 -0.0771
  897MPD2    H713153   4.395   2.316  10.627 -1.7174  0.2294 -0.1749
  898MPD2     C13154   2.159   3.261  17.212  0.2406  0.9045  0.1094
  898MPD2    C113155   2.198   3.381  17.262  0.4814 -0.4433  0.5484
  898MPD2    C213156   2.164   3.493  17.194 -0.0828  0.5042  0.7547
  898MPD2    C313157   2.081   3.488  17.085 -0.5631  0.0281  0.2606
  898MPD2    C413158   2.049   3.367  17.031 -0.5298  0.4376 -0.0924
  898MPD2    C513159   2.087   3.253  17.094  0.2806  0.9615  0.0397
  898MPD2     H13160   2.200   3.589  17.230 -0.4543  0.4225  1.3549
  898MPD2    H113161   1.997   3.350  16.937 -0.9988  0.1033  0.2253
  898MPD2    H213162   2.201   3.169  17.251  2.3960  1.8342 -0.0236
  898MPD2    H313163   2.064   3.157  17.050  0.4876  0.0272  2.0185
  898MPD2     N13164   2.050   3.606  17.020  0.0547  0.4298 -0.5467
  898MPD2    H513165   2.093   3.690  17.058  0.6129 -0.2597  0.3437
  898MPD2    N113166   2.286   3.384  17.377  0.1158  0.3143 -0.2219
  898MPD2    H713167   2.311   3.476  17.412 -1.1456  1.1881 -1.5984
  899MPD2     C13168   2.119   4.076  17.198  0.5832  0.1816 -0.3918
  899MPD2    C113169   2.141   4.185  17.279  0.2630  0.0265  0.0290
  899MPD2    C213170   2.120   4.174  17.417  0.7390 -0.3481  0.0770
  899MPD2    C313171   2.080   4.057  17.473 -0.1475  1.3359 -0.5839
  899MPD2    C413172   2.074   3.943  17.396 -0.4428  0.1985  0.0437
  899MPD2    C513173   2.092   3.959  17.257 -0.3029 -0.0625 -0.4166
  899MPD2     H13174   2.118   4.264  17.478 -0.1274  0.0229 -0.5065
  899MPD2    H113175   2.045   3.848  17.437 -1.0561 -0.4613 -1.9026
  899MPD2    H213176   2.140   4.084  17.092 -2.0335  1.8260 -0.7971
  899MPD2    H313177   2.061   3.873  17.198 -1.2280  1.5349 -2.2583
  899MPD2     N13178   2.067   4.043  17.613 -0.2995 -0.5800  0.1701
  899MPD2    H513179   2.014   3.961  17.643 -0.3212  0.3901  2.7848
  899MPD2    N113180   2.183   4.305  17.214 -0.2391 -0.1727  0.5098
  899MPD2    H713181   2.217   4.303  17.118 -0.5265 -0.1480  0.4064
  900MPD2     C13182   2.485   1.122  12.313  0.1128 -0.2576 -0.3871
  900MPD2    C113183   2.379   1.028  12.313 -0.0481 -0.2811 -0.0530
  900MPD2    C213184   2.255   1.083  12.315  0.5747 -0.1570  0.8483
  900MPD2    C313185   2.235   1.221  12.308  1.0226 -0.0801 -0.7101
  900MPD2    C413186   2.337   1.309  12.302  0.2773  0.1374  0.1187
  900MPD2    C513187   2.465   1.261  12.307 -0.6898 -0.3588 -0.0787
  900MPD2     H13188   2.166   1.020  12.308  0.6468 -0.3422  1.5694
  900MPD2    H113189   2.319   1.416  12.299  0.8228  0.2628  1.3100
  900MPD2    H213190   2.588   1.089  12.311  0.7774  1.6572  1.5263
  900MPD2    H313191   2.553   1.322  12.292 -1.1485  0.2116 -0.4607
  900MPD2     N13192   2.099   1.262  12.304  0.2661  0.2163  0.0429
  900MPD2    H513193   2.030   1.190  12.323  0.6437 -1.0053 -3.1810
  900MPD2    N113194   2.418   0.888  12.315  0.3351 -0.4915  0.0185
  900MPD2    H713195   2.518   0.870  12.311  0.5728  0.7725  0.1745
  901MPD2     C13196   2.331   4.595  12.696  0.5970  0.0763 -0.8277
  901MPD2    C113197   2.325   4.589  12.557 -0.5599  0.9394 -0.2302
  901MPD2    C213198   2.326   4.707  12.482  0.4243 -0.3046  0.2924
  901MPD2    C313199   2.325   0.108  12.546 -0.7086  0.7305  0.1287
  901MPD2    C413200   2.337   0.113  12.686 -0.0040 -0.4605  0.5029
  901MPD2    C513201   2.336   4.715  12.760 -0.6209 -0.6495 -0.1777
  901MPD2     H13202   2.311   4.718  12.375  0.3285 -0.7403  0.2590
  901MPD2    H113203   2.352   0.204  12.743  1.4560 -0.4756  0.1396
  901MPD2    H213204   2.341   4.507  12.759 -2.1920  1.2242  1.2475
  901MPD2    H313205   2.351   4.717  12.867 -0.3798 -0.1138 -0.2179
  901MPD2     N13206   2.336   0.224  12.469  0.5391 -0.0484 -0.5333
  901MPD2    H513207   2.363   0.230  12.372 -1.5826 -0.2046 -1.1352
  901MPD2    N113208   2.312   4.458  12.502 -0.2883 -0.2646  0.6823
  901MPD2    H713209   2.315   4.383  12.571  0.1333  0.5245  1.5122
  902MPD2     C13210   0.570   3.600  12.903  0.3063  0.4092 -0.0842
  902MPD2    C113211   0.633   3.687  12.812  0.4238 -0.4641  0.1518
  902MPD2    C213212   0.726   3.637  12.724 -0.2242  0.0762  0.7771
  902MPD2    C313213   0.757   3.508  12.725  0.2876  0.6379 -0.4861
  902MPD2    C413214   0.693   3.424  12.812 -0.0671 -0.0813  0.1282
  902MPD2    C513215   0.604   3.470  12.905 -1.0979 -0.1768 -0.3879
  902MPD2     H13216   0.780   3.705  12.657 -1.5457  2.0190  1.6949
  902MPD2    H113217   0.719   3.319  12.814  0.8840  0.2116  2.9492
  902MPD2    H213218   0.508   3.629  12.987  1.5886  0.0676  0.9897
  902MPD2    H313219   0.562   3.410  12.985  3.3962  0.5389  2.5100
  902MPD2     N13220   0.852   3.445  12.640 -0.0123  0.3616 -1.0493
  902MPD2    H513221   0.856   3.343  12.647  1.7035  0.4903 -0.2637
  902MPD2    N113222   0.606   3.828  12.814 -0.0067 -0.0272 -0.1196
  902MPD2    H713223   0.552   3.870  12.889  0.6798  0.5264  0.0670
  903MPD2     C13224   0.924   3.219  11.793 -0.1468  0.2654  0.0026
  903MPD2    C113225   0.855   3.263  11.900 -0.5230  0.0205 -0.0394
  903MPD2    C213226   0.719   3.281  11.894  0.4570 -0.3393  0.3530
  903MPD2    C313227   0.648   3.258  11.777  0.2204 -0.0202 -0.3219
  903MPD2    C413228   0.717   3.217  11.669  0.6284 -0.2790 -0.1267
  903MPD2    C513229   0.850   3.199  11.678  0.3403 -0.7100 -0.1639
  903MPD2     H13230   0.660   3.310  11.980 -1.9967  2.1438 -2.2032
  903MPD2    H113231   0.665   3.190  11.577  1.6720  0.9657 -1.0837
  903MPD2    H213232   1.025   3.183  11.803  0.1513  1.4698  1.2064
  903MPD2    H313233   0.899   3.152  11.593  0.5879 -0.6687 -0.0424
  903MPD2     N13234   0.509   3.267  11.774 -0.3626  0.2866  0.1875
  903MPD2    H513235   0.469   3.315  11.854  1.6228  3.0277 -0.4676
  903MPD2    N113236   0.927   3.272  12.025 -0.2538  0.2842  0.1195
  903MPD2    H713237   1.020   3.232  12.022  0.1374  1.4383 -2.5607
  904MPD2     C13238   0.461   2.526  14.204 -0.3087 -0.8785 -0.0190
  904MPD2    C113239   0.512   2.639  14.143 -0.2347 -0.1389 -0.2960
  904MPD2    C213240   0.649   2.651  14.136  0.2085 -0.6563  0.3300
  904MPD2    C313241   0.729   2.554  14.192 -0.1127  0.3371 -0.7574
  904MPD2    C413242   0.673   2.448  14.265 -0.6381 -0.1037  0.0957
  904MPD2    C513243   0.538   2.436  14.263  0.4365 -0.0147 -0.4127
  904MPD2     H13244   0.692   2.744  14.101  1.4562 -1.3124  0.1213
  904MPD2    H113245   0.733   2.371  14.313 -1.1047 -0.5498 -0.0444
  904MPD2    H213246   0.353   2.521  14.207 -0.3925  1.5882  1.4763
  904MPD2    H313247   0.493   2.348  14.307 -0.7040  0.0287 -1.5209
  904MPD2     N13248   0.863   2.557  14.190 -0.2273 -0.0053  0.3795
  904MPD2    H513249   0.920   2.480  14.223 -0.0188 -1.0006 -2.3502
  904MPD2    N113250   0.414   2.734  14.097  0.1137 -0.4560  0.3387
  904MPD2    H713251   0.316   2.711  14.087  0.2867 -1.4849  0.9975
  905MPD2     C13252   0.113   2.481  13.571  0.0164  0.1189 -0.2606
  905MPD2    C113253   0.197   2.595  13.575 -1.0332  0.0356 -0.3507
  905MPD2    C213254   0.329   2.575  13.527  1.1084  0.5402 -0.0855
  905MPD2    C313255   0.363   2.461  13.455  0.1014  0.5423  0.3838
  905MPD2    C413256   0.277   2.359  13.447  0.4629  0.3037 -0.4285
  905MPD2    C513257   0.153   2.366  13.507 -0.7120  0.2314 -0.7799
  905MPD2     H13258   0.393   2.662  13.534  1.8185 -0.0384  0.5819
  905MPD2    H113259   0.304   2.267  13.395 -0.6354 -0.7373  0.8344
  905MPD2    H213260   0.024   2.474  13.633 -1.5870  2.3398 -2.2804
  905MPD2    H313261   0.090   2.279  13.496 -0.2777  0.1067 -2.3018
  905MPD2     N13262   0.496   2.444  13.410  0.0408 -0.4312 -0.0473
  905MPD2    H513263   0.516   2.353  13.370  1.2070 -0.9843  1.7794
  905MPD2    N113264   0.162   2.706  13.649  0.1787 -0.2831 -0.0260
  905MPD2    H713265   0.079   2.696  13.706 -1.8420 -0.1457 -2.9424
  906MPD2     C13266   2.992   2.969  11.289  0.5258 -0.2115  0.3585
  906MPD2    C113267   3.045   2.881  11.192 -0.0996 -0.4400 -0.4032
  906MPD2    C213268   3.091   2.766  11.246 -0.5320  0.1117  0.2725
  906MPD2    C313269   3.097   2.739  11.379 -0.5991  0.1382  0.0828
  906MPD2    C413270   3.044   2.831  11.468  0.5008 -0.2576 -0.0593
  906MPD2    C513271   2.982   2.943  11.421 -0.1956 -0.4033 -0.0043
  906MPD2     H13272   3.110   2.682  11.179 -0.1844  0.1290  0.3497
  906MPD2    H113273   3.064   2.813  11.573 -1.4395 -1.6791  0.0621
  906MPD2    H213274   2.953   3.064  11.253 -0.3925 -0.3487  0.9920
  906MPD2    H313275   2.939   3.019  11.486 -0.7446  0.7429 -1.7165
  906MPD2     N13276   3.159   2.626  11.431 -0.1861  0.3890 -0.0282
  906MPD2    H513277   3.143   2.612  11.530  0.5410  0.3853  0.0834
  906MPD2    N113278   3.067   2.907  11.053  0.7061  0.0328  0.8330
  906MPD2    H713279   3.118   2.837  11.002  0.9475 -0.0729  1.2205
  907MPD2     C13280   1.797   2.312  15.358 -0.2887 -0.8909 -0.1190
  907MPD2    C113281   1.839   2.176  15.367 -0.3616  0.0946  0.7337
  907MPD2    C213282   1.889   2.134  15.487  1.0223 -1.0681 -0.7973
  907MPD2    C313283   1.892   2.214  15.598 -0.2856  0.2014 -0.4132
  907MPD2    C413284   1.867   2.351  15.581  0.7930 -0.6827  0.4766
  907MPD2    C513285   1.814   2.393  15.464 -0.5320  0.7078  0.2837
  907MPD2     H13286   1.924   2.034  15.509  3.0945 -0.0408  0.5194
  907MPD2    H113287   1.877   2.424  15.660  0.7966 -2.1507  1.8489
  907MPD2    H213288   1.751   2.358  15.271 -0.6904 -1.2667 -0.1046
  907MPD2    H313289   1.779   2.495  15.464 -2.5888 -0.0017  0.9461
  907MPD2     N13290   1.958   2.165  15.703  0.4670  0.5168  0.3999
  907MPD2    H513291   2.006   2.076  15.698  1.8512  1.3140 -0.5221
  907MPD2    N113292   1.821   2.078  15.265  0.2298 -0.6178  0.0287
  907MPD2    H713293   1.850   1.983  15.288  0.7463 -0.3949  0.2934
  908MPD2     C13294   0.340   2.113   9.929 -0.5409  0.4474 -0.4961
  908MPD2    C113295   0.212   2.168   9.946  0.0095 -0.1743  0.5081
  908MPD2    C213296   0.138   2.140  10.059 -0.0295 -0.0250 -0.2503
  908MPD2    C313297   0.189   2.059  10.157  0.9689 -0.1261  0.0222
  908MPD2    C413298   0.320   2.014  10.144 -0.1802 -0.0133 -0.6850
  908MPD2    C513299   0.393   2.036  10.028 -0.5854  0.1087 -0.4485
  908MPD2     H13300   0.047   2.195  10.081 -0.2541 -1.5884  2.7676
  908MPD2    H113301   0.362   1.957  10.226 -2.0739  0.2197  0.4346
  908MPD2    H213302   0.389   2.137   9.835  1.6152  0.9223  0.7545
  908MPD2    H313303   0.490   1.988  10.020 -0.3067  1.0552 -2.5391
  908MPD2     N13304   0.110   2.062  10.276  0.0027  0.5409 -0.2490
  908MPD2    H513305   0.021   2.111  10.276 -1.1019 -1.4983 -1.0528
  908MPD2    N113306   0.144   2.238   9.844 -0.2270  0.2856 -0.7175
  908MPD2    H713307   0.051   2.271   9.865 -0.3491  0.5953 -1.7494
  909MPD2     C13308   4.455   0.827  11.839  0.2817 -1.0448 -0.1014
  909MPD2    C113309   4.536   0.938  11.857  0.4010 -1.0394 -0.4402
  909MPD2    C213310   4.491   1.027  11.961 -0.1194 -0.0121  0.1129
  909MPD2    C313311   4.376   0.995  12.040 -0.5801  0.4188 -0.4110
  909MPD2    C413312   4.321   0.869  12.027  0.1366 -0.4649  0.3330
  909MPD2    C513313   4.354   0.794  11.922  0.3918 -0.6345  0.0725
  909MPD2     H13314   4.546   1.120  11.971  0.9503 -0.7019  0.6303
  909MPD2    H113315   4.247   0.817  12.087 -1.0355  1.2671  0.4118
  909MPD2    H213316   4.478   0.754  11.763  2.6389 -1.4795  1.0232
  909MPD2    H313317   4.292   0.705  11.915 -0.0913 -0.2853 -0.0355
  909MPD2     N13318   4.343   1.079  12.153 -0.2269 -0.0656  0.1664
  909MPD2    H513319   4.398   1.165  12.150  0.8498 -0.7473  0.1292
  909MPD2    N113320   4.652   0.975  11.780 -0.5440 -0.1175 -0.1258
  909MPD2    H713321   4.697   1.061  11.810 -0.8073  0.3543 -1.0705
  910MPD2     C13322   0.707   2.563  15.715 -0.5590 -0.8294  0.6113
  910MPD2    C113323   0.817   2.587  15.637 -0.2954  1.4408  0.2468
  910MPD2    C213324   0.804   2.632  15.507 -0.0737 -0.1357  0.0404
  910MPD2    C313325   0.673   2.655  15.456 -0.2680  0.0018  1.3607
  910MPD2    C413326   0.565   2.641  15.535  0.1259 -0.3827 -0.1758
  910MPD2    C513327   0.583   2.591  15.662 -0.0836  0.0729 -0.1076
  910MPD2     H13328   0.896   2.645  15.451  0.3289 -0.2905  0.6607
  910MPD2    H113329   0.468   2.666  15.493 -1.0813 -3.6054  0.6938
  910MPD2    H213330   0.711   2.539  15.821  0.3292 -1.0185  0.5355
  910MPD2    H313331   0.494   2.583  15.723  0.2215 -0.2048  0.2984
  910MPD2     N13332   0.645   2.718  15.342  0.0440  0.1954 -0.3324
  910MPD2    H513333   0.551   2.744  15.314  0.8554  2.5488 -0.8488
  910MPD2    N113334   0.950   2.580  15.684 -0.3065 -0.2255  0.8539
  910MPD2    H713335   1.028   2.616  15.631  0.1438 -0.8664  1.0812
  911MPD2     C13336   3.996   3.183  16.228  0.5964 -0.0785  0.6951
  911MPD2    C113337   4.020   3.164  16.359  0.4156 -0.2678  0.7423
  911MPD2    C213338   3.971   3.254  16.452  0.0113 -0.0631 -0.6067
  911MPD2    C313339   3.889   3.359  16.408 -0.1111 -0.2594  0.1529
  911MPD2    C413340   3.875   3.380  16.274  0.1192 -0.0685 -0.4037
  911MPD2    C513341   3.916   3.281  16.185  0.3593 -0.8255  0.2700
  911MPD2     H13342   3.990   3.246  16.559 -0.5581 -2.7911 -0.7076
  911MPD2    H113343   3.828   3.466  16.228  1.0867 -0.1039 -1.4653
  911MPD2    H213344   4.030   3.119  16.148 -0.2458  0.4935 -0.1206
  911MPD2    H313345   3.903   3.283  16.077  2.6230  1.3363  0.0274
  911MPD2     N13346   3.841   3.446  16.507  0.4632 -0.8468 -0.1059
  911MPD2    H513347   3.877   3.425  16.600  1.5183 -1.4473 -0.6498
  911MPD2    N113348   4.091   3.053  16.400  0.0753 -0.1059  0.2120
  911MPD2    H713349   4.113   2.994  16.321 -0.7580 -0.9221  0.5870
  912MPD2     C13350   3.737   3.212  15.901  0.3672  0.0838 -0.6924
  912MPD2    C113351   3.652   3.186  16.010 -0.2770 -0.4367 -0.2085
  912MPD2    C213352   3.663   3.062  16.078  0.4541 -0.2408  0.2653
  912MPD2    C313353   3.757   2.964  16.041  0.1823  0.1075 -0.5139
  912MPD2    C413354   3.845   2.996  15.936 -0.1009  0.5462 -0.2927
  912MPD2    C513355   3.828   3.116  15.862  0.6984  0.1010  0.7786
  912MPD2     H13356   3.620   3.044  16.176 -1.3175  0.5389 -0.3700
  912MPD2    H113357   3.915   2.923  15.899 -0.2778 -0.4239  1.2605
  912MPD2    H213358   3.729   3.307  15.850 -3.5201  0.9322  1.4656
  912MPD2    H313359   3.895   3.134  15.778 -2.6424  1.3110 -1.6054
  912MPD2     N13360   3.763   2.846  16.115 -0.9943 -0.3943  0.3135
  912MPD2    H513361   3.694   2.837  16.190 -2.0870  0.9919 -0.5255
  912MPD2    N113362   3.578   3.298  16.055 -0.5189  0.2560 -0.0599
  912MPD2    H713363   3.592   3.383  16.001 -0.2741  0.5905  0.5349
  913MPD2     C13364   4.066   4.238  10.224 -0.0998  0.2579 -0.2322
  913MPD2    C113365   4.165   4.330  10.255  0.3126 -0.2005 -0.0877
  913MPD2    C213366   4.212   4.413  10.152 -0.1353  0.9650 -0.2594
  913MPD2    C313367   4.172   4.387  10.023  0.5537  0.3674 -0.0067
  913MPD2    C413368   4.078   4.293  10.003  0.4058  0.0234  0.3576
  913MPD2    C513369   4.029   4.222  10.098 -0.0194 -0.7404 -0.0134
  913MPD2     H13370   4.276   4.498  10.174  0.2674  0.7440 -0.5818
  913MPD2    H113371   4.040   4.265   9.906  0.9109 -0.6397  0.3492
  913MPD2    H213372   4.028   4.173  10.302 -0.9463  3.0741  1.7023
  913MPD2    H313373   3.951   4.151  10.074  1.2682 -1.5636 -1.7206
  913MPD2     N13374   4.224   4.459   9.906 -0.3242 -0.2665 -0.6205
  913MPD2    H513375   4.183   4.432   9.817  0.2767 -0.7831 -0.7364
  913MPD2    N113376   4.191   4.348  10.387  0.6853  0.3942 -0.4507
  913MPD2    H713377   4.156   4.278  10.451  1.6401  0.1077 -0.2378
  914MPD2     C13378   1.599   4.246  11.909  0.7320  0.3131  0.5915
  914MPD2    C113379   1.715   4.302  11.855  0.1538  0.1209  0.0370
  914MPD2    C213380   1.840   4.276  11.914 -0.2503  0.2463  0.4076
  914MPD2    C313381   1.849   4.194  12.026 -0.2427  0.4531  0.2299
  914MPD2    C413382   1.730   4.146  12.085  0.1224 -0.4688  0.1031
  914MPD2    C513383   1.610   4.165  12.025  0.7931 -0.2892  0.6334
  914MPD2     H13384   1.930   4.323  11.877  0.1704  0.0544  1.1660
  914MPD2    H113385   1.725   4.090  12.177 -0.4964  0.0943  0.4125
  914MPD2    H213386   1.499   4.273  11.877  2.0888  2.3400 -2.0190
  914MPD2    H313387   1.517   4.135  12.072  0.1617  2.3908  1.1005
  914MPD2     N13388   1.977   4.184  12.079 -0.6557 -0.9936  0.7090
  914MPD2    H513389   2.052   4.240  12.041  0.9489 -3.3432  0.4688
  914MPD2    N113390   1.700   4.400  11.759  0.3899 -0.5992  0.7649
  914MPD2    H713391   1.605   4.433  11.745  0.9458  0.8585  0.4675
  915MPD2     C13392   0.518   4.400  15.825  0.4119  0.4670 -0.7678
  915MPD2    C113393   0.402   4.462  15.787  0.1448  0.2236 -0.7291
  915MPD2    C213394   0.335   4.553  15.875  0.2655 -0.1147  0.4547
  915MPD2    C313395   0.390   4.573  16.001 -0.2565  0.5036  1.1538
  915MPD2    C413396   0.506   4.511  16.039  0.1144 -0.1805 -0.1431
  915MPD2    C513397   0.580   4.433  15.946 -0.2379  0.4667 -0.0128
  915MPD2     H13398   0.252   4.615  15.842 -0.1776 -2.0817 -2.0669
  915MPD2    H113399   0.548   4.529  16.137  1.3303  0.6451 -0.8219
  915MPD2    H213400   0.556   4.320  15.761  2.1867  1.5944 -1.0969
  915MPD2    H313401   0.680   4.405  15.975 -1.1053 -2.3313  0.2864
  915MPD2     N13402   0.316   4.646  16.094 -0.2537  0.0839 -0.1129
  915MPD2    H513403   0.234   4.692  16.055 -1.0273 -1.6140 -0.4857
  915MPD2    N113404   0.343   4.424  15.663  0.1754 -0.1907 -0.1765
  915MPD2    H713405   0.400   4.373  15.595  0.3116  0.2986 -0.4287
  916MPD2     C13406   3.361   2.989  15.876  0.1198  0.7295 -0.3062
  916MPD2    C113407   3.299   2.889  15.949 -0.4602 -0.1956 -0.2657
  916MPD2    C213408   3.286   2.767  15.896 -0.4808  0.1753 -0.2067
  916MPD2    C313409   3.323   2.748  15.762 -0.4145 -0.1261 -0.4539
  916MPD2    C413410   3.387   2.844  15.692 -0.4289  0.1273 -0.3475
  916MPD2    C513411   3.414   2.961  15.752 -0.6050 -0.3544 -0.0127
  916MPD2     H13412   3.251   2.676  15.943  1.6313 -0.4533  0.1623
  916MPD2    H113413   3.424   2.823  15.592 -1.2577  0.6243 -0.7525
  916MPD2    H213414   3.368   3.092  15.908 -2.6824  0.1576  2.1395
  916MPD2    H313415   3.470   3.033  15.693 -0.9089 -1.6172 -1.8424
  916MPD2     N13416   3.297   2.618  15.718  0.2475 -0.2105  0.2003
  916MPD2    H513417   3.236   2.565  15.780 -0.6535  0.6008 -0.0013
  916MPD2    N113418   3.267   2.930  16.078 -0.1373  0.0475 -0.4188
  916MPD2    H713419   3.281   3.028  16.100  1.4425  0.4040 -2.9918
  917MPD2     C13420   3.600   0.431  11.174 -0.7253  0.1186 -0.2152
  917MPD2    C113421   3.621   0.510  11.289  0.5034  0.3347 -0.0091
  917MPD2    C213422   3.687   0.631  11.276 -0.4156  0.7916  0.1086
  917MPD2    C313423   3.731   0.673  11.152 -0.9575 -0.5081 -0.3472
  917MPD2    C413424   3.695   0.602  11.043 -0.2381 -0.2139  0.2535
  917MPD2    C513425   3.628   0.484  11.050  0.8726  0.0026  0.5116
  917MPD2     H13426   3.709   0.692  11.363 -0.0642 -1.5666  1.6607
  917MPD2    H113427   3.725   0.637  10.945  0.4755  0.6581  0.7825
  917MPD2    H213428   3.537   0.342  11.184  2.1663 -1.9374 -0.4155
  917MPD2    H313429   3.596   0.426  10.964  0.1249  0.9413  0.1587
  917MPD2     N13430   3.782   0.803  11.126  0.0249  0.6778  0.3825
  917MPD2    H513431   3.789   0.826  11.027  1.4466 -1.5092 -0.0303
  917MPD2    N113432   3.584   0.460  11.418 -0.3235 -0.1187 -0.3073
  917MPD2    H713433   3.542   0.367  11.415 -0.6149  0.0274 -0.9117
  918MPD2     C13434   3.927   0.397  12.409  0.6434  0.4201 -0.2021
  918MPD2    C113435   3.898   0.281  12.341  0.0863 -0.4342 -0.3604
  918MPD2    C213436   3.833   0.279  12.216 -0.4935  0.4778 -0.4185
  918MPD2    C313437   3.801   0.400  12.161  0.6456  0.0885 -0.0115
  918MPD2    C413438   3.835   0.519  12.232 -0.0100  0.5149 -1.2372
  918MPD2    C513439   3.893   0.519  12.360  0.2648 -0.3127  0.0779
  918MPD2     H13440   3.819   0.183  12.168 -0.0081 -0.3592  1.1259
  918MPD2    H113441   3.796   0.612  12.191  0.8220  2.0423  1.4298
  918MPD2    H213442   3.974   0.410  12.507  1.2450  2.9418 -0.8119
  918MPD2    H313443   3.906   0.607  12.422  0.8855 -0.7041  0.5057
  918MPD2     N13444   3.728   0.412  12.040  0.0267  0.0156 -0.3130
  918MPD2    H513445   3.704   0.504  12.006 -1.5230 -0.7990 -1.4288
  918MPD2    N113446   3.940   0.156  12.394  0.7219  0.4284 -0.2774
  918MPD2    H713447   3.924   0.074  12.336 -0.9434  0.1683  0.5488
  919MPD2     C13448   3.694   4.095  11.703 -0.1769  0.5191  0.1567
  919MPD2    C113449   3.779   4.015  11.629  0.0535  0.7458 -0.4150
  919MPD2    C213450   3.768   4.015  11.494  0.6525 -1.0242  0.5987
  919MPD2    C313451   3.683   4.098  11.427 -0.2665  0.1334  0.3637
  919MPD2    C413452   3.611   4.189  11.504  0.1285 -0.0934  0.0785
  919MPD2    C513453   3.623   4.188  11.637  0.1905  0.4095  0.2872
  919MPD2     H13454   3.825   3.944  11.434  0.6397  0.5256 -1.2366
  919MPD2    H113455   3.555   4.269  11.457  0.0217 -0.2503 -0.0626
  919MPD2    H213456   3.678   4.097  11.810 -2.5177 -1.5200 -0.1677
  919MPD2    H313457   3.566   4.256  11.700 -1.1671  0.2420 -0.7673
  919MPD2     N13458   3.665   4.097  11.294 -0.1528 -0.2298 -1.0284
  919MPD2    H513459   3.605   4.168  11.253 -0.0646  0.2322 -0.3661
  919MPD2    N113460   3.865   3.916  11.688  0.2585  0.6060 -0.3448
  919MPD2    H713461   3.910   3.844  11.632  0.1908  0.4192 -0.1604
  920MPD2     C13462   3.980   4.624  10.497 -0.1108  0.2596 -0.8557
  920MPD2    C113463   3.905   4.519  10.453 -0.3366 -0.0166  0.3104
  920MPD2    C213464   3.876   4.423  10.543 -0.2057 -0.2168 -0.7002
  920MPD2    C313465   3.906   4.423  10.672  0.5444 -0.1829  0.1314
  920MPD2    C413466   3.969   4.532  10.722  0.6430  0.2040  0.4304
  920MPD2    C513467   4.008   4.630  10.632  0.3142 -0.0294  0.8543
  920MPD2     H13468   3.812   4.340  10.514  0.8423 -2.0056  2.0693
  920MPD2    H113469   4.001   4.545  10.825  1.8645  3.9122 -0.4054
  920MPD2    H213470   4.015   4.703  10.432 -0.8885 -0.3938 -2.0695
  920MPD2    H313471   4.059   4.717  10.671 -0.2011 -0.2787  2.0627
  920MPD2     N13472   3.861   4.310  10.748  0.2340  0.3052  0.2656
  920MPD2    H513473   3.818   4.228  10.707 -1.0871  1.0621  0.1338
  920MPD2    N113474   3.847   4.505  10.325  0.5091 -0.0160  0.5607
  920MPD2    H713475   3.788   4.424  10.310  1.0359 -0.4214  0.6988
  921MPD2     C13476   0.177   2.990  16.877  0.5066 -0.2173  0.0562
  921MPD2    C113477   0.167   2.914  16.763  0.5615 -0.1696 -0.0017
  921MPD2    C213478   0.044   2.864  16.720  0.1109  0.1495  0.2387
  921MPD2    C313479   4.660   2.886  16.799 -0.3609 -0.0102  0.3474
  921MPD2    C413480   4.673   2.962  16.917 -0.2161 -0.2073  0.0521
  921MPD2    C513481   0.070   3.012  16.958 -0.2885 -0.1250 -0.3311
  921MPD2     H13482   0.038   2.807  16.628  0.2265 -0.1619  0.4242
  921MPD2    H113483   4.583   2.982  16.975  1.2243  3.9671  0.8602
  921MPD2    H213484   0.269   3.042  16.901 -1.1173  2.3486  0.6838
  921MPD2    H313485   0.081   3.067  17.051 -0.9341  1.5693 -1.2589
  921MPD2     N13486   4.530   2.858  16.767 -0.4140 -0.1795 -0.0593
  921MPD2    H513487   4.462   2.891  16.835 -0.2360  0.6028 -0.2656
  921MPD2    N113488   0.275   2.913  16.671 -0.0374 -0.2606 -0.5736
  921MPD2    H713489   0.357   2.962  16.706 -0.2911 -0.8681  0.8830
  922MPD2     C13490   0.898   0.810  16.713  0.1428 -0.0320  0.2021
  922MPD2    C113491   0.887   0.923  16.794 -0.0915  0.2681 -0.1814
  922MPD2    C213492   0.823   0.902  16.912 -0.8161 -0.4040 -0.1809
  922MPD2    C313493   0.779   0.781  16.965  0.3639  0.2886 -1.1462
  922MPD2    C413494   0.795   0.674  16.883  0.0929 -0.2176  0.0416
  922MPD2    C513495   0.859   0.687  16.761  0.5336  0.3348 -0.8627
  922MPD2     H13496   0.808   0.989  16.974 -2.7356 -2.0508  1.6872
  922MPD2    H113497   0.765   0.571  16.897  0.6025 -0.8080 -3.1775
  922MPD2    H213498   0.928   0.808  16.609 -1.9273 -0.6710 -0.3831
  922MPD2    H313499   0.867   0.600  16.698 -1.1329 -0.4767  0.0437
  922MPD2     N13500   0.713   0.778  17.093  0.3610 -0.0939  1.2978
  922MPD2    H513501   0.694   0.873  17.125 -0.2001 -0.3172  1.6085
  922MPD2    N113502   0.929   1.052  16.749  0.1606 -0.3013  0.3984
  922MPD2    H713503   0.910   1.128  16.813  2.8917  1.2781 -0.7000
  923MPD2     C13504   2.943   3.113   8.532 -0.0099 -0.2576  0.3072
  923MPD2    C113505   2.840   3.102   8.618 -0.2015 -0.3118 -0.0839
  923MPD2    C213506   2.859   3.092   8.754  0.3335  0.8924  0.5678
  923MPD2    C313507   2.985   3.105   8.812  0.5064  0.3698 -0.3900
  923MPD2    C413508   3.096   3.093   8.730  0.7474 -0.0935 -1.1945
  923MPD2    C513509   3.069   3.103   8.588  0.2631  0.3262 -0.4228
  923MPD2     H13510   2.771   3.067   8.814 -0.3123 -2.7991 -1.9278
  923MPD2    H113511   3.198   3.094   8.765  0.1162  0.1794  0.6135
  923MPD2    H213512   2.940   3.133   8.425 -1.3515 -0.3977  0.3212
  923MPD2    H313513   3.151   3.110   8.518  2.4186 -0.3166  2.0632
  923MPD2     N13514   3.005   3.111   8.952  0.3541  0.7192 -0.0729
  923MPD2    H513515   3.103   3.120   8.975  0.3765 -2.0241  0.8159
  923MPD2    N113516   2.707   3.105   8.558  0.5446 -0.1106  0.1147
  923MPD2    H713517   2.709   3.100   8.457  0.1025  2.6985 -0.0323
  924MPD2     C13518   2.165   1.388  15.722  0.3125 -0.3887  0.0600
  924MPD2    C113519   2.121   1.426  15.852 -0.4108 -0.1359 -0.8871
  924MPD2    C213520   2.143   1.556  15.896  0.4744  0.3457 -0.2295
  924MPD2    C313521   2.200   1.649  15.813  0.1393 -0.1170 -0.2350
  924MPD2    C413522   2.233   1.612  15.684  0.5834 -0.0358  0.7248
  924MPD2    C513523   2.223   1.480  15.642  0.5903 -0.3272  0.5047
  924MPD2     H13524   2.118   1.586  15.997 -1.7795 -0.7967 -0.4439
  924MPD2    H113525   2.283   1.679  15.615 -1.7013  1.1302  0.1988
  924MPD2    H213526   2.145   1.293  15.674  1.5236  0.8725 -2.9217
  924MPD2    H313527   2.270   1.467  15.546 -0.9896 -2.6698  0.0651
  924MPD2     N13528   2.228   1.783  15.853  0.4694  0.3153 -0.4862
  924MPD2    H513529   2.246   1.852  15.780  1.6046 -0.9678 -1.4102
  924MPD2    N113530   2.072   1.325  15.937  0.2990 -0.9674  0.5317
  924MPD2    H713531   2.093   1.229  15.910 -1.6040 -1.2962  0.2356
  925MPD2     C13532   1.073   3.850  14.502  0.4477  0.0608  0.2985
  925MPD2    C113533   0.940   3.844  14.484  0.4012  0.0490  0.3550
  925MPD2    C213534   0.861   3.781  14.587 -0.1281 -0.3235  0.7170
  925MPD2    C313535   0.928   3.735  14.699 -0.2119 -0.1609 -0.8228
  925MPD2    C413536   1.062   3.731  14.703 -0.1397 -0.1328  0.1214
  925MPD2    C513537   1.135   3.780  14.606 -0.2950  0.3375 -0.1258
  925MPD2     H13538   0.752   3.776  14.585 -0.2044  1.6802 -1.1227
  925MPD2    H113539   1.118   3.676  14.779 -1.3495 -1.1422  0.2753
  925MPD2    H213540   1.147   3.893  14.436 -1.5614  1.6421 -0.9100
  925MPD2    H313541   1.242   3.767  14.611 -0.4192 -0.1915  1.1945
  925MPD2     N13542   0.863   3.655  14.795 -1.0897  0.2472  0.2645
  925MPD2    H513543   0.913   3.605  14.867 -0.8556  1.3702  0.8712
  925MPD2    N113544   0.874   3.907  14.373  1.0368 -0.9308  0.1878
  925MPD2    H713545   0.775   3.894  14.360  0.5434  1.6161  1.4708
  926MPD2     C13546   3.539   1.971  13.755  0.2304 -0.5482  0.1498
  926MPD2    C113547   3.601   2.084  13.799  0.1840 -0.3100 -0.0971
  926MPD2    C213548   3.684   2.157  13.713 -0.3591 -0.1508  0.0591
  926MPD2    C313549   3.708   2.108  13.585  0.2502 -0.6937  0.5176
  926MPD2    C413550   3.657   1.988  13.540  0.1423  0.4628 -0.0783
  926MPD2    C513551   3.572   1.923  13.629 -0.3736  0.8576 -0.4823
  926MPD2     H13552   3.724   2.252  13.746  0.0850  0.2183 -1.5217
  926MPD2    H113553   3.684   1.935  13.449 -1.6916 -0.8846  0.1687
  926MPD2    H213554   3.475   1.911  13.818  0.1160  0.1077  0.6592
  926MPD2    H313555   3.536   1.822  13.610  1.1965  0.0851  0.6088
  926MPD2     N13556   3.771   2.190  13.485  0.0020  0.7981 -0.1614
  926MPD2    H513557   3.763   2.160  13.389 -0.1038  1.0366 -0.2261
  926MPD2    N113558   3.572   2.145  13.928  0.3397  0.1360 -0.2761
  926MPD2    H713559   3.613   2.238  13.932 -1.2079  0.9024 -2.1513
  927MPD2     C13560   3.855   0.276   0.055  0.3530  0.0829 -0.3762
  927MPD2    C113561   3.917   0.218   0.169 -0.3437 -0.1506  0.3024
  927MPD2    C213562   4.051   0.183   0.154 -0.0624  0.0356 -0.1403
  927MPD2    C313563   4.121   0.199   0.032 -0.0616  0.9085 -0.2572
  927MPD2    C413564   4.054   0.240  17.610 -0.3334 -0.2809 -0.2256
  927MPD2    C513565   3.922   0.288  17.623 -0.1988  0.4055  0.0055
  927MPD2     H13566   4.109   0.148   0.239  0.6262 -3.7868 -2.2243
  927MPD2    H113567   4.102   0.262  17.516  0.6580  0.7023  0.5083
  927MPD2    H213568   3.755   0.316   0.060  0.4915  0.1489  1.7668
  927MPD2    H313569   3.880   0.339  17.537  2.5143  1.2625 -0.8262
  927MPD2     N13570   4.261   0.172   0.043  0.5850  0.4397 -0.0366
  927MPD2    H513571   4.290   0.147   0.137  0.5300 -0.5590 -0.2883
  927MPD2    N113572   3.849   0.212   0.293  0.7703 -0.2586  0.0021
  927MPD2    H713573   3.765   0.270   0.290  1.1221  0.3631  1.9471
  928MPD2     C13574   2.058   2.519   0.723  0.2187 -1.0650  0.2452
  928MPD2    C113575   2.145   2.604   0.785  0.4974  0.1664 -0.0484
  928MPD2    C213576   2.251   2.642   0.710  0.0150 -0.4008  0.3129
  928MPD2    C313577   2.278   2.588   0.582  0.1389 -0.5317  0.3491
  928MPD2    C413578   2.188   2.499   0.525 -0.1058 -0.7364 -0.0138
  928MPD2    C513579   2.083   2.472   0.600 -0.1718  0.0616 -0.3123
  928MPD2     H13580   2.322   2.706   0.760 -0.2933  0.1851 -0.0039
  928MPD2    H113581   2.197   2.465   0.422  0.3568 -0.7078  0.0163
  928MPD2    H213582   1.968   2.494   0.778  1.2143 -0.2353  2.2491
  928MPD2    H313583   2.003   2.416   0.553 -0.4077  0.0167  0.1437
  928MPD2     N13584   2.382   2.631   0.504  0.4569 -0.4352  0.0196
  928MPD2    H513585   2.388   2.596   0.408  1.1590 -2.1074  0.6757
  928MPD2    N113586   2.116   2.632   0.921 -0.0928  0.1491  0.3653
  928MPD2    H713587   2.026   2.604   0.958 -0.3727 -0.5700 -0.8567
  929MPD2     C13588   2.742   2.570  10.154  0.2270  0.4878 -0.3453
  929MPD2    C113589   2.656   2.481  10.221  0.6388 -0.0569 -0.5251
  929MPD2    C213590   2.568   2.406  10.149  0.5325  0.0722  1.5586
  929MPD2    C313591   2.566   2.418  10.010 -0.2876  1.1465  0.1249
  929MPD2    C413592   2.654   2.503   9.942  0.6321 -0.5634  0.5382
  929MPD2    C513593   2.740   2.578  10.017 -0.4337 -0.0258  0.8945
  929MPD2     H13594   2.492   2.346  10.197 -1.3992  0.4366 -1.0733
  929MPD2    H113595   2.656   2.523   9.836  0.8879 -0.3887  0.5758
  929MPD2    H213596   2.816   2.622  10.214 -3.7603  0.7883  4.2365
  929MPD2    H313597   2.800   2.653   9.968 -3.2905  0.5848 -1.7170
  929MPD2     N13598   2.463   2.356   9.929 -0.0317  0.3056 -0.0758
  929MPD2    H513599   2.463   2.364   9.828 -4.1292  0.1822 -0.0874
  929MPD2    N113600   2.665   2.494  10.363  0.3495 -1.0912 -0.3102
  929MPD2    H713601   2.741   2.549  10.401  0.6457 -2.8362  1.6594
  930MPD2     C13602   4.073   0.566  14.257 -0.0462  0.0618 -0.2901
  930MPD2    C113603   4.007   0.608  14.141 -0.4285 -0.4914  0.1347
  930MPD2    C213604   3.911   0.525  14.089  0.1590 -0.1138  0.4519
  930MPD2    C313605   3.880   0.400  14.139  0.7149 -0.7434  0.7101
  930MPD2    C413606   3.951   0.360  14.247 -0.6349  0.0374 -0.8164
  930MPD2    C513607   4.037   0.441  14.310 -0.4516  0.1936 -0.1004
  930MPD2     H13608   3.873   0.547  13.990  0.9862  0.4669  0.2617
  930MPD2    H113609   3.945   0.256  14.276  0.3611  0.8721  2.3565
  930MPD2    H213610   4.152   0.629  14.294  0.4855 -0.9009  0.2162
  930MPD2    H313611   4.107   0.400  14.382 -1.2738  0.4294  0.8211
  930MPD2     N13612   3.794   0.310  14.072  0.0788  0.3152  0.0128
  930MPD2    H513613   3.796   0.214  14.105 -1.1668 -0.4336 -2.0824
  930MPD2    N113614   4.050   0.726  14.078 -0.2122 -0.6654  0.2964
  930MPD2    H713615   4.115   0.781  14.135  1.3437 -0.1106 -1.9965
  931MPD2     C13616   3.983   0.326   1.189 -0.1240 -0.1403 -0.2123
  931MPD2    C113617   3.957   0.225   1.104 -0.1148 -0.0023 -0.3243
  931MPD2    C213618   3.955   0.098   1.158  0.0220 -0.3552  0.1865
  931MPD2    C313619   3.978   0.073   1.289 -0.1643  0.2493 -0.0823
  931MPD2    C413620   4.000   0.173   1.373  0.5001 -0.0608 -0.2374
  931MPD2    C513621   4.004   0.303   1.319 -0.2268  0.0395  0.0158
  931MPD2     H13622   3.923   0.015   1.096  0.6537 -2.7213  3.0496
  931MPD2    H113623   4.018   0.159   1.478  1.1477 -2.3235 -0.6621
  931MPD2    H213624   3.980   0.429   1.156 -1.8425 -0.2107 -0.2567
  931MPD2    H313625   4.021   0.386   1.387 -0.7734 -0.7076  1.0674
  931MPD2     N13626   3.964   4.663   1.346 -0.4017  0.6141 -0.2005
  931MPD2    H513627   3.961   4.657   1.448  1.8006 -1.7940 -0.2825
  931MPD2    N113628   3.911   0.260   0.977 -0.1215  0.3005 -0.3087
  931MPD2    H713629   3.872   0.353   0.962  0.3630  0.3671 -1.1502
  932MPD2     C13630   1.544   3.168  10.836  0.2860  0.0197 -0.5337
  932MPD2    C113631   1.580   3.288  10.888 -0.1509  0.1261 -0.5607
  932MPD2    C213632   1.613   3.285  11.022  0.5472 -0.2667  0.0072
  932MPD2    C313633   1.625   3.171  11.097 -0.2215 -0.7045  0.2388
  932MPD2    C413634   1.588   3.053  11.039 -0.0044  0.4230  0.1291
  932MPD2    C513635   1.548   3.053  10.905  0.7562 -0.3126 -0.6850
  932MPD2     H13636   1.638   3.376  11.075 -0.9535 -0.2756  0.7301
  932MPD2    H113637   1.593   2.961  11.096 -0.8114  2.0717  2.8882
  932MPD2    H213638   1.505   3.167  10.735  0.8913  2.3282 -0.7692
  932MPD2    H313639   1.516   2.964  10.852 -0.5409  0.7354 -1.6643
  932MPD2     N13640   1.687   3.161  11.219  0.3888 -0.3010 -0.3047
  932MPD2    H513641   1.706   3.067  11.255  0.1099 -0.3944 -0.4025
  932MPD2    N113642   1.589   3.409  10.813 -0.2008 -0.3407 -0.2769
  932MPD2    H713643   1.631   3.485  10.866  1.5915 -1.2930 -0.3342
  933MPD2     C13644   1.637   2.980   1.083 -0.0879 -0.7194 -0.4329
  933MPD2    C113645   1.755   3.037   1.125 -0.3439 -0.1684 -0.0238
  933MPD2    C213646   1.767   3.172   1.143 -0.5363  0.3118  0.9489
  933MPD2    C313647   1.657   3.255   1.110 -0.6023  0.4723 -1.1355
  933MPD2    C413648   1.540   3.199   1.057  0.0704 -0.4733  0.7142
  933MPD2    C513649   1.528   3.063   1.050  0.3983 -0.0330  0.1147
  933MPD2     H13650   1.862   3.215   1.172  1.4560 -3.0276 -0.5772
  933MPD2    H113651   1.457   3.259   1.021 -0.7345 -1.8976  0.1797
  933MPD2    H213652   1.620   2.874   1.078  1.0705 -0.9559  0.5261
  933MPD2    H313653   1.432   3.018   1.030  1.1752 -0.7753 -1.9799
  933MPD2     N13654   1.682   3.395   1.110 -0.5445  0.1667  0.3356
  933MPD2    H513655   1.770   3.416   1.157 -0.9157 -0.9566  1.5315
  933MPD2    N113656   1.857   2.940   1.169  0.1298  0.5621 -0.3811
  933MPD2    H713657   1.840   2.841   1.155  1.3732  0.1908  0.8012
  934MPD2     C13658   1.810   0.905   1.717 -0.1683 -0.0282  0.0031
  934MPD2    C113659   1.941   0.861   1.684 -0.1820 -0.6910  0.2632
  934MPD2    C213660   1.948   0.744   1.606 -0.2648 -0.0386 -0.2525
  934MPD2    C313661   1.843   0.688   1.540  0.4971 -0.0471  1.0238
  934MPD2    C413662   1.714   0.743   1.570  0.3642 -0.1151 -0.1778
  934MPD2    C513663   1.705   0.853   1.653  0.3617  0.5572  0.0445
  934MPD2     H13664   2.046   0.701   1.592 -2.3965 -4.8192 -0.6776
  934MPD2    H113665   1.626   0.703   1.521  0.6891 -1.2668  0.1768
  934MPD2    H213666   1.792   0.982   1.791 -1.2059 -1.5102  1.2973
  934MPD2    H313667   1.609   0.900   1.673 -0.1267 -0.4034 -0.0016
  934MPD2     N13668   1.842   0.574   1.448 -0.0887  0.0909 -0.4203
  934MPD2    H513669   1.754   0.538   1.415 -0.3994  0.9564 -0.5515
  934MPD2    N113670   2.063   0.917   1.737 -0.4231  0.1892  0.2441
  934MPD2    H713671   2.147   0.868   1.708 -0.5512  1.5199 -2.3212
  935MPD2     C13672   2.464   4.534   1.407 -0.2595  0.1002  0.8905
  935MPD2    C113673   2.416   4.559   1.283  0.7111 -0.0190 -0.7751
  935MPD2    C213674   2.298   4.624   1.266 -0.2286 -0.3651 -0.7248
  935MPD2    C313675   2.240   4.688   1.374  0.9588 -0.1713  0.0765
  935MPD2    C413676   2.300   4.681   1.498 -0.1032 -0.3923  0.8208
  935MPD2    C513677   2.409   4.600   1.513 -0.0309 -1.1115 -0.8489
  935MPD2     H13678   2.254   4.625   1.167  1.0849 -0.7237 -1.3111
  935MPD2    H113679   2.276   0.000   1.595  2.2717 -0.5736  1.4924
  935MPD2    H213680   2.558   4.485   1.430  0.9588  2.1991  0.4860
  935MPD2    H313681   2.459   4.587   1.608 -0.4977  0.4372 -0.4066
  935MPD2     N13682   2.112   0.036   1.382 -0.8827  0.3883 -0.0286
  935MPD2    H513683   2.083   0.081   1.468  1.1174  0.0211  0.8285
  935MPD2    N113684   2.479   4.508   1.175 -0.5987  0.0619  0.4549
  935MPD2    H713685   2.442   4.548   1.089  1.0788 -1.8428 -1.1462
  936MPD2     C13686   0.691   2.759  11.909  0.7065  0.7241 -0.3065
  936MPD2    C113687   0.798   2.696  11.966 -0.2687 -0.4718  0.0499
  936MPD2    C213688   0.922   2.705  11.903 -0.6920 -0.3195  0.1627
  936MPD2    C313689   0.939   2.780  11.786 -0.4432  0.3706  0.0582
  936MPD2    C413690   0.824   2.841  11.733  1.5004  1.0679 -0.2897
  936MPD2    C513691   0.707   2.827  11.794 -0.2827  0.3650  0.3215
  936MPD2     H13692   1.006   2.661  11.956 -0.4310 -0.9719 -0.8011
  936MPD2    H113693   0.817   2.896  11.639 -2.1544 -1.3170 -1.4074
  936MPD2    H213694   0.592   2.762  11.952  1.0814  1.9078  0.4540
  936MPD2    H313695   0.622   2.884  11.758  0.3053  1.3034  0.4166
  936MPD2     N13696   1.069   2.814  11.727  0.0081 -0.1295  0.0914
  936MPD2    H513697   1.076   2.892  11.662 -0.3395  0.0713  0.2991
  936MPD2    N113698   0.794   2.631  12.092 -0.0886  0.5392 -0.3520
  936MPD2    H713699   0.889   2.610  12.121 -0.9612  0.3628  2.3430
  937MPD2     C13700   3.773   3.464  11.352 -0.1427 -0.0584  0.1568
  937MPD2    C113701   3.872   3.419  11.441 -1.3119  0.2968  0.1694
  937MPD2    C213702   3.970   3.330  11.392  0.3496 -0.2731 -0.4755
  937MPD2    C313703   3.953   3.276  11.265 -0.1766 -0.4890 -0.6135
  937MPD2    C413704   3.848   3.323  11.187 -0.6994  0.0754  0.6199
  937MPD2    C513705   3.749   3.409  11.232  0.6159  0.8465 -0.3300
  937MPD2     H13706   4.042   3.280  11.456 -0.6906 -0.2379  0.7286
  937MPD2    H113707   3.837   3.275  11.091 -0.4215 -2.2181  1.7486
  937MPD2    H213708   3.720   3.557  11.373 -1.1692 -0.3994 -0.8679
  937MPD2    H313709   3.683   3.454  11.158 -0.9145 -1.4647 -0.3534
  937MPD2     N13710   4.031   3.162  11.225  0.5685 -0.0972 -0.3880
  937MPD2    H513711   4.104   3.139  11.292  0.6774  1.1465 -0.0697
  937MPD2    N113712   3.886   3.491  11.558 -0.3150 -0.7297 -0.2010
  937MPD2    H713713   3.815   3.560  11.581 -1.9207 -2.2724 -0.5403
  938MPD2     C13714   1.552   4.364   0.498 -0.8864  0.4763 -0.1070
  938MPD2    C113715   1.665   4.391   0.572 -0.3426 -0.6817 -0.3567
  938MPD2    C213716   1.713   4.303   0.663  0.3936 -0.4860 -0.4434
  938MPD2    C313717   1.645   4.185   0.697 -0.6158  0.3225 -0.5867
  938MPD2    C413718   1.541   4.147   0.616  0.2283  0.0703  0.6641
  938MPD2    C513719   1.494   4.235   0.519  0.2578 -0.3515 -0.1380
  938MPD2     H13720   1.812   4.325   0.701  0.1482 -1.0853  0.5419
  938MPD2    H113721   1.491   4.051   0.623  0.5305 -0.1802 -0.5295
  938MPD2    H213722   1.518   4.443   0.432 -0.5446  0.1376 -0.6808
  938MPD2    H313723   1.419   4.197   0.450  0.1318 -0.9771  0.3465
  938MPD2     N13724   1.676   4.102   0.804  0.2504  0.0650 -0.3376
  938MPD2    H513725   1.634   4.010   0.812 -1.7722  1.2706  2.6379
  938MPD2    N113726   1.734   4.517   0.564 -0.2102  0.2648  0.4554
  938MPD2    H713727   1.798   4.536   0.640  0.0375  0.2425  0.2538
  939MPD2     C13728   2.627   0.899   0.918  0.6698 -0.0078  0.4746
  939MPD2    C113729   2.561   0.985   0.835 -0.1110  0.7881 -1.0834
  939MPD2    C213730   2.629   1.067   0.748  0.0058  0.5471 -0.1240
  939MPD2    C313731   2.768   1.063   0.746 -1.0606  0.5194  0.4273
  939MPD2    C413732   2.835   0.979   0.831  0.0418  0.5187 -0.2522
  939MPD2    C513733   2.764   0.894   0.909  0.2426  0.2359  0.5696
  939MPD2     H13734   2.578   1.126   0.672 -1.1494 -0.3363 -0.0145
  939MPD2    H113735   2.942   0.961   0.834 -0.3942 -1.8824  0.7709
  939MPD2    H213736   2.577   0.826   0.980  0.5537  0.5179  0.9996
  939MPD2    H313737   2.814   0.821   0.971 -0.0025 -1.5380 -1.3132
  939MPD2     N13738   2.835   1.155   0.662 -0.0997  0.4256  0.7708
  939MPD2    H513739   2.775   1.204   0.597 -2.7073 -0.2798  2.6399
  939MPD2    N113740   2.421   0.993   0.847 -0.5286 -0.3181  0.4397
  939MPD2    H713741   2.379   0.927   0.911  0.7991 -1.0422  0.5671
  940MPD2     C13742   1.650   1.921  12.824 -0.3718  0.6052 -1.0325
  940MPD2    C113743   1.774   1.888  12.864  0.0692 -0.5852 -0.2371
  940MPD2    C213744   1.871   1.854  12.769  0.0706 -0.0540 -0.0415
  940MPD2    C313745   1.840   1.848  12.634  0.0025 -0.2966 -0.1230
  940MPD2    C413746   1.707   1.877  12.607 -0.0878  1.1418  0.2603
  940MPD2    C513747   1.617   1.911  12.693  0.2739  0.7531  0.4757
  940MPD2     H13748   1.971   1.826  12.798 -0.1353  1.0123  1.6462
  940MPD2    H113749   1.671   1.868  12.505  0.7498 -0.6161  0.1285
  940MPD2    H213750   1.575   1.950  12.897 -0.5273 -0.1819 -0.8798
  940MPD2    H313751   1.516   1.926  12.658  0.6071 -0.6165 -1.0885
  940MPD2     N13752   1.932   1.832  12.525 -0.1735  0.2716  0.3741
  940MPD2    H513753   1.904   1.795  12.435  0.5203 -1.2237  0.7664
  940MPD2    N113754   1.809   1.892  12.998  0.1261  0.1200 -0.3098
  940MPD2    H713755   1.906   1.876  13.022  0.6021  0.3859 -2.0489
  941MPD2     C13756   1.447   1.042   9.645  0.3511 -0.5206 -0.0613
  941MPD2    C113757   1.531   0.980   9.729  0.3986 -0.4485 -0.1338
  941MPD2    C213758   1.491   0.943   9.858 -0.1455 -0.5294  0.3769
  941MPD2    C313759   1.366   0.974   9.906  0.0509  0.3467 -0.6733
  941MPD2    C413760   1.274   1.022   9.811  0.8108  0.0753 -0.2480
  941MPD2    C513761   1.319   1.060   9.686  0.5058  0.7055 -0.3552
  941MPD2     H13762   1.565   0.892   9.920  1.5053  1.3102 -0.0755
  941MPD2    H113763   1.169   1.033   9.837  0.2933 -3.5680 -0.7439
  941MPD2    H213764   1.471   1.091   9.552  0.6714 -0.0689  0.2604
  941MPD2    H313765   1.248   1.111   9.623 -1.3722  0.1189  1.2751
  941MPD2     N13766   1.319   0.937  10.034  0.3987 -0.3899 -0.5676
  941MPD2    H513767   1.221   0.932  10.059  0.0316  0.5136 -1.8170
  941MPD2    N113768   1.670   0.964   9.698 -0.1209  0.6547  0.0693
  941MPD2    H713769   1.724   0.938   9.780 -0.0751 -0.4888 -0.3237
  942MPD2     C13770   1.389   1.516   9.078 -0.7966  0.0451 -0.2283
  942MPD2    C113771   1.483   1.561   9.167 -0.0843  0.2640 -0.5376
  942MPD2    C213772   1.611   1.543   9.124 -0.8768 -0.0210 -0.0847
  942MPD2    C313773   1.645   1.491   8.999  0.1728  0.3409  0.1514
  942MPD2    C413774   1.538   1.446   8.919  0.4052  0.4104 -0.6032
  942MPD2    C513775   1.414   1.460   8.959  0.6410  0.7617 -0.9075
  942MPD2     H13776   1.687   1.571   9.197 -1.5366 -0.0842  0.6271
  942MPD2    H113777   1.558   1.387   8.830  2.7097  0.2621  0.0017
  942MPD2    H213778   1.283   1.528   9.096 -0.6756  1.2924 -0.3581
  942MPD2    H313779   1.331   1.422   8.899  0.3869 -0.4933  0.2517
  942MPD2     N13780   1.777   1.473   8.959 -0.0078  0.5066 -0.0873
  942MPD2    H513781   1.797   1.434   8.868  0.1408 -0.9425  0.5680
  942MPD2    N113782   1.452   1.628   9.287  0.2556 -0.0983 -0.1667
  942MPD2    H713783   1.525   1.669   9.344  0.2187  1.4448 -1.2125
  943MPD2     C13784   0.232   1.462   9.373  0.1036 -0.2196 -0.2477
  943MPD2    C113785   0.226   1.368   9.469 -0.0469 -0.6497 -0.1302
  943MPD2    C213786   0.289   1.389   9.588 -0.1013  0.2198 -0.5065
  943MPD2    C313787   0.362   1.504   9.609  0.7148  0.3038 -0.1147
  943MPD2    C413788   0.377   1.599   9.511 -0.2621  0.4167 -0.4810
  943MPD2    C513789   0.310   1.573   9.392  0.8422 -0.9808  0.3715
  943MPD2     H13790   0.292   1.309   9.661 -0.0789  2.9169  2.4205
  943MPD2    H113791   0.431   1.692   9.528  2.6163 -1.5487  1.3108
  943MPD2    H213792   0.170   1.447   9.285 -2.2495  0.5391  1.2908
  943MPD2    H313793   0.313   1.651   9.317  2.0587 -0.7694  0.6329
  943MPD2     N13794   0.429   1.532   9.729 -0.1720  0.0103 -0.1590
  943MPD2    H513795   0.486   1.615   9.720  0.4834 -0.2442  1.7925
  943MPD2    N113796   0.149   1.253   9.436  0.7577  0.0175  0.1018
  943MPD2    H713797   0.098   1.260   9.348 -0.1127  1.6865  0.7559
  944MPD2     C13798   4.258   0.171  10.809 -0.8748 -0.2780  0.9640
  944MPD2    C113799   4.374   0.207  10.873 -0.2113 -0.4070  0.1817
  944MPD2    C213800   4.382   0.198  11.010 -0.3867  0.5096  0.3295
  944MPD2    C313801   4.280   0.154  11.087  0.2425 -0.1386  0.0252
  944MPD2    C413802   4.165   0.123  11.025  0.5097  0.3615 -0.7537
  944MPD2    C513803   4.150   0.132  10.889 -0.1718 -0.1757  0.4398
  944MPD2     H13804   4.479   0.225  11.052 -0.0429 -1.4203  0.7448
  944MPD2    H113805   4.079   0.091  11.083 -0.7614  2.4716 -1.4815
  944MPD2    H213806   4.251   0.181  10.701  1.2176 -1.6332  0.7187
  944MPD2    H313807   4.057   0.104  10.841 -0.2520 -1.7299  1.5282
  944MPD2     N13808   4.298   0.147  11.227 -0.0288  0.2858  0.5673
  944MPD2    H513809   4.391   0.159  11.266 -0.0770 -1.4476  1.2126
  944MPD2    N113810   4.487   0.249  10.789 -0.2955 -0.2176  0.1546
  944MPD2    H713811   4.470   0.253  10.689 -0.1261  2.2528  0.2310
    1TCq1    O113812   3.253   0.487  13.801  0.1243 -0.6087 -0.2309
    1TCq1    C113813   3.254   0.535  13.927  0.0328  0.1311  0.0844
    1TCq1    O213814   3.352   0.551  13.998 -0.1750  0.0628  0.1883
    1TCq1    C213815   3.121   0.552  13.985 -0.1505  0.2541  0.0772
    1TCq1    C313816   3.000   0.527  13.920  0.6434 -0.1600 -0.0359
    1TCq1    C413817   2.888   0.538  13.986 -0.3387  0.1875  0.3413
    1TCq1    C513818   2.882   0.582  14.116 -0.0598 -0.0392 -0.1615
    1TCq1    C613819   2.998   0.618  14.179 -0.1818 -0.4609  0.5515
    1TCq1    C713820   3.119   0.598  14.114 -0.2228  0.0659  0.2891
    1TCq1    C813821   3.006   0.697  14.298 -0.0430  0.0078 -0.1401
    1TCq1    O413822   3.093   0.679  14.383  0.0148  0.2370  0.3096
    1TCq1    C913823   2.765   0.499  13.925  0.0910 -0.0314  0.6280
    1TCq1    O513824   2.772   0.479  13.803  0.0200 -0.2343  0.2623
    1TCq1    O613825   2.669   0.472  13.998 -0.2891  0.2830  0.0699
    1TCq1    H113826   3.177   0.502  13.741  0.3386 -1.0386 -0.6047
    1TCq1    H213827   3.000   0.479  13.823 -0.2644 -1.0061  0.3730
    1TCq1    H313828   2.784   0.605  14.155 -0.0057 -0.8202  0.4430
    1TCq1    H413829   3.208   0.630  14.165 -0.5413 -2.7727  2.6372
    2MPD2     C13830   2.844   1.096  14.578 -0.3489  0.3643 -0.4595
    2MPD2    C113831   2.784   1.100  14.454 -0.0534 -0.1473 -0.0824
    2MPD2    C213832   2.805   1.001  14.357 -0.3211  0.2484  0.2242
    2MPD2    C313833   2.868   0.888  14.399  1.3084  0.4052 -0.0964
    2MPD2    C413834   2.911   0.874  14.527 -0.1404 -0.3627  0.1017
    2MPD2    C513835   2.902   0.981  14.614  0.9543  0.1921 -0.4749
    2MPD2     H13836   2.773   1.017  14.255  1.9597  0.4087 -0.4579
    2MPD2    H113837   2.967   0.787  14.560 -0.5235 -1.5898 -2.5356
    2MPD2    H213838   2.833   1.176  14.651 -1.1881  0.9514 -1.2156
    2MPD2    H313839   2.957   0.977  14.707  0.0490 -0.5982  0.0326
    2MPD2     N13840   2.897   0.784  14.305 -0.1668 -0.0144  0.2098
    2MPD2    H513841   2.851   0.795  14.216  0.4487 -1.8690 -0.3324
    2MPD2    N113842   2.717   1.216  14.426 -0.4479  0.2655  0.2570
    2MPD2    H713843   2.727   1.293  14.492  0.8900  0.4805 -0.1907
    3TMC2    C113844   2.580   1.377  14.305  0.6057 -0.3120 -0.5958
    3TMC2    C213845   2.593   1.477  14.398  0.1394 -0.8786 -0.5140
    3TMC2    C313846   2.526   1.593  14.370 -0.2031  1.1268 -1.0914
    3TMC2    C413847   2.522   1.398  14.187 -0.6229  0.4877 -0.3470
    3TMC2    C513848   2.461   1.515  14.155  1.1701 -0.0137 -0.9685
    3TMC2    C613849   2.461   1.616  14.246  0.6217  0.1884 -0.5462
    3TMC2     C13850   2.627   1.238  14.324 -0.2815  0.3748  0.0196
    3TMC2     O13851   2.585   1.148  14.256 -0.1938 -0.9949  0.4935
    3TMC2     H13852   2.639   1.458  14.493 -0.6534 -1.9034 -0.3325
    3TMC2    H113853   2.523   1.311  14.122  0.7308 -0.5149  1.0176
    3TMC2    H213854   2.403   1.707  14.237 -0.1400 -0.2865 -0.4596
    3TMC2    C713855   2.414   1.533  14.019 -0.0813  0.4479 -0.4546
    3TMC2    C813856   2.540   1.704  14.453 -0.2155 -1.1688  0.6075
    3TMC2    O113857   2.426   1.442  13.934  0.0114 -0.3019  0.1296
    3TMC2    O213858   2.568   1.817  14.420  0.4942 -0.3518 -0.0686
    3TMC2    O513859   2.479   1.670  14.572  0.4623 -0.2692  0.5899
    3TMC2    H513860   2.440   1.581  14.578  1.5022 -0.8220 -0.9239
    4MPD2     C13861   1.420   2.533  13.627  0.8662 -0.6684 -0.3064
    4MPD2    C113862   1.499   2.538  13.515 -0.1159  0.0847 -0.5772
    4MPD2    C213863   1.629   2.499  13.535  0.3560 -1.0055  0.1494
    4MPD2    C313864   1.683   2.478  13.664  0.1336 -0.0643  0.4951
    4MPD2    C413865   1.598   2.482  13.771  0.0640 -0.2831 -0.3917
    4MPD2    C513866   1.465   2.493  13.750  0.5308 -0.3226 -0.4221
    4MPD2     H13867   1.702   2.510  13.455  0.6410  0.8584  0.6739
    4MPD2    H113868   1.621   2.473  13.876  0.4780  3.6591 -0.1496
    4MPD2    H213869   1.318   2.570  13.620  0.8131 -0.0298  4.0595
    4MPD2    H313870   1.388   2.483  13.825  0.8275 -1.3302 -0.2490
    4MPD2     N13871   1.819   2.463  13.675  0.1176 -0.5402 -0.4106
    4MPD2    H513872   1.866   2.446  13.587  0.7234 -2.2935  0.2477
    4MPD2    N113873   1.446   2.569  13.390 -0.4396 -0.2523 -0.0108
    4MPD2    H713874   1.352   2.604  13.407 -1.0650 -1.4596 -0.9540
    5TCq2    C113875   1.891   2.435  13.791 -0.6401 -0.5460  0.4979
    5TCq2    O213876   1.852   2.436  13.905 -0.2896  0.1013  0.1601
    5TCq2    C213877   2.035   2.413  13.764 -0.4139  0.0101  0.2684
    5TCq2    C313878   2.090   2.468  13.650  0.4563  0.2029  0.2506
    5TCq2    C413879   2.208   2.414  13.601  0.4201  0.0759 -0.2469
    5TCq2    C513880   2.270   2.311  13.674 -0.1255 -0.1014 -0.6333
    5TCq2    C613881   2.221   2.270  13.789  0.1316 -0.0702  0.0886
    5TCq2    C713882   2.101   2.322  13.837  0.5835  0.0981 -0.7826
    5TCq2    C813883   2.246   2.137  13.845 -0.4303  0.3273 -0.1977
    5TCq2    O413884   2.235   2.108  13.964  0.3100 -0.2453 -0.0570
    5TCq2    C913885   2.271   2.441  13.476 -0.0657 -0.1043  0.0414
    5TCq2    O513886   2.393   2.407  13.474  0.2301 -0.3371  0.2624
    5TCq2    O613887   2.212   2.527  13.402 -0.0542 -0.5337  0.1864
    5TCq2    H213888   2.037   2.549  13.600  0.5554 -0.4966 -0.9977
    5TCq2    H313889   2.365   2.264  13.650  1.1912  1.2980  1.8225
    5TCq2    H413890   2.049   2.260  13.910  0.6635  1.5444  0.5044
    6MPD1     C13891   0.959   4.331  13.306  0.3302  0.3088  0.4814
    6MPD1    C113892   0.965   4.229  13.400 -1.0532  0.8121 -0.6447
    6MPD1    C213893   0.956   4.099  13.365  0.4427  0.4011 -0.3359
    6MPD1    C313894   0.966   4.058  13.229  0.1300 -0.2436 -0.1434
    6MPD1    C413895   0.965   4.164  13.138 -0.6443  0.1552 -0.6456
    6MPD1    C513896   0.958   4.292  13.175  0.0232 -0.1008  0.2517
    6MPD1     H13897   0.948   4.020  13.439 -0.3387  2.1504  1.4512
    6MPD1    H113898   0.974   4.152  13.030  0.0680 -0.1092 -0.5541
    6MPD1    H213899   0.966   4.438  13.322  0.9564  0.3261  0.0914
    6MPD1    H313900   0.956   4.364  13.094 -1.2742  0.1366  0.5056
    6MPD1     N13901   1.000   3.926  13.198 -0.6308  0.5458  0.5822
    6MPD1    H513902   0.992   3.853  13.268  1.1024 -0.7850 -0.6169
    6MPD1    N113903   0.948   4.263  13.536  0.3727  0.2566  0.1462
    6MPD1    H613904   0.992   4.195  13.597  0.4369 -0.3553 -0.5798
    6MPD1    H713905   0.991   4.354  13.555 -2.2681  1.1786  1.5977
    7MPD2     C13906   0.750   3.142  13.160  0.5780 -0.2031  0.7306
    7MPD2    C113907   0.883   3.177  13.181  0.4125 -0.5165  0.0036
    7MPD2    C213908   0.974   3.070  13.187 -0.1590  0.3285  0.0847
    7MPD2    C313909   0.939   2.941  13.169 -0.4469 -0.2900  0.5073
    7MPD2    C413910   0.806   2.904  13.165 -0.1371  0.4368  0.0598
    7MPD2    C513911   0.712   3.010  13.154  0.1281  0.2043  0.0206
    7MPD2     H13912   1.079   3.090  13.204  0.1421 -1.4733  0.3646
    7MPD2    H113913   0.771   2.804  13.144 -1.0394  0.5361  1.0990
    7MPD2    H213914   0.678   3.223  13.154  0.6797 -0.3320 -2.6572
    7MPD2    H313915   0.606   2.990  13.144  0.1454 -0.2585  0.7909
    7MPD2     N13916   1.028   2.831  13.148 -0.5535 -0.5933  0.3331
    7MPD2    H513917   0.982   2.741  13.141 -1.7147  0.0395 -0.3413
    7MPD2    N113918   0.935   3.308  13.189 -0.4761  0.2876 -0.0519
    7MPD2    H713919   1.036   3.313  13.183 -0.2712 -2.6119  1.4689
    8TMC3    C113920   1.231   2.719  13.082 -0.1569  0.0313  0.5233
    8TMC3    C213921   1.300   2.662  13.183 -0.3619  0.3779 -0.2696
    8TMC3    C313922   1.433   2.634  13.165 -0.3211  1.0300  0.1191
    8TMC3    C413923   1.294   2.765  12.968  0.6718 -0.2351 -0.1784
    8TMC3    C513924   1.428   2.747  12.955  0.7149 -1.1518 -0.6824
    8TMC3    C613925   1.495   2.676  13.051 -0.4490  0.5212 -0.1569
    8TMC3     C13926   1.163   2.842  13.130  0.0416  0.9270 -0.4078
    8TMC3     O13927   1.237   2.939  13.133  0.3159  0.6050 -0.0245
    8TMC3     H13928   1.243   2.636  13.271 -0.5434  1.8729  0.0544
    8TMC3    H113929   1.229   2.814  12.898  0.7729 -1.4320 -1.1025
    8TMC3    H213930   1.601   2.656  13.042 -0.5813  0.5882 -1.7917
    8TMC3    C713931   1.494   2.863  12.883 -0.0469 -0.3278  0.4208
    8TMC3    C813932   1.509   2.570  13.271 -0.1182  0.0282  0.2056
    8TMC3    O113933   1.572   2.840  12.791  0.3011  0.3428  0.1474
    8TMC3    O213934   1.622   2.533  13.247  0.1211  0.5560 -0.1699
    9TMC3    C113935   1.013   3.738  13.051  0.0792  0.5547  0.4311
    9TMC3    C213936   1.052   3.693  12.927 -0.0150 -0.3212 -0.4886
    9TMC3    C313937   1.053   3.560  12.899  0.3788 -0.2177  0.2362
    9TMC3    C413938   0.952   3.654  13.143  0.5089  0.0135  0.1690
    9TMC3    C513939   0.951   3.519  13.110  0.5377 -0.5836 -0.4920
    9TMC3    C613940   1.004   3.475  12.995 -0.1673 -0.1849 -0.2087
    9TMC3     C13941   0.999   3.879  13.066  0.4783  0.8107 -0.2927
    9TMC3     O13942   0.997   3.940  12.959  0.3536  0.6154  0.4964
    9TMC3     H13943   1.088   3.764  12.852  0.8754  2.1212  2.2317
    9TMC3    H113944   0.909   3.681  13.238 -0.2125  0.2816 -0.2287
    9TMC3    H213945   0.992   3.372  12.962 -2.2108 -0.8279  2.5923
    9TMC3    C713946   0.861   3.426  13.172  0.4021  0.2730  0.4200
    9TMC3    C813947   1.173   3.519  12.833 -0.5970  0.0151  0.2646
    9TMC3    O113948   0.742   3.453  13.176 -0.2810 -0.0610 -0.1448
    9TMC3    O213949   1.227   3.592  12.751 -0.0761 -0.5713 -0.0828
   10MPD2     C13950   1.518   3.143  12.760  0.3388 -0.2432 -0.4569
   10MPD2    C113951   1.436   3.104  12.866 -0.4110  0.0256 -0.4819
   10MPD2    C213952   1.339   3.199  12.902  0.1908  0.3416 -0.0635
   10MPD2    C313953   1.323   3.318  12.843 -0.0641  0.1613 -0.4856
   10MPD2    C413954   1.407   3.354  12.736 -0.0139  0.3245 -0.9237
   10MPD2    C513955   1.505   3.267  12.700 -0.1064 -0.0486 -0.0983
   10MPD2     H13956   1.262   3.165  12.971  1.3920  1.3908  1.8157
   10MPD2    H113957   1.393   3.447  12.682 -2.1243  0.3614 -0.3181
   10MPD2    H213958   1.594   3.077  12.721  1.4497 -0.0772  1.4537
   10MPD2    H313959   1.568   3.293  12.616 -0.5658  1.7023  0.0965
   10MPD2     N13960   1.213   3.396  12.880 -1.1429  0.5534 -0.7788
   10MPD2    H513961   1.167   3.363  12.964 -0.1517  2.0766  0.3672
   10MPD2    N113962   1.428   2.976  12.929 -0.1896 -0.6438 -0.6323
   10MPD2    H713963   1.363   2.967  13.006 -0.4405 -0.0589 -0.7735
   11MPD2     C13964   2.327   1.631  13.755 -0.1453  0.2934  0.1537
   11MPD2    C113965   2.325   1.707  13.873  0.3570  0.0596  0.1529
   11MPD2    C213966   2.302   1.846  13.864  0.3514  0.3775 -0.2305
   11MPD2    C313967   2.281   1.913  13.746 -0.3832  0.7054  0.6809
   11MPD2    C413968   2.290   1.835  13.624 -0.6159  0.0621  0.0590
   11MPD2    C513969   2.304   1.695  13.638  0.1191 -0.9601 -0.4235
   11MPD2     H13970   2.311   1.901  13.957 -1.4624  1.3974 -0.6690
   11MPD2    H113971   2.270   1.884  13.528  2.2494  1.6941  0.3095
   11MPD2    H213972   2.332   1.522  13.752  0.6021  0.4080 -2.2560
   11MPD2    H313973   2.292   1.630  13.552 -1.0540 -1.5305  0.1676
   11MPD2     N13974   2.260   2.050  13.740  0.0117  0.1522 -0.2165
   11MPD2    H513975   2.244   2.089  13.648  1.2844 -1.4962 -1.1421
   11MPD2    N113976   2.361   1.658  14.001  0.0903 -0.0870 -0.4450
   11MPD2    H713977   2.371   1.727  14.075 -0.0284 -1.4455  0.8409
    1MPD1     C13978   0.391   3.311  17.578 -0.2632 -0.1138  0.8345
    1MPD1    C113979   0.454   3.416  17.525 -0.7760 -0.3276 -0.0912
    1MPD1    C213980   0.545   3.396  17.427  0.1370 -0.0213  0.1456
    1MPD1    C313981   0.564   3.266  17.374  0.9787  0.3226  0.0323
    1MPD1    C413982   0.489   3.163  17.428  0.7502 -0.2995 -0.0193
    1MPD1    C513983   0.408   3.182  17.535 -0.5854 -0.0625 -0.2487
    1MPD1     H13984   0.610   3.471  17.384  0.8740 -0.0566  1.1895
    1MPD1    H113985   0.495   3.063  17.387 -3.9297 -0.3744 -0.5562
    1MPD1    H213986   0.341   3.327  17.672 -0.4886 -0.7539  0.8247
    1MPD1    H313987   0.346   3.103  17.575 -2.1085  0.6650 -1.1778
    1MPD1     N13988   0.649   3.226  17.268  0.8799  0.5087  0.0015
    1MPD1    H513989   0.642   3.133  17.228  0.5247  1.3010 -1.7769
    1MPD1    N113990   0.459   3.536  17.596  0.0373  0.1304  0.0660
    1MPD1    H613991   0.369   3.554  17.640 -0.6227  0.5666 -1.4619
    1MPD1    H713992   0.479   3.610  17.529 -2.6144  0.4100 -0.4282
    2MPD1     C13993   1.573   3.316  16.910 -0.0381  0.0878  0.2266
    2MPD1    C113994   1.508   3.403  16.991  0.1835  0.8147  0.2132
    2MPD1    C213995   1.370   3.407  16.991 -0.8848 -0.2826  0.1110
    2MPD1    C313996   1.290   3.317  16.915  0.2521 -0.4079 -0.3084
    2MPD1    C413997   1.365   3.225  16.839  0.4542  0.3135  0.3078
    2MPD1    C513998   1.501   3.229  16.828 -0.7413  0.4426 -0.2921
    2MPD1     H13999   1.309   3.481  17.041 -0.5408 -0.5595  0.9429
    2MPD1    H114000   1.318   3.152  16.775 -1.8159  0.6610  1.5621
    2MPD1    H214001   1.680   3.326  16.899  0.3540 -1.3776  2.7099
    2MPD1    H314002   1.555   3.152  16.774  1.1743  1.5507  0.0291
    2MPD1     N14003   1.151   3.314  16.931 -0.0663 -0.1013 -0.5440
    2MPD1    H514004   1.115   3.397  16.977  3.3149 -0.3330  2.5521
    2MPD1    N114005   1.576   3.523  17.032  0.6221  0.0884  0.2125
    2MPD1    H614006   1.536   3.571  17.112  0.5594 -0.0022  0.2362
    2MPD1    H714007   1.675   3.516  17.055  0.2706 -1.3037  1.3562
    3TMC3    C114008   0.926   3.268  16.899 -0.2611 -0.3076  0.3388
    3TMC3    C214009   0.834   3.203  16.817 -1.7001  0.4809 -0.2324
    3TMC3    C314010   0.703   3.193  16.862 -0.9033  0.1190 -0.9865
    3TMC3    C414011   0.904   3.279  17.030  0.1401 -0.6033 -0.4258
    3TMC3    C514012   0.774   3.250  17.071  0.6180  0.2069  1.1334
    3TMC3    C614013   0.672   3.215  16.995  0.0012 -0.9474 -0.7276
    3TMC3     C14014   1.063   3.227  16.875  0.6562 -0.5118  0.3780
    3TMC3     O14015   1.075   3.112  16.834 -0.1027 -0.1242 -0.0187
    3TMC3     H14016   0.866   3.180  16.716  2.8375  1.3247  1.0078
    3TMC3    H114017   0.978   3.315  17.101  0.5987 -0.0173 -1.1998
    3TMC3    H214018   0.568   3.239  17.015  0.4285 -0.7008  1.2068
    3TMC3    C714019   0.744   3.297  17.210 -0.1922 -0.1378 -0.4370
    3TMC3    C814020   0.598   3.176  16.769  0.4225 -0.2604 -0.1178
    3TMC3    O114021   0.806   3.390  17.265  0.4605 -0.6607 -0.0513
    3TMC3    O214022   0.502   3.112  16.810 -0.0494 -0.4542 -0.1667
    4MPD1     C14023   0.370   3.344  16.348 -0.3331 -0.3962  0.2213
    4MPD1    C114024   0.506   3.382  16.344 -0.3787 -0.6604 -0.2025
    4MPD1    C214025   0.584   3.352  16.451  0.5746  0.5246  0.7230
    4MPD1    C314026   0.537   3.281  16.562  0.0349 -0.0685  0.0815
    4MPD1    C414027   0.408   3.234  16.551  0.0532 -0.0192 -0.1951
    4MPD1    C514028   0.326   3.264  16.448 -0.3837 -0.1138 -0.2789
    4MPD1     H14029   0.686   3.388  16.443  0.6484  0.5332  1.6919
    4MPD1    H114030   0.360   3.173  16.626 -1.2273  1.4176  0.1656
    4MPD1    H214031   0.300   3.371  16.269  1.5107  0.8036 -0.9936
    4MPD1    H314032   0.220   3.240  16.460 -0.3338  0.2393  0.9357
    4MPD1     N14033   0.625   3.251  16.661  0.2792  0.2512 -0.4495
    4MPD1    H514034   0.716   3.296  16.655 -0.0126  1.0643  1.0107
    4MPD1    N114035   0.549   3.455  16.233 -0.6100 -0.1849 -0.1281
    4MPD1    H614036   0.528   3.411  16.143 -2.1234  2.1612 -0.9048
    4MPD1    H714037   0.650   3.470  16.231 -0.3103 -2.1960 -0.0050
    1TCq1    O114038   1.726   2.676  10.840  0.0618  0.4941 -0.4784
    1TCq1    C114039   1.791   2.744  10.747  0.3726 -0.0309 -0.1291
    1TCq1    O214040   1.786   2.712  10.628  0.3837 -0.2889 -0.9220
    1TCq1    C214041   1.831   2.878  10.791 -0.1275 -0.0941 -0.3740
    1TCq1    C314042   1.859   2.898  10.918 -0.2191  0.0066  0.1268
    1TCq1    C414043   1.889   3.024  10.952  0.7068  0.4869  0.3998
    1TCq1    C514044   1.902   3.122  10.864  0.4119 -0.0382  0.0155
    1TCq1    C614045   1.849   3.102  10.737  0.8079  0.1251  0.5588
    1TCq1    C714046   1.814   2.973  10.695  0.2597 -0.3527  0.2640
    1TCq1    C814047   1.856   3.195  10.624  0.4665 -0.1694 -0.5920
    1TCq1    O414048   1.826   3.152  10.517 -0.4494 -0.1643 -0.2614
    1TCq1    C914049   1.961   3.050  11.072 -0.3326 -0.2443 -0.1140
    1TCq1    O514050   1.966   2.953  11.155 -0.3117  0.6849  0.1507
    1TCq1    O614051   2.016   3.162  11.089  0.6172 -0.0747  1.2716
    1TCq1    H114052   1.718   2.735  10.918 -1.6155  2.8691 -2.4379
    1TCq1    H214053   1.893   2.817  10.983 -0.3114 -0.4972 -0.4552
    1TCq1    H314054   1.941   3.221  10.883  1.5815 -0.4417 -0.2768
    1TCq1    H414055   1.790   2.943  10.593  0.8865  1.0764 -0.3035
    2MPD1     C14056   1.940   3.678  10.477 -0.3172 -0.5483  0.1553
    2MPD1    C114057   1.963   3.667  10.614 -0.4495 -0.4261  0.7368
    2MPD1    C214058   1.950   3.536  10.669  0.0006 -0.2295  0.3503
    2MPD1    C314059   1.900   3.437  10.592  0.3165  0.2741  0.4332
    2MPD1    C414060   1.866   3.452  10.458  0.7173 -0.6621 -0.4840
    2MPD1    C514061   1.886   3.574  10.410 -0.1343  0.1627  0.0767
    2MPD1     H14062   1.972   3.514  10.774 -0.5456  0.9806  0.7109
    2MPD1    H114063   1.821   3.368  10.406 -0.9314 -0.3036  0.3882
    2MPD1    H214064   1.960   3.773  10.428 -0.3545  1.2605  3.6914
    2MPD1    H314065   1.866   3.592  10.305  1.5121 -2.7227 -0.7343
    2MPD1     N14066   1.895   3.315  10.666  0.4713  0.0604  0.4931
    2MPD1    H514067   1.902   3.326  10.767  0.8158  1.1303  0.3522
    2MPD1    N114068   2.010   3.772  10.694  0.1450  0.0524  0.5006
    2MPD1    H614069   1.972   3.861  10.662  4.6988  1.9618  0.4182
    2MPD1    H714070   1.978   3.758  10.790 -2.7679 -2.1454 -0.7668
    1TCq1    O114071   4.420   1.216   0.705  0.0539  0.5948  0.3702
    1TCq1    C114072   4.286   1.182   0.744 -0.3114  0.9009 -0.1811
    1TCq1    O214073   4.229   1.230   0.838 -0.2199 -0.1734 -0.9400
    1TCq1    C214074   4.294   1.039   0.726  0.4123  0.0312 -1.0417
    1TCq1    C314075   4.307   1.004   0.597 -0.0049  0.0964 -0.0291
    1TCq1    C414076   4.296   0.877   0.559 -0.2670  0.3367 -0.2746
    1TCq1    C514077   4.317   0.777   0.655 -0.3908  0.5740 -0.1125
    1TCq1    C614078   4.327   0.815   0.781  0.6066 -0.1334  0.5828
    1TCq1    C714079   4.319   0.948   0.823 -0.6996 -0.3751  0.4999
    1TCq1    C814080   4.314   0.711   0.883 -0.2570 -0.3099 -0.3686
    1TCq1    O414081   4.237   0.735   0.975 -0.0821  0.6564  0.1691
    1TCq1    C914082   4.304   0.834   0.422 -0.4449  0.1197 -0.1134
    1TCq1    O514083   4.317   0.710   0.401 -0.4384  0.0197 -0.1730
    1TCq1    O614084   4.309   0.929   0.337  0.2510 -0.2353  0.0012
    1TCq1    H114085   4.458   1.143   0.652 -1.6121  0.2021 -0.2867
    1TCq1    H214086   4.276   1.077   0.523 -0.3368 -1.9090 -1.8731
    1TCq1    H314087   4.312   0.676   0.616 -1.3004 -0.5407  2.9663
    1TCq1    H414088   4.315   0.967   0.930 -0.3235  2.0301  0.0895
    2MPD1     C14089   4.380   0.244   1.074 -0.2143  0.2916 -0.0555
    2MPD1    C114090   4.467   0.254   0.964  0.0981 -0.4365  0.0709
    2MPD1    C214091   4.471   0.372   0.898 -0.2465  0.2378 -0.2856
    2MPD1    C314092   4.390   0.480   0.930  0.0325 -0.0490 -0.5331
    2MPD1    C414093   4.309   0.469   1.041  0.0563  0.5239 -0.7179
    2MPD1    C514094   4.305   0.353   1.110 -0.5740 -0.2020  0.3204
    2MPD1     H14095   4.541   0.372   0.816 -2.4275  0.3926 -2.1299
    2MPD1    H114096   4.249   0.546   1.085  0.4490  0.2288  0.3263
    2MPD1    H214097   4.384   0.161   1.143  0.6355  0.0840 -0.3537
    2MPD1    H314098   4.236   0.328   1.189 -0.7685  0.3430  0.3238
    2MPD1     N14099   4.394   0.597   0.856  0.0456 -1.2158  0.0400
    2MPD1    H514100   4.464   0.594   0.782  1.1066  0.4279  0.9861
    2MPD1    N114101   4.554   0.151   0.937 -0.2970 -0.2851  0.6549
    2MPD1    H614102   4.652   0.176   0.948 -0.5798  0.9988  0.2856
    2MPD1    H714103   4.552   0.071   0.999  0.2685 -0.4850  0.4140
    1MPD1     C14104   2.883   2.590  12.223  0.5384 -0.2072 -0.4199
    1MPD1    C114105   3.015   2.641  12.253  1.0234  0.3169  0.5928
    1MPD1    C214106   3.038   2.773  12.244 -0.7644  0.0987  0.3115
    1MPD1    C314107   2.928   2.856  12.222  0.6107  0.1061 -0.2746
    1MPD1    C414108   2.805   2.804  12.184  0.2960 -0.0482  0.0162
    1MPD1    C514109   2.776   2.668  12.190  1.1356  0.7527  0.1210
    1MPD1     H14110   3.136   2.814  12.267 -0.1292  0.3664 -2.8201
    1MPD1    H114111   2.717   2.867  12.178  1.3158  1.2518 -1.3007
    1MPD1    H214112   2.864   2.485  12.203 -1.0379  0.1199 -0.6404
    1MPD1    H314113   2.674   2.631  12.181  1.0045  1.4267 -1.1659
    1MPD1     N14114   2.955   2.994  12.209  0.2434 -0.4436 -0.5465
    1MPD1    H514115   3.052   3.021  12.221 -0.0915  0.8345 -0.6537
    1MPD1    N114116   3.127   2.552  12.272 -0.5453 -0.1877  0.0425
    1MPD1    H614117   3.196   2.598  12.331 -1.1392  1.7129 -0.7207
    1MPD1    H714118   3.099   2.472  12.328  3.4553 -1.6115 -0.0027
    2MPD1     C14119   2.452   4.183  10.813 -0.1264 -0.4842 -0.4903
    2MPD1    C114120   2.390   4.062  10.791  0.0503 -0.0276  0.7174
    2MPD1    C214121   2.473   3.956  10.768  0.0024  0.1299 -0.2066
    2MPD1    C314122   2.615   3.963  10.762 -0.5665  0.1258  0.1064
    2MPD1    C414123   2.671   4.090  10.772  0.6410  0.2123  0.0126
    2MPD1    C514124   2.586   4.193  10.801  0.1101 -0.5243  0.2669
    2MPD1     H14125   2.424   3.860  10.755  1.1728 -0.5135  0.0702
    2MPD1    H114126   2.777   4.111  10.762  1.1711 -1.5060  2.2684
    2MPD1    H214127   2.398   4.275  10.835 -0.1905 -0.4213 -0.8993
    2MPD1    H314128   2.636   4.289  10.804  0.2962 -0.6053 -0.3693
    2MPD1     N14129   2.697   3.855  10.724 -0.3819 -0.1659 -0.2182
    2MPD1    H514130   2.795   3.872  10.706 -0.0440 -1.9489 -0.0963
    2MPD1    N114131   2.261   4.051  10.835 -0.4904  0.2510 -0.0470
    2MPD1    H614132   2.199   4.131  10.822 -1.4123 -0.4403  0.0595
    2MPD1    H714133   2.204   3.969  10.815 -1.5301  0.9382  0.0769
    3MPD1     C14134   2.720   2.965  10.235  0.2259  0.4274 -0.2296
    3MPD1    C114135   2.673   3.089  10.207 -0.3091 -0.6545 -0.5330
    3MPD1    C214136   2.686   3.192  10.295 -0.3106  0.3289 -0.2516
    3MPD1    C314137   2.727   3.167  10.426 -0.1865  0.0629 -0.2717
    3MPD1    C414138   2.758   3.038  10.456  0.4306 -0.5982 -0.2359
    3MPD1    C514139   2.758   2.939  10.360  0.0548 -0.5095  0.4745
    3MPD1     H14140   2.658   3.295  10.273  1.1035  0.1853 -2.6378
    3MPD1    H114141   2.786   3.005  10.555  2.3028  2.4038  0.2615
    3MPD1    H214142   2.728   2.882  10.165  2.1695 -0.3889  0.9525
    3MPD1    H314143   2.764   2.835  10.390  1.2703 -0.5743  0.0259
    3MPD1     N14144   2.736   3.274  10.513  0.4286  0.5071  0.1363
    3MPD1    H514145   2.710   3.366  10.479  0.8798  0.3797 -0.5284
    3MPD1    N114146   2.629   3.120  10.077 -0.0082  0.3665 -0.1868
    3MPD1    H614147   2.566   3.200  10.068 -0.0077  0.5843  1.7529
    3MPD1    H714148   2.597   3.042  10.020  1.3537 -0.3041 -0.0327
    4MPD2     C14149   2.757   3.714  11.850  0.2327  0.4025  0.2303
    4MPD2    C114150   2.875   3.692  11.921 -0.1507 -0.1314  0.2354
    4MPD2    C214151   2.992   3.745  11.866 -0.4105 -0.3143 -0.6935
    4MPD2    C314152   2.985   3.810  11.745  0.1939  0.0211  0.4052
    4MPD2    C414153   2.864   3.834  11.679  0.2160 -0.2732  0.1353
    4MPD2    C514154   2.755   3.777  11.726  0.0574  0.4601 -0.3194
    4MPD2     H14155   3.079   3.730  11.928 -0.2679 -0.3894 -0.9130
    4MPD2    H114156   2.855   3.882  11.582 -0.4282 -2.2003 -0.7435
    4MPD2    H214157   2.661   3.681  11.888 -0.1951  1.5305  0.1119
    4MPD2    H314158   2.663   3.791  11.671 -0.1014  2.6321  0.5148
    4MPD2     N14159   3.103   3.869  11.687  0.4230 -0.0771  0.6504
    4MPD2    H514160   3.096   3.912  11.595  2.1790 -0.1247  0.4942
    4MPD2    N114161   2.899   3.619  12.039  0.0162  0.1529 -0.7092
    4MPD2    H714162   2.994   3.600  12.068  0.0877 -0.3675 -1.2940
    5TMC3    C114163   2.862   3.452  12.194  0.4287  0.4458  0.1990
    5TMC3    C214164   2.823   3.323  12.179  0.2175  0.6443 -0.1335
    5TMC3    C314165   2.913   3.222  12.179  0.2941 -0.2745  0.3102
    5TMC3    C414166   2.995   3.479  12.215  0.0204 -0.3772 -0.4658
    5TMC3    C514167   3.086   3.382  12.197 -0.1408  0.4634 -1.0063
    5TMC3    C614168   3.044   3.252  12.177  0.1673  0.0864  0.2376
    5TMC3     C14169   2.798   3.546  12.098  0.7405 -0.4689  0.2071
    5TMC3     O14170   2.681   3.529  12.066  0.2564 -0.4235 -0.3207
    5TMC3     H14171   2.716   3.307  12.168  0.5550  0.7625 -3.6290
    5TMC3    H114172   3.032   3.580  12.230 -1.0940  0.0003 -0.3249
    5TMC3    H214173   3.122   3.179  12.160  2.1401  2.9390 -3.0730
    5TMC3    C714174   3.187   3.424  12.096  0.6999 -0.5822 -0.1816
    5TMC3    C814175   2.860   3.090  12.186  0.4570  0.3385  0.1093
    5TMC3    O114176   3.180   3.544  12.073  0.0596 -0.4988  0.5909
    5TMC3    O214177   2.742   3.083  12.150 -0.1160 -0.1187 -0.1136
    6TMC3    C114178   2.765   3.634  10.693 -0.3069  0.2409 -0.4928
    6TMC3    C214179   2.733   3.503  10.653  0.1132 -0.6103 -0.8707
    6TMC3    C314180   2.795   3.398  10.706  0.5183  0.6681  0.1680
    6TMC3    C414181   2.865   3.652  10.792 -0.0497  0.2365 -0.3157
    6TMC3    C514182   2.920   3.540  10.851  0.3695 -0.4087  0.3049
    6TMC3    C614183   2.890   3.410  10.811  0.4231  0.0703 -0.8701
    6TMC3     C14184   2.652   3.730  10.697 -0.0174 -0.6692  0.3398
    6TMC3     O14185   2.540   3.680  10.699 -0.7173 -0.4991 -0.3608
    6TMC3     H14186   2.656   3.494  10.576 -0.5456 -0.8862 -0.1853
    6TMC3    H114187   2.889   3.750  10.831 -0.8258  0.2494  0.1205
    6TMC3    H214188   2.936   3.319  10.847  1.0621  1.3599  1.5068
    6TMC3    C714189   3.010   3.565  10.959  0.3482 -1.0080  0.0992
    6TMC3    C814190   2.792   3.272  10.641 -0.3927  0.2071  0.1038
    6TMC3    O114191   3.057   3.677  10.965 -0.1541 -0.0305  0.2791
    6TMC3    O214192   2.830   3.177  10.708  0.9006  0.0445 -0.1749
    7MPD2     C14193   3.564   3.404  11.746  0.2205 -0.1770 -0.7895
    7MPD2    C114194   3.492   3.513  11.802 -0.1668  0.4452  0.8241
    7MPD2    C214195   3.391   3.491  11.895  0.0902  0.1683 -0.3295
    7MPD2    C314196   3.365   3.370  11.943 -0.5880  0.1376  0.3988
    7MPD2    C414197   3.440   3.264  11.894  0.0507 -0.1767 -0.8232
    7MPD2    C514198   3.537   3.276  11.794  0.3102 -0.3220  0.4474
    7MPD2     H14199   3.333   3.580  11.918  0.8791  0.6323 -0.1346
    7MPD2    H114200   3.414   3.167  11.936  1.5369 -0.0633  0.3704
    7MPD2    H214201   3.627   3.414  11.658 -0.5396  0.7438 -1.2171
    7MPD2    H314202   3.590   3.191  11.754 -0.5362 -0.4152 -0.4517
    7MPD2     N14203   3.260   3.331  12.036  0.1874 -0.1222  0.4637
    7MPD2    H514204   3.261   3.240  12.079  1.3652 -0.1379  0.4125
    7MPD2    N114205   3.509   3.652  11.762  0.2048 -0.3504  0.0259
    7MPD2    H714206   3.437   3.717  11.793 -0.2978 -0.6427 -0.5335
    8TMC3    C114207   3.542   3.832  11.615  0.1708  0.1186 -0.2388
    8TMC3    C214208   3.506   3.817  11.485 -0.5188 -0.0588  0.4539
    8TMC3    C314209   3.387   3.861  11.443 -0.2136 -0.2824  0.0937
    8TMC3    C414210   3.451   3.896  11.699  0.0752 -0.2115  0.0220
    8TMC3    C514211   3.325   3.932  11.660 -0.2079 -0.3029  0.7199
    8TMC3    C614212   3.291   3.912  11.527  0.6818 -0.8484  0.6094
    8TMC3     C14213   3.596   3.704  11.675  0.0399  0.0837  0.5638
    8TMC3     O14214   3.690   3.647  11.618 -0.2382  0.7498  0.2155
    8TMC3     H14215   3.576   3.769  11.418 -0.7495  1.5820 -0.9508
    8TMC3    H114216   3.484   3.899  11.802  0.1656 -2.4528  0.0579
    8TMC3    H214217   3.197   3.935  11.478  1.9480  1.5270 -0.6948
    8TMC3    C714218   3.225   3.874  11.744  0.5762  0.1866  0.2999
    8TMC3    C814219   3.325   3.788  11.338  0.8625  0.1930 -0.4612
    8TMC3    O114220   3.264   3.845  11.855 -0.0645  0.0469 -0.4140
    8TMC3    O214221   3.218   3.832  11.289 -0.1315  1.0756  0.3641
    9MPD2     C14222   3.367   3.432  11.315 -0.2908  0.7259 -0.3966
    9MPD2    C114223   3.312   3.550  11.283 -0.0035 -0.1237  0.2712
    9MPD2    C214224   3.213   3.557  11.184  0.3607 -0.3921  0.1832
    9MPD2    C314225   3.160   3.442  11.120  0.0364  0.3104 -0.7724
    9MPD2    C414226   3.196   3.327  11.183 -0.2399  0.6097  0.2983
    9MPD2    C514227   3.304   3.319  11.269 -0.3769 -0.0060 -0.1334
    9MPD2     H14228   3.182   3.654  11.147  1.2052 -0.3822 -0.4949
    9MPD2    H114229   3.170   3.227  11.149  0.2839  0.8517 -0.7976
    9MPD2    H214230   3.448   3.419  11.385 -0.8682 -1.4371 -0.1403
    9MPD2    H314231   3.347   3.222  11.290 -1.2420 -0.2862  0.3206
    9MPD2     N14232   3.055   3.450  11.021 -0.5182  0.0696 -0.3332
    9MPD2    H514233   3.005   3.365  10.999 -0.0296 -0.6511  1.2697
    9MPD2    N114234   3.378   3.660  11.339 -0.1227  0.1839  0.2558
    9MPD2    H714235   3.459   3.645  11.398  0.4375  1.0548 -0.2967
    1MPD1     C14236   4.208   1.794  17.307  0.3380 -0.1233 -0.0455
    1MPD1    C114237   4.131   1.832  17.205 -0.2185 -0.2143 -0.5842
    1MPD1    C214238   4.005   1.890  17.229 -0.4996 -0.2024  0.7900
    1MPD1    C314239   3.947   1.880  17.360  0.4189  0.1924 -0.4132
    1MPD1    C414240   4.029   1.824  17.460 -0.0268  0.3310  0.0376
    1MPD1    C514241   4.157   1.788  17.433 -0.1058 -0.2496  0.7917
    1MPD1     H14242   3.952   1.937  17.148 -2.7410 -2.1058  1.1469
    1MPD1    H114243   3.985   1.797  17.556  1.3902 -2.5371 -0.1153
    1MPD1    H214244   4.308   1.758  17.286  0.8021  1.3476 -0.3596
    1MPD1    H314245   4.208   1.746  17.519 -0.2644 -1.6952  0.1913
    1MPD1     N14246   3.818   1.930  17.399  0.4172 -0.1284 -0.6881
    1MPD1    H514247   3.789   1.892  17.489 -0.9377  0.4676 -0.8685
    1MPD1    N114248   4.191   1.848  17.083 -0.4962  0.2091 -0.0104
    1MPD1    H614249   4.120   1.848  17.010 -2.7074  0.9993  2.1177
    1MPD1    H714250   4.261   1.779  17.061  1.9196  2.1326  1.6814
    2MPD1     C14251   3.159   2.458  16.842 -0.5580  0.1697 -0.8272
    2MPD1    C114252   3.270   2.384  16.811 -0.8832 -0.2647  0.3177
    2MPD1    C214253   3.334   2.319  16.908 -0.7193  0.0900  0.3789
    2MPD1    C314254   3.285   2.321  17.037  0.4687 -0.3963  0.0217
    2MPD1    C414255   3.178   2.401  17.071 -0.0075  0.0083  0.0770
    2MPD1    C514256   3.114   2.473  16.971  0.3026  0.5526 -0.2037
    2MPD1     H14257   3.419   2.256  16.886 -1.8895 -1.4439  0.2161
    2MPD1    H114258   3.134   2.411  17.169 -0.5943  1.7938 -0.3670
    2MPD1    H214259   3.105   2.512  16.765 -1.9058 -0.1620 -0.1075
    2MPD1    H314260   3.030   2.540  16.990 -0.5632 -0.7079  0.4247
    2MPD1     N14261   3.346   2.225  17.124 -0.4264 -0.5937 -0.7349
    2MPD1    H514262   3.432   2.190  17.082  0.2509  1.4708 -1.0870
    2MPD1    N114263   3.326   2.386  16.681 -0.1157  0.8049 -0.3410
    2MPD1    H614264   3.369   2.295  16.667 -0.3836  0.9273 -1.9091
    2MPD1    H714265   3.249   2.396  16.616 -2.5665 -3.2674  1.9077
    3TCq2    C114266   3.289   2.192  17.241  0.3195  0.4148 -0.8093
    3TCq2    O214267   3.173   2.190  17.266  0.1825 -0.0287 -0.0960
    3TCq2    C214268   3.378   2.114  17.325  0.0286  0.6295  0.6982
    3TCq2    C314269   3.328   2.045  17.434 -0.2356 -0.2100 -0.4882
    3TCq2    C414270   3.411   1.971  17.515  0.4072 -0.5012  0.3634
    3TCq2    C514271   3.545   1.962  17.478 -0.0089 -0.0152  0.0904
    3TCq2    C614272   3.597   2.026  17.374  0.0634 -0.5800  0.3084
    3TCq2    C714273   3.509   2.102  17.296 -0.3999  0.6338 -0.4243
    3TCq2    C814274   3.732   2.006  17.321  0.6027 -0.3811  0.2015
    3TCq2    O414275   3.752   2.058  17.214 -0.2405 -0.4732 -0.4729
    3TCq2    C914276   3.359   1.893  17.625  0.2131 -0.2389  0.0090
    3TCq2    O514277   3.233   1.889  17.646 -0.3894  0.4979  0.2158
    3TCq2    O614278   3.434   1.832   0.009  0.5113  0.5779  0.3534
    3TCq2    H214279   3.222   2.044  17.456  0.0510  0.4751  0.8993
    3TCq2    H314280   3.622   1.924  17.544 -0.4131 -0.0232  0.5548
    3TCq2    H414281   3.560   2.173  17.232 -1.1640  2.0796  0.5750
    1TCq1    O114282   1.410   0.680  12.597 -0.0690  0.4542  0.3597
    1TCq1    C114283   1.338   0.583  12.672 -1.0783  0.1535  0.3255
    1TCq1    O214284   1.374   0.535  12.778  0.6293  0.1410 -0.3924
    1TCq1    C214285   1.202   0.593  12.639 -0.1320  0.0845 -0.3130
    1TCq1    C314286   1.128   0.478  12.641  0.0183 -0.0811 -0.3317
    1TCq1    C414287   0.998   0.498  12.605  0.1331  0.1005 -0.7798
    1TCq1    C514288   0.949   0.621  12.577  0.0998  0.7426  0.2988
    1TCq1    C614289   1.032   0.734  12.577 -0.2164 -0.4181 -0.1368
    1TCq1    C714290   1.157   0.718  12.614  0.2296  0.1291  0.4078
    1TCq1    C814291   0.980   0.870  12.563  0.0619  0.3905 -0.9132
    1TCq1    O414292   0.877   0.885  12.497  0.2141  0.4340 -0.3798
    1TCq1    C914293   0.906   0.384  12.629 -0.5880 -0.5840  0.3086
    1TCq1    O514294   0.958   0.269  12.627  0.1934  0.4072 -0.3420
    1TCq1    O614295   0.797   0.422  12.678  0.5837  0.8145  0.1657
    1TCq1    H114296   1.371   0.720  12.517 -1.3903 -1.5092  0.0226
    1TCq1    H214297   1.160   0.379  12.671 -1.8187  0.1084  2.2632
    1TCq1    H314298   0.842   0.628  12.560 -0.4543 -3.5836  1.9783
    1TCq1    H414299   1.226   0.802  12.617 -0.0274  0.3153  1.0929
    2MPD2     C14300   0.937   1.175  12.522  0.0691  0.1453 -0.2513
    2MPD2    C114301   1.033   1.107  12.607  0.6959  0.7205  0.2865
    2MPD2    C214302   1.116   1.196  12.680  0.2745 -0.4049  0.0167
    2MPD2    C314303   1.111   1.334  12.666  0.1533 -0.7673 -0.6062
    2MPD2    C414304   1.010   1.389  12.595  0.3171 -0.8971  0.2289
    2MPD2    C514305   0.923   1.315  12.517 -0.1975 -0.0721 -0.0090
    2MPD2     H14306   1.195   1.163  12.747  1.4588  0.2736 -1.0473
    2MPD2    H114307   0.992   1.495  12.590 -2.0209 -1.2828  0.1053
    2MPD2    H214308   0.860   1.118  12.470  1.4697 -0.8310 -1.2648
    2MPD2    H314309   0.842   1.362  12.461  0.0083  0.0649 -0.1898
    2MPD2     N14310   1.194   1.414  12.748  0.1755 -0.6422 -0.2965
    2MPD2    H514311   1.250   1.360  12.814 -1.4790 -1.1913  0.6696
    2MPD2    N114312   1.051   0.969  12.620  0.6097 -0.1946 -0.5372
    2MPD2    H714313   1.136   0.942  12.669 -0.2408  0.5091  1.3287
    3TCq1    O114314   1.307   1.945  13.032  0.1553  0.6754 -0.3878
    3TCq1    C114315   1.375   1.844  13.090 -0.0697 -0.4061  0.4561
    3TCq1    O214316   1.406   1.837  13.208 -0.4212  0.1469  0.2248
    3TCq1    C214317   1.393   1.744  12.990 -0.4438 -0.0220  0.3100
    3TCq1    C314318   1.488   1.654  13.031 -0.0913  0.1300  0.1474
    3TCq1    C414319   1.499   1.534  12.962 -0.3106  0.2503  0.0948
    3TCq1    C514320   1.414   1.507  12.859  0.3111 -0.0559  0.3219
    3TCq1    C614321   1.320   1.599  12.823  0.8408 -0.1143 -0.3927
    3TCq1    C714322   1.304   1.722  12.889 -0.4579  0.5249  0.0210
    3TCq1    C814323   1.203   1.548  12.755  0.2163  0.5930  0.7802
    3TCq1    O414324   1.114   1.626  12.737 -0.8090 -0.7330 -0.7034
    3TCq1    C914325   1.576   1.431  13.031 -0.1508 -0.1176  0.4823
    3TCq1    O514326   1.582   1.318  12.974  0.4154  0.5976  0.3064
    3TCq1    O614327   1.643   1.461  13.135  0.3552  0.0611 -0.2682
    3TCq1    H114328   1.284   1.925  12.938  0.3028 -0.6229 -0.1466
    3TCq1    H214329   1.551   1.665  13.118  0.9512 -1.3648 -0.4308
    3TCq1    H314330   1.423   1.410  12.813 -2.7970 -0.1639 -0.0166
    3TCq1    H414331   1.226   1.792  12.859  0.6589  1.3699 -0.9390
    1MPD2     C14332   1.252   2.711  14.515 -0.5056 -0.4415 -0.5357
    1MPD2    C114333   1.127   2.666  14.502  1.1157 -0.3135 -0.1264
    1MPD2    C214334   1.100   2.532  14.459 -0.0448 -0.3010  0.1693
    1MPD2    C314335   1.201   2.437  14.442 -0.4030 -0.0954 -0.0033
    1MPD2    C414336   1.332   2.485  14.467 -0.4544 -0.5781 -0.3215
    1MPD2    C514337   1.353   2.617  14.502  0.4614 -0.2089 -0.2766
    1MPD2     H14338   0.996   2.499  14.461 -0.3436  0.4349 -2.7262
    1MPD2    H114339   1.416   2.422  14.443  1.2687  0.7279  2.2760
    1MPD2    H214340   1.279   2.810  14.552 -1.1497  0.2025 -1.7829
    1MPD2    H314341   1.455   2.645  14.528 -0.4047 -0.2102  3.1200
    1MPD2     N14342   1.174   2.300  14.416  0.3404 -0.0530  0.5440
    1MPD2    H514343   1.250   2.235  14.432  1.3266  1.1771  0.8327
    1MPD2    N114344   1.021   2.754  14.533 -0.1420  0.2564  0.0026
    1MPD2    H714345   1.044   2.852  14.537  0.5988 -0.0319  2.9505
    2TMC3    C114346   0.786   2.796  14.570  0.5028 -0.2323 -0.1250
    2TMC3    C214347   0.683   2.734  14.632  0.2548 -0.1644  0.0347
    2TMC3    C314348   0.554   2.763  14.589  0.3412  0.9319 -0.3656
    2TMC3    C414349   0.767   2.878  14.464  0.2740 -0.9671  0.0860
    2TMC3    C514350   0.637   2.910  14.422 -0.2588 -0.5368  0.2391
    2TMC3    C614351   0.529   2.853  14.488  0.0633  0.7624 -0.0626
    2TMC3     C14352   0.899   2.710  14.571  0.0711 -0.2957  0.8504
    2TMC3     O14353   0.881   2.601  14.622  0.3817  0.1888  0.0191
    2TMC3     H14354   0.702   2.674  14.720  2.3687  0.3385 -0.0767
    2TMC3    H114355   0.855   2.911  14.411 -1.1855  0.3121 -1.5415
    2TMC3    H214356   0.426   2.881  14.471 -0.1168  0.2573  0.2121
    2TMC3    C714357   0.608   3.024  14.337  0.6157  0.5028 -0.3808
    2TMC3    C814358   0.461   2.653  14.582  0.3703 -0.0917 -0.8469
    2TMC3    O114359   0.494   3.050  14.302 -0.6244  0.2356 -0.2691
    2TMC3    O214360   0.359   2.669  14.516 -0.6241 -0.5696  0.1175
    3TCq1    O114361   1.306   3.996  14.104 -0.8118 -0.0426  0.0325
    3TCq1    C114362   1.406   3.903  14.126 -0.6962  0.4465  0.0614
    3TCq1    O214363   1.524   3.938  14.135  0.4795  0.0737 -0.0916
    3TCq1    C214364   1.348   3.798  14.205  0.0502 -0.0076  0.1227
    3TCq1    C314365   1.415   3.736  14.311  0.0356 -0.7242  0.4355
    3TCq1    C414366   1.356   3.637  14.389 -0.5497  0.3817 -0.1384
    3TCq1    C514367   1.233   3.592  14.351  0.7054 -0.1773 -0.3230
    3TCq1    C614368   1.167   3.646  14.242  0.9296  0.2046  0.6085
    3TCq1    C714369   1.224   3.751  14.168 -0.0487 -0.7679 -0.0117
    3TCq1    C814370   1.025   3.613  14.213 -0.5696 -0.2008 -0.1000
    3TCq1    O414371   0.966   3.693  14.141  0.3102 -0.1186 -0.3832
    3TCq1    C914372   1.422   3.572  14.502 -0.4956  0.9173  0.0531
    3TCq1    O514373   1.361   3.478  14.561 -0.0211  0.2023 -0.2249
    3TCq1    O614374   1.542   3.595  14.521  0.0457 -0.4579  0.1321
    3TCq1    H114375   1.229   3.951  14.143 -1.1967 -1.3973 -2.2359
    3TCq1    H214376   1.508   3.777  14.349  0.8969 -0.6864 -1.7024
    3TCq1    H314377   1.193   3.511  14.410  1.4636 -1.8229 -2.0642
    3TCq1    H414378   1.171   3.797  14.086  2.4257 -0.3342 -1.3667
    4MPD2     C14379   0.751   3.495  14.178 -0.3855 -0.5697  0.3868
    4MPD2    C114380   0.850   3.434  14.249 -0.0347 -0.0588 -0.9298
    4MPD2    C214381   0.837   3.309  14.304  0.1893  0.0827  0.1246
    4MPD2    C314382   0.726   3.230  14.272 -0.0834 -0.0922  0.2351
    4MPD2    C414383   0.630   3.289  14.194  0.0317  0.1244 -0.1684
    4MPD2    C514384   0.633   3.424  14.156 -0.3983  0.0252 -0.3515
    4MPD2     H14385   0.912   3.274  14.374 -2.2158 -2.5970  1.3724
    4MPD2    H114386   0.551   3.225  14.157  0.0768 -1.1173  1.9246
    4MPD2    H214387   0.767   3.595  14.139  0.5801 -0.7692  0.2645
    4MPD2    H314388   0.547   3.460  14.100 -1.3566 -2.3275 -0.4283
    4MPD2     N14389   0.723   3.103  14.333 -0.4009 -0.1511 -0.2267
    4MPD2    H514390   0.808   3.070  14.377 -0.2318  0.6943  0.0706
    4MPD2    N114391   0.975   3.493  14.263 -0.8381 -0.2535  0.4822
    4MPD2    H714392   1.046   3.440  14.312  0.1072  0.7967  0.2643
    5TMC2    C114393   0.844   1.996  14.529  0.8383 -0.1393 -0.4325
    5TMC2    C214394   0.930   1.943  14.616  0.1077 -0.3210 -0.5533
    5TMC2    C314395   1.062   1.978  14.609  0.6006 -0.3745 -0.4631
    5TMC2    C414396   0.896   2.081  14.429 -0.0343  0.3964  0.2654
    5TMC2    C514397   1.032   2.120  14.421 -0.1406  0.9724 -0.6389
    5TMC2    C614398   1.117   2.060  14.510  0.1568 -0.2655  0.3100
    5TMC2     C14399   0.755   2.083  14.605  0.1912  0.2194  0.6882
    5TMC2     O14400   0.802   2.141  14.704  0.2326 -0.3260 -0.0415
    5TMC2     H14401   0.884   1.896  14.702 -1.6159  1.1554 -0.6736
    5TMC2    H114402   0.823   2.139  14.373 -1.4023 -0.9426  0.6725
    5TMC2    H214403   1.223   2.078  14.504 -0.4086  2.6436 -0.8172
    5TMC2    C714404   1.054   2.255  14.376 -0.7180 -0.5075  0.3062
    5TMC2    C814405   1.142   1.920  14.713  0.0399 -0.0866 -0.6314
    5TMC2    O114406   0.961   2.318  14.321  0.5821  0.1232 -0.2634
    5TMC2    O214407   1.141   1.799  14.739 -0.2708  0.2256  0.3236
    5TMC2    O514408   1.232   2.009  14.749  0.0844 -0.4442 -0.3989
    5TMC2    H514409   1.236   2.095  14.702  0.8270  0.5388  1.4824
    6MPD2     C14410   0.346   2.376  14.538  0.5603  0.2213  0.0532
    6MPD2    C114411   0.474   2.408  14.586  0.0196  0.2252 -0.1053
    6MPD2    C214412   0.563   2.301  14.604  0.3426  0.3149 -0.6323
    6MPD2    C314413   0.528   2.174  14.562  0.4239 -0.0524  0.2041
    6MPD2    C414414   0.410   2.153  14.499 -0.6310  0.2533  0.2710
    6MPD2    C514415   0.316   2.250  14.498 -0.1634 -0.1958 -0.1642
    6MPD2     H14416   0.661   2.327  14.642  0.0391  0.7264 -0.1311
    6MPD2    H114417   0.386   2.057  14.456  2.9307 -0.9611  1.0261
    6MPD2    H214418   0.271   2.453  14.536 -0.2935 -0.5943  0.4998
    6MPD2    H314419   0.221   2.235  14.447 -0.2718  1.9180 -0.5913
    6MPD2     N14420   0.629   2.075  14.547 -0.9712 -0.3628  0.6466
    6MPD2    H514421   0.607   1.996  14.487 -2.3247  1.5320 -1.3286
    6MPD2    N114422   0.525   2.538  14.617 -0.1153 -0.2489  0.2519
    6MPD2    H714423   0.619   2.547  14.656  0.8473 -1.0291 -1.8982
  945NH3     N114424   1.069   1.131  10.335 -0.5158  0.2047  0.2518
  945NH3     H214425   1.061   1.211  10.396  0.7789  1.8058 -1.6917
  945NH3     H314426   1.139   1.162  10.268  0.0109 -2.0883 -0.2673
  945NH3     H414427   1.120   1.055  10.379  1.4783  0.7501 -1.0864
  946SOD     NA14428   1.675   3.459  14.419  0.4557 -0.1609 -0.6707
  947SOD     NA14429   2.912   2.365  15.224 -0.3373  0.0695  0.2036
  948SOD     NA14430   0.358   3.307  14.865 -0.3041  0.0666  0.1829
  949SOD     NA14431   2.201   2.289  11.626  0.4533 -0.6492 -0.4840
  950SOD     NA14432   3.397   0.439   7.433 -0.3150 -0.3858 -0.5993
  951SOD     NA14433   3.726   3.324   1.983  0.1190 -0.0920 -0.0931
  952SOD     NA14434   4.149   1.255  11.564  0.4689 -0.4258  0.0536
  953SOD     NA14435   4.322   2.018   9.991 -0.2175 -0.3930  0.2400
  954SOD     NA14436   2.521   4.376  13.507 -0.1287  0.5046  0.3399
  955SOD     NA14437   2.780   3.420  15.885 -0.4605  0.0959  0.2174
  956SOD     NA14438   2.079   2.571  11.546 -0.0444 -0.3795 -0.1759
  957SOD     NA14439   1.514   4.177   1.781 -0.7071 -0.0675  0.5662
  958SOD     NA14440   0.038   2.618   2.363  0.1929  0.1279 -0.2391
  959SOD     NA14441   2.395   1.002  14.285  0.5107  0.0279  0.4242
  960SOD     NA14442   2.122   2.904  11.304  0.5134 -0.2579  0.5561
  961SOD     NA14443   1.613   2.292  12.724  0.0094  0.5729  0.3768
  962SOD     NA14444   0.383   1.137  12.812  0.4574 -0.0075 -0.4610
  963SOD     NA14445   2.933   1.587   0.062  0.1442  0.2951 -0.1289
  964SOD     NA14446   0.339   1.951  11.061  0.1569  0.1770  0.3784
  965SOD     NA14447   0.858   1.630   9.736  0.3045 -0.2659  0.2515
  966SOD     NA14448   1.789   0.873  12.146 -0.0134  0.2821 -0.6116
  967SOD     NA14449   2.862   1.820   0.306 -0.2335 -0.3253  0.1712
  968SOD     NA14450   2.794   0.240   6.001 -0.3486 -0.0265 -0.2305
  969SOD     NA14451   0.529   2.503  10.281 -0.0115 -0.0028 -0.2034
  970SOD     NA14452   1.136   1.376   1.187 -0.2155 -0.5235 -0.2165
  971SOD     NA14453   2.927   0.271  12.899 -0.8752 -0.0340  0.6735
  972SOD     NA14454   2.273   1.976  12.720 -0.0980  0.3375 -0.4590
  973SOD     NA14455   1.648   4.590  16.959 -0.2076 -0.6555 -0.2463
  974SOD     NA14456   1.649   1.440  13.351 -0.2048 -0.1244 -0.2222
  975SOD     NA14457   0.354   1.497   8.224 -0.0046 -0.1218 -0.0293
  976SOD     NA14458   3.837   1.625   9.305  0.2212 -0.0065  0.2501
  977SOD     NA14459   1.028   0.684  11.054  0.1385  0.1134  0.1216
  978SOD     NA14460   1.099   3.277  10.238  0.1536 -0.2351  0.0866
  979SOD     NA14461   4.246   4.532  12.965 -0.1256 -0.4607  0.6263
  980SOD     NA14462   3.508   0.630  14.137 -0.6743 -0.2113 -0.1200
  981SOD     NA14463   1.009   3.414   1.030 -0.2768 -0.4471  0.3191
  982SOD     NA14464   2.862   4.303  17.553 -0.0216 -0.3645  0.0842
  983SOD     NA14465   2.071   4.227  16.529 -0.4052 -0.1512  0.2672
  984SOD     NA14466   1.636   3.355   2.624 -0.5214 -0.2591  0.1735
  985SOD     NA14467   4.480   2.578   8.747  0.3550 -0.5725 -0.1889
  986SOD     NA14468   2.066   0.712   0.566 -0.2647 -0.2078 -0.0371
  987SOD     NA14469   1.839   0.492   0.115 -0.4741 -0.0005  0.0739
  988SOD     NA14470   4.186   0.780  12.866 -0.1411 -0.0425 -0.2227
  989SOD     NA14471   0.522   1.445  10.765  0.4511 -0.1191  0.0735
  990SOD     NA14472   2.983   0.075   0.847 -0.3682  0.1475 -0.1062
  991SOD     NA14473   0.468   3.075   2.743  0.0164 -0.0282 -0.5071
  992SOD     NA14474   4.261   1.002   0.147  0.1857  0.3965 -0.5938
  993SOD     NA14475   2.909   4.089  11.145  0.0392 -0.0324 -0.3754
  994SOD     NA14476   1.756   2.163  12.443 -0.3277  0.3687  0.4882
  995SOD     NA14477   3.067   2.061  15.110 -0.2187  0.0528  0.0199
  996SOD     NA14478   2.768   4.078   1.533  0.3163 -0.5704  0.5740
  997SOD     NA14479   0.735   1.889  10.322 -0.3207 -0.2656  0.1632
  998SOD     NA14480   0.253   1.474   4.708  0.3368 -0.2166 -0.0682
  999SOD     NA14481   1.405   0.307  10.363 -0.2072  0.4648  0.0224
 1000SOD     NA14482   0.452   0.682  10.537 -0.0327 -0.3607 -0.0071
 1001SOD     NA14483   4.558   0.724   8.235  0.2877  0.1894 -0.1147
 1002SOD     NA14484   3.135   1.890  13.323 -0.2073 -0.2480 -0.0632
 1003SOD     NA14485   2.701   2.069  15.214  0.3454 -0.2410  0.1220
 1004SOD     NA14486   0.926   0.013  13.017  0.2768 -0.1359  0.4352
 1005SOD     NA14487   0.642   0.815  15.626 -0.2878 -0.0363 -0.0765
 1006SOD     NA14488   1.766   3.683  11.810  0.0324 -0.4441  0.1493
 1007SOD     NA14489   0.557   0.533  10.828 -0.0375  0.0352 -0.3105
 1008SOD     NA14490   1.019   2.141  15.297  0.1585 -0.2156 -0.8936
 1009SOD     NA14491   0.530   0.098   4.283  0.0905  0.8972 -0.0636
 1010SOD     NA14492   3.668   0.676  10.197  0.2553  0.1295  0.4010
 1011SOD     NA14493   0.533   1.978   4.449 -0.1580  0.1566  0.8983
 1012SOL     OW14494   2.543   1.890   6.307 -0.0675 -0.1398 -0.1190
 1012SOL    HW114495   2.530   1.962   6.368  1.3099  1.6259 -1.9259
 1012SOL    HW214496   2.521   1.816   6.364 -2.6114  1.3436  0.8148
 1013SOL     OW14497   4.489   4.648  15.676 -0.1705 -0.4367 -0.3466
 1013SOL    HW114498   4.437   4.721  15.709  0.7532 -0.6454  1.6139
 1013SOL    HW214499   4.521   4.677  15.591 -0.8805  2.7941  0.5160
 1014SOL     OW14500   3.082   0.888   4.115 -0.3419 -0.4554 -1.0072
 1014SOL    HW114501   3.126   0.942   4.050  2.0306  0.4557  1.3286
 1014SOL    HW214502   3.147   0.863   4.181 -1.0399  1.9806  0.6122
 1015SOL     OW14503   0.194   3.419   3.440  0.2245  0.6959 -0.1571
 1015SOL    HW114504   0.215   3.475   3.365 -1.3144 -2.0477 -2.6424
 1015SOL    HW214505   0.100   3.429   3.456  0.0445 -1.6197  0.0944
 1016SOL     OW14506   4.382   3.472  12.235 -0.1560 -0.5762  0.2048
 1016SOL    HW114507   4.477   3.467  12.249 -0.0519 -1.6400 -0.9547
 1016SOL    HW214508   4.350   3.458  12.324 -0.6792  0.4535  0.1818
 1017SOL     OW14509   2.229   3.005   9.723  0.2864 -0.6741  0.2872
 1017SOL    HW114510   2.194   2.917   9.738  1.3994 -0.9716  1.1245
 1017SOL    HW214511   2.255   2.995   9.631  1.8758  2.2961  0.3906
 1018SOL     OW14512   0.237   4.228   5.303 -0.8346 -0.3827 -0.0828
 1018SOL    HW114513   0.198   4.200   5.386 -1.9254  0.8667 -0.1877
 1018SOL    HW214514   0.325   4.229   5.341 -0.0898  2.9881 -1.8934
 1019SOL     OW14515   2.166   0.197   3.813 -0.2052  0.7241 -0.5582
 1019SOL    HW114516   2.175   0.119   3.758 -1.1492  0.3739 -0.2221
 1019SOL    HW214517   2.247   0.242   3.790 -0.5139  2.4653  1.8446
 1020SOL     OW14518   3.343   1.213   9.833 -0.2501  0.4156 -0.2717
 1020SOL    HW114519   3.342   1.298   9.790 -0.1255  0.5478 -0.0154
 1020SOL    HW214520   3.436   1.194   9.823  0.4521  3.8312 -0.3679
 1021SOL     OW14521   1.263   2.065   9.950  0.1655 -0.6266 -0.7493
 1021SOL    HW114522   1.217   2.134   9.904  1.0973 -0.0192 -0.7735
 1021SOL    HW214523   1.200   1.993   9.949 -1.9269  1.1937  0.3497
 1022SOL     OW14524   1.723   4.315   4.291 -0.0852 -0.2565 -0.2547
 1022SOL    HW114525   1.688   4.338   4.205  0.8127 -1.1947 -0.8743
 1022SOL    HW214526   1.661   4.253   4.329  0.9384 -0.7486  0.6569
 1023SOL     OW14527   2.660   3.905  15.410 -0.0140  0.3986  0.1676
 1023SOL    HW114528   2.653   3.810  15.400 -0.5367  0.5256 -0.6926
 1023SOL    HW214529   2.744   3.920  15.368 -0.4050 -1.3301 -1.2174
 1024SOL     OW14530   0.558   1.612   0.014 -0.4760  0.0869 -0.1435
 1024SOL    HW114531   0.468   1.608   0.047 -0.6452  0.7949 -0.4957
 1024SOL    HW214532   0.535   1.650  17.620  0.3095 -0.2834 -0.5154
 1025SOL     OW14533   2.776   2.664   2.145  0.5540 -0.0072  0.3844
 1025SOL    HW114534   2.704   2.727   2.138 -0.1900 -0.6312  2.4400
 1025SOL    HW214535   2.832   2.701   2.213  1.9050  0.5751 -1.0475
 1026SOL     OW14536   1.991   1.053   7.889 -0.0932  0.7785 -0.5351
 1026SOL    HW114537   2.006   1.001   7.968  2.7244  0.3259 -1.3661
 1026SOL    HW214538   1.897   1.062   7.902 -0.5161 -1.7838 -1.8906
 1027SOL     OW14539   0.969   2.516   4.532  0.3323  0.1177 -0.1493
 1027SOL    HW114540   0.949   2.423   4.520 -2.6781  0.6219  0.9119
 1027SOL    HW214541   1.053   2.516   4.577  0.4359 -2.0683 -0.3266
 1028SOL     OW14542   1.165   1.845   6.374 -0.2031 -0.3217 -0.0611
 1028SOL    HW114543   1.193   1.822   6.285  1.2479 -0.8321  0.5233
 1028SOL    HW214544   1.245   1.824   6.422 -1.5930 -1.7426  1.6177
 1029SOL     OW14545   0.680   4.026  11.389 -0.4586  0.0907 -0.4775
 1029SOL    HW114546   0.726   4.083  11.328  2.2907 -1.7983 -0.1578
 1029SOL    HW214547   0.746   4.016  11.458 -0.5196  1.0621 -0.2772
 1030SOL     OW14548   0.340   4.131   7.347  0.4901 -0.0341 -0.2671
 1030SOL    HW114549   0.377   4.080   7.419 -0.3488  1.0227  0.9058
 1030SOL    HW214550   0.284   4.070   7.299 -0.7743  2.1650 -1.5896
 1031SOL     OW14551   0.425   2.637   5.490  0.6339 -0.7625 -0.1884
 1031SOL    HW114552   0.454   2.602   5.574  1.4761 -1.0516 -0.6017
 1031SOL    HW214553   0.457   2.577   5.422  1.2803 -0.2517 -0.3336
 1032SOL     OW14554   3.589   0.437   7.333 -0.0410 -0.2551  0.0681
 1032SOL    HW114555   3.622   0.379   7.264 -0.5228 -1.1568  0.5918
 1032SOL    HW214556   3.668   0.460   7.381  0.3610  1.0609 -1.2252
 1033SOL     OW14557   0.808   0.055   8.342 -0.6380  0.3697  0.0325
 1033SOL    HW114558   0.722   0.080   8.375 -1.5492 -0.7033 -1.5539
 1033SOL    HW214559   0.813   0.115   8.268  3.3505  0.2620  0.2082
 1034SOL     OW14560   3.002   0.889   7.193  0.7629  0.0542  0.1947
 1034SOL    HW114561   3.081   0.933   7.164  1.9188 -1.2210  1.3919
 1034SOL    HW214562   2.942   0.963   7.202 -0.5022 -1.3559  3.4721
 1035SOL     OW14563   0.789   2.563  14.934 -0.5637  0.5288  0.1818
 1035SOL    HW114564   0.707   2.612  14.939 -0.6419  0.5037 -0.9122
 1035SOL    HW214565   0.759   2.476  14.958  0.2807 -0.7651 -3.4859
 1036SOL     OW14566   0.533   3.999   8.380  0.7193  0.0944 -0.9927
 1036SOL    HW114567   0.448   4.021   8.416  0.5563  1.2854 -2.0853
 1036SOL    HW214568   0.590   4.036   8.447 -0.2463  1.0712 -0.7208
 1037SOL     OW14569   2.635   1.711   8.321  0.2463 -0.9948  0.5382
 1037SOL    HW114570   2.641   1.621   8.353  0.9485 -1.1209  0.0709
 1037SOL    HW214571   2.615   1.744   8.408 -1.0241  0.1445 -0.1845
 1038SOL     OW14572   1.049   1.722   6.812 -0.0403  0.1641  0.0107
 1038SOL    HW114573   1.130   1.711   6.861 -1.5163 -0.7182  2.2484
 1038SOL    HW214574   0.986   1.740   6.881  1.0845  0.1746  1.0250
 1039SOL     OW14575   2.968   2.821   5.845  0.5896 -0.2654  0.2892
 1039SOL    HW114576   3.033   2.782   5.903  1.3096  0.6527  0.1001
 1039SOL    HW214577   2.981   2.766   5.768 -2.5056 -0.5009 -0.0754
 1040SOL     OW14578   1.479   1.787  16.890 -0.3015  0.2618  0.3049
 1040SOL    HW114579   1.392   1.824  16.870 -0.6460  0.0681  1.4433
 1040SOL    HW214580   1.480   1.709  16.835  0.5311 -0.7035  1.7024
 1041SOL     OW14581   2.279   1.953   5.493  0.0011 -0.6159  0.3472
 1041SOL    HW114582   2.318   2.040   5.498  1.1440 -1.0864 -0.3632
 1041SOL    HW214583   2.223   1.954   5.571 -2.3914 -1.3987 -1.3399
 1042SOL     OW14584   2.835   1.358   9.223 -0.2990 -0.5434  0.3419
 1042SOL    HW114585   2.880   1.406   9.153  0.8284 -0.9180  0.8135
 1042SOL    HW214586   2.748   1.344   9.186 -0.9295  1.9008  0.9196
 1043SOL     OW14587   0.559   4.012   4.856 -0.1159  0.3566 -0.1134
 1043SOL    HW114588   0.531   3.988   4.767  1.1282 -2.0421  0.1439
 1043SOL    HW214589   0.518   3.943   4.909  0.7829  0.5279  0.8082
 1044SOL     OW14590   2.528   0.739  16.943 -0.1997 -0.3115 -0.4765
 1044SOL    HW114591   2.510   0.645  16.953 -0.4654 -0.2725 -0.5649
 1044SOL    HW214592   2.576   0.748  16.861 -1.2432  1.1738 -0.9223
 1045SOL     OW14593   3.169   2.777  14.388  0.1833 -0.0309  0.0696
 1045SOL    HW114594   3.179   2.848  14.452  2.0582 -0.1406 -0.0978
 1045SOL    HW214595   3.095   2.804  14.335 -1.1717 -1.2161  1.3760
 1046SOL     OW14596   1.092   2.103   6.989  0.0588 -0.0080  0.7581
 1046SOL    HW114597   1.140   2.182   7.015 -1.6931  1.1984  0.3250
 1046SOL    HW214598   1.018   2.104   7.050 -1.2211  0.3361 -0.8243
 1047SOL     OW14599   2.840   0.681   9.391  0.2668  0.2327 -0.4479
 1047SOL    HW114600   2.779   0.717   9.456 -0.5748  1.0094 -1.6765
 1047SOL    HW214601   2.781   0.668   9.317 -0.9889 -1.8381  0.8886
 1048SOL     OW14602   4.442   4.020   8.607 -0.5771 -0.1679  0.6500
 1048SOL    HW114603   4.356   3.979   8.620 -0.4092  0.0547  2.5588
 1048SOL    HW214604   4.412   4.095   8.557  1.5161  0.1381 -0.1411
 1049SOL     OW14605   4.710   3.424   6.225  0.0679 -0.0919  0.3925
 1049SOL    HW114606   4.687   3.393   6.312  1.6404 -1.1607  0.4460
 1049SOL    HW214607   4.659   3.505   6.224  1.6045  0.8544 -1.4576
 1050SOL     OW14608   0.306   0.519   7.642  0.7274 -0.1646  0.3420
 1050SOL    HW114609   0.293   0.425   7.653  1.1336 -0.4703 -1.8071
 1050SOL    HW214610   0.398   0.532   7.664  0.7072  0.7543 -0.1025
 1051SOL     OW14611   2.562   0.351  15.159  0.0044 -0.6058  0.3650
 1051SOL    HW114612   2.651   0.326  15.134  0.6001  0.2530  1.6377
 1051SOL    HW214613   2.519   0.266  15.167  1.9594 -1.5817  0.7748
 1052SOL     OW14614   0.398   2.920  17.236  0.1616  0.5476  0.1590
 1052SOL    HW114615   0.360   3.008  17.228 -0.4341  0.3879  1.2247
 1052SOL    HW214616   0.483   2.943  17.198  0.0968 -1.2683 -1.0655
 1053SOL     OW14617   1.319   3.441   1.356  0.2024  0.2098 -0.1440
 1053SOL    HW114618   1.383   3.389   1.404 -1.2692  0.9762  2.6819
 1053SOL    HW214619   1.274   3.373   1.306 -1.6389  0.7035  0.8240
 1054SOL     OW14620   1.844   0.820  15.079 -0.4316  0.2441  0.2226
 1054SOL    HW114621   1.877   0.855  14.996  0.8207 -0.1715  0.5326
 1054SOL    HW214622   1.856   0.726  15.065  0.3429  0.0441  2.1886
 1055SOL     OW14623   1.464   1.809  10.674  0.4288 -0.0844 -0.0041
 1055SOL    HW114624   1.369   1.816  10.667  0.1677 -1.8759  1.7329
 1055SOL    HW214625   1.488   1.861  10.751 -0.5887 -0.0511  0.2877
 1056SOL     OW14626   0.472   0.138  16.723  0.1501 -0.0193 -0.1877
 1056SOL    HW114627   0.526   0.145  16.645 -0.5625 -0.0205 -0.6771
 1056SOL    HW214628   0.389   0.181  16.706  0.2306  0.8775  1.6589
 1057SOL     OW14629   0.810   2.363   4.065 -1.0366  0.2684 -0.2286
 1057SOL    HW114630   0.901   2.337   4.057 -1.0217  0.8093 -1.7152
 1057SOL    HW214631   0.775   2.376   3.977 -2.3213 -0.4390  0.1735
 1058SOL     OW14632   4.155   0.516   6.068 -0.4604  0.0321 -0.1751
 1058SOL    HW114633   4.096   0.590   6.084  0.5724  0.7950  0.1060
 1058SOL    HW214634   4.171   0.498   6.161  0.9417 -0.4364 -0.5204
 1059SOL     OW14635   4.668   2.724   8.662 -0.4080 -0.1420 -0.5938
 1059SOL    HW114636   0.007   2.674   8.608  0.2730 -1.0296  0.9865
 1059SOL    HW214637   0.006   2.783   8.708  1.7398 -0.8458 -2.5063
 1060SOL     OW14638   1.581   3.660   7.692 -0.2974  0.2485  0.1290
 1060SOL    HW114639   1.616   3.709   7.766 -0.2916  0.6041 -0.1079
 1060SOL    HW214640   1.496   3.641   7.731 -0.9890  0.5328 -1.2294
 1061SOL     OW14641   4.346   3.997   5.309 -0.0106 -0.0187 -0.1882
 1061SOL    HW114642   4.299   4.031   5.232  0.0696 -0.0770 -0.2620
 1061SOL    HW214643   4.309   4.055   5.376  2.8280 -0.9656  2.2048
 1062SOL     OW14644   2.779   3.803   9.212  0.3923  0.0864 -0.2890
 1062SOL    HW114645   2.707   3.760   9.258  0.1695 -0.5382 -1.2327
 1062SOL    HW214646   2.739   3.866   9.152  2.4566  1.5987 -0.1084
 1063SOL     OW14647   3.179   3.811   3.275 -0.2620  0.6068  0.1521
 1063SOL    HW114648   3.219   3.881   3.326 -0.3671  1.3837 -0.8472
 1063SOL    HW214649   3.090   3.820   3.309 -0.5236 -0.6586 -0.1882
 1064SOL     OW14650   0.756   1.545   0.886  0.0046 -0.1594 -0.0302
 1064SOL    HW114651   0.698   1.609   0.846  0.6389  0.4926  0.1001
 1064SOL    HW214652   0.824   1.542   0.819  0.1778  1.5755  0.0761
 1065SOL     OW14653   0.517   2.427  11.233  0.1286  0.5863 -0.0321
 1065SOL    HW114654   0.520   2.504  11.177  1.1056  2.2469  2.2830
 1065SOL    HW214655   0.479   2.366  11.169  0.0130 -0.2785  0.8472
 1066SOL     OW14656   2.732   1.213   8.586 -0.0529  0.0821 -0.7351
 1066SOL    HW114657   2.727   1.302   8.553  1.6144  1.2372  2.1918
 1066SOL    HW214658   2.674   1.163   8.529 -0.7068 -0.5945  0.5294
 1067SOL     OW14659   0.306   1.040  13.004  0.4473  0.4669  0.4408
 1067SOL    HW114660   0.277   1.088  13.082  1.2331  0.2829  0.8543
 1067SOL    HW214661   0.305   0.953  13.043 -1.9050  0.1612 -0.3463
 1068SOL     OW14662   2.858   2.855   6.183 -0.6247  0.1479  0.2375
 1068SOL    HW114663   2.924   2.862   6.252 -0.4897 -3.4274  0.4826
 1068SOL    HW214664   2.779   2.864   6.237 -0.0332 -0.5136  1.2215
 1069SOL     OW14665   1.607   3.960   4.054  0.0045 -1.0103  0.5054
 1069SOL    HW114666   1.652   3.876   4.059 -0.0186 -1.1274 -1.6544
 1069SOL    HW214667   1.660   4.018   4.109  0.4372 -0.6781 -0.2708
 1070SOL     OW14668   0.475   3.747   8.635 -0.0298 -0.1016 -0.1710
 1070SOL    HW114669   0.417   3.816   8.603 -2.1085 -2.4458 -1.4470
 1070SOL    HW214670   0.504   3.777   8.721 -1.1733 -1.6377  0.7636
 1071SOL     OW14671   2.270   1.454   3.805 -0.1228  0.1207  0.6307
 1071SOL    HW114672   2.250   1.427   3.895  0.1912  0.1576  0.7121
 1071SOL    HW214673   2.360   1.487   3.800  0.8181 -2.6824 -0.2938
 1072SOL     OW14674   2.461   1.913   3.563 -0.2944 -0.1109  0.1426
 1072SOL    HW114675   2.544   1.942   3.524  1.1166 -0.3365  3.0030
 1072SOL    HW214676   2.461   1.819   3.546 -0.9113 -0.3002  1.2317
 1073SOL     OW14677   1.992   3.471   1.705 -0.1755 -0.3007  0.1986
 1073SOL    HW114678   2.055   3.468   1.776 -0.1216 -2.1525  0.0787
 1073SOL    HW214679   2.005   3.564   1.687 -0.2714 -0.6300 -1.5218
 1074SOL     OW14680   1.525   0.761   2.990 -0.4656 -0.3499 -0.7517
 1074SOL    HW114681   1.513   0.694   2.922  0.9190  0.1335 -1.4769
 1074SOL    HW214682   1.471   0.832   2.958  1.6091  2.1077  1.2285
 1075SOL     OW14683   3.082   2.275   9.824  0.3177 -0.2284 -0.2150
 1075SOL    HW114684   3.042   2.257   9.739 -1.6726 -1.2795  0.9485
 1075SOL    HW214685   3.140   2.349   9.810  0.7371 -0.4027  0.5944
 1076SOL     OW14686   4.335   2.255   9.988  0.3263  0.0225 -0.7033
 1076SOL    HW114687   4.256   2.281  10.036 -0.2380  1.3721 -2.3701
 1076SOL    HW214688   4.335   2.315   9.913 -2.4924  1.1732  0.2225
 1077SOL     OW14689   0.941   4.228   8.818  0.0952 -1.1195  0.3617
 1077SOL    HW114690   1.013   4.280   8.782 -0.6390 -0.1396  0.3330
 1077SOL    HW214691   0.981   4.141   8.810  2.0975 -0.1054 -0.6104
 1078SOL     OW14692   3.832   3.032   8.695  0.0073 -0.2253  0.1273
 1078SOL    HW114693   3.850   2.939   8.686 -0.0733 -0.1140 -1.3005
 1078SOL    HW214694   3.897   3.057   8.761 -0.1726  0.5641  0.0068
 1079SOL     OW14695   0.083   0.951   5.185  0.7168 -0.4971  0.1148
 1079SOL    HW114696   0.004   0.943   5.130  0.0788  1.6699  0.6822
 1079SOL    HW214697   0.104   0.861   5.206 -1.7572 -1.3970 -1.2205
 1080SOL     OW14698   1.959   0.280   9.826 -0.4513 -0.2408 -0.6884
 1080SOL    HW114699   1.952   0.367   9.865 -0.1810 -0.8270  0.6882
 1080SOL    HW214700   1.875   0.258   9.786 -1.5125 -1.2245  2.1000
 1081SOL     OW14701   2.487   0.783  14.349  0.0281 -0.3906 -0.0231
 1081SOL    HW114702   2.561   0.758  14.405 -1.2709 -2.4498  0.7632
 1081SOL    HW214703   2.488   0.715  14.281 -0.0386 -0.2675 -0.1473
 1082SOL     OW14704   2.377   0.804   3.248 -0.8015 -0.1153  0.0610
 1082SOL    HW114705   2.333   0.878   3.291 -1.2916  0.5470 -1.5853
 1082SOL    HW214706   2.468   0.811   3.277 -1.5429 -0.8807  2.5701
 1083SOL     OW14707   2.041   4.073   9.150 -0.1711 -0.0783 -0.4682
 1083SOL    HW114708   1.997   4.023   9.219 -3.2475  0.9449 -1.6952
 1083SOL    HW214709   2.131   4.041   9.151 -0.4345 -0.8315 -0.4207
 1084SOL     OW14710   2.003   2.393  10.948  0.0642 -0.3572 -0.2604
 1084SOL    HW114711   2.051   2.356  11.022  1.1265  1.3117 -0.1183
 1084SOL    HW214712   2.048   2.345  10.877  2.1100 -1.3336  1.7098
 1085SOL     OW14713   0.770   1.119   7.707  0.2247 -0.0851 -0.3352
 1085SOL    HW114714   0.730   1.032   7.698 -2.2423  1.1465 -1.0983
 1085SOL    HW214715   0.771   1.117   7.803  0.7869  0.3923 -0.3329
 1086SOL     OW14716   1.721   4.172   7.771  0.4181 -0.5904 -0.2571
 1086SOL    HW114717   1.658   4.102   7.753  0.5652 -0.4356 -1.3752
 1086SOL    HW214718   1.805   4.139   7.738  0.2533 -1.5030  0.2140
 1087SOL     OW14719   1.430   1.341   8.602 -0.5900 -0.1293 -0.8809
 1087SOL    HW114720   1.462   1.267   8.551 -0.3204 -1.8069  1.7085
 1087SOL    HW214721   1.396   1.292   8.677 -2.3133  0.6718 -1.1370
 1088SOL     OW14722   3.792   4.399   6.183 -0.7325 -0.0175  0.2640
 1088SOL    HW114723   3.700   4.423   6.175  0.2587  3.2061 -1.0749
 1088SOL    HW214724   3.809   4.406   6.277 -0.0391 -0.5805  0.1848
 1089SOL     OW14725   1.320   2.431  15.316 -0.0532 -0.5010  0.6402
 1089SOL    HW114726   1.232   2.450  15.348  0.5655  1.5807  1.1724
 1089SOL    HW214727   1.358   2.375  15.384 -0.9792 -2.2925 -0.3432
 1090SOL     OW14728   3.486   3.264   1.882  0.0888 -0.2336  0.1677
 1090SOL    HW114729   3.487   3.296   1.972  1.1831  0.7901 -0.2215
 1090SOL    HW214730   3.400   3.223   1.873 -0.0757  0.1188  0.1751
 1091SOL     OW14731   2.032   4.208   3.446  0.1736 -0.0410  0.2207
 1091SOL    HW114732   2.062   4.295   3.418 -1.1152  0.2796 -0.1707
 1091SOL    HW214733   2.068   4.151   3.378  0.6536  1.9268 -1.1795
 1092SOL     OW14734   2.051   0.401   0.091  0.2942 -0.3083  0.2317
 1092SOL    HW114735   2.094   0.332   0.141  2.7245  0.7554 -0.4295
 1092SOL    HW214736   2.103   0.480   0.102  1.0123 -0.7704  0.1034
 1093SOL     OW14737   1.673   3.402  15.240  0.3470 -0.3214 -0.0546
 1093SOL    HW114738   1.593   3.430  15.196  0.6585  0.0997 -0.3515
 1093SOL    HW214739   1.736   3.399  15.167  0.9596  0.9173  0.4305
 1094SOL     OW14740   4.277   2.915  14.881 -0.4143  0.3201  0.0837
 1094SOL    HW114741   4.363   2.943  14.914 -1.3310  2.0434  1.0253
 1094SOL    HW214742   4.297   2.821  14.879 -0.3924  0.3757 -1.7822
 1095SOL     OW14743   0.440   2.320   2.541  0.2658 -0.2140  0.3582
 1095SOL    HW114744   0.502   2.248   2.530  2.0187  1.1890  0.9669
 1095SOL    HW214745   0.495   2.392   2.511 -0.7379 -0.0695 -1.1292
 1096SOL     OW14746   1.851   3.702   5.872 -0.3279  0.8850  0.6458
 1096SOL    HW114747   1.883   3.696   5.782 -2.7685  1.5608 -0.2796
 1096SOL    HW214748   1.902   3.775   5.905  1.0246  0.4617 -0.5107
 1097SOL     OW14749   3.367   1.247   9.397 -0.5642  0.0271  0.0349
 1097SOL    HW114750   3.401   1.328   9.361  2.4565 -0.9740  0.6651
 1097SOL    HW214751   3.384   1.178   9.333  3.9589  0.8358  0.3792
 1098SOL     OW14752   0.011   2.574  15.139  0.2222 -0.3756  0.0901
 1098SOL    HW114753   0.100   2.580  15.173  0.7342  3.6728 -1.8802
 1098SOL    HW214754   0.018   2.576  15.043 -0.2502 -1.1474  0.0410
 1099SOL     OW14755   4.641   3.796   4.544  0.6109  0.7872  0.4995
 1099SOL    HW114756   0.008   3.817   4.517  0.3466  2.0412  0.6199
 1099SOL    HW214757   4.661   3.748   4.624 -0.5929 -1.1804 -0.3662
 1100SOL     OW14758   4.712   3.727   8.421  0.0623  0.3532  0.5070
 1100SOL    HW114759   0.069   3.697   8.376 -0.0199 -0.8460  1.1739
 1100SOL    HW214760   4.647   3.757   8.358 -0.9873 -0.8238  1.0467
 1101SOL     OW14761   3.744   2.829   6.917 -0.1115 -0.1755  0.3215
 1101SOL    HW114762   3.778   2.773   6.987  1.8344  1.7910  0.9850
 1101SOL    HW214763   3.659   2.860   6.948  1.3738  2.0545  2.1293
 1102SOL     OW14764   4.304   2.685   5.416  0.1967 -0.5099  0.3416
 1102SOL    HW114765   4.346   2.618   5.362  1.1289 -0.2384  0.7481
 1102SOL    HW214766   4.383   2.734   5.438  2.1413 -3.7740  0.5311
 1103SOL     OW14767   2.583   4.081   1.288  0.0480  0.4660 -0.4377
 1103SOL    HW114768   2.531   4.059   1.365  2.7571 -0.6675  1.0913
 1103SOL    HW214769   2.587   4.177   1.292 -0.5927  0.4807 -0.2474
 1104SOL     OW14770   2.706   2.248   7.529  0.0179 -0.8381  0.3479
 1104SOL    HW114771   2.678   2.339   7.528 -0.4732 -0.9963 -1.7371
 1104SOL    HW214772   2.622   2.206   7.549 -0.3235  0.3299  1.3344
 1105SOL     OW14773   4.293   0.517   7.767  0.0694 -0.4858 -0.5538
 1105SOL    HW114774   4.260   0.507   7.677 -3.5487 -1.2656  0.8346
 1105SOL    HW214775   4.230   0.571   7.815  1.1338  1.0374 -0.8681
 1106SOL     OW14776   1.717   0.199   8.089  0.5069  0.2077  0.4091
 1106SOL    HW114777   1.653   0.127   8.086  1.4460 -0.6320  0.5469
 1106SOL    HW214778   1.800   0.152   8.084  0.5041  0.3296 -0.8135
 1107SOL     OW14779   4.530   2.274   7.652  0.4263  0.2052  0.2910
 1107SOL    HW114780   4.476   2.303   7.725 -0.2153 -2.6532  0.9431
 1107SOL    HW214781   4.540   2.361   7.613  2.6110 -1.1299 -2.1273
 1108SOL     OW14782   1.251   3.541  15.037  0.1577  0.5787 -0.0354
 1108SOL    HW114783   1.332   3.521  14.989  0.8987  0.7138  1.1547
 1108SOL    HW214784   1.293   3.552  15.123 -2.7663  0.8637  1.3635
 1109SOL     OW14785   1.724   4.611   8.204 -0.1634  0.0468 -0.6043
 1109SOL    HW114786   1.645   4.627   8.256  0.4419  0.6112  0.1260
 1109SOL    HW214787   1.786   4.639   8.271  1.1979 -1.6044 -1.1792
 1110SOL     OW14788   3.550   0.613   5.388  0.2893  0.0935 -0.0190
 1110SOL    HW114789   3.456   0.618   5.406  0.5705  0.3102  1.3523
 1110SOL    HW214790   3.577   0.602   5.479 -0.6512 -0.3323  0.2063
 1111SOL     OW14791   3.545   0.460   9.014  0.1450  0.5712 -0.6547
 1111SOL    HW114792   3.515   0.550   9.014 -2.4890 -0.3027 -0.0219
 1111SOL    HW214793   3.606   0.466   8.940  1.7147  1.1353  0.6853
 1112SOL     OW14794   2.349   0.626  10.627  0.6817 -0.3785 -0.1254
 1112SOL    HW114795   2.356   0.633  10.532 -1.5316  1.0760 -0.1776
 1112SOL    HW214796   2.335   0.717  10.652 -1.6872 -0.1403 -2.3360
 1113SOL     OW14797   3.628   3.722  13.207  0.6022 -0.0508 -0.0355
 1113SOL    HW114798   3.686   3.756  13.276  1.7241  0.6572 -1.3440
 1113SOL    HW214799   3.549   3.775  13.219  0.3648 -0.8919  2.1218
 1114SOL     OW14800   3.590   4.335   7.784 -0.0639  0.4403 -0.3163
 1114SOL    HW114801   3.546   4.252   7.769  0.6393 -0.0700  0.4348
 1114SOL    HW214802   3.550   4.367   7.865 -1.3736 -3.1685  0.4801
 1115SOL     OW14803   0.616   4.635   8.676 -0.5891  0.9552 -0.5151
 1115SOL    HW114804   0.701   4.646   8.633  0.8099 -2.3361  1.3865
 1115SOL    HW214805   0.610   4.544   8.704  1.0402  0.4586 -1.7750
 1116SOL     OW14806   4.187   1.761  10.557  0.1398  0.7331  0.2190
 1116SOL    HW114807   4.186   1.665  10.552  1.7944  0.8448 -2.2775
 1116SOL    HW214808   4.183   1.775  10.652 -3.1836 -0.3420  0.2319
 1117SOL     OW14809   2.584   2.139   3.026  0.1822  0.0173 -0.4744
 1117SOL    HW114810   2.493   2.138   2.999  0.4188 -2.9367 -1.2052
 1117SOL    HW214811   2.627   2.097   2.951  2.1313 -1.5420  1.4728
 1118SOL     OW14812   1.327   0.333   6.268  0.2487 -0.2952 -0.1770
 1118SOL    HW114813   1.254   0.378   6.311 -0.2245  0.3607 -1.6639
 1118SOL    HW214814   1.397   0.344   6.332  0.0011 -0.2942  0.0952
 1119SOL     OW14815   3.777   4.329   3.989 -0.0609 -0.7949  0.5744
 1119SOL    HW114816   3.758   4.370   4.072  1.3728  1.1460 -0.0580
 1119SOL    HW214817   3.846   4.267   4.013  0.0171 -0.2492  1.7560
 1120SOL     OW14818   0.485   2.933  10.541 -0.1965 -0.1881  0.8006
 1120SOL    HW114819   0.441   2.914  10.624 -1.2471  1.1531  0.5557
 1120SOL    HW214820   0.561   2.875  10.538 -0.2020 -0.0978 -0.9209
 1121SOL     OW14821   1.105   2.468   2.764  0.1797  0.9884 -0.3925
 1121SOL    HW114822   1.129   2.528   2.693 -0.9668  0.3201 -1.3518
 1121SOL    HW214823   1.057   2.527   2.822  0.3960  1.2714 -0.5012
 1122SOL     OW14824   0.272   0.857   2.146  0.1125  0.1131  0.0333
 1122SOL    HW114825   0.297   0.778   2.194 -2.4144 -1.4481 -1.1501
 1122SOL    HW214826   0.208   0.821   2.084  0.0134  0.3917 -0.0274
 1123SOL     OW14827   0.151   2.806  14.382  0.1179  0.6515 -1.2567
 1123SOL    HW114828   0.218   2.746  14.414 -0.7198  0.5375  0.2664
 1123SOL    HW214829   0.190   2.893  14.376 -1.2802  1.2304 -2.1979
 1124SOL     OW14830   0.661   0.219   3.533  0.4314 -0.2916  0.2772
 1124SOL    HW114831   0.750   0.198   3.506  1.4884  1.9701  2.0771
 1124SOL    HW214832   0.676   0.248   3.622  0.8847 -0.3303  0.2103
 1125SOL     OW14833   0.850   1.233  17.475 -0.0110 -0.6833 -0.5152
 1125SOL    HW114834   0.825   1.289  17.549 -2.6414 -0.9342 -1.1984
 1125SOL    HW214835   0.901   1.292  17.420 -1.8934  1.2374 -0.2295
 1126SOL     OW14836   1.439   3.767   4.932  0.3775  0.0341 -0.1400
 1126SOL    HW114837   1.400   3.685   4.902  0.3643 -0.0531  0.1153
 1126SOL    HW214838   1.404   3.834   4.873 -1.9130 -1.4090 -0.4075
 1127SOL     OW14839   2.840   0.778   5.659  0.6710  0.6230 -0.1935
 1127SOL    HW114840   2.763   0.825   5.625  1.1620  2.1523  0.7816
 1127SOL    HW214841   2.827   0.806   5.750  1.0261  0.1021  0.0162
 1128SOL     OW14842   4.414   2.788   8.835  0.2897 -0.1103  0.2496
 1128SOL    HW114843   4.349   2.841   8.790  1.0010  1.2433  0.7982
 1128SOL    HW214844   4.494   2.840   8.822  0.1837  0.1370  0.5552
 1129SOL     OW14845   2.125   3.968   8.078  0.6046  0.4776  0.1018
 1129SOL    HW114846   2.092   4.006   8.159  4.2689  2.9777  0.4213
 1129SOL    HW214847   2.176   3.902   8.126  0.6979  0.1958 -0.3861
 1130SOL     OW14848   2.140   1.248   8.244  0.4090  0.2023  0.3208
 1130SOL    HW114849   2.048   1.259   8.219 -0.0807 -2.0118  1.1090
 1130SOL    HW214850   2.120   1.180   8.309  0.5230  0.0554  0.2024
 1131SOL     OW14851   3.928   0.780   2.083  0.1296  0.5538  0.5394
 1131SOL    HW114852   3.882   0.755   2.163 -0.4546  1.0176  0.3534
 1131SOL    HW214853   3.934   0.875   2.092 -0.1733  0.2784  3.4697
 1132SOL     OW14854   3.100   0.934   2.939  0.2091 -0.3002  0.4154
 1132SOL    HW114855   3.082   0.999   3.008 -0.7183  0.4514 -0.5389
 1132SOL    HW214856   3.126   0.991   2.867  0.0840  0.4395  0.9542
 1133SOL     OW14857   0.351   4.715   8.558 -0.2817  0.4716 -0.0754
 1133SOL    HW114858   0.351   0.011   8.652 -3.5495 -0.2635  0.0545
 1133SOL    HW214859   0.443   4.693   8.544 -1.1310 -2.2343 -1.2515
 1134SOL     OW14860   4.135   2.831   4.504 -0.5747 -0.1868  0.3477
 1134SOL    HW114861   4.040   2.830   4.495 -0.7837 -1.9715  2.8394
 1134SOL    HW214862   4.151   2.737   4.500 -1.0353 -0.2259 -0.5895
 1135SOL     OW14863   1.014   2.444   7.616  0.0963  0.9178  0.5972
 1135SOL    HW114864   1.059   2.370   7.656  3.3913  1.7024 -1.6487
 1135SOL    HW214865   0.974   2.416   7.533  0.0093 -1.1492  1.3527
 1136SOL     OW14866   2.458   3.170  16.925 -0.1269  0.2664 -0.3875
 1136SOL    HW114867   2.488   3.190  17.013 -0.5801  2.2594 -0.6836
 1136SOL    HW214868   2.512   3.230  16.874  0.4584  0.5571  0.5795
 1137SOL     OW14869   3.309   0.329   8.961 -0.1747  0.0412  0.5528
 1137SOL    HW114870   3.396   0.369   8.956  1.8946 -4.0865  3.8891
 1137SOL    HW214871   3.332   0.240   8.986 -1.9783 -0.7578 -0.6901
 1138SOL     OW14872   0.987   0.193  10.196 -0.3659 -0.6322  0.0099
 1138SOL    HW114873   0.980   0.146  10.113 -0.3394  0.1365 -0.4174
 1138SOL    HW214874   0.941   0.138  10.260 -0.5594 -0.5702 -0.0778
 1139SOL     OW14875   2.688   3.639   0.722  0.0383  0.2644 -0.6214
 1139SOL    HW114876   2.706   3.732   0.738 -3.1639  1.2386 -2.6907
 1139SOL    HW214877   2.607   3.621   0.768  0.8354  1.8487  1.4229
 1140SOL     OW14878   4.519   3.251   5.607  0.5105 -0.3105 -0.2923
 1140SOL    HW114879   4.594   3.305   5.581 -0.3784  1.3236  0.5308
 1140SOL    HW214880   4.548   3.167   5.570 -0.5360  0.1919 -2.2684
 1141SOL     OW14881   4.285   0.409  17.300 -0.3653 -0.2279 -0.6189
 1141SOL    HW114882   4.259   0.403  17.208  0.0304  1.4146 -0.8358
 1141SOL    HW214883   4.353   0.342  17.297  0.1233  0.2654 -0.6523
 1142SOL     OW14884   2.316   2.941   5.668 -0.0910  0.5870 -0.1610
 1142SOL    HW114885   2.364   2.860   5.652 -2.5705 -0.9890  0.5164
 1142SOL    HW214886   2.337   2.948   5.761 -0.9105  1.0040 -0.0029
 1143SOL     OW14887   1.128   0.729   4.449  0.0185  0.4757  0.1093
 1143SOL    HW114888   1.104   0.663   4.384  0.1539  0.0139  0.5288
 1143SOL    HW214889   1.177   0.785   4.389  1.6819 -0.3154  0.7277
 1144SOL     OW14890   2.695   0.956  15.154 -0.1352  0.0183 -0.7706
 1144SOL    HW114891   2.614   0.956  15.103  0.0655  1.7532 -1.0728
 1144SOL    HW214892   2.755   0.916  15.091 -0.2291 -2.2159  0.5344
 1145SOL     OW14893   3.041   2.542  14.832 -0.7199 -0.0108 -0.7933
 1145SOL    HW114894   2.998   2.486  14.768 -0.5167  1.0041 -1.8215
 1145SOL    HW214895   3.078   2.486  14.900  1.0854  0.6250 -1.2495
 1146SOL     OW14896   4.429   1.546   4.450 -0.7408  0.7567  0.8250
 1146SOL    HW114897   4.359   1.539   4.515 -0.6763 -0.0453  0.8152
 1146SOL    HW214898   4.387   1.566   4.366 -0.5914  1.2789  0.8787
 1147SOL     OW14899   0.152   2.907  13.348  0.1374 -0.5141  0.2202
 1147SOL    HW114900   0.222   2.886  13.411  1.4869  0.9813 -0.7806
 1147SOL    HW214901   0.126   2.821  13.314 -0.2066 -0.7531  1.0951
 1148SOL     OW14902   3.113   4.013  13.526  0.0047  0.0427  0.3640
 1148SOL    HW114903   3.128   4.039  13.435 -0.8399 -1.9286 -0.3526
 1148SOL    HW214904   3.019   4.030  13.534 -0.2554 -1.4146  0.4544
 1149SOL     OW14905   0.408   0.376   9.486  0.0522 -0.3867  0.4736
 1149SOL    HW114906   0.365   0.368   9.571 -1.1579 -0.2504 -0.1254
 1149SOL    HW214907   0.456   0.295   9.471 -0.5907 -0.6550 -0.1556
 1150SOL     OW14908   0.943   2.474   1.621 -0.1986  0.3124  0.0180
 1150SOL    HW114909   0.861   2.509   1.587 -0.5612 -0.8568 -0.3051
 1150SOL    HW214910   0.980   2.446   1.537 -0.4363 -0.8572  0.3055
 1151SOL     OW14911   1.086   2.194  10.603 -0.0213 -0.4140  0.4240
 1151SOL    HW114912   1.162   2.177  10.548  0.1178  0.2909  0.3964
 1151SOL    HW214913   1.125   2.229  10.683 -0.5345 -1.8778  1.3131
 1152SOL     OW14914   3.139   3.060   2.679  0.6366  0.5261 -0.1792
 1152SOL    HW114915   3.116   3.122   2.749  0.2307 -0.3198  0.4311
 1152SOL    HW214916   3.200   3.003   2.726 -0.0776  0.0542  0.1652
 1153SOL     OW14917   0.703   4.064   2.547  0.3509 -0.2964  0.6258
 1153SOL    HW114918   0.669   4.041   2.461 -0.6314  3.1193  0.1188
 1153SOL    HW214919   0.619   4.072   2.593 -0.7434 -0.6849 -1.3174
 1154SOL     OW14920   3.558   0.243   1.836 -0.4656 -0.3514  0.3753
 1154SOL    HW114921   3.545   0.283   1.922  1.1070 -1.5082  1.1557
 1154SOL    HW214922   3.502   0.166   1.837 -1.1792  0.1408 -1.6390
 1155SOL     OW14923   3.605   4.203   8.039 -0.3113  0.0658  0.2943
 1155SOL    HW114924   3.657   4.143   7.985 -1.5509  0.8079 -1.7078
 1155SOL    HW214925   3.549   4.142   8.087 -3.1801  1.5337 -1.2146
 1156SOL     OW14926   0.288   3.319   5.185  0.4328 -0.4328 -0.1037
 1156SOL    HW114927   0.267   3.289   5.273 -0.5123 -0.1348 -0.2255
 1156SOL    HW214928   0.209   3.369   5.165  1.5430  0.7917 -1.5366
 1157SOL     OW14929   2.478   2.425   2.422 -0.2542 -0.0196 -0.1091
 1157SOL    HW114930   2.402   2.483   2.430  0.0675  0.5128 -0.9445
 1157SOL    HW214931   2.517   2.447   2.337 -0.2005  0.4526  0.0393
 1158SOL     OW14932   3.010   1.078   3.353  0.1560 -0.2608  0.0350
 1158SOL    HW114933   3.087   1.135   3.347  0.3458 -0.1598  4.0089
 1158SOL    HW214934   2.969   1.109   3.433  2.2371 -0.0997  1.0485
 1159SOL     OW14935   4.207   3.534  12.054 -0.0849 -0.4642  0.0802
 1159SOL    HW114936   4.268   3.509  12.124  0.9724  1.0559 -0.3045
 1159SOL    HW214937   4.231   3.466  11.991 -2.8393 -1.1430 -0.2621
 1160SOL     OW14938   3.716   3.371   4.463  0.3296  0.3600 -0.2321
 1160SOL    HW114939   3.636   3.423   4.471 -0.7337 -1.5341  1.6769
 1160SOL    HW214940   3.767   3.426   4.403  0.2230  2.2421  1.4098
 1161SOL     OW14941   1.538   2.261   1.608 -0.1985 -0.2284  0.4344
 1161SOL    HW114942   1.541   2.167   1.620 -0.9395 -0.5451 -1.9354
 1161SOL    HW214943   1.447   2.290   1.618  0.1507  1.0652 -0.0607
 1162SOL     OW14944   3.866   1.946   8.338 -0.9439 -0.5268  0.3225
 1162SOL    HW114945   3.823   1.889   8.274  0.2097 -1.8374  0.7170
 1162SOL    HW214946   3.873   2.029   8.292 -2.1535 -0.6980 -0.1636
 1163SOL     OW14947   2.636   1.240  15.038 -0.0790  0.1618 -0.3624
 1163SOL    HW114948   2.570   1.173  15.057 -0.1114 -0.8199 -3.8484
 1163SOL    HW214949   2.634   1.227  14.943  1.0583 -2.5163 -0.0052
 1164SOL     OW14950   3.857   2.947   5.905  0.2393  0.2186 -0.2933
 1164SOL    HW114951   3.764   2.937   5.885  0.1901 -0.2343  0.1693
 1164SOL    HW214952   3.884   2.884   5.838  0.7309 -0.9101  0.9502
 1165SOL     OW14953   4.209   3.109  17.578  0.4155 -0.0372 -0.0464
 1165SOL    HW114954   4.199   3.188  17.629 -0.2973 -0.1374 -0.0293
 1165SOL    HW214955   4.298   3.118  17.544 -0.2793 -0.5515 -2.0619
 1166SOL     OW14956   2.560   4.409   6.182  0.1317  0.2212  0.0278
 1166SOL    HW114957   2.601   4.323   6.186 -1.2318 -0.3948  0.7474
 1166SOL    HW214958   2.507   4.402   6.261  0.4382 -0.4841  0.1724
 1167SOL     OW14959   2.868   2.036   3.810  0.1997 -0.2831  0.2819
 1167SOL    HW114960   2.876   1.942   3.824  3.1447 -0.1964 -0.8222
 1167SOL    HW214961   2.788   2.049   3.760  1.3506  0.3247 -1.4029
 1168SOL     OW14962   4.610   1.216  12.446 -0.1628 -0.0146 -0.2815
 1168SOL    HW114963   4.546   1.147  12.462  0.2933 -0.3286  0.1941
 1168SOL    HW214964   4.664   1.200  12.523 -1.6306 -0.7526  0.6039
 1169SOL     OW14965   4.647   4.596  11.193  0.3722 -0.0348  0.3550
 1169SOL    HW114966   4.618   4.595  11.102 -0.8568 -0.4022  0.7372
 1169SOL    HW214967   4.581   4.529  11.214  0.8808 -1.0909 -1.4477
 1170SOL     OW14968   2.058   1.852   7.916 -0.2156  0.0144 -0.1021
 1170SOL    HW114969   2.049   1.840   7.822 -1.8800 -0.8419  0.1548
 1170SOL    HW214970   1.968   1.846   7.949  0.5855  0.4196  2.1770
 1171SOL     OW14971   3.832   1.928  14.251  0.1809  0.6822  0.1475
 1171SOL    HW114972   3.841   2.017  14.284  1.4030  0.4286  0.4907
 1171SOL    HW214973   3.886   1.924  14.173 -0.5809  0.1739 -0.3539
 1172SOL     OW14974   0.601   0.643   3.343  0.5706  0.6559 -0.3547
 1172SOL    HW114975   0.633   0.707   3.279 -0.5917  2.5357  0.9492
 1172SOL    HW214976   0.546   0.592   3.284 -0.4932 -0.2178  1.3887
 1173SOL     OW14977   3.603   3.778   2.074 -0.0453 -0.2785 -0.2974
 1173SOL    HW114978   3.666   3.784   2.002  1.2594  2.4805  1.0863
 1173SOL    HW214979   3.654   3.800   2.152  0.9591  2.8927 -1.8295
 1174SOL     OW14980   0.370   3.815   2.496  0.2189  0.2386 -0.1801
 1174SOL    HW114981   0.384   3.896   2.545  0.1762  0.7197 -0.9538
 1174SOL    HW214982   0.441   3.829   2.434  2.8308 -1.4615  2.4131
 1175SOL     OW14983   3.319   1.290  11.164 -0.1744 -1.1482  0.7654
 1175SOL    HW114984   3.269   1.369  11.188 -1.2129 -0.6983 -2.9054
 1175SOL    HW214985   3.252   1.264  11.101  0.0898 -1.3308  0.5605
 1176SOL     OW14986   3.612   0.298   4.039 -0.2198  0.2874  0.0693
 1176SOL    HW114987   3.688   0.290   3.981 -1.1524 -1.0423 -0.9621
 1176SOL    HW214988   3.590   0.205   4.040 -1.0644  0.4618 -2.2906
 1177SOL     OW14989   0.716   2.292  14.943 -0.2285 -0.0100  0.1371
 1177SOL    HW114990   0.721   2.229  14.870 -0.9225 -0.1245  0.1872
 1177SOL    HW214991   0.622   2.278  14.956  0.1059 -0.7834  1.6552
 1178SOL     OW14992   1.987   1.804   5.126 -0.5550  0.1368 -0.2127
 1178SOL    HW114993   2.081   1.820   5.137 -0.5633 -0.4483  0.6605
 1178SOL    HW214994   1.987   1.709   5.123 -2.5476  0.1267  0.3322
 1179SOL     OW14995   4.533   0.799   5.646 -0.5694  0.7634 -0.5838
 1179SOL    HW114996   4.508   0.867   5.583 -0.6084 -1.0884 -2.5681
 1179SOL    HW214997   4.448   0.768   5.677 -0.3678  1.0454  0.2484
 1180SOL     OW14998   4.676   2.759   7.411  1.0600 -0.4358 -0.1485
 1180SOL    HW114999   4.658   2.841   7.365 -2.0464  0.6710  2.9928
 1180SOL    HW215000   0.038   2.777   7.453  0.6841  1.4098 -0.1931
 1181SOL     OW15001   3.730   1.340   4.676  0.0153 -0.6459  0.1841
 1181SOL    HW115002   3.708   1.298   4.593  0.4778  1.7593 -1.1241
 1181SOL    HW215003   3.667   1.294   4.732 -1.6560 -2.0578 -2.8592
 1182SOL     OW15004   0.312   1.573   6.326  1.2592 -0.1141  0.3472
 1182SOL    HW115005   0.321   1.634   6.398 -1.9364 -0.2645  0.8799
 1182SOL    HW215006   0.292   1.492   6.374 -1.2793 -0.8152 -1.8261
 1183SOL     OW15007   2.294   0.296  16.953 -0.4714 -0.2567 -0.2063
 1183SOL    HW115008   2.300   0.391  16.947 -0.1521 -0.2659 -0.0517
 1183SOL    HW215009   2.371   0.292  17.010 -0.5851  1.2098  0.0460
 1184SOL     OW15010   0.820   2.314   6.220 -0.3962  0.1289  0.7964
 1184SOL    HW115011   0.776   2.234   6.249 -2.7295  0.8858 -0.6709
 1184SOL    HW215012   0.880   2.326   6.294  1.9115 -2.3771 -0.6719
 1185SOL     OW15013   0.043   2.925   0.837 -0.2116  0.2641  0.5540
 1185SOL    HW115014   0.041   3.013   0.799  1.4958  0.0927  0.0622
 1185SOL    HW215015   4.676   2.891   0.842  0.0006 -0.3635  0.1513
 1186SOL     OW15016   1.003   1.184   3.607  0.2383 -0.0022 -0.9652
 1186SOL    HW115017   0.974   1.095   3.586 -0.6702  0.1473 -0.3695
 1186SOL    HW215018   1.068   1.162   3.674  0.8705  1.1277 -1.2043
 1187SOL     OW15019   2.970   1.469   8.108  0.0344 -0.2468 -0.1322
 1187SOL    HW115020   2.883   1.437   8.133 -0.2641 -0.7050 -1.7776
 1187SOL    HW215021   3.028   1.438   8.178  0.9165  0.6473 -0.4699
 1188SOL     OW15022   3.825   2.638   0.683  0.0424  0.0645 -0.3284
 1188SOL    HW115023   3.913   2.674   0.670  0.0989 -0.6089 -1.7955
 1188SOL    HW215024   3.773   2.713   0.654 -1.0489 -1.0863 -1.3736
 1189SOL     OW15025   0.234   4.530   3.603 -0.2303  0.3855 -1.0745
 1189SOL    HW115026   0.240   4.458   3.541  1.8103  1.1106 -1.7363
 1189SOL    HW215027   0.239   4.606   3.545 -0.5518  3.3437  2.7556
 1190SOL     OW15028   1.379   0.083  13.317 -0.3505  0.5592 -0.4009
 1190SOL    HW115029   1.340   0.166  13.290  2.7318  2.2797  0.4569
 1190SOL    HW215030   1.440   0.072  13.244 -0.5981  0.4020 -0.5815
 1191SOL     OW15031   2.201   0.357  13.682  0.1548 -0.2469 -0.3524
 1191SOL    HW115032   2.157   0.344  13.766  0.6758  1.4794  0.1705
 1191SOL    HW215033   2.290   0.326  13.701  0.3176  0.7298  0.4504
 1192SOL     OW15034   0.749   3.479   9.669  0.0396 -0.0133  0.1280
 1192SOL    HW115035   0.824   3.531   9.698 -0.2100  0.1333  0.5199
 1192SOL    HW215036   0.791   3.392   9.671 -1.0751 -0.5140  2.3050
 1193SOL     OW15037   3.753   0.773   4.287  0.2539 -0.0491  0.0893
 1193SOL    HW115038   3.759   0.689   4.242 -0.0986  2.5332 -4.6918
 1193SOL    HW215039   3.766   0.839   4.218 -0.0284 -1.2358 -1.0856
 1194SOL     OW15040   0.290   2.828   5.070 -0.5750 -0.1127 -0.6129
 1194SOL    HW115041   0.358   2.778   5.116 -1.0298  0.8760  1.1233
 1194SOL    HW215042   0.298   2.781   4.987  2.4388 -0.2921 -0.2322
 1195SOL     OW15043   0.110   2.826   6.063  0.1498  0.3460 -0.2450
 1195SOL    HW115044   0.199   2.801   6.037  0.7783  2.1589  0.1947
 1195SOL    HW215045   0.120   2.921   6.064 -1.4794  0.5317 -0.6089
 1196SOL     OW15046   2.589   0.617  13.560 -0.8628 -0.1080 -0.2678
 1196SOL    HW115047   2.562   0.602  13.651  1.9382 -0.6935  0.4714
 1196SOL    HW215048   2.673   0.657  13.579 -1.8270  0.6137  2.4657
 1197SOL     OW15049   2.378   1.824   7.300 -0.0820 -0.0784  0.6883
 1197SOL    HW115050   2.304   1.859   7.349  0.0639  0.5935  0.4280
 1197SOL    HW215051   2.337   1.788   7.222  1.8698 -1.6260  0.3882
 1198SOL     OW15052   2.948   1.600  17.518 -0.7348  0.3003  0.4010
 1198SOL    HW115053   2.999   1.663  17.467  0.7493  0.2452  1.7971
 1198SOL    HW215054   2.929   1.530  17.455 -1.0523 -1.1213  2.0759
 1199SOL     OW15055   1.960   1.099   3.297  0.0542 -0.4682  0.2521
 1199SOL    HW115056   1.940   1.190   3.321 -1.8727 -1.1253  1.1327
 1199SOL    HW215057   1.947   1.063   3.385 -1.2174 -2.9472 -0.9597
 1200SOL     OW15058   0.628   1.304   0.709 -0.5929  0.0209 -0.4385
 1200SOL    HW115059   0.550   1.261   0.746 -1.3020  1.6715 -0.0375
 1200SOL    HW215060   0.628   1.391   0.748 -2.8804  0.7482 -2.1012
 1201SOL     OW15061   3.468   4.460   3.593 -0.2077 -0.4673  0.9079
 1201SOL    HW115062   3.549   4.501   3.562  0.0348 -0.6949  1.2444
 1201SOL    HW215063   3.505   4.389   3.646  0.8503 -0.8671 -0.3505
 1202SOL     OW15064   1.187   1.705  12.010 -0.5859 -0.1471 -0.3710
 1202SOL    HW115065   1.187   1.794  12.043 -0.9619 -1.0451  2.0196
 1202SOL    HW215066   1.240   1.666  12.080  0.4509  0.8905 -0.5843
 1203SOL     OW15067   0.424   1.303  15.801  0.0985  0.0687  0.0871
 1203SOL    HW115068   0.343   1.335  15.842 -0.4238  0.2643 -1.1073
 1203SOL    HW215069   0.472   1.384  15.785 -3.0506  1.9479  0.1659
 1204SOL     OW15070   1.342   3.122  13.285 -0.4916  0.2671 -0.5311
 1204SOL    HW115071   1.286   3.070  13.228 -3.1637 -1.6768  3.9001
 1204SOL    HW215072   1.389   3.053  13.332  0.1570  1.1202  0.0796
 1205SOL     OW15073   2.383   3.407   3.666 -0.5298  0.1835  0.1736
 1205SOL    HW115074   2.414   3.401   3.575 -1.0523 -0.1057  0.0116
 1205SOL    HW215075   2.358   3.316   3.683 -2.5109  1.3572  3.4743
 1206SOL     OW15076   1.002   1.397  17.329 -0.4419 -0.9160  0.5628
 1206SOL    HW115077   1.087   1.437  17.311 -0.1951 -1.0506  1.4216
 1206SOL    HW215078   0.963   1.402  17.242  0.8346  0.1810  0.0647
 1207SOL     OW15079   3.657   2.989   6.150  0.1288 -0.3384  0.3352
 1207SOL    HW115080   3.617   3.001   6.064 -1.2967  0.3187  1.0850
 1207SOL    HW215081   3.620   2.905   6.177  2.4688 -1.2325  0.7208
 1208SOL     OW15082   0.971   2.099   9.733  0.3406  0.1025  0.1974
 1208SOL    HW115083   0.959   2.173   9.792  1.8831  0.1586  0.4217
 1208SOL    HW215084   1.022   2.145   9.667  0.4847  0.9301  0.8877
 1209SOL     OW15085   0.012   3.281   3.716 -0.3000 -0.0959  0.7854
 1209SOL    HW115086   4.716   3.282   3.622  3.6185  0.3945 -0.0055
 1209SOL    HW215087   0.071   3.354   3.735  0.7910 -0.6256 -0.5601
 1210SOL     OW15088   4.572   0.930   3.823 -0.5752 -0.1758 -0.0011
 1210SOL    HW115089   4.629   0.994   3.782  0.0563 -1.5398 -1.2613
 1210SOL    HW215090   4.602   0.842   3.798  1.7142  0.3860  0.7680
 1211SOL     OW15091   3.079   0.224  16.596 -0.0368  0.6865 -0.8738
 1211SOL    HW115092   3.002   0.280  16.590 -0.1857  0.3765 -1.9036
 1211SOL    HW215093   3.036   0.141  16.573  1.4252  0.2611 -2.0357
 1212SOL     OW15094   0.265   2.554  14.960 -0.6916  0.8210  0.5231
 1212SOL    HW115095   0.279   2.461  14.943 -1.5991  0.6524  0.7043
 1212SOL    HW215096   0.203   2.577  14.891  2.0158  1.3952 -1.7366
 1213SOL     OW15097   2.103   4.184   5.093  0.2229 -0.0087 -0.2880
 1213SOL    HW115098   2.129   4.218   5.007  0.0329 -0.7607 -0.6472
 1213SOL    HW215099   2.182   4.197   5.146  0.0991 -1.2549  0.2030
 1214SOL     OW15100   1.228   1.864   1.202  0.6013 -0.7027  0.1353
 1214SOL    HW115101   1.169   1.909   1.261  0.7053 -2.1675  1.3622
 1214SOL    HW215102   1.303   1.855   1.261  0.9882 -0.9403 -0.3878
 1215SOL     OW15103   3.990   1.070   3.689 -0.5352 -0.3464  0.1657
 1215SOL    HW115104   3.976   1.033   3.777 -1.0919 -2.4612 -0.8128
 1215SOL    HW215105   3.957   1.160   3.689  3.0731  0.9813  0.9130
 1216SOL     OW15106   1.559   1.670   7.671 -0.3645 -0.2406  0.3339
 1216SOL    HW115107   1.476   1.716   7.657  0.0183  0.4970  0.5410
 1216SOL    HW215108   1.567   1.628   7.585  0.1976 -0.8966  0.7055
 1217SOL     OW15109   0.947   2.543   2.512  0.1665 -0.4269  0.0321
 1217SOL    HW115110   0.878   2.565   2.449 -0.6368 -2.7934  0.0774
 1217SOL    HW215111   0.969   2.453   2.490 -0.8095 -1.3423  2.7000
 1218SOL     OW15112   0.739   3.404  15.513  0.0675  0.2482  0.0122
 1218SOL    HW115113   0.818   3.392  15.566 -0.1503  0.3267  0.3555
 1218SOL    HW215114   0.675   3.354  15.563 -0.3543  1.2270  0.4578
 1219SOL     OW15115   4.694   1.066   1.894 -0.2131  0.0611  0.0433
 1219SOL    HW115116   0.016   1.131   1.839  1.0781 -0.0740  0.9474
 1219SOL    HW215117   0.009   1.081   1.980  0.3776  1.3823 -0.4459
 1220SOL     OW15118   1.961   1.153  11.395  0.4090 -0.4710  0.0094
 1220SOL    HW115119   2.025   1.128  11.461 -1.1553  0.4641  1.8625
 1220SOL    HW215120   1.969   1.249  11.393  2.8756 -0.6807  0.6758
 1221SOL     OW15121   2.596   1.267   5.159 -0.2226 -0.2414 -0.7451
 1221SOL    HW115122   2.544   1.338   5.121 -0.2986  0.3703  0.5123
 1221SOL    HW215123   2.550   1.192   5.121  0.0363 -1.4508  1.3193
 1222SOL     OW15124   2.067   0.206   3.382 -0.5756  0.5433  0.0761
 1222SOL    HW115125   2.153   0.192   3.420  0.3224  0.0118 -2.1471
 1222SOL    HW215126   2.089   0.204   3.289  3.1253  0.9606  0.9583
 1223SOL     OW15127   3.077   0.633   7.869  0.0576 -0.6372 -0.8665
 1223SOL    HW115128   3.091   0.558   7.927  0.9954 -1.2753 -1.9239
 1223SOL    HW215129   3.087   0.699   7.937 -1.3134 -0.0342 -1.2583
 1224SOL     OW15130   3.330   1.239   4.366 -0.3725  0.5207  0.2215
 1224SOL    HW115131   3.277   1.209   4.293 -1.3763 -0.0151  1.1735
 1224SOL    HW215132   3.413   1.200   4.340 -1.2333 -0.1047 -1.5558
 1225SOL     OW15133   3.373   3.318  12.718 -0.2735  0.1705 -0.5182
 1225SOL    HW115134   3.429   3.246  12.745 -2.9073 -1.7203 -0.0824
 1225SOL    HW215135   3.401   3.331  12.627  1.3953  0.0484 -0.0180
 1226SOL     OW15136   0.086   4.681   2.596 -0.0950 -0.0446  0.1865
 1226SOL    HW115137   0.091   0.054   2.594 -0.2592  0.0076  2.1318
 1226SOL    HW215138   4.718   4.658   2.575  0.5074  1.0979 -3.5660
 1227SOL     OW15139   3.588   3.182   6.904  0.2800 -0.4442 -0.2401
 1227SOL    HW115140   3.535   3.258   6.881 -0.2565 -1.4967 -2.5159
 1227SOL    HW215141   3.622   3.212   6.988 -0.7548 -0.5484  0.2197
 1228SOL     OW15142   1.522   2.468  14.724 -0.0175 -0.0681 -0.3918
 1228SOL    HW115143   1.440   2.510  14.750 -0.4950 -1.0908 -0.2452
 1228SOL    HW215144   1.551   2.444  14.812 -0.9162 -0.3165 -0.1585
 1229SOL     OW15145   4.441   4.161   2.769  0.2628 -0.0631 -0.0448
 1229SOL    HW115146   4.385   4.152   2.692 -0.6528 -1.0988  0.7317
 1229SOL    HW215147   4.469   4.252   2.768  0.1318 -0.0316 -0.5590
 1230SOL     OW15148   1.983   4.530  12.114 -0.7465  0.3102 -0.4980
 1230SOL    HW115149   1.902   4.574  12.138 -1.2516 -0.7485 -0.2602
 1230SOL    HW215150   2.026   4.521  12.199 -1.3457  3.4715  0.1416
 1231SOL     OW15151   0.655   0.969   5.129  0.0357  0.0840  0.9622
 1231SOL    HW115152   0.562   0.970   5.106  0.5595 -0.8226 -1.2602
 1231SOL    HW215153   0.696   1.029   5.066 -1.9665 -1.8520 -2.2200
 1232SOL     OW15154   1.575   1.398   2.875  0.5940  0.4021 -0.4525
 1232SOL    HW115155   1.619   1.334   2.930  0.5930  0.3412 -0.5228
 1232SOL    HW215156   1.642   1.460   2.846  0.9439  0.5690  0.7359
 1233SOL     OW15157   0.715   3.076   3.103 -0.6882  0.5208  0.4352
 1233SOL    HW115158   0.638   3.083   3.159 -0.0861 -0.3234  1.3529
 1233SOL    HW215159   0.731   2.982   3.097  0.7642  0.7784  0.3538
 1234SOL     OW15160   3.690   1.350   8.074  0.3637  1.0538 -0.2719
 1234SOL    HW115161   3.725   1.380   8.158  2.5217 -1.4223 -0.2957
 1234SOL    HW215162   3.625   1.415   8.046  0.0149  0.5380 -0.6508
 1235SOL     OW15163   2.985   1.370   0.075  0.1098  1.1807  0.3013
 1235SOL    HW115164   2.944   1.322   0.146  0.2533  0.2017 -0.2797
 1235SOL    HW215165   3.030   1.300   0.028  0.1808  0.9971  0.6451
 1236SOL     OW15166   3.624   4.701   6.517  0.7008  0.1447 -0.0798
 1236SOL    HW115167   3.580   0.046   6.465  0.4644  0.2196  0.2169
 1236SOL    HW215168   3.557   4.686   6.583  1.7882  3.7970  1.8267
 1237SOL     OW15169   3.690   2.917   2.757  0.0790  0.2495 -0.3780
 1237SOL    HW115170   3.622   2.879   2.701  0.7616  0.7693 -1.5742
 1237SOL    HW215171   3.650   2.898   2.842 -0.6573  1.1406 -0.5186
 1238SOL     OW15172   2.817   0.793   2.651  0.3671 -0.3090  0.0555
 1238SOL    HW115173   2.758   0.743   2.707  0.8855 -0.3122  0.5983
 1238SOL    HW215174   2.772   0.797   2.566 -1.1446 -1.0838  0.8114
 1239SOL     OW15175   1.344   4.209   2.825 -0.3861  0.2049  0.0331
 1239SOL    HW115176   1.430   4.216   2.784 -0.5723  0.7024 -0.2696
 1239SOL    HW215177   1.356   4.285   2.881 -1.7820  0.0841  0.4984
 1240SOL     OW15178   2.709   4.208   6.539  0.1486  0.5217 -0.1146
 1240SOL    HW115179   2.661   4.131   6.569 -2.6299  2.1420 -0.3183
 1240SOL    HW215180   2.711   4.259   6.620 -2.2022 -1.0296  0.9246
 1241SOL     OW15181   1.043   2.320   1.376 -0.2726 -0.1470  0.4966
 1241SOL    HW115182   1.057   2.300   1.283 -0.8055  2.2149 -0.0755
 1241SOL    HW215183   0.986   2.245   1.392  0.5049 -0.7287  0.5726
 1242SOL     OW15184   2.861   2.520   3.252  0.4067  0.2012  0.0466
 1242SOL    HW115185   2.849   2.528   3.157  2.3379 -0.3335 -0.2402
 1242SOL    HW215186   2.904   2.434   3.259  2.6594  1.3825  0.6523
 1243SOL     OW15187   0.074   0.421   7.256  0.1247  0.0122 -0.0087
 1243SOL    HW115188   0.154   0.370   7.269 -0.3230 -0.8673 -0.6709
 1243SOL    HW215189   0.079   0.481   7.331 -2.4082  1.0242 -0.6599
 1244SOL     OW15190   2.465   2.228   4.190  0.7361  0.3577 -0.2186
 1244SOL    HW115191   2.423   2.308   4.158  0.8673  0.3288 -0.4598
 1244SOL    HW215192   2.479   2.177   4.111 -0.0290 -0.3987  0.1380
 1245SOL     OW15193   0.466   1.403   1.875 -0.0362 -0.3933 -0.0657
 1245SOL    HW115194   0.426   1.358   1.801 -0.3855 -0.8154  0.3812
 1245SOL    HW215195   0.411   1.366   1.944  3.6540 -0.9663  2.5806
 1246SOL     OW15196   0.110   1.109   8.492 -0.1740 -0.0845 -0.2546
 1246SOL    HW115197   0.089   1.187   8.544  0.6209 -0.5274  0.7052
 1246SOL    HW215198   0.206   1.111   8.494 -0.1727  0.5162 -0.7602
 1247SOL     OW15199   4.241   0.948  16.462  0.7514  0.2860  0.5575
 1247SOL    HW115200   4.334   0.970  16.462  1.2053 -1.6757  1.5242
 1247SOL    HW215201   4.205   1.004  16.530  1.1577  0.2239  0.8248
 1248SOL     OW15202   0.840   0.151   4.559  0.8798 -0.7359  0.0681
 1248SOL    HW115203   0.929   0.116   4.555  0.6518 -1.2239 -0.8688
 1248SOL    HW215204   0.832   0.173   4.651 -1.5305 -0.8077 -0.1332
 1249SOL     OW15205   0.814   0.508  15.360 -0.0335  0.6695 -0.4097
 1249SOL    HW115206   0.791   0.523  15.268 -0.4051 -0.2079 -0.4680
 1249SOL    HW215207   0.893   0.456  15.346 -1.1108 -1.7503  2.4679
 1250SOL     OW15208   2.296   3.691   1.807  0.2182 -0.6631  0.2906
 1250SOL    HW115209   2.236   3.636   1.856  0.5541  0.4494  1.9642
 1250SOL    HW215210   2.379   3.650   1.830 -0.6461 -2.4217  0.2454
 1251SOL     OW15211   2.451   3.628   0.828  0.2442 -0.5035  0.5045
 1251SOL    HW115212   2.409   3.661   0.907 -1.4629 -1.3146 -0.0569
 1251SOL    HW215213   2.374   3.610   0.774  0.3787  0.4266 -0.0043
 1252SOL     OW15214   3.104   0.780   2.486  0.1644 -0.2936  0.2528
 1252SOL    HW115215   3.117   0.685   2.478  0.9182 -0.2354  0.7288
 1252SOL    HW215216   3.024   0.793   2.536 -0.4806  2.2438 -1.4495
 1253SOL     OW15217   2.453   2.511  17.302  0.1634  0.4349  0.2636
 1253SOL    HW115218   2.401   2.563  17.363 -1.9558 -0.5424 -0.7206
 1253SOL    HW215219   2.439   2.564  17.223 -1.0976  0.0044  0.2031
 1254SOL     OW15220   0.188   1.797  17.343  0.0300  0.0640 -0.6035
 1254SOL    HW115221   0.283   1.802  17.348  0.0050  0.2720 -0.2803
 1254SOL    HW215222   0.182   1.750  17.260 -1.2066 -0.0100 -0.4769
 1255SOL     OW15223   0.396   4.537   1.961 -0.2334  0.4125  0.1090
 1255SOL    HW115224   0.485   4.565   1.983 -0.8280  3.1321 -1.0359
 1255SOL    HW215225   0.419   4.494   1.879 -0.2338 -0.2962  0.4796
 1256SOL     OW15226   0.804   3.134   4.154  0.5374  0.5979 -0.0543
 1256SOL    HW115227   0.838   3.177   4.076  1.7724  0.4480  0.3905
 1256SOL    HW215228   0.881   3.080   4.175  0.8296  2.2874  3.1231
 1257SOL     OW15229   3.833   3.205   5.102 -0.5972  0.1023  1.0086
 1257SOL    HW115230   3.766   3.273   5.105  0.7801  1.4598  1.2154
 1257SOL    HW215231   3.838   3.182   5.010  1.6659  0.9018  0.9447
 1258SOL     OW15232   3.219   3.174   5.066  0.4989 -0.1638 -0.2382
 1258SOL    HW115233   3.309   3.202   5.047  0.7510  0.3104  1.5969
 1258SOL    HW215234   3.183   3.152   4.980 -0.9481  1.4480 -0.0519
 1259SOL     OW15235   0.997   1.815  16.585  0.5183 -0.1945  0.7795
 1259SOL    HW115236   0.908   1.845  16.566  0.2790  0.1411  2.3749
 1259SOL    HW215237   1.029   1.803  16.496  1.3938  0.1462  1.0523
 1260SOL     OW15238   1.737   3.674   4.966  0.5672  0.0411  0.6091
 1260SOL    HW115239   1.690   3.623   4.901 -1.2040 -0.0260  1.9532
 1260SOL    HW215240   1.708   3.630   5.046  2.1246  0.7011  1.5555
 1261SOL     OW15241   1.831   2.223  10.234 -0.5844 -0.5870  0.0128
 1261SOL    HW115242   1.785   2.265  10.307 -1.1638 -0.4372 -0.4409
 1261SOL    HW215243   1.791   2.268  10.160 -2.4141 -1.9618  0.1749
 1262SOL     OW15244   3.653   4.010   6.717  0.1373 -0.8320  0.0966
 1262SOL    HW115245   3.612   4.002   6.631 -1.2176  0.8627  0.5814
 1262SOL    HW215246   3.593   3.965   6.776 -0.1260  0.0700  0.5200
 1263SOL     OW15247   1.467   2.585   3.419  0.1023  0.8848  0.5399
 1263SOL    HW115248   1.501   2.659   3.469  0.8548  1.3671 -0.6784
 1263SOL    HW215249   1.542   2.552   3.369 -0.0730  2.1527 -0.5560
 1264SOL     OW15250   1.848   2.602   4.037 -0.1178 -0.0141  0.1355
 1264SOL    HW115251   1.906   2.678   4.034 -1.6325  1.1272 -0.4349
 1264SOL    HW215252   1.819   2.581   4.126  2.6827  0.1057  1.0764
 1265SOL     OW15253   2.634   1.920  14.671  0.1598  0.3620 -0.0422
 1265SOL    HW115254   2.598   1.832  14.658  2.6471 -1.1188  3.0531
 1265SOL    HW215255   2.588   1.974  14.607 -0.8123 -0.1583  0.2160
 1266SOL     OW15256   0.089   0.260   1.610  0.0973  0.2770 -0.1411
 1266SOL    HW115257   0.184   0.257   1.596  0.0858 -0.3865 -0.0945
 1266SOL    HW215258   0.086   0.236   1.703  0.2261  0.5026 -0.0791
 1267SOL     OW15259   4.168   2.774   0.404 -0.3059 -0.3047  0.0093
 1267SOL    HW115260   4.134   2.837   0.340  0.4510  0.1286  0.0232
 1267SOL    HW215261   4.143   2.691   0.363 -0.5272  0.5083 -1.5013
 1268SOL     OW15262   2.204   2.136   8.724  0.0144  0.6421 -0.4293
 1268SOL    HW115263   2.172   2.223   8.702  0.1651  0.9976  0.7573
 1268SOL    HW215264   2.140   2.110   8.791 -0.6427  2.8216 -0.2121
 1269SOL     OW15265   0.529   3.704  10.088 -0.6437 -0.7186 -0.1730
 1269SOL    HW115266   0.551   3.630  10.145 -0.5836 -1.1305 -0.7335
 1269SOL    HW215267   0.541   3.780  10.144 -0.8387 -0.2948 -0.7108
 1270SOL     OW15268   2.800   3.760   2.527  0.4203  0.1706 -0.2305
 1270SOL    HW115269   2.739   3.720   2.464  2.4449 -0.1837 -1.9403
 1270SOL    HW215270   2.771   3.851   2.530  1.6314  0.5185  0.6054
 1271SOL     OW15271   2.283   2.106  14.267  0.0520  0.2468 -0.1334
 1271SOL    HW115272   2.204   2.064  14.234  0.2894 -1.1518  1.0675
 1271SOL    HW215273   2.298   2.180  14.209  1.2637  2.5693  3.1417
 1272SOL     OW15274   0.588   1.268  12.494  0.4991  0.0044 -0.4511
 1272SOL    HW115275   0.602   1.280  12.400  0.4328 -0.4832 -0.5260
 1272SOL    HW215276   0.507   1.311  12.520  0.4632 -0.7311  0.6358
 1273SOL     OW15277   0.662   3.666  12.431 -0.3153 -0.1502  0.0389
 1273SOL    HW115278   0.705   3.587  12.462  0.4868  0.1766 -0.2395
 1273SOL    HW215279   0.678   3.726  12.504 -0.2994 -0.4964  0.3208
 1274SOL     OW15280   2.235   0.253   6.478 -0.0044  0.5490 -0.1368
 1274SOL    HW115281   2.174   0.211   6.538  0.9611 -0.9481 -0.1782
 1274SOL    HW215282   2.215   0.345   6.492  0.3114  0.7927 -1.2680
 1275SOL     OW15283   4.624   1.235   3.399  0.3967 -0.3117  0.1743
 1275SOL    HW115284   4.532   1.251   3.379  0.9928 -0.7213 -2.8673
 1275SOL    HW215285   4.645   1.306   3.459  1.7934  0.5771 -1.3868
 1276SOL     OW15286   0.535   2.910  11.029  0.5323 -0.4715  0.0766
 1276SOL    HW115287   0.565   2.904  11.119  1.6225  0.6382 -0.2101
 1276SOL    HW215288   0.621   2.927  10.991  0.4981 -0.7361 -0.1179
 1277SOL     OW15289   3.426   3.560  12.834  0.4388 -0.0589  0.4862
 1277SOL    HW115290   3.491   3.595  12.774 -1.1009 -1.5640 -2.0496
 1277SOL    HW215291   3.407   3.471  12.805 -1.1126  0.5689 -0.4302
 1278SOL     OW15292   0.245   0.839  15.064  0.1369 -0.2161  0.6791
 1278SOL    HW115293   0.232   0.784  15.141 -0.4269 -0.7998  0.1610
 1278SOL    HW215294   0.220   0.784  14.990  0.1644 -0.3883  0.7977
 1279SOL     OW15295   1.628   2.665   8.984  0.1521  0.1466 -0.8901
 1279SOL    HW115296   1.689   2.730   8.949 -1.5760  2.3371  0.1608
 1279SOL    HW215297   1.655   2.655   9.075 -2.0853  1.2865 -0.0967
 1280SOL     OW15298   1.366   1.561  12.133 -0.0046 -0.2028 -0.2227
 1280SOL    HW115299   1.343   1.503  12.206  1.1685  0.8013  0.9426
 1280SOL    HW215300   1.446   1.602  12.165 -0.2738 -0.0529  0.2658
 1281SOL     OW15301   3.634   0.874   2.299 -0.3081 -0.1062  0.2174
 1281SOL    HW115302   3.697   0.915   2.241 -0.1072  0.4338  0.8067
 1281SOL    HW215303   3.558   0.930   2.281 -0.8151 -1.9013 -3.1049
 1282SOL     OW15304   4.491   2.351   5.917 -0.4424 -0.0951  0.0861
 1282SOL    HW115305   4.464   2.394   5.999  2.1282  1.2946  0.1883
 1282SOL    HW215306   4.568   2.404   5.898  0.6273 -0.6195  2.8641
 1283SOL     OW15307   0.690   2.964   5.881 -0.3856  0.5947  0.2699
 1283SOL    HW115308   0.736   2.897   5.830  0.5172  0.1966  1.6098
 1283SOL    HW215309   0.649   3.021   5.817 -3.4094 -1.0714  0.7309
 1284SOL     OW15310   0.572   3.299  10.621  0.4941  0.0971  0.5478
 1284SOL    HW115311   0.530   3.217  10.595  1.1922 -0.3459  0.8226
 1284SOL    HW215312   0.546   3.359  10.551 -3.2863 -1.0552  0.9798
 1285SOL     OW15313   2.663   0.353   3.754 -0.0031 -0.1155  0.4092
 1285SOL    HW115314   2.690   0.410   3.826  0.1033 -1.1985  1.2208
 1285SOL    HW215315   2.658   0.413   3.679 -2.5798 -1.1175 -0.2179
 1286SOL     OW15316   0.464   3.347  10.181 -0.2909  0.2709 -0.2113
 1286SOL    HW115317   0.413   3.315  10.255  0.4469 -1.1294 -0.3140
 1286SOL    HW215318   0.523   3.410  10.220 -1.3851  0.8128  0.5503
 1287SOL     OW15319   2.059   4.208   4.490 -0.7076  0.1286 -0.3524
 1287SOL    HW115320   2.041   4.158   4.570 -0.9784  1.2436  0.2890
 1287SOL    HW215321   2.123   4.269   4.526 -1.4825 -0.2158  1.6286
 1288SOL     OW15322   1.917   0.863   6.681  0.9709 -0.7446 -0.3597
 1288SOL    HW115323   1.940   0.852   6.589 -0.5122 -0.9891 -0.7042
 1288SOL    HW215324   1.824   0.839   6.679  0.5827  0.4889  2.5919
 1289SOL     OW15325   2.707   1.905  13.941  0.2747  0.2112  0.2979
 1289SOL    HW115326   2.629   1.953  13.967 -1.2325 -2.3200  0.4705
 1289SOL    HW215327   2.705   1.841  14.011 -0.1292  0.5129  0.5583
 1290SOL     OW15328   3.831   4.465   5.823  0.1339 -0.3389 -0.1048
 1290SOL    HW115329   3.855   4.375   5.797  0.3508 -1.0505  2.5938
 1290SOL    HW215330   3.742   4.458   5.789  0.2932  0.4810 -0.6927
 1291SOL     OW15331   2.051   3.846   1.005 -0.6174 -0.1005  0.1812
 1291SOL    HW115332   2.024   3.828   0.915  1.9058 -1.4079 -0.3113
 1291SOL    HW215333   2.144   3.869   1.001 -0.4822 -0.6816 -0.0424
 1292SOL     OW15334   1.505   2.770   1.846  0.0915 -0.1059 -0.0686
 1292SOL    HW115335   1.416   2.768   1.811 -0.1341  0.4926  0.4450
 1292SOL    HW215336   1.534   2.680   1.832 -2.1130 -0.3708 -2.9569
 1293SOL     OW15337   3.254   3.301   3.396  0.1876  0.3604  0.6195
 1293SOL    HW115338   3.303   3.382   3.380 -1.1963  1.5498  2.3684
 1293SOL    HW215339   3.323   3.246   3.434 -0.5002 -1.0765 -0.1942
 1294SOL     OW15340   4.452   0.895   0.053  0.2775 -0.4549  0.2412
 1294SOL    HW115341   4.470   0.814   0.099  0.2570 -0.3229  0.4809
 1294SOL    HW215342   4.539   0.922   0.025  0.3749  1.3602  2.2695
 1295SOL     OW15343   4.042   2.419   6.509 -0.4035  0.6907 -0.0218
 1295SOL    HW115344   3.988   2.387   6.437 -1.1239  0.4978  0.5977
 1295SOL    HW215345   3.984   2.485   6.546 -0.8535 -0.7664  1.9030
 1296SOL     OW15346   1.162   2.454   6.252  0.7263 -0.2191 -0.0592
 1296SOL    HW115347   1.183   2.511   6.178 -2.3710  0.4524 -0.4347
 1296SOL    HW215348   1.200   2.372   6.218 -1.7110 -2.1241  1.8128
 1297SOL     OW15349   2.855   3.530   1.887  0.4433  0.5858 -0.2824
 1297SOL    HW115350   2.870   3.436   1.895 -0.2473  0.5854  1.0368
 1297SOL    HW215351   2.943   3.567   1.883  2.0159 -3.2964 -0.8364
 1298SOL     OW15352   0.981   2.773   3.760 -0.1933  0.2619 -0.2238
 1298SOL    HW115353   0.968   2.734   3.847  0.4479 -1.2318 -0.7914
 1298SOL    HW215354   1.007   2.702   3.701 -0.9018 -0.7415  0.6654
 1299SOL     OW15355   1.267   0.844  14.509  0.2229  0.2445 -0.2719
 1299SOL    HW115356   1.354   0.884  14.499 -0.1806  0.9217 -1.0329
 1299SOL    HW215357   1.239   0.882  14.592 -0.1329  1.2750 -0.8691
 1300SOL     OW15358   2.676   3.733   3.993  0.1839  0.3502 -0.5682
 1300SOL    HW115359   2.771   3.728   3.997  0.1787  0.4586 -0.2786
 1300SOL    HW215360   2.670   3.644   3.958  2.0234  0.7023 -1.7450
 1301SOL     OW15361   0.243   1.186  13.208 -0.0377  0.4167 -0.2200
 1301SOL    HW115362   0.304   1.177  13.280  1.7270  0.4756 -1.7132
 1301SOL    HW215363   0.240   1.281  13.197  2.4863  0.6520  1.1583
 1302SOL     OW15364   4.111   0.061   6.698 -0.2857 -0.1427 -0.1917
 1302SOL    HW115365   4.054   0.060   6.775  1.7532  0.1502  1.3235
 1302SOL    HW215366   4.051   0.028   6.631 -1.6033 -2.2696  1.9821
 1303SOL     OW15367   4.231   2.406   9.547  0.4444  0.0371  0.6401
 1303SOL    HW115368   4.304   2.358   9.587  1.0266 -0.4034 -0.9496
 1303SOL    HW215369   4.280   2.488   9.538 -0.8083  0.5970 -1.1430
 1304SOL     OW15370   0.146   1.486   5.738  0.2183  0.1194 -0.2987
 1304SOL    HW115371   0.099   1.524   5.813 -1.0305 -1.1798 -0.4339
 1304SOL    HW215372   0.220   1.446   5.784  0.1258  1.7870  1.2950
 1305SOL     OW15373   2.233   0.206   2.444  0.0135 -0.3012  0.6003
 1305SOL    HW115374   2.272   0.277   2.494  2.3883 -1.5469  0.5066
 1305SOL    HW215375   2.295   0.216   2.372  1.5358 -0.9553  1.8171
 1306SOL     OW15376   1.830   3.351  14.247 -0.1080  0.3268  0.3907
 1306SOL    HW115377   1.804   3.262  14.223  3.0588 -0.5529  0.3332
 1306SOL    HW215378   1.858   3.391  14.165  0.3362 -0.7936  0.0053
 1307SOL     OW15379   1.476   2.996   5.597 -0.3663 -0.2559 -0.4079
 1307SOL    HW115380   1.571   3.005   5.589 -0.4669  0.5099 -0.7633
 1307SOL    HW215381   1.475   2.952   5.683  0.7570 -1.1438 -0.8483
 1308SOL     OW15382   0.942   1.912   5.881  0.3451 -0.5136 -0.2121
 1308SOL    HW115383   0.990   1.843   5.836  1.2926 -1.1566  1.7748
 1308SOL    HW215384   0.853   1.876   5.890  0.1608  0.3230  1.3498
 1309SOL     OW15385   0.769   2.540   5.496  0.0510  0.1924  0.2863
 1309SOL    HW115386   0.685   2.515   5.458  1.3738  0.4544 -2.8138
 1309SOL    HW215387   0.757   2.487   5.575  0.4296 -1.1947 -0.5808
 1310SOL     OW15388   1.669   3.622   7.448 -0.0072 -0.0298 -0.0413
 1310SOL    HW115389   1.730   3.567   7.496 -1.1700 -1.0661  0.2565
 1310SOL    HW215390   1.605   3.634   7.518 -0.5965 -0.8736 -0.4403
 1311SOL     OW15391   0.432   0.425   2.011  0.0840 -0.8114  0.2756
 1311SOL    HW115392   0.379   0.436   2.090 -1.1914  0.4374 -0.7378
 1311SOL    HW215393   0.519   0.420   2.050  0.1499  0.5357  0.3026
 1312SOL     OW15394   0.001   1.854   9.652 -0.1553 -0.7746 -0.5663
 1312SOL    HW115395   4.679   1.821   9.731  0.2481 -0.9968 -0.4335
 1312SOL    HW215396   4.661   1.921   9.623 -0.9477 -0.9618  0.7165
 1313SOL     OW15397   2.111   3.888   4.020  0.1482  0.1882  0.0747
 1313SOL    HW115398   2.193   3.839   4.014  0.8510  0.9698  2.9033
 1313SOL    HW215399   2.147   3.976   4.007  2.9592 -1.1728 -1.1985
 1314SOL     OW15400   3.282   1.706   3.929 -0.0638 -0.2791 -0.1112
 1314SOL    HW115401   3.251   1.651   4.001 -0.6382  0.4430  0.1983
 1314SOL    HW215402   3.335   1.774   3.969  0.4144 -0.0790 -1.0890
 1315SOL     OW15403   4.302   2.349   6.507 -0.7881 -0.6274 -0.8441
 1315SOL    HW115404   4.291   2.399   6.588 -0.9801 -2.1732  0.0772
 1315SOL    HW215405   4.210   2.338   6.483 -0.4876  0.8411 -2.7210
 1316SOL     OW15406   4.659   0.321   3.130 -0.1211 -0.3131  0.3355
 1316SOL    HW115407   4.669   0.229   3.104  0.9894  0.0679 -0.5508
 1316SOL    HW215408   4.614   0.352   3.052  0.2993 -2.2808 -0.6777
 1317SOL     OW15409   2.157   3.268   5.285 -0.6090  0.2393  0.0642
 1317SOL    HW115410   2.181   3.333   5.220 -2.6178  1.2168  0.3221
 1317SOL    HW215411   2.238   3.216   5.284 -0.3016  0.7214 -0.2375
 1318SOL     OW15412   0.927   0.168   9.300 -0.1664 -0.5123 -0.5009
 1318SOL    HW115413   0.930   0.258   9.330 -0.6637 -1.3402  2.0082
 1318SOL    HW215414   0.979   0.129   9.369 -2.0816  0.2465  1.3665
 1319SOL     OW15415   2.650   3.602  12.827 -0.1491  0.3718 -0.2884
 1319SOL    HW115416   2.674   3.560  12.744 -1.4395 -0.8215 -0.0551
 1319SOL    HW215417   2.726   3.656  12.849  1.9565 -2.5347 -0.4815
 1320SOL     OW15418   2.456   3.296  16.480 -0.5783 -1.0093  0.3060
 1320SOL    HW115419   2.446   3.374  16.425  0.3852 -1.4728 -0.5207
 1320SOL    HW215420   2.411   3.229  16.429 -1.1273  1.4823 -2.4669
 1321SOL     OW15421   0.962   1.732   9.308  0.6823  0.2414 -0.4732
 1321SOL    HW115422   0.870   1.760   9.304 -0.1441 -2.5414 -1.3801
 1321SOL    HW215423   0.993   1.820   9.329 -0.2385  0.2295  0.9235
 1322SOL     OW15424   1.514   2.705   5.272 -0.0677  0.6218 -0.0087
 1322SOL    HW115425   1.509   2.800   5.273 -1.5082  0.5261  1.0663
 1322SOL    HW215426   1.429   2.682   5.309  1.1356 -3.2645  0.3788
 1323SOL     OW15427   2.532   1.302   2.402 -0.3552  0.2937  0.6494
 1323SOL    HW115428   2.581   1.240   2.456 -1.6252 -1.9999 -0.8594
 1323SOL    HW215429   2.456   1.251   2.374 -0.7071  1.7983 -1.1527
 1324SOL     OW15430   4.118   0.762   4.334 -0.3532  0.5636  0.1955
 1324SOL    HW115431   4.096   0.670   4.324 -2.2210  1.2409 -2.0423
 1324SOL    HW215432   4.152   0.772   4.245  1.5343  0.5309  0.9229
 1325SOL     OW15433   0.522   4.138   4.555 -0.0027  0.4298 -0.3064
 1325SOL    HW115434   0.426   4.136   4.564  0.0103 -1.9413 -0.4882
 1325SOL    HW215435   0.548   4.053   4.518  1.6626  1.2730 -1.0329
 1326SOL     OW15436   3.355   2.001   7.413 -0.2365  0.4411 -0.3631
 1326SOL    HW115437   3.361   2.061   7.338  1.8773  3.2446  2.0628
 1326SOL    HW215438   3.331   2.064   7.482  0.7534 -0.8910  1.1740
 1327SOL     OW15439   3.764   1.035  17.173 -0.0273 -0.2700 -0.7187
 1327SOL    HW115440   3.724   1.106  17.124  3.5369  1.0247 -1.7592
 1327SOL    HW215441   3.812   0.994  17.101  0.1410 -2.3673  0.5834
 1328SOL     OW15442   0.211   0.974   4.256 -0.3279 -0.7633 -0.3273
 1328SOL    HW115443   0.251   0.890   4.236  1.3848  0.1136 -0.5396
 1328SOL    HW215444   0.200   1.001   4.164 -0.0167 -2.4681 -0.8731
 1329SOL     OW15445   3.290   0.553   5.419  0.2110 -0.2334  0.2533
 1329SOL    HW115446   3.233   0.478   5.401  0.7462 -0.1872 -1.6139
 1329SOL    HW215447   3.252   0.588   5.500  1.5967  0.5897  0.5379
 1330SOL     OW15448   3.521   1.048   8.484  0.0368  0.7673 -0.1976
 1330SOL    HW115449   3.479   1.099   8.415 -1.8017 -0.8123 -0.2367
 1330SOL    HW215450   3.499   0.958   8.460  0.2782  0.5559  0.3628
 1331SOL     OW15451   3.272   1.380   9.117 -0.2508  0.6742  0.3522
 1331SOL    HW115452   3.196   1.341   9.160 -1.5370  1.5431 -1.1325
 1331SOL    HW215453   3.323   1.412   9.191  0.0037  0.2893  0.3404
 1332SOL     OW15454   1.802   0.776   2.254 -0.5202 -0.2082  0.2694
 1332SOL    HW115455   1.771   0.866   2.256 -0.2218 -0.1280  1.6185
 1332SOL    HW215456   1.896   0.793   2.248 -0.4955 -0.9349 -1.3956
 1333SOL     OW15457   3.173   0.828   8.322  0.3044 -0.1693 -0.3869
 1333SOL    HW115458   3.094   0.781   8.349 -0.5344  0.9764 -0.8347
 1333SOL    HW215459   3.142   0.918   8.320 -0.2067 -0.3185  1.0745
 1334SOL     OW15460   3.872   3.878   4.229 -0.6345 -0.1401  0.4480
 1334SOL    HW115461   3.797   3.823   4.251 -1.1154  0.1226 -0.5427
 1334SOL    HW215462   3.878   3.866   4.134  0.7023 -1.6945  0.7316
 1335SOL     OW15463   2.306   4.433   5.664 -0.1850  0.0978 -0.2411
 1335SOL    HW115464   2.376   4.397   5.609 -1.7386 -1.8327 -0.9448
 1335SOL    HW215465   2.335   4.430   5.755  1.6715  1.4892 -0.8031
 1336SOL     OW15466   3.347   1.884  15.280 -0.0110  0.4003  0.0286
 1336SOL    HW115467   3.296   1.805  15.264  1.8168 -0.2457 -2.4963
 1336SOL    HW215468   3.284   1.955  15.298 -1.1636 -0.2782 -1.3154
 1337SOL     OW15469   2.849   1.859  14.843 -0.6363  0.3600 -0.2450
 1337SOL    HW115470   2.884   1.946  14.864  1.4997 -0.8503  1.1476
 1337SOL    HW215471   2.793   1.879  14.768 -1.7869 -4.2320 -0.6149
 1338SOL     OW15472   0.727   2.864   2.682  0.0614 -0.8804 -0.2229
 1338SOL    HW115473   0.804   2.896   2.635  0.0553 -1.2374 -0.4735
 1338SOL    HW215474   0.651   2.907   2.644 -0.2227 -0.0369  1.3121
 1339SOL     OW15475   3.659   0.560   2.875  0.0444 -0.4059  0.2368
 1339SOL    HW115476   3.610   0.486   2.839  1.5256 -0.6266 -1.3694
 1339SOL    HW215477   3.745   0.559   2.832 -0.6431  0.2675 -1.1414
 1340SOL     OW15478   4.265   2.386  13.864  0.2950  0.6332  0.8921
 1340SOL    HW115479   4.204   2.412  13.932 -0.3041 -0.5894  0.8124
 1340SOL    HW215480   4.212   2.327  13.810 -0.3694 -0.2654  2.5243
 1341SOL     OW15481   2.650   2.312   4.620 -0.3972 -0.1990  0.8774
 1341SOL    HW115482   2.720   2.331   4.558 -0.1459  0.8390  1.4779
 1341SOL    HW215483   2.573   2.342   4.571 -0.8227  0.1476  1.7496
 1342SOL     OW15484   0.664   2.463  10.096 -0.2869  0.0543  0.2206
 1342SOL    HW115485   0.701   2.383  10.058  0.0617 -0.0777  0.8432
 1342SOL    HW215486   0.589   2.450  10.038  1.3333  0.1777 -1.8894
 1343SOL     OW15487   3.322   0.593  15.859 -0.1572  0.2991  0.6724
 1343SOL    HW115488   3.377   0.562  15.787 -0.3979  1.2131  0.0931
 1343SOL    HW215489   3.287   0.677  15.828 -1.7641 -0.4549  0.3960
 1344SOL     OW15490   0.453   0.037  15.611 -0.7622 -0.0136  0.0562
 1344SOL    HW115491   0.422   4.714  15.690  2.9647  0.5781  1.8443
 1344SOL    HW215492   0.390   0.109  15.613  0.2946  0.8874  0.5455
 1345SOL     OW15493   2.937   2.703   3.942  0.2122 -0.0923 -0.0712
 1345SOL    HW115494   3.023   2.674   3.974  0.6119  1.2034  0.0280
 1345SOL    HW215495   2.958   2.717   3.850  1.1201 -1.0905 -0.0134
 1346SOL     OW15496   2.049   2.528  16.836 -0.4674  0.5649  0.7735
 1346SOL    HW115497   2.007   2.478  16.766  2.2210  0.8681 -1.0463
 1346SOL    HW215498   1.986   2.521  16.908  0.2042 -0.9473  1.2107
 1347SOL     OW15499   0.308   1.138  14.440  0.5424 -0.4410 -0.0391
 1347SOL    HW115500   0.222   1.179  14.437  0.1532 -1.3063 -0.5981
 1347SOL    HW215501   0.364   1.204  14.481 -0.2313  0.4909 -0.4727
 1348SOL     OW15502   4.648   2.642   6.839  0.5062 -0.0179  0.2141
 1348SOL    HW115503   4.575   2.633   6.900  0.1190  1.7054 -0.0032
 1348SOL    HW215504   4.598   2.623   6.759  1.2436 -1.8742  0.1818
 1349SOL     OW15505   3.521   0.549   8.380 -0.0712  0.0837 -0.9119
 1349SOL    HW115506   3.597   0.510   8.423 -0.9189  0.4511  0.9213
 1349SOL    HW215507   3.535   0.523   8.290  3.0914  0.0299 -0.4013
 1350SOL     OW15508   3.099   4.301   0.280  0.0578  0.3415  0.2587
 1350SOL    HW115509   3.060   4.296   0.367  0.3285  1.0758  0.4209
 1350SOL    HW215510   3.127   4.393   0.277 -1.9860  0.9150 -1.5584
 1351SOL     OW15511   0.236   2.624  10.833 -0.2112 -0.5637  0.4367
 1351SOL    HW115512   0.149   2.663  10.832  0.2176  0.4262  1.1406
 1351SOL    HW215513   0.233   2.581  10.919 -0.3602  2.4509  1.9743
 1352SOL     OW15514   4.417   2.065  11.009 -0.0373  0.1127 -0.0167
 1352SOL    HW115515   4.403   2.114  11.090  1.0951  0.8875 -0.2883
 1352SOL    HW215516   4.386   1.976  11.027 -0.5376  0.5733  1.4273
 1353SOL     OW15517   2.822   0.594   8.080  0.0233  0.5178 -0.1087
 1353SOL    HW115518   2.880   0.614   8.154 -1.0089  2.5128  0.1694
 1353SOL    HW215519   2.735   0.587   8.119  0.4697 -0.8710  0.6144
 1354SOL     OW15520   2.934   3.548   4.353 -0.6271 -0.3884 -0.0772
 1354SOL    HW115521   2.860   3.522   4.299  0.6190  1.2464 -2.5649
 1354SOL    HW215522   2.913   3.524   4.444  0.3267 -0.9519  0.0023
 1355SOL     OW15523   1.663   2.679   2.345  0.1002  0.0937 -0.3014
 1355SOL    HW115524   1.576   2.686   2.385  0.5617 -1.8479  1.0480
 1355SOL    HW215525   1.645   2.715   2.259 -0.4118 -0.2988 -0.3578
 1356SOL     OW15526   3.408   2.690  13.217 -0.1231 -0.2822 -0.8041
 1356SOL    HW115527   3.478   2.627  13.196  1.1431  0.2582  1.8755
 1356SOL    HW215528   3.342   2.669  13.152  1.7585 -0.1414 -2.7691
 1357SOL     OW15529   3.225   1.697   5.385  0.1711  0.2742  0.3877
 1357SOL    HW115530   3.314   1.726   5.368  0.1348  0.5311  0.6422
 1357SOL    HW215531   3.243   1.621   5.440  0.9409 -1.4129 -2.1790
 1358SOL     OW15532   4.588   3.818   1.000  0.3862 -0.4410  0.6018
 1358SOL    HW115533   4.504   3.776   0.980  0.4662  1.1501 -3.1597
 1358SOL    HW215534   4.633   3.758   1.059  0.9203 -2.0953 -1.4844
 1359SOL     OW15535   0.262   0.602  11.058  0.0658  0.0318  0.4180
 1359SOL    HW115536   0.303   0.590  11.143  0.1774 -4.1863 -0.2450
 1359SOL    HW215537   0.282   0.533  10.995 -0.2342  0.1229  0.2202
 1360SOL     OW15538   2.106   1.495   4.811  0.0158  0.0793  0.1379
 1360SOL    HW115539   2.062   1.556   4.870 -2.8165 -1.2341 -0.6201
 1360SOL    HW215540   2.038   1.428   4.803 -1.1844  1.2489  0.5404
 1361SOL     OW15541   2.292   3.858   8.271 -0.6496  0.1746 -0.6578
 1361SOL    HW115542   2.376   3.847   8.316 -0.7628  1.8404 -0.0101
 1361SOL    HW215543   2.256   3.902   8.348  2.3975  2.4041 -0.4885
 1362SOL     OW15544   0.812   0.154   8.806  0.5094 -0.1790  0.2319
 1362SOL    HW115545   0.824   0.170   8.900  0.6656  0.9558  0.0201
 1362SOL    HW215546   0.801   0.060   8.789 -3.0660  0.3788 -0.4894
 1363SOL     OW15547   1.649   1.323  11.233 -0.1662  0.8043  0.1621
 1363SOL    HW115548   1.662   1.266  11.308  2.0425  0.3238 -0.5893
 1363SOL    HW215549   1.702   1.401  11.250  0.5691  0.4386 -0.4295
 1364SOL     OW15550   0.194   3.802   9.143 -0.6720 -0.2405  0.0022
 1364SOL    HW115551   0.256   3.868   9.174 -0.0157 -0.7465 -0.2340
 1364SOL    HW215552   0.226   3.720   9.181  0.7511  1.4683  2.5297
 1365SOL     OW15553   4.244   4.173   4.444  0.0489  0.4614 -0.1278
 1365SOL    HW115554   4.222   4.099   4.387  1.4099  1.9508 -2.5523
 1365SOL    HW215555   4.340   4.178   4.437  0.3942 -1.2820  3.3009
 1366SOL     OW15556   1.768   4.587   7.917  0.2035  0.3681  0.1636
 1366SOL    HW115557   1.757   4.605   8.010 -0.4852  3.0153 -0.4459
 1366SOL    HW215558   1.854   4.546   7.905 -0.0629  0.0277 -0.5782
 1367SOL     OW15559   3.898   1.651   3.058 -0.4988  0.0292  0.4739
 1367SOL    HW115560   3.822   1.629   3.112  1.4735 -2.6348  2.2136
 1367SOL    HW215561   3.875   1.743   3.046 -0.3334  0.1292  0.9072
 1368SOL     OW15562   1.421   3.239  10.055 -0.5532  0.4896 -0.2449
 1368SOL    HW115563   1.341   3.291  10.054 -1.2506 -0.5666  0.7370
 1368SOL    HW215564   1.435   3.255  10.148  0.1863 -1.4305 -0.0156
 1369SOL     OW15565   2.555   2.354  11.287 -0.0021  0.0235  1.2334
 1369SOL    HW115566   2.517   2.361  11.200  0.0016  0.8844  1.2966
 1369SOL    HW215567   2.619   2.424  11.281 -1.0168  0.7907 -0.7838
 1370SOL     OW15568   2.400   1.676   4.986  0.3780  0.8695  0.4766
 1370SOL    HW115569   2.448   1.759   4.979  1.8991  0.0038  0.4517
 1370SOL    HW215570   2.368   1.702   5.072 -0.6208 -2.8601  1.2043
 1371SOL     OW15571   1.376   3.660   0.745 -0.5596  0.2666 -0.2400
 1371SOL    HW115572   1.383   3.583   0.801 -1.7427  0.0280 -0.4196
 1371SOL    HW215573   1.320   3.713   0.803  0.2737  0.3753  0.4692
 1372SOL     OW15574   4.329   3.417  13.917 -0.1347  0.3005 -0.0913
 1372SOL    HW115575   4.270   3.429  13.991 -0.0809 -3.7418  0.6220
 1372SOL    HW215576   4.318   3.324  13.897  1.0281  0.3707 -1.1349
 1373SOL     OW15577   1.952   1.080  14.478 -0.1593  0.1342 -0.1229
 1373SOL    HW115578   1.928   1.094  14.570  0.0765  1.0603 -0.2035
 1373SOL    HW215579   2.045   1.098  14.493 -0.8556  1.8209  2.1410
 1374SOL     OW15580   2.863   2.745   3.438 -0.4053  0.0847 -0.2329
 1374SOL    HW115581   2.822   2.812   3.383  0.8234  0.5362 -0.5962
 1374SOL    HW215582   2.869   2.676   3.371 -0.2565  0.5883 -0.7371
 1375SOL     OW15583   0.724   2.584   4.779 -0.1178  0.2952 -0.4741
 1375SOL    HW115584   0.777   2.527   4.835  0.0003 -0.0673 -0.9465
 1375SOL    HW215585   0.675   2.519   4.728 -0.4670 -0.7973  1.2708
 1376SOL     OW15586   4.460   3.540   9.560 -0.3243  0.2478  0.6155
 1376SOL    HW115587   4.443   3.519   9.652 -0.7880  0.2585  0.5350
 1376SOL    HW215588   4.555   3.537   9.560 -0.3568 -0.8236  0.8329
 1377SOL     OW15589   2.056   2.733   2.874 -0.0696  0.6648  0.0235
 1377SOL    HW115590   2.004   2.715   2.795  0.2618  2.3162 -0.5774
 1377SOL    HW215591   2.092   2.648   2.897  0.1240  0.5664 -0.6234
 1378SOL     OW15592   2.282   4.614   4.521 -0.0756 -0.0422  0.0004
 1378SOL    HW115593   2.361   4.638   4.471  0.4424 -0.2654  0.7207
 1378SOL    HW215594   2.228   4.691   4.502  2.2346  1.2753 -1.2497
 1379SOL     OW15595   4.677   2.849   1.772  0.1771 -0.3418  0.0362
 1379SOL    HW115596   4.600   2.872   1.825  0.5340  1.2693 -0.1405
 1379SOL    HW215597   4.633   2.774   1.732  0.7226 -1.3557  1.3398
 1380SOL     OW15598   3.271   4.054   3.073 -0.1987 -0.0863 -0.5728
 1380SOL    HW115599   3.226   3.969   3.067 -1.2724  0.4341  0.4214
 1380SOL    HW215600   3.360   4.025   3.096 -0.7024 -0.0248  1.3836
 1381SOL     OW15601   4.360   3.027   7.206 -0.1613 -0.6231  0.0696
 1381SOL    HW115602   4.382   2.934   7.198 -0.5328 -0.4465 -3.0391
 1381SOL    HW215603   4.264   3.022   7.206 -0.2401  1.0392  0.9798
 1382SOL     OW15604   3.813   2.544   6.213 -0.6896  0.0303  0.4242
 1382SOL    HW115605   3.896   2.588   6.194 -1.5120  1.6067  0.4543
 1382SOL    HW215606   3.836   2.486   6.285  2.1278  2.3384  1.4020
 1383SOL     OW15607   1.161   3.556  13.896  0.4092 -0.0063  0.2717
 1383SOL    HW115608   1.174   3.559  13.802 -0.7503  1.2984  0.1523
 1383SOL    HW215609   1.181   3.644  13.928  0.5682 -0.3855  1.2266
 1384SOL     OW15610   0.948   2.491   6.459 -0.3262  0.1870  0.0115
 1384SOL    HW115611   1.010   2.523   6.524 -2.6888  0.2773  2.1943
 1384SOL    HW215612   1.008   2.473   6.386 -0.2297 -0.4713  0.2579
 1385SOL     OW15613   0.099   3.822   7.588 -0.4910 -0.1842 -0.1819
 1385SOL    HW115614   0.024   3.775   7.551 -0.1862 -0.6484 -0.2137
 1385SOL    HW215615   0.069   3.912   7.595  1.0998  0.3599 -0.3351
 1386SOL     OW15616   4.454   4.459   5.129  0.0489  0.3288 -0.4767
 1386SOL    HW115617   4.369   4.462   5.173 -0.0982 -3.8076 -0.4656
 1386SOL    HW215618   4.461   4.364   5.125 -2.9811 -0.0370  2.1864
 1387SOL     OW15619   0.093   4.098   3.245  0.4397  0.0062 -0.2922
 1387SOL    HW115620   0.093   4.003   3.236 -1.4199 -0.0760  0.5381
 1387SOL    HW215621   0.004   4.126   3.226  0.2586 -1.6778 -1.9687
 1388SOL     OW15622   4.128   3.821   7.816 -0.0367 -0.1738  0.5868
 1388SOL    HW115623   4.157   3.897   7.867 -0.9098  1.6884 -1.7012
 1388SOL    HW215624   4.124   3.757   7.888 -1.2164 -0.4390  0.2826
 1389SOL     OW15625   0.128   0.642   2.683  0.7293  0.2185  0.1844
 1389SOL    HW115626   0.173   0.722   2.657  2.7480 -1.5058 -1.5981
 1389SOL    HW215627   0.146   0.590   2.605  1.4909 -1.7925  1.6987
 1390SOL     OW15628   4.475   0.853   2.123  0.9290  0.0459  0.2594
 1390SOL    HW115629   4.545   0.819   2.067 -0.0405 -2.0278  0.3173
 1390SOL    HW215630   4.398   0.840   2.068 -0.9259 -0.6200  2.9701
 1391SOL     OW15631   0.724   0.541  10.475 -0.3616 -0.2578 -0.1521
 1391SOL    HW115632   0.810   0.565  10.439 -0.8047  3.4858  1.3721
 1391SOL    HW215633   0.750   0.459  10.516  0.0091 -0.5005 -0.8640
 1392SOL     OW15634   4.468   0.179  16.905  0.0777  0.4554 -0.3142
 1392SOL    HW115635   4.482   0.273  16.912  0.5134  0.3409  0.3360
 1392SOL    HW215636   4.373   0.177  16.916  0.1762  2.0658  0.7379
 1393SOL     OW15637   3.180   2.375   8.329  0.3181  0.0238 -0.5424
 1393SOL    HW115638   3.149   2.285   8.332  0.1261  0.1625  1.4226
 1393SOL    HW215639   3.099   2.424   8.322 -0.1209 -0.0948  3.7695
 1394SOL     OW15640   3.826   3.682   2.950 -0.5368  0.4699 -0.4961
 1394SOL    HW115641   3.796   3.623   2.880  1.7757 -0.7533 -0.4423
 1394SOL    HW215642   3.900   3.725   2.907 -0.1315 -0.0559 -0.3169
 1395SOL     OW15643   1.364   2.664  17.269 -0.2811 -0.1232 -0.4714
 1395SOL    HW115644   1.416   2.709  17.335  0.3854 -3.5764  1.3239
 1395SOL    HW215645   1.432   2.646  17.205  0.7820  0.4625  0.4920
 1396SOL     OW15646   4.016   4.521   4.009 -0.2341 -0.0562  0.1484
 1396SOL    HW115647   3.969   4.490   3.931  2.2953 -0.6455 -1.1368
 1396SOL    HW215648   4.045   4.436   4.042 -1.9930 -0.6330  0.2136
 1397SOL     OW15649   1.479   3.530   6.613 -0.6208 -0.0984  0.1487
 1397SOL    HW115650   1.442   3.522   6.525 -0.6133 -0.8322  0.2132
 1397SOL    HW215651   1.524   3.446   6.622 -1.9718 -0.9000 -0.6284
 1398SOL     OW15652   4.290   0.833  14.249 -0.0588 -0.1950 -0.3689
 1398SOL    HW115653   4.302   0.809  14.341  1.6472 -2.3849 -1.1872
 1398SOL    HW215654   4.360   0.896  14.232 -0.8680  1.1570  1.2505
 1399SOL     OW15655   2.739   2.946   6.609 -0.1446 -0.7160  0.0846
 1399SOL    HW115656   2.710   2.860   6.580 -0.0848 -1.1609  1.3252
 1399SOL    HW215657   2.811   2.970   6.551 -1.6936  0.3325 -1.4500
 1400SOL     OW15658   2.795   0.047   8.519 -0.0384  0.2241  0.0268
 1400SOL    HW115659   2.859   0.077   8.455 -0.0802  2.3933  1.0250
 1400SOL    HW215660   2.835   4.689   8.553  0.9701  0.8946  0.4354
 1401SOL     OW15661   4.265   1.875   1.638  0.7212  0.2194  0.0699
 1401SOL    HW115662   4.191   1.901   1.693 -1.9842 -1.6614 -2.6678
 1401SOL    HW215663   4.256   1.935   1.564 -3.1858  0.1049  0.4503
 1402SOL     OW15664   2.836   1.759   8.130  0.0764  0.1034 -0.2537
 1402SOL    HW115665   2.811   1.674   8.093  0.3802 -0.5342  1.0113
 1402SOL    HW215666   2.774   1.776   8.200 -0.6044 -0.8049 -0.6292
 1403SOL     OW15667   2.424   2.088   6.423 -0.3790 -0.5573  0.0864
 1403SOL    HW115668   2.330   2.104   6.420 -0.2677 -0.2136 -1.7130
 1403SOL    HW215669   2.454   2.142   6.350 -3.0487  0.1526 -0.4712
 1404SOL     OW15670   3.275   2.727  16.945  0.6007  0.6932  0.1348
 1404SOL    HW115671   3.282   2.635  16.923 -1.6713 -0.0599  2.5719
 1404SOL    HW215672   3.247   2.746  16.855 -0.8609  0.1829  0.4819
 1405SOL     OW15673   2.785   4.458   4.277 -0.6138  0.2485  0.1225
 1405SOL    HW115674   2.695   4.441   4.305 -1.1849  1.6609 -0.8351
 1405SOL    HW215675   2.827   4.419   4.353  1.2631  0.9943 -0.5381
 1406SOL     OW15676   3.979   4.169  12.410 -0.0035  0.1911  0.1926
 1406SOL    HW115677   3.912   4.127  12.357  1.4930 -0.2273 -1.3444
 1406SOL    HW215678   4.043   4.099  12.425  0.9177  0.5654 -2.0132
 1407SOL     OW15679   3.260   1.253   2.144  0.1026  0.2939 -0.1349
 1407SOL    HW115680   3.265   1.277   2.052  2.9199  0.0987 -0.0315
 1407SOL    HW215681   3.171   1.218   2.137  0.6945 -0.8014 -2.0344
 1408SOL     OW15682   0.194   0.892   2.557 -0.3940  0.0564 -0.4384
 1408SOL    HW115683   0.111   0.883   2.510 -0.3889 -0.1178 -0.4165
 1408SOL    HW215684   0.212   0.985   2.549 -0.0887  0.0045 -0.3527
 1409SOL     OW15685   1.909   2.260   6.523  0.1507 -0.0332  0.1122
 1409SOL    HW115686   1.828   2.239   6.475 -1.1376  0.0589  2.2655
 1409SOL    HW215687   1.897   2.354   6.541 -1.4128  0.0117 -1.1222
 1410SOL     OW15688   3.500   2.399  16.431  0.4633  0.4224  0.2626
 1410SOL    HW115689   3.456   2.462  16.374 -0.4159  0.2869  0.7820
 1410SOL    HW215690   3.428   2.390  16.494 -0.0548  0.6661 -0.2926
 1411SOL     OW15691   4.696   0.387  14.996 -0.3383 -0.2494 -0.3462
 1411SOL    HW115692   4.609   0.416  15.025  0.0924  0.6115  0.0865
 1411SOL    HW215693   4.691   0.428  14.910 -1.2795  0.5511  0.0761
 1412SOL     OW15694   4.131   4.655   4.708 -0.1755  0.1423 -0.3289
 1412SOL    HW115695   4.209   4.604   4.732 -0.8065 -0.7706 -0.2067
 1412SOL    HW215696   4.158   4.706   4.632 -2.0413  0.5423 -0.7178
 1413SOL     OW15697   4.421   2.121  13.246 -0.3855 -0.3924  0.1488
 1413SOL    HW115698   4.513   2.100  13.263 -0.2300 -0.4144 -0.6997
 1413SOL    HW215699   4.395   2.170  13.324 -1.5851 -1.5526  0.4756
 1414SOL     OW15700   2.787   3.349   3.388 -0.4342 -0.4231 -0.5249
 1414SOL    HW115701   2.726   3.284   3.353 -3.6236  1.0541  2.2630
 1414SOL    HW215702   2.823   3.309   3.467 -3.3161 -0.0887  0.9457
 1415SOL     OW15703   4.277   1.249   7.760 -0.0972 -0.6159 -0.0112
 1415SOL    HW115704   4.334   1.191   7.811 -0.9431 -0.0334  1.6039
 1415SOL    HW215705   4.239   1.185   7.700  0.8901 -1.2319  0.0066
 1416SOL     OW15706   2.747   2.206   0.911 -0.6490  0.2186  0.3312
 1416SOL    HW115707   2.800   2.214   0.990  0.0969  1.7489 -0.3321
 1416SOL    HW215708   2.676   2.150   0.944  0.5080 -2.2031 -1.3196
 1417SOL     OW15709   3.655   2.774  16.885 -0.0816  0.1362 -0.2925
 1417SOL    HW115710   3.648   2.721  16.806 -0.5170  0.0912 -0.2248
 1417SOL    HW215711   3.568   2.766  16.924 -0.4192  1.8797 -0.6956
 1418SOL     OW15712   3.044   2.132   9.150  0.5195  0.0348 -0.1130
 1418SOL    HW115713   3.038   2.089   9.236  0.1676 -0.2621 -0.2877
 1418SOL    HW215714   2.954   2.136   9.118  0.2797  0.6485  0.6200
 1419SOL     OW15715   2.814   3.335  14.262 -0.5077  0.2585 -0.2275
 1419SOL    HW115716   2.830   3.412  14.318  0.4249  0.2611 -0.4873
 1419SOL    HW215717   2.830   3.371  14.175 -0.4803 -0.2393 -0.4251
 1420SOL     OW15718   1.152   3.127   6.080  0.3105 -0.3803 -0.1238
 1420SOL    HW115719   1.180   3.037   6.097  0.2506 -0.6952 -1.6416
 1420SOL    HW215720   1.080   3.108   6.020  0.3121 -1.4009  0.2019
 1421SOL     OW15721   2.189   2.447  12.380  0.0335 -0.5843 -0.4992
 1421SOL    HW115722   2.195   2.412  12.469  0.8619 -1.0212 -0.7286
 1421SOL    HW215723   2.195   2.541  12.396  1.9268 -1.0802  1.6618
 1422SOL     OW15724   4.663   3.498   5.491 -0.1038 -0.2224 -0.3689
 1422SOL    HW115725   4.622   3.553   5.557 -1.0330 -0.3171 -0.8666
 1422SOL    HW215726   0.030   3.500   5.524  0.2009  0.3362 -1.2136
 1423SOL     OW15727   2.120   0.026  17.471 -0.2854  0.3393 -0.5518
 1423SOL    HW115728   2.047   0.077  17.504 -0.6682  1.1473 -2.6396
 1423SOL    HW215729   2.113   4.673  17.529 -0.1960  0.5176 -0.3080
 1424SOL     OW15730   1.151   3.277   5.468 -0.3701  0.0409  0.1147
 1424SOL    HW115731   1.062   3.310   5.481 -0.7814 -0.7956 -0.5595
 1424SOL    HW215732   1.171   3.237   5.552  0.1998  3.2067  1.4823
 1425SOL     OW15733   0.853   4.036   3.224  0.2126 -0.1419  0.0913
 1425SOL    HW115734   0.876   4.085   3.302  0.3366  0.5306 -0.3711
 1425SOL    HW215735   0.938   4.001   3.195  0.1956  0.4526 -0.6545
 1426SOL     OW15736   0.904   1.053   9.884  0.5446  0.7037  0.1591
 1426SOL    HW115737   0.876   1.042   9.975 -0.5576  0.1335 -0.2460
 1426SOL    HW215738   0.913   0.965   9.849 -3.5622  1.0922 -1.8667
 1427SOL     OW15739   2.642   0.270   4.719  0.4649  0.2314  0.0532
 1427SOL    HW115740   2.666   0.201   4.781  2.2258 -0.0909 -1.0061
 1427SOL    HW215741   2.643   0.342   4.783 -2.1629  0.4122 -0.0870
 1428SOL     OW15742   2.577   0.441   4.930  0.0152 -0.3152  0.0420
 1428SOL    HW115743   2.610   0.529   4.913 -0.4565 -0.0758  0.3676
 1428SOL    HW215744   2.526   0.467   5.007  0.5934 -4.4000  1.8091
 1429SOL     OW15745   0.803   2.878   8.459 -0.1139  0.3799 -0.0814
 1429SOL    HW115746   0.726   2.919   8.498  1.0526  1.8111  0.7294
 1429SOL    HW215747   0.876   2.924   8.500 -0.9187  0.4772  1.2607
 1430SOL     OW15748   4.704   3.606   0.159 -0.3291 -0.6734  0.3655
 1430SOL    HW115749   4.632   3.659   0.123  0.5341 -0.4895 -1.0799
 1430SOL    HW215750   0.001   3.644   0.245  0.4940  1.6204 -0.8200
 1431SOL     OW15751   0.758   4.721  15.313 -0.1614  0.7392  0.0294
 1431SOL    HW115752   0.783   0.031  15.400  0.7058 -1.1961  0.5079
 1431SOL    HW215753   0.663   4.708  15.315 -0.0717  0.4442  3.0784
 1432SOL     OW15754   2.519   3.156   2.115  0.3336  0.6745 -0.5231
 1432SOL    HW115755   2.569   3.090   2.162  0.9558  1.9622  0.6088
 1432SOL    HW215756   2.581   3.229   2.114  0.4298  0.5893 -0.7258
 1433SOL     OW15757   1.989   0.121   8.626  0.3866  0.1378  0.2180
 1433SOL    HW115758   1.980   0.216   8.627 -0.3475  0.0828 -0.9872
 1433SOL    HW215759   2.084   0.117   8.623  0.3964 -0.7216  1.3531
 1434SOL     OW15760   2.778   2.705  13.947 -0.3791  0.4815  0.0334
 1434SOL    HW115761   2.729   2.769  13.999 -2.3861 -0.6630 -0.4721
 1434SOL    HW215762   2.750   2.725  13.858 -0.7282 -1.4534 -0.2901
 1435SOL     OW15763   4.694   3.490   4.130  0.5467  0.1253 -0.0059
 1435SOL    HW115764   4.677   3.460   4.041 -0.3628  0.1088  0.1740
 1435SOL    HW215765   4.616   3.447   4.165  1.0094  0.1465  1.0673
 1436SOL     OW15766   2.457   3.206   7.776  0.1691 -0.2481 -0.3112
 1436SOL    HW115767   2.400   3.193   7.852 -2.5342 -2.5928 -2.7627
 1436SOL    HW215768   2.506   3.124   7.766  0.0439 -0.5535  1.5300
 1437SOL     OW15769   1.948   1.503  17.229  0.5641  0.7906 -0.0753
 1437SOL    HW115770   1.897   1.562  17.284  1.9458 -0.0983  2.1583
 1437SOL    HW215771   1.888   1.502  17.155  0.3800  0.1691  0.0771
 1438SOL     OW15772   0.066   3.089   1.859  0.2621 -0.0999 -0.7847
 1438SOL    HW115773   0.032   3.011   1.815 -1.8929 -0.4774  1.5036
 1438SOL    HW215774   0.101   3.051   1.940  0.0366  2.2593  0.4242
 1439SOL     OW15775   1.626   3.188   4.858  0.4214  0.0189  0.1171
 1439SOL    HW115776   1.670   3.120   4.806 -1.2060 -0.5710 -0.4920
 1439SOL    HW215777   1.541   3.197   4.814  1.2278  1.1369 -1.2071
 1440SOL     OW15778   2.258   0.696  13.619  0.2431 -0.1331  0.0899
 1440SOL    HW115779   2.301   0.677  13.535 -0.2128 -0.2474 -0.1151
 1440SOL    HW215780   2.327   0.671  13.681 -0.0135  0.9040  0.7818
 1441SOL     OW15781   1.461   1.766  11.438 -0.4911 -0.5118 -0.4732
 1441SOL    HW115782   1.473   1.671  11.435 -0.1624 -0.4199 -2.2269
 1441SOL    HW215783   1.554   1.787  11.444 -0.6188  0.0700 -0.5287
 1442SOL     OW15784   2.381   0.662   4.624 -0.4420  0.0364  0.2325
 1442SOL    HW115785   2.335   0.648   4.542  0.1051 -0.1545 -0.0392
 1442SOL    HW215786   2.472   0.646   4.599 -0.2011 -1.2376  1.8877
 1443SOL     OW15787   3.345   0.417   1.650  0.0517  0.4954 -0.5124
 1443SOL    HW115788   3.294   0.365   1.712  2.2738 -0.6962  0.3081
 1443SOL    HW215789   3.276   0.428   1.585 -0.4471  0.4551  0.0014
 1444SOL     OW15790   3.675   1.679   7.022 -0.2979  0.4852 -0.1136
 1444SOL    HW115791   3.587   1.709   6.997 -1.1624  0.6758  3.1156
 1444SOL    HW215792   3.700   1.613   6.958 -2.7335 -0.7507  0.2130
 1445SOL     OW15793   1.523   2.835   5.891  0.5663  0.1725 -0.7381
 1445SOL    HW115794   1.482   2.752   5.917  1.6498  0.1239  0.7856
 1445SOL    HW215795   1.542   2.815   5.799  0.2936 -0.9596 -0.5514
 1446SOL     OW15796   2.895   1.287   8.782 -0.0537  0.2925  0.0938
 1446SOL    HW115797   2.839   1.257   8.711  2.1918 -1.5095 -0.9118
 1446SOL    HW215798   2.844   1.353   8.829 -2.4900 -1.6541  0.1911
 1447SOL     OW15799   4.282   4.514   7.904 -0.0533  0.1152  0.1155
 1447SOL    HW115800   4.330   4.591   7.876 -0.6318  0.9527  1.4188
 1447SOL    HW215801   4.321   4.449   7.845  0.4164  1.5109 -1.1076
 1448SOL     OW15802   3.324   4.434  10.345 -0.5064  0.3798 -0.1569
 1448SOL    HW115803   3.342   4.456  10.253 -0.2990  0.1044 -0.1808
 1448SOL    HW215804   3.401   4.467  10.389 -0.4021  0.2350 -0.2315
 1449SOL     OW15805   1.742   2.970   2.789 -0.6592 -0.5898  0.6299
 1449SOL    HW115806   1.747   2.940   2.699 -1.2728 -0.4956  0.5657
 1449SOL    HW215807   1.782   3.056   2.780 -0.2443 -0.8313  0.1405
 1450SOL     OW15808   2.843   3.160   5.454 -0.0015  0.4963 -0.0065
 1450SOL    HW115809   2.909   3.127   5.393 -1.5530  3.7274 -3.4438
 1450SOL    HW215810   2.897   3.173   5.533  0.9960 -2.2759 -0.2351
 1451SOL     OW15811   0.854   4.250   1.300  0.0501  0.2368  0.1714
 1451SOL    HW115812   0.861   4.343   1.278 -1.6799  0.3168 -0.0616
 1451SOL    HW215813   0.903   4.267   1.380  2.7384 -0.2240 -1.3952
 1452SOL     OW15814   2.558   1.681   6.515  0.0933  0.8402 -0.0556
 1452SOL    HW115815   2.639   1.710   6.557 -0.6591  2.2664  0.4050
 1452SOL    HW215816   2.595   1.615   6.456  1.3249 -0.9219  2.7055
 1453SOL     OW15817   1.758   2.364   8.679 -0.4959 -0.4642  0.0505
 1453SOL    HW115818   1.829   2.340   8.738  1.0395  0.0374 -1.5713
 1453SOL    HW215819   1.693   2.386   8.745  1.7329  0.9815  1.7847
 1454SOL     OW15820   0.576   4.320  10.401 -0.4819 -0.3321  0.3121
 1454SOL    HW115821   0.495   4.364  10.379 -0.1998  1.1245  2.1751
 1454SOL    HW215822   0.569   4.228  10.373  2.5097  0.0609 -1.7743
 1455SOL     OW15823   0.341   1.653   1.662 -0.5365 -0.0061 -0.3274
 1455SOL    HW115824   0.342   1.719   1.732 -0.6928 -0.5232  0.1646
 1455SOL    HW215825   0.359   1.578   1.718  2.3999  0.9200 -0.0172
 1456SOL     OW15826   0.266   3.784  14.806 -0.2082 -0.2621 -0.2033
 1456SOL    HW115827   0.243   3.853  14.869  1.1610 -1.0870  1.1978
 1456SOL    HW215828   0.176   3.757  14.788 -0.9943  2.3531 -0.1951
 1457SOL     OW15829   4.202   3.747   8.301  0.4102  0.0384  0.4931
 1457SOL    HW115830   4.153   3.830   8.305  0.8838  0.2426  2.0183
 1457SOL    HW215831   4.201   3.732   8.396 -1.0205 -0.0222  0.4759
 1458SOL     OW15832   2.707   2.549   6.696 -0.0139 -0.1578 -0.1344
 1458SOL    HW115833   2.627   2.585   6.733 -0.8917 -1.7909 -0.4588
 1458SOL    HW215834   2.677   2.503   6.618 -3.2921 -1.6071  1.9811
 1459SOL     OW15835   2.590   3.167   8.054 -0.0610  0.2913 -0.4187
 1459SOL    HW115836   2.608   3.173   8.148  0.6803 -2.6821 -0.3652
 1459SOL    HW215837   2.677   3.139   8.025 -0.5813  0.5878 -2.2970
 1460SOL     OW15838   3.368   0.118  16.162  0.0444 -0.1073  0.3735
 1460SOL    HW115839   3.384   0.107  16.256  0.6314  2.0034  0.5299
 1460SOL    HW215840   3.374   0.213  16.154  0.6261  0.0484  2.6567
 1461SOL     OW15841   1.810   3.604  16.656 -0.1839 -0.0417  0.0437
 1461SOL    HW115842   1.843   3.519  16.627 -0.9040 -0.6028  0.9054
 1461SOL    HW215843   1.790   3.575  16.744  0.0842 -0.5917 -0.0780
 1462SOL     OW15844   0.723   2.035   7.478 -0.2301 -0.2879  0.4564
 1462SOL    HW115845   0.667   1.987   7.539  0.3268 -1.7227 -0.1464
 1462SOL    HW215846   0.661   2.072   7.415 -1.9160 -2.9209  0.5739
 1463SOL     OW15847   3.145   2.477   6.015  0.0085 -0.0299 -0.1283
 1463SOL    HW115848   3.121   2.535   6.088  0.7354 -2.5608  2.1393
 1463SOL    HW215849   3.235   2.449   6.032  0.1946  0.3457 -0.4937
 1464SOL     OW15850   0.975   1.183   6.255  0.3370 -0.5368 -0.1734
 1464SOL    HW115851   1.028   1.250   6.212  1.5866 -2.0745 -1.0153
 1464SOL    HW215852   0.978   1.223   6.342 -1.3040  0.7276 -0.6900
 1465SOL     OW15853   1.034   0.635  14.426 -0.3327  0.3146  0.3693
 1465SOL    HW115854   1.064   0.552  14.462 -2.7420 -0.7360 -0.0612
 1465SOL    HW215855   1.104   0.695  14.451 -0.4123  1.2799 -1.7116
 1466SOL     OW15856   1.971   2.758  10.010 -0.7708  0.0278 -0.3292
 1466SOL    HW115857   2.051   2.761  10.062  0.0725 -0.7963 -1.5715
 1466SOL    HW215858   1.930   2.684  10.054 -1.0989  0.3102 -0.1581
 1467SOL     OW15859   0.054   2.635  13.304  0.7894 -0.6602 -0.3677
 1467SOL    HW115860   0.104   2.599  13.377 -0.0792  0.5758  0.8452
 1467SOL    HW215861   4.715   2.564  13.284 -0.8930  0.3993  1.0072
 1468SOL     OW15862   0.802   4.665   6.399  0.3868 -0.3203  0.4045
 1468SOL    HW115863   0.727   4.639   6.345  2.6420 -1.3551 -2.2722
 1468SOL    HW215864   0.838   0.018   6.352  0.4040  0.1604  1.1917
 1469SOL     OW15865   3.053   1.903   9.332 -0.0483  0.1144 -0.6492
 1469SOL    HW115866   3.090   1.872   9.249 -1.6141  0.2516 -1.4134
 1469SOL    HW215867   3.072   1.833   9.394 -0.6444  1.8214  1.4415
 1470SOL     OW15868   1.460   2.090  16.708  0.0728  0.1517  0.0322
 1470SOL    HW115869   1.406   2.164  16.735 -0.7720 -0.2726 -0.4996
 1470SOL    HW215870   1.507   2.064  16.787 -0.9440 -2.4917 -0.2064
 1471SOL     OW15871   0.268   3.664  10.310  0.0822 -0.4451 -0.2253
 1471SOL    HW115872   0.285   3.687  10.402 -2.6934 -1.0873  0.4481
 1471SOL    HW215873   0.330   3.729  10.277 -2.4302  1.6967 -0.7751
 1472SOL     OW15874   0.875   0.694   4.762 -0.0590 -0.1713  0.0137
 1472SOL    HW115875   0.855   0.699   4.855  2.8550  0.3591  0.5920
 1472SOL    HW215876   0.872   0.600   4.744 -1.9890 -0.3257  1.1054
 1473SOL     OW15877   2.120   2.024   5.683 -0.5228  0.0400 -0.3707
 1473SOL    HW115878   2.035   1.996   5.716 -1.2801  3.3659  0.5055
 1473SOL    HW215879   2.084   2.096   5.632  0.7345  0.7362 -0.2682
 1474SOL     OW15880   0.002   4.418   4.274 -0.8340 -0.1468  0.6265
 1474SOL    HW115881   4.721   4.492   4.334 -0.8987  1.6942 -1.6331
 1474SOL    HW215882   4.641   4.382   4.304 -1.3155 -0.2413 -0.8403
 1475SOL     OW15883   2.255   4.145  13.186 -0.3969  0.6793  0.0130
 1475SOL    HW115884   2.241   4.149  13.280  0.2382 -2.1048  0.2264
 1475SOL    HW215885   2.163   4.128  13.165 -0.5430  1.4826  0.0023
 1476SOL     OW15886   0.241   0.882   9.809  0.4917  0.1371 -0.5720
 1476SOL    HW115887   0.203   0.946   9.868 -0.0714  0.5188 -1.3460
 1476SOL    HW215888   0.326   0.893   9.851 -0.8354  3.0508  1.3440
 1477SOL     OW15889   0.167   3.710   3.772  0.0932 -0.3196 -0.5031
 1477SOL    HW115890   0.155   3.769   3.698 -2.0325 -0.7896 -0.5160
 1477SOL    HW215891   0.190   3.769   3.844 -4.8390  0.1496  0.6267
 1478SOL     OW15892   0.099   1.618   4.783  0.3216 -0.0954 -0.0262
 1478SOL    HW115893   0.021   1.651   4.829  0.0882 -0.1661 -0.3755
 1478SOL    HW215894   0.052   1.601   4.702  1.8997 -2.4176 -0.4471
 1479SOL     OW15895   3.736   0.451   8.532 -0.0491 -0.0090  0.4930
 1479SOL    HW115896   3.765   0.526   8.583  1.0644 -0.5120  0.6090
 1479SOL    HW215897   3.817   0.400   8.527 -0.5424 -0.8181  0.6435
 1480SOL     OW15898   2.851   4.302  11.305 -0.8934 -0.2865  0.0457
 1480SOL    HW115899   2.847   4.393  11.275  0.8400 -0.8379 -1.8574
 1480SOL    HW215900   2.847   4.309  11.400 -0.0018  0.5334  0.0215
 1481SOL     OW15901   1.156   3.664   5.633 -0.2766  0.1444  0.1259
 1481SOL    HW115902   1.158   3.624   5.720 -0.5505  0.2296  0.1712
 1481SOL    HW215903   1.123   3.748   5.663 -0.2902  0.2241 -0.1164
 1482SOL     OW15904   0.750   0.352   5.453 -1.0701 -0.0062  0.2016
 1482SOL    HW115905   0.825   0.323   5.506 -1.8066  0.5462  1.5532
 1482SOL    HW215906   0.794   0.407   5.388 -1.2641 -2.4591 -1.9821
 1483SOL     OW15907   1.987   1.070  13.310  0.8209 -0.2834  0.2677
 1483SOL    HW115908   2.066   1.123  13.302  1.3681 -0.8000  2.0436
 1483SOL    HW215909   2.002   0.984  13.271  0.2916 -0.0216 -0.4890
 1484SOL     OW15910   1.535   2.327   3.508 -0.0317 -0.1235 -0.4427
 1484SOL    HW115911   1.564   2.322   3.599 -1.5717  1.2441  0.1413
 1484SOL    HW215912   1.503   2.417   3.508  0.0747 -0.0863 -0.4061
 1485SOL     OW15913   3.074   1.864   4.437  0.3887 -0.3016 -0.2249
 1485SOL    HW115914   3.055   1.944   4.488  0.2198  0.7267 -1.9141
 1485SOL    HW215915   3.135   1.821   4.497 -0.7461 -0.8501  0.5479
 1486SOL     OW15916   2.011   3.704  13.678 -0.3951  0.2204  0.1943
 1486SOL    HW115917   1.954   3.635  13.643  0.1066  0.1937 -0.5646
 1486SOL    HW215918   2.054   3.661  13.752 -0.5051  0.7311  0.5514
 1487SOL     OW15919   1.886   1.002  13.575  0.1527  0.3548 -0.0231
 1487SOL    HW115920   1.944   1.028  13.648  0.8374  1.2299 -0.8707
 1487SOL    HW215921   1.946   1.031  13.507  0.1375  0.4176 -0.0099
 1488SOL     OW15922   0.533   3.000   8.486 -0.1570  0.0473 -0.1792
 1488SOL    HW115923   0.527   3.014   8.580 -1.5514  0.2831 -0.2958
 1488SOL    HW215924   0.536   3.095   8.470  0.8041  0.4614  2.4614
 1489SOL     OW15925   2.053   1.547   5.121 -0.1947  0.4712 -0.0274
 1489SOL    HW115926   2.140   1.522   5.153 -0.3848  0.2448  0.3050
 1489SOL    HW215927   2.012   1.465   5.093  0.3286 -0.0518  0.7351
 1490SOL     OW15928   1.779   0.711   8.276  0.0626 -0.0764 -0.2321
 1490SOL    HW115929   1.824   0.669   8.204  1.9812  3.0278 -0.8715
 1490SOL    HW215930   1.811   0.657   8.348  1.6960  0.3881 -0.6063
 1491SOL     OW15931   0.567   1.990   8.617  0.0473 -0.4069  0.5420
 1491SOL    HW115932   0.502   1.975   8.549  0.1417 -0.2046  0.4069
 1491SOL    HW215933   0.645   2.002   8.562 -0.0940 -0.2188  0.3798
 1492SOL     OW15934   4.140   3.591  16.570 -0.0551  0.5839  0.1236
 1492SOL    HW115935   4.115   3.503  16.544 -1.3408  1.7328 -2.5341
 1492SOL    HW215936   4.230   3.589  16.538 -0.0694  2.3525 -0.0639
 1493SOL     OW15937   1.434   1.133   1.687 -0.1180 -0.5504 -0.0055
 1493SOL    HW115938   1.391   1.085   1.616  1.2409  0.9178 -1.8186
 1493SOL    HW215939   1.476   1.194   1.626 -0.1213 -2.2017 -1.6733
 1494SOL     OW15940   0.471   3.326   9.920  0.0204  0.2421 -0.7169
 1494SOL    HW115941   0.457   3.352  10.011  0.5627 -2.7728  0.2375
 1494SOL    HW215942   0.410   3.384   9.874 -0.2330  0.6720  0.1610
 1495SOL     OW15943   0.821   1.452   4.315  0.9858  0.1941 -0.2573
 1495SOL    HW115944   0.835   1.384   4.381 -0.0862  1.3898  1.2119
 1495SOL    HW215945   0.884   1.517   4.349 -0.4529  1.7424 -0.5519
 1496SOL     OW15946   2.492   4.626   7.291 -0.0183  0.2630  0.2928
 1496SOL    HW115947   2.428   4.666   7.351 -0.7595  0.6730 -0.7725
 1496SOL    HW215948   2.571   4.643   7.343 -1.6650 -0.3640  2.9995
 1497SOL     OW15949   4.525   3.313  13.299 -0.1693  0.3079  0.5709
 1497SOL    HW115950   4.574   3.320  13.217  0.4287  1.0547  0.9888
 1497SOL    HW215951   4.575   3.242  13.340 -2.0984 -0.9562  0.7403
 1498SOL     OW15952   1.901   2.660  11.675 -0.2213 -0.6653  0.1848
 1498SOL    HW115953   1.914   2.626  11.763 -0.5197  1.3757  1.0275
 1498SOL    HW215954   1.847   2.739  11.686 -0.3078 -0.4083 -2.0806
 1499SOL     OW15955   0.583   0.105   2.260 -0.3482 -0.2285 -0.0064
 1499SOL    HW115956   0.610   0.075   2.347 -0.1031  0.1869  0.0612
 1499SOL    HW215957   0.600   0.199   2.251  0.2073 -0.3542 -0.3203
 1500SOL     OW15958   3.916   3.904   7.682  0.0302  0.1212  0.0715
 1500SOL    HW115959   3.946   3.995   7.685  1.4367 -0.2782 -1.3952
 1500SOL    HW215960   3.970   3.869   7.752 -0.3533  0.1820  0.3983
 1501SOL     OW15961   1.965   3.925   2.519 -0.4948 -0.3032 -0.2940
 1501SOL    HW115962   1.965   3.988   2.447  1.9592  1.3058  1.0983
 1501SOL    HW215963   1.905   3.964   2.583  1.4793  0.1907  1.2351
 1502SOL     OW15964   4.063   2.147  15.363 -0.0082 -0.3293  0.2330
 1502SOL    HW115965   4.024   2.234  15.370  2.4616  0.6815  1.7676
 1502SOL    HW215966   4.122   2.166  15.436 -1.6156 -0.5241  1.5789
 1503SOL     OW15967   4.577   3.682   1.722 -0.2666  0.2200  0.1226
 1503SOL    HW115968   4.545   3.680   1.632 -0.4737  2.2769  0.1616
 1503SOL    HW215969   4.667   3.656   1.703  0.1399  2.4193 -0.8483
 1504SOL     OW15970   1.482   2.312  12.120  0.4285  0.0680 -0.5496
 1504SOL    HW115971   1.487   2.256  12.197  1.6406 -1.6892 -1.9067
 1504SOL    HW215972   1.440   2.260  12.051  2.0444 -0.3435 -1.2155
 1505SOL     OW15973   3.158   2.250   0.324  0.5228  0.6823 -0.7791
 1505SOL    HW115974   3.131   2.225   0.413 -1.3181  0.9902 -1.2615
 1505SOL    HW215975   3.080   2.284   0.282  0.0725 -0.5614 -0.9556
 1506SOL     OW15976   2.621   1.217  11.160  0.0430 -0.2370 -0.3518
 1506SOL    HW115977   2.598   1.290  11.218  2.0588  0.4031 -0.3598
 1506SOL    HW215978   2.617   1.140  11.216  0.4724 -0.5292 -0.7321
 1507SOL     OW15979   1.274   0.999  11.091 -0.0290  0.3122 -0.2312
 1507SOL    HW115980   1.362   1.012  11.126 -0.9056  0.4990  1.9379
 1507SOL    HW215981   1.281   1.039  11.005 -0.4405 -1.0937 -0.9144
 1508SOL     OW15982   3.541   3.933  12.091 -0.2934 -0.4627  0.5066
 1508SOL    HW115983   3.452   3.897  12.093 -0.3353 -0.4036 -0.2964
 1508SOL    HW215984   3.552   3.901  12.180 -0.1361 -0.9639  0.3072
 1509SOL     OW15985   3.665   1.542   2.629  0.6897  0.0570 -0.0013
 1509SOL    HW115986   3.697   1.471   2.574  1.5658 -1.5115  2.5164
 1509SOL    HW215987   3.675   1.504   2.717  1.4051 -0.5835 -0.3650
 1510SOL     OW15988   1.758   1.013   2.531  0.1998 -0.1524 -0.0408
 1510SOL    HW115989   1.689   1.079   2.529  0.7362  0.4294  0.5568
 1510SOL    HW215990   1.763   0.998   2.437  2.6337 -0.2582  0.0900
 1511SOL     OW15991   2.416   1.742   0.782  0.1288 -0.4724  0.4437
 1511SOL    HW115992   2.460   1.826   0.794 -3.3363  1.4576 -0.3785
 1511SOL    HW215993   2.470   1.698   0.716 -0.1275 -0.3575  0.1576
 1512SOL     OW15994   1.949   0.134  12.055 -0.3210  0.0289  0.2180
 1512SOL    HW115995   2.019   0.199  12.054  0.4826 -0.8849 -2.5860
 1512SOL    HW215996   1.890   0.163  11.986 -1.4429  1.1809  1.6580
 1513SOL     OW15997   3.738   1.721   8.499  0.6913  0.2389 -0.3868
 1513SOL    HW115998   3.645   1.732   8.480  0.3487 -0.6861  0.8014
 1513SOL    HW215999   3.778   1.807   8.484 -0.5562  0.8641 -0.1476
 1514SOL     OW16000   3.434   3.674  15.412 -0.2972 -0.2564 -0.1875
 1514SOL    HW116001   3.483   3.698  15.334 -0.3666 -3.0225 -1.0813
 1514SOL    HW216002   3.489   3.608  15.454  2.6366  1.9698 -0.5727
 1515SOL     OW16003   2.952   1.006   3.857 -0.5874 -0.0342 -0.5382
 1515SOL    HW116004   2.882   1.033   3.917 -0.4132 -1.2625  0.2112
 1515SOL    HW216005   3.010   1.082   3.866 -1.1673  0.4239 -0.6012
 1516SOL     OW16006   4.672   1.768   2.703  0.7916 -0.0866  0.1564
 1516SOL    HW116007   4.629   1.745   2.621 -1.1421 -0.5239  1.2915
 1516SOL    HW216008   4.706   1.683   2.733  1.6812  0.0396 -0.5157
 1517SOL     OW16009   3.995   0.506   3.313  0.1586  0.2059  0.3602
 1517SOL    HW116010   3.957   0.420   3.296  1.1694 -0.1980  0.1568
 1517SOL    HW216011   3.908   0.546   3.311 -0.0736 -0.3049  0.2855
 1518SOL     OW16012   4.580   2.161   8.308  0.5482 -0.6039  0.1731
 1518SOL    HW116013   4.548   2.087   8.360  2.6838 -1.1871  0.6398
 1518SOL    HW216014   4.650   2.195   8.364  1.2080 -1.7780  0.0544
 1519SOL     OW16015   3.185   3.934   9.007  0.4868  0.3367 -0.0951
 1519SOL    HW116016   3.263   3.963   8.961  1.0308  0.9246  1.2155
 1519SOL    HW216017   3.196   3.987   9.086  0.3702  0.4455 -0.1528
 1520SOL     OW16018   1.791   0.344   7.493 -0.0953  0.0439 -0.3812
 1520SOL    HW116019   1.720   0.344   7.428 -1.2366  1.0286  0.8718
 1520SOL    HW216020   1.778   0.254   7.525  0.4904 -0.5409 -1.8067
 1521SOL     OW16021   0.732   1.875   6.644  0.0795  0.2392  0.2615
 1521SOL    HW116022   0.805   1.830   6.602 -0.8981 -0.7126 -0.4123
 1521SOL    HW216023   0.775   1.949   6.687  0.9100 -0.1588  0.1032
 1522SOL     OW16024   3.584   0.001   7.692 -0.2205  0.2394  0.6852
 1522SOL    HW116025   3.516   4.680   7.743  0.8647 -0.1883  1.7517
 1522SOL    HW216026   3.570   0.091   7.722 -0.3698  0.3045  0.4232
 1523SOL     OW16027   1.004   1.680   7.166  0.2580 -0.0071 -0.2480
 1523SOL    HW116028   0.935   1.741   7.138  1.1904  1.3967  0.5365
 1523SOL    HW216029   1.017   1.634   7.083 -0.6549 -1.7131  0.5403
 1524SOL     OW16030   2.242   1.795  13.292  0.2104 -0.7504 -0.1012
 1524SOL    HW116031   2.320   1.740  13.296  1.3195  0.7505 -0.9949
 1524SOL    HW216032   2.287   1.879  13.277  0.6344 -0.6537  1.7785
 1525SOL     OW16033   1.344   4.008   4.105 -0.2238  0.5893  0.0668
 1525SOL    HW116034   1.321   4.037   4.016 -1.6838 -1.4221 -0.1991
 1525SOL    HW216035   1.426   3.960   4.094 -1.3998 -0.9925 -1.9358
 1526SOL     OW16036   2.856   2.825   8.403 -0.1746  0.8287  0.0221
 1526SOL    HW116037   2.914   2.751   8.385  1.0739  1.8526 -0.1610
 1526SOL    HW216038   2.843   2.838   8.497  3.2614  1.7140  0.3722
 1527SOL     OW16039   0.492   3.696   3.612  0.6742 -0.5505 -0.3309
 1527SOL    HW116040   0.529   3.782   3.632 -1.3204  0.2335 -0.0195
 1527SOL    HW216041   0.504   3.694   3.517  1.0985 -1.6470 -0.2538
 1528SOL     OW16042   1.441   0.573  12.286  0.1550 -0.6191 -0.2898
 1528SOL    HW116043   1.405   0.657  12.315 -0.8761 -0.9795 -0.5104
 1528SOL    HW216044   1.460   0.573  12.192  2.4405  4.0623  0.1638
 1529SOL     OW16045   4.677   1.366   8.346 -0.2897  0.4713 -0.5039
 1529SOL    HW116046   4.606   1.324   8.298  0.7637 -1.4510 -0.3604
 1529SOL    HW216047   4.640   1.449   8.378  2.7322  1.4346  0.4667
 1530SOL     OW16048   3.913   4.043   4.868 -0.1090 -0.0739 -0.0677
 1530SOL    HW116049   3.900   4.060   4.775 -0.0045 -0.0376 -0.0751
 1530SOL    HW216050   3.891   3.950   4.872 -2.0732  0.4120  0.9047
 1531SOL     OW16051   3.685   0.086  14.218 -0.2701  0.2608 -0.4486
 1531SOL    HW116052   3.678   0.039  14.301 -0.3687 -1.2040 -1.3070
 1531SOL    HW216053   3.592   0.104  14.201  0.1616  2.2331 -0.7961
 1532SOL     OW16054   2.706   3.925   4.606  0.0773 -0.1984  0.0468
 1532SOL    HW116055   2.714   3.860   4.537 -1.3030  0.9868 -1.2166
 1532SOL    HW216056   2.794   3.912   4.643 -1.0400 -4.0869  1.3290
 1533SOL     OW16057   3.762   1.907  16.973  0.2828 -0.4969  0.0518
 1533SOL    HW116058   3.853   1.876  16.963  0.6419  0.5137  0.2462
 1533SOL    HW216059   3.773   1.967  17.046  1.6347  1.0592 -1.4194
 1534SOL     OW16060   3.416   3.444   5.233 -0.2484  0.0480 -0.2153
 1534SOL    HW116061   3.354   3.372   5.218 -1.1746  0.9496 -0.6940
 1534SOL    HW216062   3.359   3.500   5.287  1.8831  1.1998  0.8112
 1535SOL     OW16063   1.032   1.610   3.745  0.3444  0.1283  0.1426
 1535SOL    HW116064   1.081   1.527   3.749  0.2072  0.0953  1.0743
 1535SOL    HW216065   1.100   1.676   3.753  0.0394  0.4712 -0.1106
 1536SOL     OW16066   1.457   1.214   7.883  0.0528 -0.4010  0.5269
 1536SOL    HW116067   1.430   1.232   7.793  0.5121  0.2137  0.5110
 1536SOL    HW216068   1.487   1.124   7.869 -0.8952 -1.2746  4.2154
 1537SOL     OW16069   2.314   2.674   4.173 -0.5374 -0.4458  0.0197
 1537SOL    HW116070   2.355   2.700   4.256  1.3814 -0.1626 -1.0130
 1537SOL    HW216071   2.372   2.730   4.122  0.1015 -1.0206  0.1180
 1538SOL     OW16072   3.694   4.266   6.791 -0.0255 -0.5235  0.0544
 1538SOL    HW116073   3.692   4.172   6.777 -0.9803 -0.4000 -0.6553
 1538SOL    HW216074   3.650   4.299   6.712 -0.1103 -0.2703  0.2078
 1539SOL     OW16075   0.185   2.744  10.347  0.2510 -0.2837 -0.0899
 1539SOL    HW116076   0.230   2.776  10.269 -2.3310  3.1490 -0.1801
 1539SOL    HW216077   0.241   2.783  10.414  0.3878 -0.9354  0.1779
 1540SOL     OW16078   2.744   1.372  11.513  0.2277 -0.1298 -0.4658
 1540SOL    HW116079   2.694   1.415  11.443  0.1297 -0.3438 -0.5250
 1540SOL    HW216080   2.832   1.370  11.475  0.4654  1.0189  0.0037
 1541SOL     OW16081   1.817   4.472   2.733  0.5270  0.1073 -0.3578
 1541SOL    HW116082   1.781   4.426   2.657 -0.7563 -0.3699  0.5486
 1541SOL    HW216083   1.793   4.562   2.709 -2.1437 -0.7449 -0.7815
 1542SOL     OW16084   4.350   3.472   3.112 -0.2862  0.1671 -0.1654
 1542SOL    HW116085   4.292   3.548   3.105 -0.5590 -0.0399 -0.1568
 1542SOL    HW216086   4.418   3.515   3.164 -0.0913 -0.3272 -0.0096
 1543SOL     OW16087   0.535   3.043   8.749 -0.0945 -0.0612 -0.0389
 1543SOL    HW116088   0.578   3.120   8.787  0.8721 -0.9279  0.6291
 1543SOL    HW216089   0.575   2.974   8.802 -0.1683  0.7865  1.1270
 1544SOL     OW16090   2.663   1.077   9.611  1.1589  0.0210 -0.9259
 1544SOL    HW116091   2.705   1.091   9.527  0.9259  2.6321 -0.5845
 1544SOL    HW216092   2.736   1.040   9.662  1.0083  1.5869  0.4307
 1545SOL     OW16093   2.930   2.104   7.550  0.2832  0.2541 -0.1418
 1545SOL    HW116094   2.983   2.179   7.524 -1.5356  1.4704 -0.3731
 1545SOL    HW216095   2.844   2.146   7.555 -0.0787 -0.6273  0.9375
 1546SOL     OW16096   0.495   3.793   7.889  0.0866 -0.0348  0.1121
 1546SOL    HW116097   0.575   3.793   7.836 -0.3571 -1.9291 -0.5612
 1546SOL    HW216098   0.435   3.744   7.832  1.6251 -1.2714 -0.4516
 1547SOL     OW16099   1.636   2.575   8.522  0.0496  0.1448 -0.4374
 1547SOL    HW116100   1.611   2.517   8.594  1.2567  0.0944 -0.0612
 1547SOL    HW216101   1.730   2.565   8.537  0.0659 -1.3042 -1.5196
 1548SOL     OW16102   1.220   3.681   4.365  0.0668  0.1607  0.1412
 1548SOL    HW116103   1.297   3.717   4.322 -0.0251 -1.6818 -1.5627
 1548SOL    HW216104   1.254   3.660   4.452  2.5703  2.0321 -0.3856
 1549SOL     OW16105   3.340   1.523   3.663 -0.1429 -0.4959 -0.3158
 1549SOL    HW116106   3.329   1.469   3.741 -0.5345  0.0127 -0.0177
 1549SOL    HW216107   3.291   1.599   3.694 -0.8794 -1.0044 -0.2209
 1550SOL     OW16108   4.609   2.899  10.001  0.1297 -0.1303 -0.0892
 1550SOL    HW116109   4.557   2.932   9.928 -1.1072 -0.2072  0.7510
 1550SOL    HW216110   4.545   2.832  10.026 -0.8389  0.8712  0.1388
 1551SOL     OW16111   4.065   1.426  15.145 -0.3197 -0.8696  0.0031
 1551SOL    HW116112   4.117   1.355  15.182 -0.9728 -1.3105  0.0905
 1551SOL    HW216113   3.979   1.390  15.167  0.3955 -1.3400  2.0538
 1552SOL     OW16114   4.696   4.277  11.213  0.0294  0.2791  0.4310
 1552SOL    HW116115   4.614   4.311  11.250 -1.0946 -2.6393  0.6313
 1552SOL    HW216116   4.693   4.186  11.241  1.2348 -0.3429 -1.4364
 1553SOL     OW16117   0.529   1.518   4.406  0.2120  0.2984 -0.0607
 1553SOL    HW116118   0.604   1.509   4.348  0.9398 -1.7789  1.2299
 1553SOL    HW216119   0.570   1.552   4.486 -2.5887  1.7708  0.7621
 1554SOL     OW16120   2.785   1.475  16.793  0.7368 -0.5275  0.1714
 1554SOL    HW116121   2.826   1.437  16.871 -0.5569 -2.6951 -0.2117
 1554SOL    HW216122   2.838   1.428  16.729  0.4604 -0.3107 -0.2135
 1555SOL     OW16123   2.183   0.029   0.119 -0.5422 -0.0621  0.1017
 1555SOL    HW116124   2.178   4.673   0.066 -0.3499 -0.1919  0.2786
 1555SOL    HW216125   2.093   0.062   0.116 -1.2404 -1.7672  2.8810
 1556SOL     OW16126   3.320   2.512   2.749  0.2124 -0.4479  0.2189
 1556SOL    HW116127   3.308   2.489   2.841  5.2159  1.1754  1.3104
 1556SOL    HW216128   3.275   2.596   2.742  1.8097  0.2350 -2.1783
 1557SOL     OW16129   0.829   1.185   0.953 -0.7996 -0.2905 -0.5533
 1557SOL    HW116130   0.796   1.212   0.868  0.5500 -2.4542 -1.7696
 1557SOL    HW216131   0.753   1.211   1.005 -0.2005  3.5556 -1.6165
 1558SOL     OW16132   0.615   0.286   7.119  0.3327  0.2487  0.3007
 1558SOL    HW116133   0.671   0.224   7.166 -1.8676 -1.5084  0.6007
 1558SOL    HW216134   0.533   0.267   7.164 -0.2608 -1.0571 -1.3002
 1559SOL     OW16135   1.781   2.348   1.663 -0.1903 -0.5195  0.6050
 1559SOL    HW116136   1.698   2.302   1.650 -1.0240  0.6406  1.8814
 1559SOL    HW216137   1.815   2.324   1.749  0.4993 -3.2154 -0.4285
 1560SOL     OW16138   2.234   2.666   8.860 -0.1137  0.0952 -0.4418
 1560SOL    HW116139   2.260   2.659   8.768 -0.5209  2.3974 -0.7204
 1560SOL    HW216140   2.309   2.630   8.907  0.7782  3.1063  0.3819
 1561SOL     OW16141   1.713   2.016   0.648 -0.2293 -0.3146  0.5501
 1561SOL    HW116142   1.703   2.066   0.729  0.3410 -2.8442  2.1680
 1561SOL    HW216143   1.637   2.047   0.598  0.4698  1.0439  0.3352
 1562SOL     OW16144   4.476   1.987   7.631 -0.1160  0.5304  0.4100
 1562SOL    HW116145   4.475   1.950   7.542  0.6707 -0.1235  0.6830
 1562SOL    HW216146   4.487   2.082   7.625  0.5403  0.4834  0.8455
 1563SOL     OW16147   1.006   3.812   0.944  0.0000  0.9507 -0.0531
 1563SOL    HW116148   0.915   3.809   0.975 -0.1606  1.0151 -0.5277
 1563SOL    HW216149   1.020   3.723   0.912 -1.7149 -0.9965  4.4933
 1564SOL     OW16150   3.015   1.610  13.529 -0.1010  0.4481 -0.3580
 1564SOL    HW116151   3.103   1.620  13.565 -0.0700 -0.6622 -0.1222
 1564SOL    HW216152   2.974   1.573  13.607  0.7204  0.7474  0.2079
 1565SOL     OW16153   4.391   1.541   5.984  0.1027 -0.0628 -0.0990
 1565SOL    HW116154   4.344   1.503   6.058 -1.8659  2.3759 -0.0840
 1565SOL    HW216155   4.364   1.633   5.980  0.9042  0.1455 -0.5755
 1566SOL     OW16156   1.249   3.432  10.923  0.1135  0.1122 -0.2996
 1566SOL    HW116157   1.178   3.487  10.891  0.6942  0.3158 -1.2421
 1566SOL    HW216158   1.252   3.367  10.853  1.7150 -1.9868  1.7106
 1567SOL     OW16159   1.478   2.523   1.216  0.3045 -0.3674 -0.2685
 1567SOL    HW116160   1.440   2.436   1.232 -1.7404  0.2621 -1.7494
 1567SOL    HW216161   1.437   2.579   1.283 -0.2880  0.3209 -1.2034
 1568SOL     OW16162   0.593   0.918   1.307 -0.0518  0.1865  0.3024
 1568SOL    HW116163   0.686   0.904   1.289  0.0999 -2.0701  2.7683
 1568SOL    HW216164   0.583   0.882   1.395  1.6570 -2.6843 -0.6714
 1569SOL     OW16165   2.595   1.531   2.618  0.4095  0.1442  0.4641
 1569SOL    HW116166   2.627   1.492   2.537 -1.4185 -1.2024  0.4027
 1569SOL    HW216167   2.612   1.459   2.679  0.5356 -1.3951 -1.4116
 1570SOL     OW16168   4.501   0.475   5.411 -0.5180 -0.3226  0.9777
 1570SOL    HW116169   4.510   0.469   5.506  0.2322  0.6613  0.9664
 1570SOL    HW216170   4.406   0.466   5.416 -0.7501  1.4786 -0.1459
 1571SOL     OW16171   1.812   1.573   2.134 -0.0762 -0.9520  0.1282
 1571SOL    HW116172   1.813   1.663   2.165  0.0196 -0.8834 -0.0693
 1571SOL    HW216173   1.899   1.548   2.166 -0.1334  0.0256  1.0436
 1572SOL     OW16174   1.837   2.513   2.963 -0.8875  0.3145 -0.4605
 1572SOL    HW116175   1.871   2.506   2.873 -1.7973 -2.7735 -0.5987
 1572SOL    HW216176   1.773   2.582   2.947  0.0972  1.1820 -0.6053
 1573SOL     OW16177   1.021   1.633   4.137  0.2472  0.4876 -0.6954
 1573SOL    HW116178   1.040   1.573   4.209 -0.3156  1.1459 -0.0067
 1573SOL    HW216179   0.941   1.597   4.100  0.1972  0.7118 -0.8081
 1574SOL     OW16180   2.098   4.296   6.298  0.0217  0.1478  0.2997
 1574SOL    HW116181   2.131   4.207   6.286  1.2042  0.1815  3.4823
 1574SOL    HW216182   2.028   4.300   6.364 -1.4900 -1.8061 -1.1681
 1575SOL     OW16183   1.364   1.450  16.968  0.2639  0.3365 -0.4109
 1575SOL    HW116184   1.320   1.367  16.953  1.1776  0.0019 -1.2480
 1575SOL    HW216185   1.381   1.481  16.879 -1.1489  1.6510 -0.2196
 1576SOL     OW16186   1.254   2.934   0.300 -0.1706 -0.2802  0.9972
 1576SOL    HW116187   1.331   2.988   0.284  1.0229 -0.9967  4.3215
 1576SOL    HW216188   1.260   2.870   0.229  1.5844  1.3271 -0.2984
 1577SOL     OW16189   3.207   0.393   2.048 -0.6652 -0.1485  0.3534
 1577SOL    HW116190   3.200   0.483   2.081 -1.4476  0.7001 -2.1654
 1577SOL    HW216191   3.119   0.359   2.065 -1.5733  1.9208 -0.2092
 1578SOL     OW16192   2.635   4.562  11.449  0.1222 -0.1320 -0.2150
 1578SOL    HW116193   2.681   4.481  11.469 -0.5236 -0.4430  0.0312
 1578SOL    HW216194   2.542   4.540  11.441  0.3335 -0.8858 -0.5636
 1579SOL     OW16195   4.117   3.156   4.166  0.0304  0.8009 -0.2127
 1579SOL    HW116196   4.030   3.157   4.207  1.1906 -3.1801  2.3083
 1579SOL    HW216197   4.114   3.232   4.109 -2.3604  1.8664  1.3097
 1580SOL     OW16198   1.689   3.301   5.308 -0.1812 -0.2792  0.0040
 1580SOL    HW116199   1.670   3.232   5.245 -1.7459  0.5875 -0.4694
 1580SOL    HW216200   1.761   3.261   5.358 -1.2377 -0.8591  1.0686
 1581SOL     OW16201   0.535   4.277   6.745 -0.1182  0.5598 -0.5474
 1581SOL    HW116202   0.538   4.183   6.762 -0.2971  0.1867 -2.6234
 1581SOL    HW216203   0.592   4.303   6.673  0.7205 -3.1505 -1.2117
 1582SOL     OW16204   2.939   0.541   6.421 -0.0403  0.1916 -0.1752
 1582SOL    HW116205   2.956   0.447   6.417 -1.5001 -0.1196  0.9606
 1582SOL    HW216206   2.947   0.554   6.515 -0.4597  0.0500 -0.1161
 1583SOL     OW16207   4.493   2.496   9.562  0.0941  0.3037 -0.2346
 1583SOL    HW116208   4.533   2.528   9.643  2.3623 -0.5478 -1.0285
 1583SOL    HW216209   4.535   2.544   9.491 -1.1609  0.8797 -0.6013
 1584SOL     OW16210   1.626   2.854   4.905 -0.5447  0.4403  0.0760
 1584SOL    HW116211   1.534   2.865   4.926 -0.7771 -0.5803 -0.4133
 1584SOL    HW216212   1.629   2.765   4.869  0.0667  1.2833 -2.0030
 1585SOL     OW16213   1.416   4.000   3.563  0.1664 -0.5063 -0.2305
 1585SOL    HW116214   1.434   4.071   3.501  0.2484 -1.4394 -1.2756
 1585SOL    HW216215   1.446   4.041   3.644 -1.0301 -0.0175 -0.0311
 1586SOL     OW16216   1.736   2.278  10.916  0.1900 -0.1098 -0.1830
 1586SOL    HW116217   1.822   2.296  10.952 -0.7340  0.7215  1.6094
 1586SOL    HW216218   1.763   2.267  10.825  4.1583 -1.1387  1.1591
 1587SOL     OW16219   4.231   2.380  16.578  0.2986  0.3427  0.4047
 1587SOL    HW116220   4.188   2.420  16.653  1.8675  0.2155  1.3651
 1587SOL    HW216221   4.154   2.361  16.524  0.4737  2.6869 -0.6824
 1588SOL     OW16222   0.839   0.959   6.165 -0.7927  0.0184 -0.2211
 1588SOL    HW116223   0.761   0.999   6.128  0.2402 -1.3582 -3.9583
 1588SOL    HW216224   0.893   1.035   6.187  0.2992 -0.4488 -1.2950
 1589SOL     OW16225   2.573   2.054   4.396 -0.2561  0.3901  0.5761
 1589SOL    HW116226   2.523   1.978   4.366  1.2355 -0.9281  1.4781
 1589SOL    HW216227   2.537   2.125   4.343 -1.0243 -0.3086  0.1630
 1590SOL     OW16228   0.297   2.986  11.933 -0.3730 -0.0789 -0.2761
 1590SOL    HW116229   0.286   2.934  11.853  0.5480 -2.4056  1.1055
 1590SOL    HW216230   0.321   2.916  11.994  0.1796  1.0808  0.8307
 1591SOL     OW16231   1.791   2.107  16.243 -0.1399 -0.2140 -0.3228
 1591SOL    HW116232   1.814   2.017  16.222 -0.7754 -0.4755  0.0860
 1591SOL    HW216233   1.759   2.134  16.157  1.1995 -0.6902 -0.9617
 1592SOL     OW16234   0.710   2.199   8.987  0.8084 -0.6174  0.1477
 1592SOL    HW116235   0.738   2.226   8.900 -0.5518 -0.9223 -0.3915
 1592SOL    HW216236   0.724   2.104   8.987  2.7427 -0.3275  2.1804
 1593SOL     OW16237   1.369   0.234   9.419  0.6395 -0.7427  0.4484
 1593SOL    HW116238   1.375   0.290   9.342  0.2147 -0.4017  0.6591
 1593SOL    HW216239   1.461   0.216   9.436  0.4648 -0.9976  1.1286
 1594SOL     OW16240   3.472   2.372   2.588  0.2634  0.0739 -0.1377
 1594SOL    HW116241   3.400   2.402   2.643 -0.7444  0.4349 -1.6517
 1594SOL    HW216242   3.545   2.424   2.622 -1.0939  2.4656 -0.8947
 1595SOL     OW16243   3.500   0.015   8.615 -0.0482  0.2714  0.3012
 1595SOL    HW116244   3.513   0.110   8.612  1.0153  0.1885  2.3584
 1595SOL    HW216245   3.409   0.000   8.638 -0.6081  0.1132 -1.9972
 1596SOL     OW16246   1.384   0.536  15.962 -0.4640 -0.0174  0.0126
 1596SOL    HW116247   1.372   0.534  16.057 -0.5645  1.6874  0.0200
 1596SOL    HW216248   1.385   0.441  15.948  0.1307  0.0151 -0.1752
 1597SOL     OW16249   2.523   1.361  11.977 -0.6311 -1.0311  0.3639
 1597SOL    HW116250   2.483   1.361  12.065 -3.8112 -0.6902 -1.0656
 1597SOL    HW216251   2.469   1.301  11.926  0.6007 -4.0262  2.5390
 1598SOL     OW16252   3.746   1.541  11.055  0.4299  0.0303  0.4071
 1598SOL    HW116253   3.758   1.583  11.140  1.3866  1.7693 -0.5835
 1598SOL    HW216254   3.704   1.465  11.095 -0.2313 -1.0494 -2.3675
 1599SOL     OW16255   2.590   1.598   4.021 -0.3141  0.6228 -0.5543
 1599SOL    HW116256   2.612   1.587   3.929 -0.1652 -0.8186 -0.3439
 1599SOL    HW216257   2.673   1.638   4.048  1.0764 -0.9837 -2.3701
 1600SOL     OW16258   4.604   3.449   2.778  0.5802  0.1165 -0.0689
 1600SOL    HW116259   4.649   3.494   2.706 -1.4518  1.5747 -0.4329
 1600SOL    HW216260   4.509   3.462   2.770  0.7926  1.8007  0.2526
 1601SOL     OW16261   4.319   0.391   4.163 -0.0568 -0.0759  0.0074
 1601SOL    HW116262   4.379   0.344   4.221  0.0924 -1.0423 -0.9326
 1601SOL    HW216263   4.367   0.373   4.082  0.5892  1.4831  0.0322
 1602SOL     OW16264   2.113   4.491  11.504  0.1522  0.6644 -0.2899
 1602SOL    HW116265   2.055   4.442  11.563  0.3150  2.3341  1.2621
 1602SOL    HW216266   2.107   4.578  11.543 -3.5155  1.2927 -2.2141
 1603SOL     OW16267   0.198   3.557   5.540  0.1584 -0.1920 -0.0313
 1603SOL    HW116268   0.223   3.465   5.539  0.5049 -0.0964 -0.0573
 1603SOL    HW216269   0.245   3.586   5.462  0.4963  1.4245  0.7746
 1604SOL     OW16270   2.269   0.881   5.234 -0.6681  0.2456  0.4186
 1604SOL    HW116271   2.239   0.810   5.177 -0.8324  0.4005  0.3119
 1604SOL    HW216272   2.202   0.877   5.302  0.6266  0.0229  1.6788
 1605SOL     OW16273   0.145   1.799   6.116  0.0491  0.5337  0.4057
 1605SOL    HW116274   0.123   1.891   6.134 -0.5691  0.3146  0.7687
 1605SOL    HW216275   0.219   1.786   6.176  1.2432  2.9971 -0.5068
 1606SOL     OW16276   0.431   1.921   5.016 -0.1250 -0.6829  0.1227
 1606SOL    HW116277   0.340   1.946   5.026  0.5489  1.4633  0.9250
 1606SOL    HW216278   0.442   1.856   5.085  0.1957 -1.2638 -0.4726
 1607SOL     OW16279   3.528   0.013   5.695 -0.2129  0.2332 -0.8868
 1607SOL    HW116280   3.525   4.651   5.739  0.7660 -0.4146 -2.0424
 1607SOL    HW216281   3.566   4.713   5.610 -0.9104 -1.1735 -0.8229
 1608SOL     OW16282   3.851   3.158   4.257  0.2107 -0.3664 -0.6896
 1608SOL    HW116283   3.765   3.133   4.292  1.2200 -3.0204 -0.0982
 1608SOL    HW216284   3.846   3.253   4.265 -0.3993 -0.3912 -0.7674
 1609SOL     OW16285   1.897   2.562  12.430 -0.2730  0.2374 -0.0313
 1609SOL    HW116286   1.827   2.618  12.395 -0.0292  1.0496  0.7851
 1609SOL    HW216287   1.943   2.544  12.349  0.3161  1.8216 -0.0589
 1610SOL     OW16288   1.597   0.494   3.586 -0.2779 -0.0952  0.0230
 1610SOL    HW116289   1.685   0.468   3.614  0.5055  2.4673 -0.0762
 1610SOL    HW216290   1.595   0.454   3.499  2.0085 -1.2732  0.5131
 1611SOL     OW16291   3.457   3.671   8.057 -0.1388  0.8248 -0.2624
 1611SOL    HW116292   3.448   3.657   8.151  0.8264 -0.8016 -0.4032
 1611SOL    HW216293   3.550   3.692   8.051 -0.2144  1.6009  1.6197
 1612SOL     OW16294   3.355   4.063   8.121 -0.4021 -0.6636 -0.5303
 1612SOL    HW116295   3.367   4.102   8.208 -0.4170  1.6660 -1.5754
 1612SOL    HW216296   3.310   4.127   8.066 -0.8679 -1.4439 -1.0604
 1613SOL     OW16297   1.223   4.068  12.350  0.7885 -0.1284 -0.2459
 1613SOL    HW116298   1.161   4.010  12.305 -0.8255  0.4239  1.2553
 1613SOL    HW216299   1.166   4.141  12.372  0.5168 -0.5874  0.6056
 1614SOL     OW16300   4.014   0.266   5.580 -0.2935  0.1964 -0.1642
 1614SOL    HW116301   3.981   0.307   5.660 -0.5788  0.4155 -0.3938
 1614SOL    HW216302   4.098   0.229   5.608 -0.0272 -1.4562 -3.2344
 1615SOL     OW16303   2.976   1.157   6.292 -0.4390 -0.3504  0.2404
 1615SOL    HW116304   2.891   1.176   6.333 -0.4044 -2.1665  1.1526
 1615SOL    HW216305   2.962   1.069   6.258  0.6697 -0.7694  0.8905
 1616SOL     OW16306   0.609   2.434   4.592 -0.0394 -0.2822  0.3249
 1616SOL    HW116307   0.531   2.459   4.543  1.2889  2.2008 -0.5375
 1616SOL    HW216308   0.677   2.439   4.525 -1.6350 -2.6894 -1.4919
 1617SOL     OW16309   2.045   0.714   7.494  0.1351  0.0697 -0.1494
 1617SOL    HW116310   2.101   0.673   7.429  0.9108  1.4624 -0.3741
 1617SOL    HW216311   1.959   0.679   7.473 -0.2276  0.3257  0.8803
 1618SOL     OW16312   1.053   3.458  15.529  0.1222  0.5145  0.7300
 1618SOL    HW116313   0.991   3.421  15.592  0.0215  0.5638  0.6606
 1618SOL    HW216314   1.064   3.550  15.555  3.0026 -0.1118  1.7131
 1619SOL     OW16315   2.719   3.958  15.699 -0.2023 -0.3752  0.4500
 1619SOL    HW116316   2.693   3.902  15.626 -1.2335  0.9539 -0.1905
 1619SOL    HW216317   2.760   3.899  15.762  1.0291 -0.4416 -0.4151
 1620SOL     OW16318   0.834   3.546   1.830  0.6194 -0.3404 -0.2568
 1620SOL    HW116319   0.777   3.472   1.851 -1.2184  1.3052  0.6474
 1620SOL    HW216320   0.825   3.600   1.909 -0.6358  1.1535 -1.4269
 1621SOL     OW16321   2.508   0.277   8.802  0.0968 -0.3205 -0.1024
 1621SOL    HW116322   2.416   0.253   8.798  0.7624 -2.6338 -2.2166
 1621SOL    HW216323   2.500   0.358   8.852 -1.0776 -0.5573  0.0863
 1622SOL     OW16324   0.215   0.321   3.205  0.2559  0.1137  0.4874
 1622SOL    HW116325   0.166   0.261   3.262 -1.1834 -0.1762 -1.0391
 1622SOL    HW216326   0.194   0.275   3.124 -0.7116  1.2033  0.1241
 1623SOL     OW16327   1.746   4.417  16.837  0.1641  0.5016  0.2850
 1623SOL    HW116328   1.729   4.430  16.744  1.0844  0.6069  0.1304
 1623SOL    HW216329   1.711   4.329  16.853 -0.2772  0.6276  0.0016
 1624SOL     OW16330   2.514   3.944   5.218  0.3866  0.2619  0.3824
 1624SOL    HW116331   2.516   4.029   5.173  1.6614 -0.6467 -1.2434
 1624SOL    HW216332   2.549   3.891   5.147 -0.3576 -1.5452  1.3799
 1625SOL     OW16333   4.367   4.716   2.303  0.1831 -0.0007  0.9011
 1625SOL    HW116334   4.283   4.680   2.275 -0.4706  1.0551  1.4762
 1625SOL    HW216335   4.371   0.073   2.249  1.0885  0.9314  2.3029
 1626SOL     OW16336   3.612   4.206  10.638 -0.1133  0.1668  0.2958
 1626SOL    HW116337   3.536   4.245  10.594  0.7425  0.4910 -0.8915
 1626SOL    HW216338   3.602   4.122  10.592  0.7790 -0.5718  1.4546
 1627SOL     OW16339   3.009   1.330  11.432 -0.0068  0.2778  0.3503
 1627SOL    HW116340   3.047   1.339  11.345  0.1713  2.1288  0.6135
 1627SOL    HW216341   3.085   1.346  11.487  0.3533  0.9883 -0.3571
 1628SOL     OW16342   3.816   0.455   6.578  0.4712  0.0477 -0.3858
 1628SOL    HW116343   3.826   0.417   6.491 -1.0524 -1.3194  0.0368
 1628SOL    HW216344   3.820   0.376   6.631  2.1836  0.5058  0.1520
 1629SOL     OW16345   4.440   2.219   0.896 -0.1962  0.3470 -0.1624
 1629SOL    HW116346   4.427   2.206   0.802 -0.0957 -0.1761 -0.1045
 1629SOL    HW216347   4.350   2.247   0.915 -0.0329 -0.3609  1.5664
 1630SOL     OW16348   4.450   0.718  17.379 -0.0700  0.1241  0.0272
 1630SOL    HW116349   4.529   0.739  17.429 -0.8618  1.7684  0.5997
 1630SOL    HW216350   4.408   0.804  17.376  1.4358  0.9195  2.0813
 1631SOL     OW16351   3.115   0.607   9.247 -0.1633 -0.6027 -0.0469
 1631SOL    HW116352   3.138   0.653   9.166 -0.6879  3.8472  2.3331
 1631SOL    HW216353   3.022   0.625   9.254  0.0730 -0.0953  1.9695
 1632SOL     OW16354   3.938   0.521  13.435  0.2815  0.4579 -0.2099
 1632SOL    HW116355   3.936   0.614  13.458  1.1576  0.4208  0.0152
 1632SOL    HW216356   4.029   0.521  13.404  0.4287 -4.0957  0.3321
 1633SOL     OW16357   0.720   1.306   5.130 -0.3343 -0.1769  0.3527
 1633SOL    HW116358   0.737   1.255   5.051 -0.7754 -1.2272  0.9376
 1633SOL    HW216359   0.777   1.264   5.195  0.9601 -0.1414 -0.7623
 1634SOL     OW16360   0.565   0.728   4.996 -0.4351 -0.2603 -0.1719
 1634SOL    HW116361   0.619   0.698   5.068 -2.3821 -2.5406  0.3261
 1634SOL    HW216362   0.610   0.806   4.962  0.3854  0.1382  1.8598
 1635SOL     OW16363   1.707   1.415   5.145  0.0384 -0.5384 -0.2173
 1635SOL    HW116364   1.698   1.494   5.091 -1.1370 -0.8379 -0.4644
 1635SOL    HW216365   1.735   1.453   5.228  0.3788  3.1436 -2.0214
 1636SOL     OW16366   3.809   3.148   9.314 -0.0200  0.1675 -0.2796
 1636SOL    HW116367   3.761   3.230   9.306 -0.6828 -0.0655  1.2251
 1636SOL    HW216368   3.740   3.083   9.328  0.9385 -0.7801  0.0418
 1637SOL     OW16369   0.348   2.449   3.114  0.3061 -0.6729  0.7274
 1637SOL    HW116370   0.259   2.482   3.107  0.7686  0.7239  1.2998
 1637SOL    HW216371   0.357   2.412   3.026  0.0234  5.7322 -2.0265
 1638SOL     OW16372   0.461   3.746   4.726 -0.1903  0.0166  0.0941
 1638SOL    HW116373   0.369   3.771   4.734  0.1477  1.4248 -0.4020
 1638SOL    HW216374   0.479   3.668   4.779  1.2373  1.0876  1.1577
 1639SOL     OW16375   3.887   3.650   7.176  0.1111 -0.2157 -0.1252
 1639SOL    HW116376   3.965   3.678   7.129  0.5096 -1.7356 -0.3887
 1639SOL    HW216377   3.873   3.714   7.246 -1.0773 -0.8957  0.2640
 1640SOL     OW16378   2.201   1.093  15.829 -0.1288 -0.0199  0.0705
 1640SOL    HW116379   2.196   1.059  15.740 -0.5496  1.6655 -0.5571
 1640SOL    HW216380   2.211   1.017  15.886  1.1799  0.0612 -0.0534
 1641SOL     OW16381   0.387   1.351   4.568  0.9604 -0.2321 -0.0654
 1641SOL    HW116382   0.350   1.280   4.516  0.9026 -0.0831 -0.2309
 1641SOL    HW216383   0.409   1.411   4.496 -0.9691  0.8595  0.2579
 1642SOL     OW16384   1.748   3.725   2.419 -0.1828  0.2903  0.8047
 1642SOL    HW116385   1.782   3.778   2.491  0.0735  0.2254  0.7315
 1642SOL    HW216386   1.654   3.739   2.426 -0.3660  0.0723 -1.1854
 1643SOL     OW16387   1.302   1.001   8.592 -0.0829  0.0101  0.3180
 1643SOL    HW116388   1.390   0.997   8.556 -0.0328  2.5289  0.2165
 1643SOL    HW216389   1.306   1.059   8.668  1.5368 -0.3778  0.5190
 1644SOL     OW16390   3.499   2.982   1.856  0.3641  0.3151 -0.1314
 1644SOL    HW116391   3.519   3.075   1.847  2.0841 -0.1359 -0.8027
 1644SOL    HW216392   3.520   2.978   1.950  2.3459 -0.7283 -0.6224
 1645SOL     OW16393   3.420   1.341   1.449 -0.1647 -0.0874 -0.1208
 1645SOL    HW116394   3.398   1.349   1.356 -1.7667 -0.8039  0.2049
 1645SOL    HW216395   3.508   1.379   1.445 -1.1805  2.2257 -0.4397
 1646SOL     OW16396   3.895   3.288   3.811  0.2290 -0.1924  0.0456
 1646SOL    HW116397   3.973   3.250   3.852 -0.5370 -2.5493 -0.6805
 1646SOL    HW216398   3.914   3.279   3.718 -0.2428  2.6051 -0.3138
 1647SOL     OW16399   1.847   0.427   3.636 -0.2828 -0.3359  0.0215
 1647SOL    HW116400   1.925   0.465   3.596 -0.1394 -0.4658  0.1795
 1647SOL    HW216401   1.870   0.335   3.647 -0.8831 -0.3852  0.8569
 1648SOL     OW16402   2.755   1.841   0.518 -0.1423  0.1914  0.6000
 1648SOL    HW116403   2.776   1.920   0.567  0.1275  1.2193 -1.1601
 1648SOL    HW216404   2.700   1.803   0.586 -3.1407 -0.4969 -2.1845
 1649SOL     OW16405   4.697   2.111  13.275 -0.0706  0.2203  0.0676
 1649SOL    HW116406   4.720   2.060  13.353 -0.5882 -0.9139 -0.5178
 1649SOL    HW216407   0.030   2.065  13.212 -0.7814 -1.4525  0.6606
 1650SOL     OW16408   2.613   0.799   2.153  0.7906  0.2004 -0.5552
 1650SOL    HW116409   2.571   0.880   2.184 -2.5767 -1.8130  0.0764
 1650SOL    HW216410   2.599   0.804   2.058  1.4054  0.2688 -0.6396
 1651SOL     OW16411   2.436   1.225   9.232  0.4195 -0.0445  0.3700
 1651SOL    HW116412   2.407   1.280   9.305  0.4462  1.7377 -0.9478
 1651SOL    HW216413   2.460   1.148   9.284  0.0098 -0.1713  0.3687
 1652SOL     OW16414   2.011   1.230  16.587 -0.2772  0.0591  0.1260
 1652SOL    HW116415   2.096   1.271  16.603 -0.0076 -1.1212  1.7629
 1652SOL    HW216416   2.022   1.193  16.500 -2.6891 -0.2210 -0.0532
 1653SOL     OW16417   4.436   3.672   7.096  0.6278 -0.3299  0.2061
 1653SOL    HW116418   4.467   3.590   7.134  1.9013 -0.4685 -1.1337
 1653SOL    HW216419   4.407   3.719   7.174 -2.3024 -1.3941 -0.2251
 1654SOL     OW16420   3.252   0.164   2.417  0.2237  0.0526  0.0331
 1654SOL    HW116421   3.219   0.178   2.506  2.0959  3.9152  0.1169
 1654SOL    HW216422   3.346   0.174   2.436  0.8439 -0.3081 -2.9474
 1655SOL     OW16423   2.403   1.710   1.054 -0.0894  0.0840 -0.5580
 1655SOL    HW116424   2.337   1.646   1.082 -1.4984  1.0569 -1.6366
 1655SOL    HW216425   2.405   1.712   0.958  2.6385  2.0571 -0.4522
 1656SOL     OW16426   1.380   4.536  14.043  0.4165 -0.5292 -0.3800
 1656SOL    HW116427   1.366   4.442  14.051 -2.3814 -0.1545 -0.7529
 1656SOL    HW216428   1.475   4.536  14.034  0.4855  1.4953  0.2172
 1657SOL     OW16429   1.485   4.617  15.034 -0.2129 -0.0015  0.5909
 1657SOL    HW116430   1.501   4.710  15.043 -0.3133 -0.0069  0.8504
 1657SOL    HW216431   1.551   4.606  14.966  1.8086  2.7299  2.1556
 1658SOL     OW16432   1.397   4.373   1.798 -0.3995 -0.1500  0.0592
 1658SOL    HW116433   1.452   4.451   1.804 -0.3546 -0.0863 -1.0870
 1658SOL    HW216434   1.362   4.356   1.885 -0.2245  0.2987  0.2190
 1659SOL     OW16435   2.064   3.925   6.445  0.0281 -0.6023 -0.4231
 1659SOL    HW116436   2.005   3.982   6.396  0.7267 -0.8158 -1.5080
 1659SOL    HW216437   2.103   3.990   6.503 -0.4661  1.1772 -2.1058
 1660SOL     OW16438   4.268   4.303  13.310  0.2428  0.6203  0.3485
 1660SOL    HW116439   4.216   4.227  13.285  2.3587 -0.4846 -0.7403
 1660SOL    HW216440   4.233   4.378  13.262 -1.7317  0.1685  1.0969
 1661SOL     OW16441   0.765   0.608  14.415  0.1776 -0.2577 -0.7610
 1661SOL    HW116442   0.727   0.669  14.478  0.3635  1.2866 -2.1448
 1661SOL    HW216443   0.858   0.631  14.416  0.2067 -0.5070  2.8062
 1662SOL     OW16444   4.346   1.223   1.102  0.0987 -0.4807  0.0028
 1662SOL    HW116445   4.416   1.159   1.112  0.7565  0.0554 -1.2183
 1662SOL    HW216446   4.356   1.254   1.012 -1.9209  1.6929  0.5243
 1663SOL     OW16447   0.211   4.557  11.169  0.4394 -0.3398 -0.0208
 1663SOL    HW116448   0.122   4.585  11.187  0.2465 -1.2115  0.3698
 1663SOL    HW216449   0.246   4.541  11.257  0.1447 -0.4690  0.0716
 1664SOL     OW16450   2.559   2.552  13.637 -0.0883  0.1752 -0.1220
 1664SOL    HW116451   2.500   2.498  13.583 -1.7963  0.8936  1.0137
 1664SOL    HW216452   2.643   2.507  13.641  0.5435  1.5249  1.4633
 1665SOL     OW16453   3.286   4.098   2.515 -0.0748 -0.0157 -0.0447
 1665SOL    HW116454   3.246   4.160   2.577 -0.5067 -1.1194  0.7716
 1665SOL    HW216455   3.270   4.150   2.436  0.1775  0.1179 -0.0076
 1666SOL     OW16456   0.619   3.551   6.270 -0.5992  0.1060 -0.0910
 1666SOL    HW116457   0.595   3.573   6.180  2.0367 -1.1537 -1.1048
 1666SOL    HW216458   0.681   3.623   6.286 -0.0983 -0.1159 -1.0245
 1667SOL     OW16459   1.149   0.518   9.968 -0.0793  0.3419  0.7323
 1667SOL    HW116460   1.101   0.594   9.998 -0.2552 -0.2216  1.8656
 1667SOL    HW216461   1.077   0.477   9.919  0.2525  1.7003 -0.8920
 1668SOL     OW16462   4.067   2.633   5.283  0.1970  0.1452  0.4127
 1668SOL    HW116463   4.153   2.664   5.309  0.4246  0.9923 -1.3620
 1668SOL    HW216464   4.015   2.689   5.341 -2.1897 -1.4670 -0.1510
 1669SOL     OW16465   1.998   4.309   4.253  0.2728  0.1606 -0.8185
 1669SOL    HW116466   2.031   4.275   4.337  1.7440 -1.2736 -1.9711
 1669SOL    HW216467   1.910   4.330   4.282 -0.3357 -0.2311 -2.3833
 1670SOL     OW16468   0.371   0.910  12.764  0.0327  0.6737  0.0140
 1670SOL    HW116469   0.328   0.839  12.716  1.5647 -1.2242  1.4368
 1670SOL    HW216470   0.458   0.881  12.790 -1.2106 -1.4212  1.8461
 1671SOL     OW16471   0.415   3.103   9.722 -0.0580  0.0503  0.3699
 1671SOL    HW116472   0.447   3.120   9.811  0.5781 -0.4578  0.2402
 1671SOL    HW216473   0.324   3.126   9.741 -0.2425 -0.3710 -0.0114
 1672SOL     OW16474   3.200   1.022  11.368 -0.0275  0.1542 -0.1974
 1672SOL    HW116475   3.152   1.052  11.291 -1.0765 -3.2576 -0.8767
 1672SOL    HW216476   3.130   1.008  11.432 -0.6668  1.9370 -0.5230
 1673SOL     OW16477   3.171   4.332   3.895  0.2899  0.3143  0.5470
 1673SOL    HW116478   3.260   4.363   3.878  0.9326 -2.3563 -1.0921
 1673SOL    HW216479   3.129   4.413   3.922 -1.0589 -0.1523 -0.1638
 1674SOL     OW16480   4.545   0.931   2.723  0.0959 -0.0071 -0.6507
 1674SOL    HW116481   4.518   0.847   2.686  1.3419  0.7799 -3.3262
 1674SOL    HW216482   4.530   1.002   2.661 -1.1149  1.3145  1.1390
 1675SOL     OW16483   0.628   4.540   0.547  0.3696 -0.2038  0.6746
 1675SOL    HW116484   0.720   4.515   0.549  0.4916  0.2139  0.3807
 1675SOL    HW216485   0.613   4.569   0.637 -1.3427  1.2821 -0.0791
 1676SOL     OW16486   3.075   4.277   5.712  0.4398 -0.7097  0.6101
 1676SOL    HW116487   2.986   4.290   5.744  1.0167  1.5807  1.2163
 1676SOL    HW216488   3.058   4.255   5.620 -0.0231  0.0577  0.5156
 1677SOL     OW16489   1.859   4.498   3.260  0.1964 -0.6576 -0.9108
 1677SOL    HW116490   1.871   4.587   3.293  0.8409 -1.1869  0.3104
 1677SOL    HW216491   1.947   4.462   3.271  0.3116 -0.2200 -0.3934
 1678SOL     OW16492   3.723   0.152   2.151 -0.8376 -0.0329 -0.3036
 1678SOL    HW116493   3.744   0.104   2.071  0.0694 -1.3478  0.7183
 1678SOL    HW216494   3.627   0.160   2.154 -0.7421  0.9237  0.3077
 1679SOL     OW16495   2.436   2.746   2.726 -0.1121 -0.2045 -0.2249
 1679SOL    HW116496   2.528   2.734   2.703 -0.1740  0.9326 -1.1213
 1679SOL    HW216497   2.380   2.712   2.656 -0.3670  0.6268 -0.4267
 1680SOL     OW16498   1.431   3.225  16.461  0.3296 -0.5103  0.4700
 1680SOL    HW116499   1.485   3.291  16.504 -0.7756 -0.4465  1.7601
 1680SOL    HW216500   1.417   3.160  16.531 -2.1225 -0.5213 -0.0256
 1681SOL     OW16501   3.089   1.421   7.441 -0.1174  0.1969  0.0595
 1681SOL    HW116502   3.063   1.455   7.527 -1.3810 -1.1105  0.1802
 1681SOL    HW216503   3.107   1.333   7.473  2.9584  0.4095 -1.0543
 1682SOL     OW16504   3.739   4.452   4.238 -0.2658 -0.8003  0.6283
 1682SOL    HW116505   3.691   4.463   4.320  0.0186  1.1176  0.5402
 1682SOL    HW216506   3.831   4.458   4.267  0.4687 -0.2355 -1.8691
 1683SOL     OW16507   4.102   1.765   1.365  0.0816 -0.3093  0.0601
 1683SOL    HW116508   4.165   1.824   1.407  0.3539 -2.2835  2.3959
 1683SOL    HW216509   4.068   1.714   1.438 -1.2957  0.0523 -0.3385
 1684SOL     OW16510   3.256   0.987   7.888 -0.4994  0.5360 -0.1294
 1684SOL    HW116511   3.178   0.966   7.837 -0.1773  2.5082 -1.4640
 1684SOL    HW216512   3.324   0.930   7.852 -0.8329  0.4076 -0.5622
 1685SOL     OW16513   0.219   2.489   2.364 -0.1831 -0.3281 -0.6607
 1685SOL    HW116514   0.292   2.459   2.418  0.9786  0.1416 -1.9708
 1685SOL    HW216515   0.226   2.436   2.284  1.4627 -2.5165  0.9562
 1686SOL     OW16516   3.887   2.263  16.948  0.4296  0.4817 -0.0994
 1686SOL    HW116517   3.948   2.191  16.963  0.9617  1.5656  2.8957
 1686SOL    HW216518   3.894   2.323  17.023  1.6063  1.2526 -0.8252
 1687SOL     OW16519   0.988   3.032   8.592 -0.2929  0.0520  0.3626
 1687SOL    HW116520   0.968   3.039   8.685 -2.8122 -2.6192  0.0398
 1687SOL    HW216521   0.967   3.121   8.563  1.3676  0.4782  0.4635
 1688SOL     OW16522   0.011   0.545  11.816  0.2974 -0.1374 -0.5880
 1688SOL    HW116523   4.707   0.624  11.769  2.5519 -0.4876 -2.4250
 1688SOL    HW216524   4.686   0.481  11.763  0.4092 -2.2394  1.8454
 1689SOL     OW16525   2.146   1.015  17.318  0.8916  0.3650  0.2628
 1689SOL    HW116526   2.234   1.045  17.338  0.7272  1.0023  0.0329
 1689SOL    HW216527   2.094   1.096  17.322  0.2029 -0.1257  1.2327
 1690SOL     OW16528   4.413   4.543  11.574  0.3503  0.1176 -0.2465
 1690SOL    HW116529   4.454   4.521  11.657 -2.5629  0.1250  1.1873
 1690SOL    HW216530   4.366   4.460  11.562 -1.8101  1.4514 -1.1446
 1691SOL     OW16531   1.792   2.365  13.150 -0.0206  0.3035 -0.0691
 1691SOL    HW116532   1.732   2.425  13.193  3.3855  2.8935  1.0534
 1691SOL    HW216533   1.876   2.408  13.165 -1.4055  2.7517  0.6580
 1692SOL     OW16534   0.846   0.225   0.964 -0.2794 -0.1984  0.3424
 1692SOL    HW116535   0.803   0.178   1.036  1.4408 -1.9397  0.2388
 1692SOL    HW216536   0.846   0.155   0.899 -1.0368  2.5026 -2.5638
 1693SOL     OW16537   2.683   1.525   0.099 -0.0506 -0.2650  0.9432
 1693SOL    HW116538   2.604   1.477   0.126 -0.3228  0.3442  1.2165
 1693SOL    HW216539   2.720   1.543   0.185  2.3068  0.3563 -0.2217
 1694SOL     OW16540   2.635   0.774   3.902 -0.3555  0.3429  0.3495
 1694SOL    HW116541   2.711   0.745   3.953 -1.8701 -2.0024  1.2476
 1694SOL    HW216542   2.599   0.694   3.863  0.8766 -0.6966  1.3553
 1695SOL     OW16543   2.727   1.593  15.702 -0.7253  0.6634  0.9716
 1695SOL    HW116544   2.663   1.522  15.693  1.1069 -0.9316  0.4853
 1695SOL    HW216545   2.744   1.591  15.796  1.2300  0.3582  0.6151
 1696SOL     OW16546   2.881   3.655   7.478  0.2243  0.0214 -0.6023
 1696SOL    HW116547   2.790   3.665   7.451 -0.8776 -1.7850  2.4959
 1696SOL    HW216548   2.895   3.736   7.528  1.4238  0.2957 -1.3828
 1697SOL     OW16549   3.336   0.082   6.821 -0.0866  0.3364 -0.8256
 1697SOL    HW116550   3.373   0.083   6.909 -0.9034 -0.8198 -0.4633
 1697SOL    HW216551   3.400   0.135   6.773  0.8789 -0.0645  0.0278
 1698SOL     OW16552   2.387   4.333   2.915 -0.1798 -0.0809  0.5231
 1698SOL    HW116553   2.402   4.294   2.829 -0.1084  3.0497 -0.8657
 1698SOL    HW216554   2.293   4.321   2.927 -0.0679 -1.7745 -0.2912
 1699SOL     OW16555   1.072   0.456  11.662  0.0738  0.1324 -0.5515
 1699SOL    HW116556   1.133   0.489  11.728 -0.6018 -1.0790  0.6730
 1699SOL    HW216557   1.090   0.363  11.677  2.6187  1.0165  1.8016
 1700SOL     OW16558   2.119   2.421   4.435 -0.4919 -0.5488 -0.2511
 1700SOL    HW116559   2.067   2.500   4.420 -0.0699 -0.6976 -2.3913
 1700SOL    HW216560   2.110   2.402   4.529  1.1701  0.6565  0.1619
 1701SOL     OW16561   0.569   1.489   3.662  0.9719 -0.1943 -0.5751
 1701SOL    HW116562   0.642   1.433   3.632  2.1883  0.6266  0.8340
 1701SOL    HW216563   0.552   1.533   3.579 -1.1217 -1.1003 -0.6107
 1702SOL     OW16564   2.444   0.405   3.070 -0.3262  0.1937 -0.0613
 1702SOL    HW116565   2.357   0.382   3.036 -0.0230  1.0122 -1.3968
 1702SOL    HW216566   2.453   0.495   3.038 -1.2356  0.4953  0.5312
 1703SOL     OW16567   4.020   2.842   6.105  0.1774 -0.3775 -0.3014
 1703SOL    HW116568   4.029   2.907   6.175 -2.2202 -1.0730  0.6705
 1703SOL    HW216569   3.992   2.890   6.027  0.7468 -1.2904 -1.0686
 1704SOL     OW16570   0.103   2.191   2.860 -0.2229 -0.2708  0.3933
 1704SOL    HW116571   0.047   2.140   2.802 -0.5216 -1.2359  1.5112
 1704SOL    HW216572   0.150   2.120   2.903 -0.0607  0.4098  1.3360
 1705SOL     OW16573   3.599   1.034  11.531  0.1954 -0.6784 -0.3942
 1705SOL    HW116574   3.512   1.049  11.567  0.8379  1.3266  0.3016
 1705SOL    HW216575   3.577   0.994  11.446 -0.7424  1.1375 -1.0043
 1706SOL     OW16576   4.368   3.136   2.200  0.3320 -0.0223  0.3163
 1706SOL    HW116577   4.341   3.071   2.265  2.8438  0.5418  1.9343
 1706SOL    HW216578   4.415   3.198   2.256 -0.7899  0.6240  0.5534
 1707SOL     OW16579   1.645   4.713   4.179  0.2515  0.6137  0.1407
 1707SOL    HW116580   1.707   0.062   4.197 -0.4014  0.6388  2.2636
 1707SOL    HW216581   1.564   0.036   4.156 -0.4012 -1.8494 -2.4305
 1708SOL     OW16582   1.472   3.747   2.394  0.5272  0.1421  0.0963
 1708SOL    HW116583   1.382   3.743   2.363  0.5973 -0.1157 -0.0753
 1708SOL    HW216584   1.482   3.842   2.402  0.3608  0.1598  0.0938
 1709SOL     OW16585   3.027   0.596   7.602  0.7183  0.2330  0.6637
 1709SOL    HW116586   3.004   0.654   7.675  0.1388  0.3131  0.4210
 1709SOL    HW216587   3.014   0.652   7.526  1.1428 -0.6165 -0.0388
 1710SOL     OW16588   0.371   3.320   7.408 -0.1725  0.1958 -0.3044
 1710SOL    HW116589   0.459   3.357   7.415 -0.8187  1.3189  1.9010
 1710SOL    HW216590   0.397   3.234   7.374 -0.3544 -0.4062  1.0687
 1711SOL     OW16591   0.102   4.313  10.485  0.0373  0.4767  0.3298
 1711SOL    HW116592   0.133   4.330  10.574  1.1569 -2.0355  0.4483
 1711SOL    HW216593   0.031   4.374  10.467 -1.1861 -1.7379 -2.4080
 1712SOL     OW16594   0.385   1.095   9.193 -0.2757 -0.0299 -0.4312
 1712SOL    HW116595   0.464   1.147   9.207 -2.5856  3.2756  0.1432
 1712SOL    HW216596   0.388   1.029   9.262  0.2314  1.3832  0.8953
 1713SOL     OW16597   4.551   2.394   3.054  0.8218  0.2347 -0.0680
 1713SOL    HW116598   4.554   2.448   2.975 -1.4083 -0.9858 -0.9971
 1713SOL    HW216599   4.560   2.308   3.013 -0.7268 -0.4984  1.0881
 1714SOL     OW16600   3.069   2.418  11.084  0.0363  0.1602  0.3471
 1714SOL    HW116601   3.151   2.381  11.050 -1.4016 -1.4925 -1.2944
 1714SOL    HW216602   3.028   2.468  11.014 -1.1974 -1.6143 -0.1862
 1715SOL     OW16603   1.615   2.654   3.910 -0.4530  0.8769 -0.1920
 1715SOL    HW116604   1.684   2.602   3.952  0.9140  2.5858 -0.3230
 1715SOL    HW216605   1.661   2.738   3.905  0.0727  0.5170 -1.4559
 1716SOL     OW16606   1.360   4.583   6.439 -0.4445 -0.2370  0.4177
 1716SOL    HW116607   1.343   4.546   6.352 -0.0863 -2.4375  1.2913
 1716SOL    HW216608   1.429   4.522   6.466 -1.0621 -0.4691  1.4594
 1717SOL     OW16609   1.879   1.550   1.647  0.0155  0.3124  0.0312
 1717SOL    HW116610   1.808   1.516   1.702  0.1851  0.0180  0.0726
 1717SOL    HW216611   1.908   1.469   1.605 -3.3447 -0.6846 -0.3544
 1718SOL     OW16612   3.123   2.365   4.096  0.2454 -0.1160  0.3021
 1718SOL    HW116613   3.056   2.300   4.118  0.4513 -0.3722  0.1729
 1718SOL    HW216614   3.189   2.349   4.164 -0.9879  0.1407  1.5662
 1719SOL     OW16615   0.200   3.533   7.824 -0.0126  0.3258  0.1459
 1719SOL    HW116616   0.264   3.496   7.885 -0.2397  1.0197  0.8165
 1719SOL    HW216617   0.255   3.591   7.771 -0.5688  1.4560  0.8034
 1720SOL     OW16618   4.321   4.617   1.095  0.0613  0.5926 -0.1153
 1720SOL    HW116619   4.231   4.616   1.128  0.6140 -1.3508  1.2873
 1720SOL    HW216620   4.296   4.593   1.006 -2.7133 -1.9830  1.3780
 1721SOL     OW16621   3.294   2.484   8.604 -0.0577 -0.2918  0.3753
 1721SOL    HW116622   3.314   2.415   8.541 -3.0650  0.2314 -1.1183
 1721SOL    HW216623   3.204   2.504   8.577  0.7377  1.7415 -0.8029
 1722SOL     OW16624   0.737   2.668   4.176 -0.2994 -0.1593 -0.2434
 1722SOL    HW116625   0.808   2.680   4.239 -1.0965  0.9625  0.4358
 1722SOL    HW216626   0.683   2.741   4.205  1.6644  1.3303 -0.3723
 1723SOL     OW16627   4.678   4.489   5.639  0.0804  0.5334  0.1022
 1723SOL    HW116628   4.666   4.472   5.546  1.9508 -0.4879  0.0359
 1723SOL    HW216629   0.051   4.497   5.641  0.1997 -1.0913  0.7870
 1724SOL     OW16630   0.823   4.120   4.150 -0.4803 -0.5275 -0.7865
 1724SOL    HW116631   0.860   4.157   4.070  3.2846 -1.2691  0.5815
 1724SOL    HW216632   0.902   4.067   4.162  0.4912  1.4955  1.8835
 1725SOL     OW16633   3.039   1.350  17.448 -0.1954 -0.1071  0.3786
 1725SOL    HW116634   2.959   1.315  17.408  0.3137  0.3373 -1.0445
 1725SOL    HW216635   3.061   1.278  17.507  1.2336  1.2935  1.5459
 1726SOL     OW16636   3.739   2.684   3.959 -0.4650  0.4074 -0.4137
 1726SOL    HW116637   3.797   2.701   3.884 -0.3144 -2.4801 -0.9477
 1726SOL    HW216638   3.726   2.590   3.950 -0.0016  0.1768  1.3337
 1727SOL     OW16639   3.496   0.016   0.607 -0.5748 -0.7307 -0.4182
 1727SOL    HW116640   3.560   4.668   0.599 -0.5640 -0.8063  0.3692
 1727SOL    HW216641   3.442   4.710   0.681  0.3827 -0.9922  0.1803
 1728SOL     OW16642   2.025   4.231   7.929  0.1644  0.6374 -0.6065
 1728SOL    HW116643   1.984   4.147   7.910 -0.6891  0.8469  0.3141
 1728SOL    HW216644   2.023   4.229   8.025 -0.6389  2.4798 -0.5953
 1729SOL     OW16645   0.713   2.518   2.351 -0.0192 -0.4353  0.2135
 1729SOL    HW116646   0.626   2.555   2.369 -0.5796 -1.3474 -0.6195
 1729SOL    HW216647   0.722   2.497   2.259 -0.9400 -0.4898  0.1295
 1730SOL     OW16648   2.448   2.738   3.009  0.5276 -0.0268  0.0834
 1730SOL    HW116649   2.434   2.712   2.918  1.7137  0.0657 -0.1254
 1730SOL    HW216650   2.506   2.813   3.002 -1.7888  1.8192  0.5313
 1731SOL     OW16651   3.196   0.344   3.682 -0.1359  0.6008  0.1456
 1731SOL    HW116652   3.103   0.321   3.680  0.1556 -0.6164  0.1233
 1731SOL    HW216653   3.200   0.439   3.671  1.7991  0.6108  0.9155
 1732SOL     OW16654   2.352   2.304   7.736  0.5195  0.3055 -0.2934
 1732SOL    HW116655   2.263   2.310   7.770  0.8016 -1.4480  0.7576
 1732SOL    HW216656   2.346   2.390   7.696  0.5572  0.7982  0.7671
 1733SOL     OW16657   1.012   3.949  14.978  0.0069  0.5131  0.0688
 1733SOL    HW116658   1.106   3.943  14.962  0.0651  0.7746  0.3058
 1733SOL    HW216659   0.994   3.861  15.012  2.4393 -0.6102 -1.5770
 1734SOL     OW16660   3.477   4.561   9.303 -0.1686 -0.1409 -0.1121
 1734SOL    HW116661   3.568   4.584   9.320 -0.5664  2.0400 -1.0201
 1734SOL    HW216662   3.479   4.554   9.208 -2.1123 -1.3006 -0.0880
 1735SOL     OW16663   1.596   0.469   7.705 -0.2746  0.2567  0.1964
 1735SOL    HW116664   1.502   0.462   7.687 -0.7624 -0.3036  3.0615
 1735SOL    HW216665   1.607   0.375   7.714  0.9958  0.1175 -2.6767
 1736SOL     OW16666   1.546   0.184   5.982 -0.5901 -0.6161  0.3181
 1736SOL    HW116667   1.463   0.232   5.979  0.5327  1.4320  1.7697
 1736SOL    HW216668   1.521   0.095   5.955 -0.4784 -0.2186 -1.0723
 1737SOL     OW16669   0.063   0.019   3.232  0.3009 -0.0879  0.3578
 1737SOL    HW116670   0.082   4.654   3.198 -1.2041 -0.6132  0.8687
 1737SOL    HW216671   4.708   0.041   3.179  0.2228 -1.9695 -0.2983
 1738SOL     OW16672   0.757   3.605   8.145  0.4540 -0.3549 -0.0154
 1738SOL    HW116673   0.768   3.695   8.174 -0.5480 -0.4455  0.6651
 1738SOL    HW216674   0.675   3.569   8.181  0.5994  1.0891  1.7844
 1739SOL     OW16675   2.327   4.253   5.222  0.0828 -0.0475 -0.1009
 1739SOL    HW116676   2.339   4.294   5.308  2.0766  0.1925 -0.4952
 1739SOL    HW216677   2.419   4.237   5.200  0.8179  2.0206  1.4182
 1740SOL     OW16678   0.843   0.822   3.880  0.5093  0.5472 -0.1561
 1740SOL    HW116679   0.754   0.841   3.850  0.7146 -0.4101 -1.3310
 1740SOL    HW216680   0.822   0.730   3.890  1.5381  0.6008  2.6782
 1741SOL     OW16681   1.568   3.620  11.911  0.1832  0.3982 -0.1184
 1741SOL    HW116682   1.521   3.545  11.948  1.3706 -0.7454 -0.9517
 1741SOL    HW216683   1.507   3.692  11.928 -0.8079 -0.5322  0.1991
 1742SOL     OW16684   4.258   4.418   4.859 -0.0101  0.0632  0.2918
 1742SOL    HW116685   4.182   4.378   4.817 -0.0619 -0.9133  1.3028
 1742SOL    HW216686   4.252   4.385   4.949  1.3778 -1.5203 -0.1935
 1743SOL     OW16687   2.350   2.560   7.672 -0.0354  0.9893 -0.5919
 1743SOL    HW116688   2.298   2.628   7.629 -1.2443  0.5396  0.1694
 1743SOL    HW216689   2.399   2.610   7.738 -1.4948  1.1237  0.3768
 1744SOL     OW16690   3.576   0.779   6.173 -0.0885  0.0794 -0.3981
 1744SOL    HW116691   3.575   0.762   6.079  3.4059  0.0142 -0.4308
 1744SOL    HW216692   3.661   0.822   6.177 -1.2321  2.3059 -0.0287
 1745SOL     OW16693   0.673   3.165   2.819  0.0977  0.2675 -0.7086
 1745SOL    HW116694   0.696   3.145   2.909 -0.2781 -2.7081 -1.2878
 1745SOL    HW216695   0.745   3.226   2.798  0.4051 -0.2621 -1.2055
 1746SOL     OW16696   0.918   1.422  13.024  0.1739 -0.5653 -0.5329
 1746SOL    HW116697   1.008   1.389  13.023  0.9146  1.4466 -0.5192
 1746SOL    HW216698   0.942   1.508  12.991  4.4903 -2.1677 -1.5973
 1747SOL     OW16699   1.199   2.150   1.601 -0.1155 -0.6182  0.1342
 1747SOL    HW116700   1.185   2.099   1.521  1.1814 -1.0679  0.1892
 1747SOL    HW216701   1.235   2.075   1.648  1.1172  0.0927  0.3234
 1748SOL     OW16702   0.564   2.658   3.839 -0.0265  0.0452  0.3201
 1748SOL    HW116703   0.617   2.737   3.831  0.6407 -0.4757 -0.5004
 1748SOL    HW216704   0.504   2.668   3.764  0.1047  2.4029  0.5558
 1749SOL     OW16705   3.653   0.845   6.943 -0.7775 -0.4320  0.2469
 1749SOL    HW116706   3.694   0.763   6.969  1.0373  0.4668  0.1727
 1749SOL    HW216707   3.723   0.877   6.886  0.3489  1.2366  2.5773
 1750SOL     OW16708   4.146   2.899   4.046  0.0291  0.3279 -0.1438
 1750SOL    HW116709   4.082   2.853   4.101  1.9184 -0.1976  1.6173
 1750SOL    HW216710   4.164   2.972   4.106 -0.3412  1.3164 -1.2314
 1751SOL     OW16711   0.838   0.690   8.901 -0.0260  0.8033 -0.8062
 1751SOL    HW116712   0.828   0.785   8.895  1.3211  1.3538  4.7583
 1751SOL    HW216713   0.832   0.665   8.809  0.2438 -1.9952 -0.0621
 1752SOL     OW16714   2.299   3.543   7.969 -0.1906  0.0454  0.7356
 1752SOL    HW116715   2.348   3.461   7.974 -0.4534 -0.1563  0.0073
 1752SOL    HW216716   2.300   3.577   8.058 -0.3849 -0.6894  1.0211
 1753SOL     OW16717   1.102   4.073   1.023  0.3460 -0.1763  0.1695
 1753SOL    HW116718   1.045   4.005   0.987  2.1319 -2.3888  1.5231
 1753SOL    HW216719   1.178   4.046   0.972  0.2013  0.1911 -0.2397
 1754SOL     OW16720   0.860   0.409   4.821 -0.1364 -0.0468 -0.0843
 1754SOL    HW116721   0.874   0.381   4.912 -0.3809 -0.9258 -0.3160
 1754SOL    HW216722   0.765   0.423   4.825 -0.2810 -0.7913 -0.8474
 1755SOL     OW16723   4.091   3.695   8.057  0.1228  0.3083 -0.2450
 1755SOL    HW116724   4.136   3.705   8.141  0.1450 -0.0351 -0.2142
 1755SOL    HW216725   4.091   3.599   8.047 -1.4440  0.2649  0.2518
 1756SOL     OW16726   2.185   0.409   6.735 -0.0731  0.4354 -0.0749
 1756SOL    HW116727   2.251   0.396   6.803 -0.5970 -1.5376  0.0606
 1756SOL    HW216728   2.137   0.329   6.758  1.8424 -0.3107  1.3664
 1757SOL     OW16729   0.557   2.542   8.415  0.0532 -0.5143 -0.3849
 1757SOL    HW116730   0.521   2.557   8.327 -0.5953  1.4179  0.2127
 1757SOL    HW216731   0.649   2.540   8.389  0.4388 -1.1237  1.0385
 1758SOL     OW16732   2.803   4.649  12.572 -0.1469 -0.8476 -0.3313
 1758SOL    HW116733   2.893   4.674  12.594  0.5267 -1.6344 -2.1383
 1758SOL    HW216734   2.812   4.617  12.482 -1.0151 -1.6316 -0.1393
 1759SOL     OW16735   3.501   3.538   7.246 -0.0100  0.9069  0.1140
 1759SOL    HW116736   3.432   3.484   7.206 -0.8304  1.0136  1.3954
 1759SOL    HW216737   3.556   3.468   7.282  1.0992  1.7199 -0.0142
 1760SOL     OW16738   4.515   0.042   2.751 -0.3150  0.1446 -0.1808
 1760SOL    HW116739   4.533   4.712   2.673  1.5802  0.1416  0.2719
 1760SOL    HW216740   4.526   0.124   2.704 -0.7018  0.5179  0.3746
 1761SOL     OW16741   0.303   0.777   3.687  0.3511 -0.2124 -0.5648
 1761SOL    HW116742   0.335   0.747   3.602  1.5368  0.8318 -0.4902
 1761SOL    HW216743   0.231   0.715   3.697  0.8098 -0.3993  1.7110
 1762SOL     OW16744   4.563   0.262   6.519  0.2069  0.0067 -0.5038
 1762SOL    HW116745   4.488   0.213   6.553  1.7396 -3.3579 -1.9970
 1762SOL    HW216746   4.631   0.198   6.542 -0.7387 -1.1146 -0.8097
 1763SOL     OW16747   2.376   4.321  11.168  0.1939  0.6224  0.1530
 1763SOL    HW116748   2.390   4.258  11.238 -0.5101  0.9047  0.5439
 1763SOL    HW216749   2.290   4.292  11.136  0.9245 -1.6843  0.3180
 1764SOL     OW16750   4.011   1.089   8.841 -0.5205  0.2445  0.1963
 1764SOL    HW116751   4.049   1.169   8.876 -0.1437 -0.1796  0.7537
 1764SOL    HW216752   4.089   1.039   8.816  0.0236  0.6136  1.1698
 1765SOL     OW16753   0.632   2.095   0.680  0.2948 -0.4888  0.2567
 1765SOL    HW116754   0.606   2.131   0.595 -0.1627 -0.0873  0.5682
 1765SOL    HW216755   0.661   2.172   0.729 -4.2745  0.8533  0.8256
 1766SOL     OW16756   1.442   3.192   6.455 -0.5662 -0.1880  0.2154
 1766SOL    HW116757   1.484   3.107   6.448 -0.2118 -0.2834  3.4924
 1766SOL    HW216758   1.520   3.241   6.429 -0.1014 -0.9497  0.1846
 1767SOL     OW16759   1.143   0.654   3.264  0.1511 -0.4901  0.1656
 1767SOL    HW116760   1.139   0.649   3.360  0.3911  1.1809  0.2770
 1767SOL    HW216761   1.117   0.567   3.235  0.8252 -0.7908  0.4716
 1768SOL     OW16762   2.204   3.090   1.988  0.1582  0.4386  0.2979
 1768SOL    HW116763   2.139   3.117   1.924 -0.4955  1.0031  1.2065
 1768SOL    HW216764   2.233   3.176   2.019  0.4905 -0.3134  2.0897
 1769SOL     OW16765   2.390   2.058  17.127 -0.1536 -0.0841 -0.2682
 1769SOL    HW116766   2.423   2.079  17.215 -1.4174  0.9272 -0.0421
 1769SOL    HW216767   2.403   1.963  17.127 -0.0444 -0.0697 -0.7226
 1770SOL     OW16768   3.638   0.003   3.786  0.1524 -0.1821  0.1946
 1770SOL    HW116769   3.572   0.055   3.741 -0.5677 -0.0465  1.4103
 1770SOL    HW216770   3.663   4.681   3.705  1.8878  2.5031 -0.7324
 1771SOL     OW16771   1.425   4.422   0.175  0.1250 -0.0615 -0.0648
 1771SOL    HW116772   1.496   4.360   0.161  0.5153 -0.0491  1.9487
 1771SOL    HW216773   1.451   4.503   0.132 -1.7392  0.9857  0.7664
 1772SOL     OW16774   3.660   4.677   5.469  0.5228  0.5226  0.7675
 1772SOL    HW116775   3.727   0.022   5.461  1.1721 -0.0508  1.3347
 1772SOL    HW216776   3.663   4.648   5.378 -0.2803  3.0766 -0.0486
 1773SOL     OW16777   4.156   1.645   4.515  0.0969 -0.7625  0.0408
 1773SOL    HW116778   4.061   1.636   4.505  0.1405 -0.8459 -0.2964
 1773SOL    HW216779   4.162   1.632   4.609 -0.6552  0.9699  0.3262
 1774SOL     OW16780   4.527   1.550   8.458  0.3906 -0.2669  0.6373
 1774SOL    HW116781   4.491   1.624   8.410  1.1972  0.9250  1.8770
 1774SOL    HW216782   4.535   1.586   8.546  0.1520  2.0381 -0.3045
 1775SOL     OW16783   1.292   2.711   8.406  0.1220  0.0318 -0.2942
 1775SOL    HW116784   1.275   2.781   8.469  2.1231  0.2866 -0.0300
 1775SOL    HW216785   1.294   2.760   8.324  1.9401  0.0815 -0.2083
 1776SOL     OW16786   1.048   4.254   4.645 -0.4174 -0.0335  0.6022
 1776SOL    HW116787   1.012   4.267   4.557  5.2173  0.2786 -1.6416
 1776SOL    HW216788   1.116   4.190   4.626 -0.5351  0.5849 -1.9309
 1777SOL     OW16789   2.567   0.920   9.059  0.2576  0.0566  0.0740
 1777SOL    HW116790   2.580   0.919   9.154  0.5534  2.2829  0.0741
 1777SOL    HW216791   2.654   0.897   9.026  0.5185 -0.1595  0.9103
 1778SOL     OW16792   4.346   1.413   2.486 -0.5619 -0.5237  0.1213
 1778SOL    HW116793   4.328   1.454   2.571  1.4054 -2.1912  1.3353
 1778SOL    HW216794   4.256   1.423   2.453 -0.2085  1.3353 -0.3110
 1779SOL     OW16795   1.589   0.531   7.977 -0.2058  0.1849  0.0555
 1779SOL    HW116796   1.582   0.497   7.888 -1.4488 -1.6323  0.8710
 1779SOL    HW216797   1.540   0.612   7.964  0.3767  0.5315  0.0298
 1780SOL     OW16798   2.880   3.777  15.224 -0.3679 -0.2063  0.6508
 1780SOL    HW116799   2.841   3.856  15.187 -0.4109  0.5136  2.2547
 1780SOL    HW216800   2.963   3.780  15.176  0.1658 -0.9245  1.5115
 1781SOL     OW16801   3.464   0.789   5.101 -0.1743  1.3548  0.1667
 1781SOL    HW116802   3.520   0.763   5.174 -0.4852 -0.8088 -0.3881
 1781SOL    HW216803   3.380   0.749   5.123 -0.8023  2.0368 -0.9802
 1782SOL     OW16804   3.750   4.624   0.965 -0.0118  0.2021  0.2798
 1782SOL    HW116805   3.801   4.590   1.039  1.9477 -0.2974 -1.2814
 1782SOL    HW216806   3.769   4.570   0.888 -1.4321 -1.5538  1.1592
 1783SOL     OW16807   1.181   0.683   5.630  0.0550  0.7810  0.3366
 1783SOL    HW116808   1.088   0.675   5.608  0.2446 -2.9494  0.9622
 1783SOL    HW216809   1.200   0.592   5.651 -3.6784 -0.1086 -0.0439
 1784SOL     OW16810   0.143   2.945  10.003 -0.3752 -0.0886 -0.3049
 1784SOL    HW116811   0.161   3.023   9.950 -0.0485 -0.0186 -0.0892
 1784SOL    HW216812   0.054   2.919   9.980 -1.7539  0.7062  4.1779
 1785SOL     OW16813   4.223   3.106  12.904 -0.0771  0.7110 -0.2197
 1785SOL    HW116814   4.176   3.187  12.925  0.0731  0.7918 -0.1976
 1785SOL    HW216815   4.277   3.094  12.982  0.8651 -1.4575 -1.2011
 1786SOL     OW16816   3.529   1.185   3.383  0.1225  0.2256 -0.3103
 1786SOL    HW116817   3.597   1.138   3.431  1.6957  1.9085 -0.8618
 1786SOL    HW216818   3.583   1.224   3.314  0.7407  0.1805  0.1454
 1787SOL     OW16819   3.926   2.791   8.607 -0.0117  0.3441  0.5132
 1787SOL    HW116820   3.897   2.702   8.589  0.1756  0.5239 -0.6745
 1787SOL    HW216821   4.001   2.765   8.660 -1.7752  0.4042  3.0718
 1788SOL     OW16822   3.811   1.404  16.755  0.5817  0.6167  0.0466
 1788SOL    HW116823   3.827   1.310  16.746  0.2449  0.7035 -1.4524
 1788SOL    HW216824   3.845   1.421  16.843  0.2972 -4.9703  1.2371
 1789SOL     OW16825   2.861   1.809   0.058  0.4659 -0.5186 -0.1366
 1789SOL    HW116826   2.802   1.821  17.675  2.4251 -1.6035 -1.8908
 1789SOL    HW216827   2.924   1.879   0.041  0.9967 -0.9451  0.0566
 1790SOL     OW16828   0.965   1.224   9.141 -0.0969 -0.6182  0.0824
 1790SOL    HW116829   0.974   1.320   9.142 -0.2281 -0.6024 -0.6004
 1790SOL    HW216830   1.031   1.208   9.073 -0.4643  0.5698 -0.5629
 1791SOL     OW16831   3.269   0.099   5.256  0.3458 -0.0952 -0.0339
 1791SOL    HW116832   3.346   0.155   5.246  0.5816 -0.8726 -2.4800
 1791SOL    HW216833   3.278   0.088   5.351  0.5980 -1.4809 -0.2169
 1792SOL     OW16834   0.348   2.174   4.110  0.3886  0.4095  0.0408
 1792SOL    HW116835   0.344   2.080   4.123 -0.8920  0.1534 -2.2575
 1792SOL    HW216836   0.255   2.192   4.121  0.2929 -0.2882  0.3332
 1793SOL     OW16837   4.268   0.324   9.845  0.5090  0.3612 -0.1210
 1793SOL    HW116838   4.356   0.302   9.874  0.5608  1.2714  0.3984
 1793SOL    HW216839   4.221   0.252   9.887  0.3609 -0.8140 -2.2892
 1794SOL     OW16840   2.554   2.110   5.896  0.0380 -0.4612  0.0186
 1794SOL    HW116841   2.579   2.039   5.956  0.4186 -0.3845 -0.0469
 1794SOL    HW216842   2.562   2.189   5.950 -0.1986 -0.2660 -0.2378
 1795SOL     OW16843   4.125   4.682   5.456 -0.0319  0.1896 -0.1680
 1795SOL    HW116844   4.110   4.656   5.547 -0.7641 -1.0208 -0.6313
 1795SOL    HW216845   4.050   4.640   5.415 -0.3791 -0.7810  1.4579
 1796SOL     OW16846   1.232   2.607   6.002 -0.2702 -0.1537  0.2687
 1796SOL    HW116847   1.208   2.597   5.910  0.9187  1.2315 -0.1855
 1796SOL    HW216848   1.320   2.571   5.999 -1.4838 -3.1341  0.2808
 1797SOL     OW16849   3.585   0.958   4.939 -0.5155 -0.3866  0.3597
 1797SOL    HW116850   3.524   0.945   4.866 -0.1462  0.1517 -0.0426
 1797SOL    HW216851   3.565   0.884   4.997 -2.5540 -0.6244 -0.6581
 1798SOL     OW16852   3.840   1.955   6.127  0.2602 -0.1376  0.0777
 1798SOL    HW116853   3.934   1.966   6.139  0.7428 -2.0239 -2.0478
 1798SOL    HW216854   3.826   1.863   6.149  0.1891 -0.6254 -2.0108
 1799SOL     OW16855   3.876   0.639  17.542 -0.1761  0.3898  0.3886
 1799SOL    HW116856   3.820   0.652  17.619  0.5287 -3.4741  1.5392
 1799SOL    HW216857   3.818   0.579  17.497  1.3833  1.2525 -2.7636
 1800SOL     OW16858   1.866   0.630   6.946 -0.2412  0.8702  0.1594
 1800SOL    HW116859   1.919   0.596   6.875  0.3253  0.1113  0.9403
 1800SOL    HW216860   1.901   0.585   7.023 -0.0236 -1.6811 -1.4352
 1801SOL     OW16861   4.249   4.021   9.904 -0.0124 -0.4183 -0.0861
 1801SOL    HW116862   4.207   3.957   9.847  0.8925 -3.0909  2.2472
 1801SOL    HW216863   4.282   4.087   9.843  0.8956 -0.9253 -0.1396
 1802SOL     OW16864   2.392   1.883   3.036  0.4442 -0.8435 -0.3100
 1802SOL    HW116865   2.336   1.955   3.005  1.1178  0.2535  1.0124
 1802SOL    HW216866   2.395   1.818   2.966  3.4480 -0.6873 -0.3412
 1803SOL     OW16867   2.970   3.452   2.528 -0.3050 -0.3126 -0.0006
 1803SOL    HW116868   2.988   3.540   2.562  5.2593 -1.1282 -0.7067
 1803SOL    HW216869   3.020   3.456   2.446 -1.1590 -0.6516 -0.5334
 1804SOL     OW16870   2.672   3.811   8.186 -0.8344 -0.1160  0.1501
 1804SOL    HW116871   2.760   3.797   8.219  0.5191  0.4291 -3.2749
 1804SOL    HW216872   2.625   3.816   8.269  0.5378  2.9574  0.7284
 1805SOL     OW16873   0.943   1.739   6.476 -0.0648  0.1404  1.0208
 1805SOL    HW116874   0.994   1.666   6.513 -1.4984 -1.4960 -0.2076
 1805SOL    HW216875   1.016   1.778   6.428  0.4463 -2.4115 -0.3210
 1806SOL     OW16876   0.823   3.991   4.859 -0.6358  0.2881  0.3461
 1806SOL    HW116877   0.731   4.012   4.846 -1.0804 -1.1598  1.1597
 1806SOL    HW216878   0.811   3.914   4.915  0.1705  0.5069  0.8225
 1807SOL     OW16879   3.322   4.233   4.617  0.2801  0.1685 -0.1705
 1807SOL    HW116880   3.370   4.257   4.538 -0.7644  1.7818 -0.3198
 1807SOL    HW216881   3.254   4.183   4.572  0.4824  1.2058 -1.6297
 1808SOL     OW16882   0.482   2.595   6.566 -0.3055 -0.4964 -0.2767
 1808SOL    HW116883   0.549   2.526   6.570 -1.2281 -1.3716  0.2393
 1808SOL    HW216884   0.522   2.658   6.626  0.4048 -0.2383 -1.0256
 1809SOL     OW16885   1.358   0.318   8.564  0.0692  0.3469 -0.3952
 1809SOL    HW116886   1.389   0.377   8.632 -1.3492 -1.1374  1.5497
 1809SOL    HW216887   1.434   0.264   8.542 -0.3144 -1.4300  2.4936
 1810SOL     OW16888   0.493   0.324   2.661 -0.3334 -0.3496  0.2297
 1810SOL    HW116889   0.568   0.272   2.689  0.3631  0.0762 -0.8154
 1810SOL    HW216890   0.459   0.360   2.743  2.3089  1.1704  0.6574
 1811SOL     OW16891   0.583   3.877   9.391 -0.0536 -0.2188  0.0248
 1811SOL    HW116892   0.635   3.807   9.350 -0.7767 -0.7638  0.0300
 1811SOL    HW216893   0.663   3.908   9.433  0.8682 -1.4419 -0.8153
 1812SOL     OW16894   1.870   4.392   8.584  0.5873  0.8418  0.4691
 1812SOL    HW116895   1.837   4.383   8.673 -1.1838  0.9810 -0.1648
 1812SOL    HW216896   1.964   4.394   8.600  0.7661 -2.2502 -0.0844
 1813SOL     OW16897   4.245   0.113   3.941  0.3501 -0.4415 -0.2519
 1813SOL    HW116898   4.211   0.202   3.943  1.5508  0.0012  0.7274
 1813SOL    HW216899   4.205   0.087   4.024 -0.2570  0.9992 -0.1056
 1814SOL     OW16900   3.178   1.739  14.103 -0.4814  0.4121 -0.3671
 1814SOL    HW116901   3.247   1.789  14.146 -1.6032  0.5246  1.3263
 1814SOL    HW216902   3.163   1.669  14.167 -2.2133 -0.5605 -1.8253
 1815SOL     OW16903   0.448   4.289   2.718  0.2181 -0.7172  0.2375
 1815SOL    HW116904   0.538   4.319   2.707 -0.0073  0.0932  0.6103
 1815SOL    HW216905   0.416   4.333   2.640 -0.0335 -0.4301  0.5007
 1816SOL     OW16906   3.322   1.685   1.303  0.1998 -0.3237 -0.0681
 1816SOL    HW116907   3.258   1.733   1.355  0.9812  0.0308  0.5572
 1816SOL    HW216908   3.255   1.638   1.254 -1.3884 -0.4582  2.2382
 1817SOL     OW16909   3.763   0.384   7.103 -0.5575 -0.6568 -0.0895
 1817SOL    HW116910   3.822   0.342   7.165 -2.4468 -0.1498  2.0715
 1817SOL    HW216911   3.755   0.318   7.034  0.8312 -1.0091  0.0947
 1818SOL     OW16912   3.135   0.287  14.396 -0.0803 -0.7710 -0.2785
 1818SOL    HW116913   3.199   0.299  14.466 -0.6027  0.1207  0.0518
 1818SOL    HW216914   3.162   0.334  14.317 -0.4227 -1.4422 -0.7937
 1819SOL     OW16915   2.072   3.231   0.081 -0.0429  0.1838  0.1271
 1819SOL    HW116916   2.071   3.314   0.130  3.1545 -0.6179  1.5422
 1819SOL    HW216917   2.100   3.272  17.691  0.7450 -1.0012 -0.1836
 1820SOL     OW16918   3.388   2.259   4.154  0.0315  0.1808 -0.1677
 1820SOL    HW116919   3.420   2.349   4.147 -0.4498  0.5821  2.7434
 1820SOL    HW216920   3.354   2.235   4.068 -2.8785 -0.5999  1.1799
 1821SOL     OW16921   2.024   0.262   8.324 -0.0869  0.2187  0.4723
 1821SOL    HW116922   1.951   0.201   8.312  0.3104 -0.4163  1.2763
 1821SOL    HW216923   2.094   0.230   8.268  0.3913  1.7839  0.1913
 1822SOL     OW16924   0.981   3.482   4.165  0.5193 -0.0404  0.0666
 1822SOL    HW116925   0.898   3.527   4.146  0.1762  0.0066  1.7090
 1822SOL    HW216926   0.982   3.411   4.100  0.6753  0.3947 -0.4095
 1823SOL     OW16927   3.116   0.106  16.015 -0.3754  0.1788  0.7502
 1823SOL    HW116928   3.090   0.187  16.058  0.2883 -0.0827  1.6669
 1823SOL    HW216929   3.202   0.093  16.055 -1.1081  0.7772  2.5322
 1824SOL     OW16930   3.084   1.968  10.765  0.1211  0.5097 -0.1233
 1824SOL    HW116931   3.053   1.883  10.735 -0.7788 -0.2121  2.8531
 1824SOL    HW216932   3.164   1.925  10.798 -0.0129 -0.0564 -0.5368
 1825SOL     OW16933   2.137   0.416   4.862  0.1680 -0.0792 -0.4825
 1825SOL    HW116934   2.105   0.374   4.783  1.0667 -1.0408 -0.3339
 1825SOL    HW216935   2.138   0.339   4.918  0.6538  1.0566  1.0945
 1826SOL     OW16936   3.141   0.046  13.021 -0.3898 -0.4766 -0.3948
 1826SOL    HW116937   3.055   0.065  13.059 -0.6274 -2.6522  0.1485
 1826SOL    HW216938   3.158   0.121  12.963 -1.3762  0.3421  0.3730
 1827SOL     OW16939   0.841   3.277   5.101  0.3162 -0.5669  0.2657
 1827SOL    HW116940   0.880   3.223   5.170  1.0230  0.6422  0.8097
 1827SOL    HW216941   0.887   3.253   5.021 -1.0358  0.5430 -0.8620
 1828SOL     OW16942   3.489   2.634  14.527 -0.1615  1.0231 -0.2597
 1828SOL    HW116943   3.529   2.632  14.614  0.2143 -0.3027 -0.4738
 1828SOL    HW216944   3.401   2.598  14.528  0.5616 -0.6783  2.4530
 1829SOL     OW16945   3.629   1.144   6.404 -0.3875  0.1436 -0.0177
 1829SOL    HW116946   3.656   1.150   6.312  1.4984 -0.3251  0.5031
 1829SOL    HW216947   3.534   1.134   6.398 -0.1982 -0.7123 -1.5319
 1830SOL     OW16948   2.398   2.915  16.040 -0.0159 -0.5574  0.5374
 1830SOL    HW116949   2.456   2.965  16.097  0.2153  0.6818 -0.8007
 1830SOL    HW216950   2.309   2.909  16.075  0.4348 -2.3211  1.4031
 1831SOL     OW16951   0.026   0.289   8.081  0.4118 -0.2323 -0.0620
 1831SOL    HW116952   0.050   0.221   8.145  0.1662 -0.9025 -0.6879
 1831SOL    HW216953   0.031   0.247   7.995  2.7293  2.4200 -1.2006
 1832SOL     OW16954   4.613   0.812   1.859  0.3023  0.3996  0.2901
 1832SOL    HW116955   4.553   0.806   1.785  0.1344  1.8357  0.3170
 1832SOL    HW216956   4.635   0.905   1.859  0.7921  0.2732  1.8128
 1833SOL     OW16957   2.173   3.221  15.718 -0.3623 -0.3694  0.7071
 1833SOL    HW116958   2.228   3.220  15.639  2.3924 -1.1772  2.6119
 1833SOL    HW216959   2.104   3.286  15.706 -2.0687 -1.7910  2.9232
 1834SOL     OW16960   0.665   3.502  10.285 -0.7987  0.0354  0.1858
 1834SOL    HW116961   0.626   3.503  10.373  0.8244 -1.9100  0.9321
 1834SOL    HW216962   0.757   3.515  10.307 -1.0848  1.5189  0.5017
 1835SOL     OW16963   3.537   3.851  15.175  0.0596 -0.4135  0.3301
 1835SOL    HW116964   3.565   3.796  15.102 -0.6961 -0.5710  0.1682
 1835SOL    HW216965   3.590   3.930  15.163 -0.2861 -0.4626 -1.4316
 1836SOL     OW16966   3.135   3.517   2.964 -0.0466 -0.3157 -0.0187
 1836SOL    HW116967   3.137   3.434   3.012  0.5317 -0.4369 -0.2437
 1836SOL    HW216968   3.095   3.484   2.884 -0.4658 -0.5756  0.3022
 1837SOL     OW16969   1.260   1.836  15.062  0.0727 -0.0229 -1.0501
 1837SOL    HW116970   1.243   1.758  15.116  0.8328  1.3347  1.1473
 1837SOL    HW216971   1.294   1.800  14.980  0.0449  1.0045 -1.5069
 1838SOL     OW16972   1.055   3.633   5.386  0.5778  0.4457  0.0965
 1838SOL    HW116973   1.085   3.542   5.377  1.7371  0.7516  0.9294
 1838SOL    HW216974   1.102   3.660   5.464 -1.9382  0.1224  1.7513
 1839SOL     OW16975   2.340   1.450   6.870  0.5450 -0.5114  0.2131
 1839SOL    HW116976   2.360   1.439   6.777  1.9135  1.1595  0.3150
 1839SOL    HW216977   2.426   1.477   6.902  0.5313 -1.6783  1.2674
 1840SOL     OW16978   3.460   3.655   9.506 -0.3245 -0.4354 -0.2911
 1840SOL    HW116979   3.384   3.659   9.447 -0.1509 -0.0956 -0.4840
 1840SOL    HW216980   3.521   3.714   9.463 -0.4244  0.0761  0.2641
 1841SOL     OW16981   2.374   0.626   9.225  0.1556 -0.5590  0.2468
 1841SOL    HW116982   2.439   0.608   9.293 -0.6157 -1.1125  0.8246
 1841SOL    HW216983   2.327   0.699   9.265  0.4372  0.0717 -0.5586
 1842SOL     OW16984   3.168   4.082   6.927 -0.3185 -0.1429 -0.5633
 1842SOL    HW116985   3.252   4.122   6.951 -0.2305 -0.6260 -0.0658
 1842SOL    HW216986   3.162   4.122   6.840 -0.6491 -1.5699 -1.1874
 1843SOL     OW16987   2.389   0.607   5.732 -0.0257 -0.2861 -0.2638
 1843SOL    HW116988   2.387   0.529   5.788 -2.1723  1.1141  1.5823
 1843SOL    HW216989   2.323   0.594   5.664  1.1141 -0.9106 -1.2532
 1844SOL     OW16990   3.230   2.270  14.483 -0.4277  0.0119 -0.2772
 1844SOL    HW116991   3.291   2.273  14.557 -0.3344  0.4469 -0.3692
 1844SOL    HW216992   3.184   2.351  14.506  0.0651  0.5327 -1.1365
 1845SOL     OW16993   3.652   3.371   1.219 -0.2547  0.0956 -0.2050
 1845SOL    HW116994   3.729   3.347   1.167 -0.0593  0.1950  0.0398
 1845SOL    HW216995   3.692   3.448   1.260 -1.3112  0.5937 -0.1071
 1846SOL     OW16996   1.907   1.344   6.503  0.1492 -0.1691  0.2619
 1846SOL    HW116997   1.961   1.388   6.568 -0.3867 -1.1227  1.3612
 1846SOL    HW216998   1.978   1.294   6.463  0.6363 -0.4997  1.5590
 1847SOL     OW16999   0.982   1.629   8.939 -0.0875 -0.0132  0.2191
 1847SOL    HW117000   1.028   1.703   8.979 -0.4729 -0.0593  0.7552
 1847SOL    HW217001   1.000   1.570   9.012  1.8578  0.1223 -0.1384
 1848SOL     OW17002   2.138   0.933   4.644 -0.1303 -0.2016  0.5718
 1848SOL    HW117003   2.087   0.971   4.573  1.3356  1.1991  0.2595
 1848SOL    HW217004   2.134   0.840   4.626 -2.1874  0.4025 -2.0294
 1849SOL     OW17005   2.823   4.647   1.153  0.2132 -0.0534  0.1030
 1849SOL    HW117006   2.785   4.705   1.087  1.8076 -1.2907 -1.8929
 1849SOL    HW217007   2.905   4.622   1.110  1.9484  0.7026  2.9156
 1850SOL     OW17008   4.356   3.445   2.568 -0.3345 -0.3890 -0.2772
 1850SOL    HW117009   4.333   3.450   2.661  0.7880  0.3794 -0.0396
 1850SOL    HW217010   4.404   3.526   2.550  0.7144 -0.5445  1.7634
 1851SOL     OW17011   4.312   4.476   2.524  0.0367  0.3680 -0.0168
 1851SOL    HW117012   4.271   4.390   2.521 -1.9540  1.2953  0.6458
 1851SOL    HW217013   4.381   4.476   2.591  1.5848  0.5162 -1.6121
 1852SOL     OW17014   2.472   2.296   6.081  0.1702 -0.0392 -0.4257
 1852SOL    HW117015   2.469   2.392   6.091 -0.2622  0.2711 -3.3803
 1852SOL    HW217016   2.386   2.277   6.045  0.1099 -1.4136  0.4597
 1853SOL     OW17017   3.085   1.782   3.538  0.3219 -0.1329 -0.3584
 1853SOL    HW117018   3.105   1.874   3.558  0.4763 -0.2963  0.2151
 1853SOL    HW217019   3.027   1.798   3.463  0.8741  0.5336 -0.6514
 1854SOL     OW17020   0.977   1.413   5.862 -0.2429 -0.3580  0.0341
 1854SOL    HW117021   1.000   1.451   5.778 -1.1867  2.1711  0.9081
 1854SOL    HW217022   0.882   1.422   5.860 -0.1771  0.9050  1.9108
 1855SOL     OW17023   4.542   2.945   4.457 -0.3104  0.1070  0.0889
 1855SOL    HW117024   4.456   2.952   4.414 -0.0458  0.9968 -0.2820
 1855SOL    HW217025   4.519   2.981   4.542  2.1002  2.2086 -0.1558
 1856SOL     OW17026   0.550   2.007  15.252  0.3533 -0.2035 -0.5549
 1856SOL    HW117027   0.552   2.004  15.348 -0.7978 -0.2121 -0.5360
 1856SOL    HW217028   0.556   2.097  15.223  3.7405  0.3171  1.7614
 1857SOL     OW17029   1.051   4.150   0.325 -0.6718 -0.3278 -0.1922
 1857SOL    HW117030   0.965   4.173   0.290 -0.3373 -0.0616 -0.8332
 1857SOL    HW217031   1.077   4.233   0.366  0.4773 -0.8264  0.1008
 1858SOL     OW17032   4.544   2.036   7.347  1.0476  0.6885 -0.0768
 1858SOL    HW117033   4.452   2.024   7.324  1.9830 -4.0272 -1.4358
 1858SOL    HW217034   4.580   1.948   7.330 -0.8848  0.1514 -1.3956
 1859SOL     OW17035   4.442   2.332   9.227 -0.3678 -0.1183 -0.3796
 1859SOL    HW117036   4.491   2.410   9.200  0.4370 -0.5583 -0.1851
 1859SOL    HW217037   4.354   2.370   9.218 -1.1393 -1.4744  1.2727
 1860SOL     OW17038   3.194   2.805   6.035  0.1403 -0.4692 -0.0135
 1860SOL    HW117039   3.200   2.890   6.079 -0.6734 -0.3123 -0.1936
 1860SOL    HW217040   3.156   2.764   6.112  1.8254 -1.6945  0.1628
 1861SOL     OW17041   1.540   3.507   4.503  0.1025 -0.3466  0.1924
 1861SOL    HW117042   1.566   3.551   4.422 -0.1429  0.4357  0.5450
 1861SOL    HW217043   1.622   3.457   4.507 -0.9593 -2.2134 -0.9163
 1862SOL     OW17044   4.527   4.690  16.096 -0.4644  0.5607 -0.3611
 1862SOL    HW117045   4.611   4.651  16.121 -1.5884  0.0457  2.6586
 1862SOL    HW217046   4.466   4.676  16.169 -0.8126  0.6424 -0.6364
 1863SOL     OW17047   0.008   4.586   8.131 -0.1643  0.5653  0.1858
 1863SOL    HW117048   0.046   4.539   8.057 -1.2024  1.6062 -1.0079
 1863SOL    HW217049   4.682   4.518   8.178 -0.5003  1.2270  0.8091
 1864SOL     OW17050   0.042   3.859   3.124 -0.1553 -0.0237 -0.0949
 1864SOL    HW117051   4.687   3.911   3.099  0.3176  0.7850  0.1288
 1864SOL    HW217052   0.013   3.768   3.111  2.8019 -1.1232  1.0763
 1865SOL     OW17053   2.603   3.574  16.906 -0.2554 -0.0518 -0.1609
 1865SOL    HW117054   2.584   3.504  16.844 -0.2862  0.8230 -1.1416
 1865SOL    HW217055   2.690   3.604  16.880  0.3361 -2.2520 -0.7383
 1866SOL     OW17056   4.001   0.259   4.045 -0.0463  0.2107  0.1009
 1866SOL    HW117057   3.947   0.263   4.123 -3.2537 -3.6219 -1.9202
 1866SOL    HW217058   3.942   0.277   3.972  0.4384  1.0000 -0.0930
 1867SOL     OW17059   3.533   1.689   6.444  0.3346  0.2594  0.0538
 1867SOL    HW117060   3.596   1.680   6.516  0.0138  0.2247  0.3308
 1867SOL    HW217061   3.474   1.749   6.490 -1.7918 -1.9443  0.2294
 1868SOL     OW17062   2.077   1.692   2.845 -0.8762  0.0805  0.0747
 1868SOL    HW117063   2.160   1.733   2.870 -0.4608  1.4525 -3.5040
 1868SOL    HW217064   2.066   1.730   2.757  0.4281 -0.0531 -0.1502
 1869SOL     OW17065   2.561   1.407   0.717  0.1946  0.4370 -0.1107
 1869SOL    HW117066   2.538   1.315   0.728 -1.0515  0.8309  0.5405
 1869SOL    HW217067   2.545   1.441   0.805  2.7940 -2.2925  1.3993
 1870SOL     OW17068   2.345   2.055   4.967  0.1021 -0.5444 -0.6241
 1870SOL    HW117069   2.432   2.016   4.973  0.8319  1.0405 -0.6855
 1870SOL    HW217070   2.325   2.089   5.055  1.2645 -0.5960 -0.3419
 1871SOL     OW17071   0.620   4.206   0.830 -0.4715  1.3794 -0.1489
 1871SOL    HW117072   0.690   4.271   0.837 -1.0183  2.1978 -2.0343
 1871SOL    HW217073   0.539   4.257   0.822 -0.6070  1.0273 -1.0738
 1872SOL     OW17074   0.093   0.951  10.069  0.4658 -0.2759 -0.1622
 1872SOL    HW117075   0.118   1.005   9.993  0.9874  0.7755  0.7583
 1872SOL    HW217076   0.141   0.981  10.146  0.1985  3.7339 -1.5332
 1873SOL     OW17077   2.583   0.962  17.129 -0.6502  0.3672 -0.1746
 1873SOL    HW117078   2.596   0.999  17.041  0.8045  0.9336  0.2712
 1873SOL    HW217079   2.562   0.874  17.099  0.8115 -0.1791  0.4279
 1874SOL     OW17080   3.187   3.009   5.741  0.4307 -0.5647  0.5266
 1874SOL    HW117081   3.106   2.977   5.780  0.2383 -1.3049 -0.4640
 1874SOL    HW217082   3.238   2.936   5.776  0.9457  0.1706  1.3032
 1875SOL     OW17083   1.214   3.797   7.929 -0.2981  0.5126  0.3111
 1875SOL    HW117084   1.138   3.816   7.984  0.3111  1.2858  0.8799
 1875SOL    HW217085   1.237   3.879   7.887 -2.8395  0.6105 -0.8683
 1876SOL     OW17086   2.258   4.470   5.031  0.1000 -0.1929 -0.0462
 1876SOL    HW117087   2.284   4.426   5.112 -1.1011  1.6571  1.3470
 1876SOL    HW217088   2.258   4.402   4.964 -0.7976 -2.3490  2.1627
 1877SOL     OW17089   3.392   3.948   9.629 -0.0693  0.1138  0.4697
 1877SOL    HW117090   3.381   3.952   9.724 -2.7083 -0.9349  0.2148
 1877SOL    HW217091   3.483   3.919   9.634 -0.9496 -2.9458 -1.3421
 1878SOL     OW17092   2.507   4.186  13.838 -0.2652 -0.5997 -0.1929
 1878SOL    HW117093   2.483   4.191  13.745  1.5883 -1.9307 -0.7487
 1878SOL    HW217094   2.459   4.108  13.865 -2.7369  1.2203  0.7574
 1879SOL     OW17095   4.081   0.700  11.357  0.3794 -0.2766 -0.3985
 1879SOL    HW117096   4.005   0.756  11.373  1.1961  0.5659  0.5047
 1879SOL    HW217097   4.091   0.714  11.262 -0.1247 -0.9491 -0.5493
 1880SOL     OW17098   2.313   4.013   5.397 -0.2579 -0.5697  0.3719
 1880SOL    HW117099   2.382   3.969   5.347  0.0857 -2.4423  2.4940
 1880SOL    HW217100   2.363   4.027   5.477  1.5809 -1.5059 -0.5998
 1881SOL     OW17101   0.922   3.140   4.652  0.3632  0.4837  0.0972
 1881SOL    HW117102   0.871   3.215   4.623  0.4555  0.3285 -0.4820
 1881SOL    HW217103   0.858   3.082   4.691  0.5580 -0.7063 -1.3316
 1882SOL     OW17104   4.105   1.678   8.822 -0.2845  0.1681  0.9170
 1882SOL    HW117105   4.086   1.595   8.866  0.8395 -1.0048 -0.8566
 1882SOL    HW217106   4.133   1.737   8.893  1.4900 -0.6750  0.9232
 1883SOL     OW17107   1.107   1.555   7.778  0.0829 -0.2340  0.0548
 1883SOL    HW117108   1.154   1.493   7.835  1.1014  0.1621 -0.3500
 1883SOL    HW217109   1.181   1.603   7.741 -0.1858  1.2259  1.4097
 1884SOL     OW17110   1.899   2.557   8.005  0.0639  0.5358  0.7100
 1884SOL    HW117111   1.985   2.589   7.977 -1.1808  2.5451 -0.8131
 1884SOL    HW217112   1.866   2.538   7.918  1.6634  1.8982 -0.1942
 1885SOL     OW17113   3.220   0.446   3.282  0.5310  0.1323 -0.4481
 1885SOL    HW117114   3.306   0.407   3.295  0.2632 -0.1899  0.3183
 1885SOL    HW217115   3.246   0.538   3.284 -0.6337  0.4110  1.9255
 1886SOL     OW17116   3.948   4.538   7.345  0.2694  0.5789 -0.0975
 1886SOL    HW117117   3.889   4.506   7.413  0.5954  0.0324 -0.0720
 1886SOL    HW217118   4.010   4.465   7.348 -1.5966 -0.9908 -0.0228
 1887SOL     OW17119   3.715   1.392  16.496  0.1906 -0.0569  1.0554
 1887SOL    HW117120   3.757   1.405  16.581 -0.1488  2.4847  0.8448
 1887SOL    HW217121   3.643   1.455  16.504 -0.1075 -0.0864 -1.2414
 1888SOL     OW17122   2.868   1.702  15.171  0.3215  0.4330 -0.1591
 1888SOL    HW117123   2.860   1.646  15.093  1.4714 -0.1851  0.1703
 1888SOL    HW217124   2.792   1.674  15.221 -0.5560  2.4098 -0.3951
 1889SOL     OW17125   2.475   1.259   3.150  0.3143 -0.3466 -0.3771
 1889SOL    HW117126   2.405   1.221   3.097 -0.4164  0.7230 -0.1750
 1889SOL    HW217127   2.422   1.327   3.191  0.9495 -0.2504  0.2920
 1890SOL     OW17128   0.212   4.420   1.125 -0.0520 -0.4545  0.2304
 1890SOL    HW117129   0.252   4.335   1.145 -1.6178 -0.9351  1.3471
 1890SOL    HW217130   0.193   4.454   1.213  1.5082  1.6285 -0.2562
 1891SOL     OW17131   1.961   2.641   3.245 -0.2572  0.4805 -0.4161
 1891SOL    HW117132   1.881   2.606   3.284 -0.3692  2.1645  0.9004
 1891SOL    HW217133   1.931   2.628   3.155  2.0930 -1.7744 -0.8463
 1892SOL     OW17134   2.730   0.060   0.908 -0.3240 -0.3046 -0.6385
 1892SOL    HW117135   2.706   0.133   0.852 -0.7804  1.7627  2.2544
 1892SOL    HW217136   2.654   0.075   0.964  0.1277  1.3060 -0.4695
 1893SOL     OW17137   1.254   4.567   2.556 -0.5532  0.5027 -0.5545
 1893SOL    HW117138   1.176   4.547   2.607 -0.5182  2.2120  0.1821
 1893SOL    HW217139   1.265   4.491   2.499  0.7289  2.1334 -2.5199
 1894SOL     OW17140   4.493   3.240   6.719 -0.0177  0.0799  0.4090
 1894SOL    HW117141   4.539   3.285   6.790  1.1268 -0.4968  0.0269
 1894SOL    HW217142   4.400   3.248   6.743 -0.1146 -0.5285  0.2280
 1895SOL     OW17143   4.162   4.203   2.566 -0.4818 -0.0254 -0.4395
 1895SOL    HW117144   4.092   4.230   2.507 -0.2901 -0.4917 -0.8784
 1895SOL    HW217145   4.126   4.219   2.653  0.1773 -0.6462 -0.0545
 1896SOL     OW17146   3.392   1.552   2.346  0.7229 -0.1201 -0.6269
 1896SOL    HW117147   3.360   1.640   2.328 -0.7568 -0.2051  1.5480
 1896SOL    HW217148   3.310   1.511   2.372 -0.0266  0.6518 -1.7734
 1897SOL     OW17149   1.742   2.105   3.725  0.3811 -0.3433  0.3682
 1897SOL    HW117150   1.714   2.053   3.650  1.0360 -0.9243  0.5300
 1897SOL    HW217151   1.755   2.033   3.786 -1.5620  0.5531  1.8366
 1898SOL     OW17152   2.310   0.682  13.142  0.0081 -0.3270  0.2419
 1898SOL    HW117153   2.319   0.623  13.067 -2.4452 -0.6978  0.2437
 1898SOL    HW217154   2.321   0.616  13.210  3.5859  0.4130  0.3981
 1899SOL     OW17155   3.010   2.223   0.574  0.3917  0.0113 -0.4577
 1899SOL    HW117156   2.966   2.307   0.586  1.3060  0.5937 -1.2562
 1899SOL    HW217157   3.091   2.241   0.622 -0.3720 -1.4209  1.3382
 1900SOL     OW17158   3.810   0.511   7.838  0.1171 -0.4933  0.1985
 1900SOL    HW117159   3.726   0.527   7.882  1.4180 -0.1644  2.5374
 1900SOL    HW217160   3.862   0.585   7.868  0.1612 -1.1823  1.8245
 1901SOL     OW17161   0.020   1.178  14.364 -0.0217 -0.1484  0.3470
 1901SOL    HW117162   0.073   1.132  14.299 -0.1589 -2.5237  1.8887
 1901SOL    HW217163   4.678   1.109  14.383  1.2988 -1.7028 -0.8770
 1902SOL     OW17164   1.720   3.407   9.369 -0.3736  0.0161 -0.1431
 1902SOL    HW117165   1.730   3.441   9.458  0.3739  0.9382 -0.5751
 1902SOL    HW217166   1.704   3.489   9.323  0.1664  0.0391 -0.2872
 1903SOL     OW17167   1.816   2.637   0.394 -0.0201 -0.0355 -0.4083
 1903SOL    HW117168   1.798   2.649   0.301 -0.8578  2.0235  0.0370
 1903SOL    HW217169   1.889   2.574   0.394  0.1794  0.1978  1.2819
 1904SOL     OW17170   1.397   2.024   7.603 -0.1368 -0.6773 -0.1801
 1904SOL    HW117171   1.465   2.058   7.546 -1.9971 -2.5552 -3.5123
 1904SOL    HW217172   1.342   2.102   7.604  1.0100  0.1308 -0.5434
 1905SOL     OW17173   3.164   3.692  13.067  0.9500  0.4136 -0.8937
 1905SOL    HW117174   3.082   3.696  13.117  1.0185 -1.0631 -0.6583
 1905SOL    HW217175   3.146   3.611  13.019 -1.1904 -0.0588  0.7090
 1906SOL     OW17176   1.124   4.109  10.697 -0.4472  0.8876 -0.5950
 1906SOL    HW117177   1.190   4.152  10.643  0.8589  0.6374  0.8130
 1906SOL    HW217178   1.135   4.020  10.665  2.0486  0.7556  0.6614
 1907SOL     OW17179   1.276   0.026   2.356 -0.3308  0.3101  0.5157
 1907SOL    HW117180   1.349   4.718   2.302 -1.8928 -0.9109 -0.9155
 1907SOL    HW217181   1.291   4.675   2.416 -1.0235 -0.5182 -0.3217
 1908SOL     OW17182   0.864   2.701   0.373  0.3215  0.2682 -0.6151
 1908SOL    HW117183   0.780   2.693   0.418  0.4974  3.6730  0.3404
 1908SOL    HW217184   0.838   2.688   0.282 -0.4114  1.6653 -0.6058
 1909SOL     OW17185   4.373   2.921   3.378 -0.0509 -0.4493  0.4174
 1909SOL    HW117186   4.338   3.007   3.355  2.0669 -0.3081 -2.3128
 1909SOL    HW217187   4.467   2.940   3.380 -0.2220  0.3888  0.4744
 1910SOL     OW17188   1.210   0.186   7.848 -0.0998  0.2935  1.0776
 1910SOL    HW117189   1.293   0.157   7.884  0.5767  0.3881 -0.4029
 1910SOL    HW217190   1.194   0.248   7.919  0.3800 -1.1218  2.4265
 1911SOL     OW17191   4.690   2.102   8.803 -0.2095  0.4075  0.2371
 1911SOL    HW117192   4.629   2.124   8.873  0.6752  0.9896  0.8298
 1911SOL    HW217193   0.035   2.169   8.815 -0.3655  1.2743 -3.5985
 1912SOL     OW17194   3.180   0.856   5.401  0.2300 -0.5540  0.3693
 1912SOL    HW117195   3.176   0.800   5.479  1.4083 -2.5807 -1.0258
 1912SOL    HW217196   3.258   0.823   5.357  0.8590  0.2941  0.8291
 1913SOL     OW17197   4.552   2.551   7.572  0.1582 -0.3414  0.6386
 1913SOL    HW117198   4.580   2.619   7.511 -1.0903 -2.1643 -1.9683
 1913SOL    HW217199   4.618   2.560   7.640 -0.3179 -2.4069  1.3598
 1914SOL     OW17200   0.276   0.163  15.359  0.0732  0.1596  0.3545
 1914SOL    HW117201   0.234   0.125  15.282  0.1559 -1.0765  0.9218
 1914SOL    HW217202   0.210   0.231  15.372  0.8949  0.1657  4.3503
 1915SOL     OW17203   1.352   0.415   4.611  0.4480 -0.6446 -0.4188
 1915SOL    HW117204   1.350   0.320   4.619  2.8465 -0.9599 -3.4674
 1915SOL    HW217205   1.437   0.437   4.574  0.5970 -0.9388 -0.2459
 1916SOL     OW17206   0.117   4.567   6.675  0.8858 -0.6198 -0.3283
 1916SOL    HW117207   0.025   4.571   6.649  0.9110  1.3302 -0.1333
 1916SOL    HW217208   0.116   4.512   6.753 -0.6657 -0.5783 -0.3356
 1917SOL     OW17209   3.251   2.143   3.319 -0.3436  0.7102 -0.2210
 1917SOL    HW117210   3.183   2.106   3.374 -0.2663  0.6156 -0.1885
 1917SOL    HW217211   3.248   2.234   3.348 -1.4603  0.6082 -0.0180
 1918SOL     OW17212   0.435   3.283   5.906 -0.4077  0.2056  0.2147
 1918SOL    HW117213   0.425   3.216   5.838 -0.7445  0.5467 -0.0675
 1918SOL    HW217214   0.419   3.214   5.971  1.9478 -1.0041 -0.5060
 1919SOL     OW17215   2.941   0.083   5.242  0.0785  0.6000 -0.2248
 1919SOL    HW117216   2.848   0.102   5.228 -0.1098  0.3254  0.6349
 1919SOL    HW217217   2.950   0.023   5.168  0.1652  2.5197 -1.7750
 1920SOL     OW17218   3.767   3.690  16.812 -0.1975 -0.5576 -0.2752
 1920SOL    HW117219   3.772   3.594  16.811 -0.7511 -0.5746 -0.9644
 1920SOL    HW217220   3.765   3.706  16.717  0.2576  0.9204 -0.0437
 1921SOL     OW17221   0.887   4.573   4.415  0.2089  0.1278 -0.1092
 1921SOL    HW117222   0.858   4.652   4.461 -3.8011 -1.2470 -0.2826
 1921SOL    HW217223   0.982   4.575   4.407  0.0495  1.4124 -1.5714
 1922SOL     OW17224   0.319   0.269  15.766  0.1683  0.1939  0.3116
 1922SOL    HW117225   0.261   0.226  15.829 -0.5701 -1.0208 -1.1960
 1922SOL    HW217226   0.257   0.282  15.693 -1.4876 -0.3907  1.6032
 1923SOL     OW17227   2.724   4.267  12.687  0.2294 -0.3174  0.1322
 1923SOL    HW117228   2.753   4.219  12.609 -1.9051  0.4767 -1.1489
 1923SOL    HW217229   2.714   4.191  12.745  2.1758 -0.1007  0.7515
 1924SOL     OW17230   0.769   0.088   9.601  0.1865 -0.2634  0.5093
 1924SOL    HW117231   0.842   0.131   9.645 -1.1652  1.9299  0.6090
 1924SOL    HW217232   0.811   0.013   9.559  0.5362  1.0974 -1.6141
 1925SOL     OW17233   2.661   0.282   0.758  0.4758 -0.2957 -0.5185
 1925SOL    HW117234   2.567   0.290   0.744  0.4841  0.0893 -0.3667
 1925SOL    HW217235   2.687   0.374   0.759  1.4994 -0.5999  0.2299
 1926SOL     OW17236   1.710   2.785   6.526 -0.1262  0.5532  0.3106
 1926SOL    HW117237   1.790   2.825   6.560  0.9585 -0.5700 -0.8681
 1926SOL    HW217238   1.701   2.837   6.446 -3.0268  0.4185  0.5399
 1927SOL     OW17239   4.550   4.236   2.059 -0.3078  0.7800 -0.0637
 1927SOL    HW117240   4.484   4.254   2.126 -0.3757 -1.9413  0.5888
 1927SOL    HW217241   4.511   4.267   1.977  0.8156  0.6297 -0.6534
 1928SOL     OW17242   2.606   4.104   2.227  0.1687  0.7389 -0.0010
 1928SOL    HW117243   2.626   4.013   2.249 -1.9529  0.5854  1.3180
 1928SOL    HW217244   2.529   4.098   2.172  0.2480 -1.1497  0.1134
 1929SOL     OW17245   2.551   2.216   0.155  0.0131  0.2813  0.1860
 1929SOL    HW117246   2.455   2.208   0.152  0.2393 -1.9895 -0.6588
 1929SOL    HW217247   2.584   2.148   0.212 -0.6532  0.5027  0.8351
 1930SOL     OW17248   3.530   0.460  13.218 -0.3583  0.7337 -0.7435
 1930SOL    HW117249   3.461   0.408  13.176  0.5416  1.1952 -2.8344
 1930SOL    HW217250   3.540   0.422  13.305 -1.3435  1.6510 -0.2311
 1931SOL     OW17251   1.106   3.751  11.379 -0.6184  0.1066 -0.0953
 1931SOL    HW117252   1.151   3.794  11.306  2.3293 -1.2381  0.9242
 1931SOL    HW217253   1.186   3.749  11.432 -0.0908 -3.2342 -1.0122
 1932SOL     OW17254   1.879   1.224   5.861  0.4578 -0.4322 -0.0936
 1932SOL    HW117255   1.827   1.167   5.804 -0.4077 -0.6056  0.8745
 1932SOL    HW217256   1.860   1.192   5.949  0.9922  0.2070  0.2556
 1933SOL     OW17257   0.824   4.547  11.025 -0.0395 -0.1787  0.3742
 1933SOL    HW117258   0.784   4.481  11.082  2.2221 -1.3938  0.5757
 1933SOL    HW217259   0.876   4.494  10.964 -3.1917 -0.9767 -1.6165
 1934SOL     OW17260   2.478   0.166   5.623  0.7739 -0.2244 -0.0121
 1934SOL    HW117261   2.475   0.149   5.718 -1.2995  0.1263 -0.0160
 1934SOL    HW217262   2.507   0.082   5.586 -0.4568 -0.3116 -0.7739
 1935SOL     OW17263   1.577   2.043  17.662  0.1987  0.1481  0.6179
 1935SOL    HW117264   1.641   1.974  17.681  1.6889  0.9097 -1.7250
 1935SOL    HW217265   1.528   2.051   0.052  0.0827  1.2587  0.4344
 1936SOL     OW17266   0.729   4.180   1.658  0.2194  0.0572 -0.1339
 1936SOL    HW117267   0.664   4.248   1.640 -1.3584 -1.6417 -0.8528
 1936SOL    HW217268   0.685   4.105   1.618  1.1758 -0.4026 -0.3151
 1937SOL     OW17269   1.893   2.371   8.955  0.1338 -0.5155  0.4165
 1937SOL    HW117270   1.808   2.373   8.999  0.3099  1.8869  0.6139
 1937SOL    HW217271   1.927   2.460   8.951 -0.1171 -0.4987 -1.3521
 1938SOL     OW17272   0.963   3.303   1.698  0.0056  0.6039  0.5819
 1938SOL    HW117273   0.871   3.280   1.684  0.3865 -0.2161 -0.5761
 1938SOL    HW217274   0.956   3.378   1.757  1.7264  0.7706  0.5755
 1939SOL     OW17275   1.740   1.053   4.587  0.0198  0.7944 -0.1729
 1939SOL    HW117276   1.718   1.142   4.613 -0.2964  0.9507 -0.9568
 1939SOL    HW217277   1.734   1.012   4.673  1.0163 -1.2574 -1.0689
 1940SOL     OW17278   3.593   2.875   7.906  0.1549 -0.0068  0.0416
 1940SOL    HW117279   3.608   2.899   7.998 -0.6173  0.7998 -0.0432
 1940SOL    HW217280   3.670   2.911   7.863  0.2476 -1.2452 -0.8216
 1941SOL     OW17281   1.409   3.848  11.254 -0.8977  0.1477 -0.1423
 1941SOL    HW117282   1.425   3.839  11.348 -0.4550  1.2359 -0.1081
 1941SOL    HW217283   1.485   3.803  11.216 -0.5777 -0.3658  1.1330
 1942SOL     OW17284   2.926   3.276   1.951 -0.1934  0.0164 -0.1839
 1942SOL    HW117285   2.925   3.190   1.908  0.8733  0.0573 -0.2922
 1942SOL    HW217286   2.992   3.252   2.016 -0.5879  0.5538  0.4113
 1943SOL     OW17287   1.528   3.569   6.953  0.0471  0.3149  0.2807
 1943SOL    HW117288   1.505   3.500   7.015  2.1280 -0.4756  0.2032
 1943SOL    HW217289   1.581   3.527   6.885  1.1119 -2.6929  2.9685
 1944SOL     OW17290   1.226   1.639   4.882 -0.0933 -0.2519 -0.4182
 1944SOL    HW117291   1.138   1.677   4.874  0.3428  0.8659  0.0652
 1944SOL    HW217292   1.272   1.693   4.818  1.1254 -0.2723  0.4402
 1945SOL     OW17293   3.444   3.633   8.893  0.4679 -0.3608 -0.2018
 1945SOL    HW117294   3.364   3.609   8.939 -0.5601  1.2216 -1.1722
 1945SOL    HW217295   3.499   3.633   8.972  0.2750 -1.0001 -0.0717
 1946SOL     OW17296   3.662   2.191   8.543  0.4706  0.0926  0.6430
 1946SOL    HW117297   3.676   2.110   8.592  1.0646 -0.4257 -0.3925
 1946SOL    HW217298   3.612   2.234   8.612  0.5494  1.8622 -0.3837
 1947SOL     OW17299   3.645   3.948   0.397  0.3230  0.1556 -0.1406
 1947SOL    HW117300   3.619   4.039   0.405 -2.6683 -0.7305  0.0554
 1947SOL    HW217301   3.740   3.960   0.402  0.6798 -2.0331 -1.3541
 1948SOL     OW17302   2.487   3.139   6.284 -0.2791  0.3113 -0.0783
 1948SOL    HW117303   2.505   3.137   6.378  4.0406  2.8130 -0.8396
 1948SOL    HW217304   2.394   3.164   6.285 -0.5954 -0.8692 -0.3093
 1949SOL     OW17305   3.609   4.722   3.308  0.2748  0.2878  0.5392
 1949SOL    HW117306   3.668   4.676   3.248 -1.2911 -0.2824 -0.5785
 1949SOL    HW217307   3.525   0.000   3.261  0.0744 -0.8304  0.8828
 1950SOL     OW17308   1.434   4.218   6.732 -0.2306  0.3522  0.3385
 1950SOL    HW117309   1.373   4.189   6.800 -0.4692  0.7729  0.3004
 1950SOL    HW217310   1.510   4.213   6.790 -0.2253  1.2271  0.4065
 1951SOL     OW17311   3.251   1.565   4.935 -0.0199  0.4162 -0.3277
 1951SOL    HW117312   3.317   1.583   4.868  1.5127 -2.2006  0.4939
 1951SOL    HW217313   3.169   1.557   4.886  0.0578 -0.4719 -0.3159
 1952SOL     OW17314   3.445   4.539   8.989  0.3362  0.7644 -1.1450
 1952SOL    HW117315   3.516   4.477   8.972 -1.0832 -0.4256 -2.7658
 1952SOL    HW217316   3.368   4.485   8.974  0.3473  0.4175  0.0193
 1953SOL     OW17317   3.548   0.271   7.723 -0.2247  0.2639 -0.2673
 1953SOL    HW117318   3.464   0.316   7.711 -1.1622 -0.4707  3.4794
 1953SOL    HW217319   3.593   0.311   7.649 -0.7704  0.4895 -0.4782
 1954SOL     OW17320   3.183   2.703   5.441 -0.0270 -0.5735  0.2084
 1954SOL    HW117321   3.116   2.723   5.376  1.0519  2.1973 -0.0373
 1954SOL    HW217322   3.236   2.782   5.433  0.2943 -0.7973  0.1081
 1955SOL     OW17323   2.105   2.966   9.124  0.1247 -0.2659  0.5927
 1955SOL    HW117324   2.092   2.954   9.030 -1.5800  1.0200  0.6801
 1955SOL    HW217325   2.030   3.022   9.143 -0.0436  0.1254 -1.2092
 1956SOL     OW17326   2.758   0.391   1.872  0.1015 -0.2962 -0.2141
 1956SOL    HW117327   2.794   0.319   1.923  0.6190  0.2283  0.1526
 1956SOL    HW217328   2.828   0.427   1.817  0.5393  0.0922  0.6106
 1957SOL     OW17329   0.481   2.348  12.271  0.0663 -0.0336  0.2406
 1957SOL    HW117330   0.543   2.312  12.208 -0.8254 -1.8891  0.4376
 1957SOL    HW217331   0.519   2.311  12.351 -0.6160 -0.3349  0.4198
 1958SOL     OW17332   4.618   0.659  12.665 -0.0990 -0.0519  0.5102
 1958SOL    HW117333   4.684   0.626  12.726 -0.1734 -0.8142  0.1800
 1958SOL    HW217334   4.672   0.678  12.588  1.2919 -0.1988  1.4426
 1959SOL     OW17335   1.446   2.045  15.207  0.1577  0.4899  0.4209
 1959SOL    HW117336   1.431   2.082  15.120  2.4942  1.0767  0.2470
 1959SOL    HW217337   1.414   1.958  15.181  0.7795  0.3403  0.1386
 1960SOL     OW17338   0.908   3.044   9.481 -0.1001 -0.2785 -0.0827
 1960SOL    HW117339   0.856   3.077   9.407 -0.3448  0.6847  0.5139
 1960SOL    HW217340   0.923   3.122   9.534  1.2523  0.1751 -1.1114
 1961SOL     OW17341   3.094   0.947   9.354 -0.3960  0.0444 -0.0319
 1961SOL    HW117342   3.148   0.919   9.428  0.8428  1.1143 -0.5372
 1961SOL    HW217343   3.106   0.881   9.286 -1.3473  3.7988 -3.8667
 1962SOL     OW17344   2.284   2.483   2.748  0.1529  0.1837 -0.4249
 1962SOL    HW117345   2.269   2.393   2.718 -1.2085 -0.5857  2.5400
 1962SOL    HW217346   2.243   2.483   2.835 -1.0872 -2.3136 -1.0134
 1963SOL     OW17347   2.741   1.763   4.462 -0.6189 -0.2079 -0.4558
 1963SOL    HW117348   2.728   1.691   4.524 -0.5410  0.3164  0.1711
 1963SOL    HW217349   2.653   1.800   4.465 -0.5191 -0.0079  0.1330
 1964SOL     OW17350   3.287   3.643   9.330 -0.5964  0.7288  0.1750
 1964SOL    HW117351   3.216   3.703   9.308  0.7002  1.5576 -1.7978
 1964SOL    HW217352   3.240   3.566   9.362 -2.6723  0.8511 -2.5014
 1965SOL     OW17353   2.434   0.563   7.828  0.5606 -0.0820  0.5570
 1965SOL    HW117354   2.462   0.652   7.804  0.6391  0.0526  1.1600
 1965SOL    HW217355   2.340   0.570   7.811  0.6012 -0.1326  0.3075
 1966SOL     OW17356   1.417   0.108   7.162 -0.3557 -0.3557  0.1128
 1966SOL    HW117357   1.352   0.039   7.171 -0.3735 -0.4581 -0.8535
 1966SOL    HW217358   1.407   0.122   7.068  2.2333 -3.5847 -0.6123
 1967SOL     OW17359   1.227   2.134   2.320  0.1425 -0.0262 -0.0530
 1967SOL    HW117360   1.143   2.162   2.357  1.3329  0.1016  2.5945
 1967SOL    HW217361   1.268   2.097   2.398 -0.0342 -0.1532 -0.0203
 1968SOL     OW17362   1.333   3.714   4.062  0.6755  0.2830 -0.4111
 1968SOL    HW117363   1.382   3.680   3.986 -0.2960 -1.4321 -0.2749
 1968SOL    HW217364   1.255   3.756   4.026 -0.5054 -0.6871  1.0122
 1969SOL     OW17365   2.248   1.385   4.209  0.0662 -1.0147 -0.6472
 1969SOL    HW117366   2.190   1.370   4.134  2.3205 -4.6009 -1.6965
 1969SOL    HW217367   2.321   1.328   4.184  0.6330  0.1898 -1.7531
 1970SOL     OW17368   0.026   3.395   0.527 -0.1329  0.2427 -0.5778
 1970SOL    HW117369   0.080   3.435   0.595 -1.2648  0.9386 -0.0960
 1970SOL    HW217370   4.661   3.427   0.551 -0.6809 -1.7607  0.0779
 1971SOL     OW17371   1.994   2.989  15.820 -0.2850 -0.1518  0.3888
 1971SOL    HW117372   1.924   3.040  15.862 -1.0868 -0.5054 -0.5230
 1971SOL    HW217373   2.065   3.052  15.811  1.0268 -1.9168 -1.5836
 1972SOL     OW17374   1.534   0.168   3.686 -0.6829  0.0717 -0.1979
 1972SOL    HW117375   1.554   0.258   3.712  1.7577 -0.4530 -0.2755
 1972SOL    HW217376   1.523   0.170   3.591 -1.2649  1.5296 -0.0945
 1973SOL     OW17377   0.608   4.428   3.642  1.0045  0.1920 -0.4139
 1973SOL    HW117378   0.630   4.512   3.602  2.1081 -0.3995 -1.0455
 1973SOL    HW217379   0.697   4.394   3.653  1.0390  0.7057  0.8799
 1974SOL     OW17380   4.141   3.914   4.281 -0.4456  0.2330 -0.5354
 1974SOL    HW117381   4.168   3.849   4.345 -0.7147  1.4743  0.8475
 1974SOL    HW217382   4.046   3.909   4.283 -0.4429 -0.6980 -3.0419
 1975SOL     OW17383   2.966   1.043   4.552  0.1401 -0.6895  0.3375
 1975SOL    HW117384   2.954   1.011   4.462 -0.1449  0.4476 -0.0242
 1975SOL    HW217385   3.061   1.035   4.560  0.3524  0.6567 -0.8327
 1976SOL     OW17386   1.847   0.795  11.686  0.4195  0.5705  0.1453
 1976SOL    HW117387   1.761   0.769  11.719 -0.2545  1.5632 -0.8029
 1976SOL    HW217388   1.815   0.872  11.638 -1.2255  1.1745  2.2181
 1977SOL     OW17389   0.595   3.976  12.019  0.0177  0.5177  0.1184
 1977SOL    HW117390   0.566   4.045  12.079 -1.9277 -0.4213  0.2601
 1977SOL    HW217391   0.579   3.896  12.068  2.9970 -1.1513 -1.6791
 1978SOL     OW17392   1.428   0.904  16.328  0.1969 -0.2932  0.3700
 1978SOL    HW117393   1.470   0.835  16.379  1.1396 -0.0724 -0.1022
 1978SOL    HW217394   1.339   0.883  16.355 -0.5953  1.3005 -0.9250
 1979SOL     OW17395   1.256   3.199   5.242  0.2805  0.8879  0.1339
 1979SOL    HW117396   1.277   3.291   5.229  1.6026  0.2327 -2.2923
 1979SOL    HW217397   1.216   3.208   5.329 -0.7891  0.8788 -0.3609
 1980SOL     OW17398   4.336   1.041  15.120 -0.9083  0.1618 -0.0858
 1980SOL    HW117399   4.362   1.044  15.028 -0.7354  3.8539  0.1043
 1980SOL    HW217400   4.414   1.080  15.159 -1.2180 -0.4309  1.1446
 1981SOL     OW17401   2.761   4.267   2.005 -0.6115 -0.5718  0.2028
 1981SOL    HW117402   2.839   4.212   1.994 -0.0872 -0.0553  1.3134
 1981SOL    HW217403   2.730   4.234   2.089  0.4583 -0.1473  0.7630
 1982SOL     OW17404   3.675   1.781   9.392 -0.1550  0.2841 -0.1851
 1982SOL    HW117405   3.706   1.817   9.475 -0.4026 -0.6598  0.3166
 1982SOL    HW217406   3.581   1.779   9.412 -0.4342  1.7458 -1.2781
 1983SOL     OW17407   1.816   4.670  15.577 -0.0374  0.4031 -0.4934
 1983SOL    HW117408   1.879   4.706  15.515 -1.7565  2.4322 -1.0504
 1983SOL    HW217409   1.783   4.583  15.552  1.3105  0.5381 -2.7014
 1984SOL     OW17410   1.856   3.487  13.601 -0.4311  0.1564 -0.4538
 1984SOL    HW117411   1.761   3.479  13.608 -0.4597  2.0336  1.2622
 1984SOL    HW217412   1.867   3.492  13.507 -0.6207 -0.7859 -0.5259
 1985SOL     OW17413   4.554   4.259  14.275 -0.4334 -0.4423 -0.1748
 1985SOL    HW117414   4.556   4.226  14.365 -0.4221  1.2440  0.4444
 1985SOL    HW217415   4.469   4.221  14.253 -0.7061 -0.5758  1.0831
 1986SOL     OW17416   4.641   3.922   9.092  0.1970  0.6609 -0.1473
 1986SOL    HW117417   4.715   3.865   9.112 -0.4061 -0.3812 -0.9070
 1986SOL    HW217418   4.600   3.878   9.018  1.1367 -1.0320  0.3562
 1987SOL     OW17419   3.993   1.600   5.601 -0.0566  0.5059 -0.2306
 1987SOL    HW117420   4.022   1.688   5.622 -0.2610  0.4750  0.1803
 1987SOL    HW217421   4.028   1.583   5.513 -1.0347 -0.2913 -0.4711
 1988SOL     OW17422   1.893   2.849   4.923  0.4893  0.3624 -0.1833
 1988SOL    HW117423   1.920   2.877   4.835  1.1634  0.0529 -0.0681
 1988SOL    HW217424   1.797   2.852   4.914  0.5223  1.1507 -0.2587
 1989SOL     OW17425   1.926   0.286   3.949  0.1608 -0.1660 -0.1419
 1989SOL    HW117426   1.979   0.363   3.968  0.3414  0.7088 -4.1188
 1989SOL    HW217427   1.986   0.241   3.889 -1.3464 -2.6212  0.1803
 1990SOL     OW17428   3.494   2.584   5.827  0.0630  0.5450 -0.1464
 1990SOL    HW117429   3.554   2.612   5.757 -0.8077  1.1010 -0.6789
 1990SOL    HW217430   3.557   2.538   5.882 -1.2075 -0.7574  0.2086
 1991SOL     OW17431   4.334   3.940  14.143 -0.3122 -0.3104 -0.2617
 1991SOL    HW117432   4.252   3.982  14.118 -1.8146 -4.2324 -1.9256
 1991SOL    HW217433   4.337   3.848  14.116  0.0805 -0.8824  1.6707
 1992SOL     OW17434   3.437   2.307   6.840  0.1289 -0.6728 -0.4391
 1992SOL    HW117435   3.471   2.377   6.784  3.0480 -1.4329  0.3532
 1992SOL    HW217436   3.373   2.355   6.893  0.7807 -0.5457  0.2285
 1993SOL     OW17437   4.149   3.591   6.891 -0.1534  0.1082 -0.2083
 1993SOL    HW117438   4.164   3.581   6.797 -1.5388  2.5549 -0.6841
 1993SOL    HW217439   4.090   3.518   6.909 -1.2331  1.3583  1.2786
 1994SOL     OW17440   4.388   1.680   4.940 -0.6546  0.7483  0.6894
 1994SOL    HW117441   4.453   1.641   4.998 -1.1414  0.8282  1.2923
 1994SOL    HW217442   4.441   1.755   4.913 -1.2533  0.9871  0.1647
 1995SOL     OW17443   3.199   4.162   0.660 -0.1017 -0.2190  0.1832
 1995SOL    HW117444   3.188   4.099   0.589 -0.1046 -0.1235  0.0983
 1995SOL    HW217445   3.108   4.185   0.676  0.1405  0.7179  0.2376
 1996SOL     OW17446   0.389   0.094   2.062  0.3666 -0.2845 -0.3801
 1996SOL    HW117447   0.377   0.020   2.003  0.0151  0.0554 -0.7372
 1996SOL    HW217448   0.330   0.072   2.133 -2.8210  1.3591 -2.5143
 1997SOL     OW17449   0.733   2.170   5.391 -0.4994 -0.1493 -0.4498
 1997SOL    HW117450   0.822   2.205   5.387 -1.1086  1.3041 -1.0980
 1997SOL    HW217451   0.730   2.117   5.312  0.8388 -0.6595 -0.1523
 1998SOL     OW17452   1.986   3.584   4.833 -0.0353  0.6258 -0.1978
 1998SOL    HW117453   1.991   3.675   4.862  0.3179  0.2454  0.9343
 1998SOL    HW217454   1.905   3.560   4.877 -1.3828  0.0423 -3.0333
 1999SOL     OW17455   1.949   2.225   3.563 -0.0916  0.1116 -0.6246
 1999SOL    HW117456   1.957   2.265   3.650  1.0709  1.8337 -1.5418
 1999SOL    HW217457   1.869   2.178   3.588 -0.2811  0.8220  0.1086
 2000SOL     OW17458   1.812   1.467   7.281  0.4710  0.4013  0.8821
 2000SOL    HW117459   1.898   1.473   7.239  0.1632 -0.9538  0.0538
 2000SOL    HW217460   1.761   1.416   7.218  0.4796  1.5924 -0.0842
 2001SOL     OW17461   4.263   0.566   6.774 -0.7613  0.1673 -0.3217
 2001SOL    HW117462   4.338   0.625   6.777 -0.6586  0.1503 -2.1276
 2001SOL    HW217463   4.263   0.555   6.678 -1.4288  0.8602 -0.3994
 2002SOL     OW17464   1.432   2.938   3.220 -0.5553  0.7379  0.3542
 2002SOL    HW117465   1.525   2.937   3.241 -0.1937 -1.0921 -1.4263
 2002SOL    HW217466   1.382   2.945   3.302  0.9741 -1.4860  1.4548
 2003SOL     OW17467   0.878   3.222   7.607 -0.0331  0.1666 -0.2630
 2003SOL    HW117468   0.860   3.149   7.548  2.9056  0.9567 -2.1163
 2003SOL    HW217469   0.851   3.189   7.692 -1.3374  0.9581 -0.3596
 2004SOL     OW17470   1.022   2.774   3.309 -0.4831  0.6116  0.3430
 2004SOL    HW117471   1.003   2.779   3.215  2.5478  2.7352 -0.1569
 2004SOL    HW217472   0.991   2.861   3.333 -2.5629  0.4205 -1.6572
 2005SOL     OW17473   3.073   0.553   2.761 -0.5289  0.3548 -0.2939
 2005SOL    HW117474   3.048   0.569   2.852  1.3749  1.2548  0.0710
 2005SOL    HW217475   3.016   0.616   2.718 -1.2956 -0.8681 -1.0827
 2006SOL     OW17476   1.708   1.974   8.607  0.1896  0.3209  0.2955
 2006SOL    HW117477   1.742   1.978   8.696  1.8266  0.8210 -0.3481
 2006SOL    HW217478   1.744   2.051   8.563 -0.7677  2.3479  3.1034
 2007SOL     OW17479   3.781   3.451  10.316 -0.3097 -0.0307 -0.4536
 2007SOL    HW117480   3.871   3.464  10.345  0.8719 -1.3554 -3.5953
 2007SOL    HW217481   3.754   3.368  10.355 -1.0197  1.9546  3.3308
 2008SOL     OW17482   1.368   1.387  10.080 -0.2824 -0.6621 -0.6253
 2008SOL    HW117483   1.449   1.343  10.104  0.5885  0.5500 -1.3379
 2008SOL    HW217484   1.396   1.464  10.030  0.7736 -0.1833  0.7179
 2009SOL     OW17485   3.434   3.218   2.710 -0.0927 -0.2048 -0.2082
 2009SOL    HW117486   3.495   3.205   2.782  0.2737 -0.2306 -0.5229
 2009SOL    HW217487   3.388   3.296   2.739  1.8227  1.0013 -0.4697
 2010SOL     OW17488   0.511   3.044  13.461  0.3850 -0.3553  0.0676
 2010SOL    HW117489   0.564   2.999  13.527  0.0506  0.8651  1.1525
 2010SOL    HW217490   0.440   2.979  13.468  1.6000 -1.6494  0.4511
 2011SOL     OW17491   1.831   3.738  12.855  0.2410  0.3780 -0.2993
 2011SOL    HW117492   1.848   3.654  12.814 -0.0006  0.4854 -0.6216
 2011SOL    HW217493   1.920   3.766  12.879  0.7739 -0.3626 -1.4443
 2012SOL     OW17494   4.186   3.404   5.496 -0.3883 -0.0247 -0.6563
 2012SOL    HW117495   4.245   3.460   5.546  0.3784  0.7225 -2.3884
 2012SOL    HW217496   4.229   3.318   5.495  0.6751  0.5076 -0.4383
 2013SOL     OW17497   0.966   0.463   0.880 -0.7350  0.0094 -0.3139
 2013SOL    HW117498   0.923   0.379   0.896  0.5476 -0.6387 -0.2729
 2013SOL    HW217499   1.045   0.451   0.932  0.0887 -0.5640 -1.7005
 2014SOL     OW17500   1.894   1.450   7.961 -0.2467 -0.4350  1.0321
 2014SOL    HW117501   1.847   1.483   7.885 -0.2437  0.4609  1.4135
 2014SOL    HW217502   1.820   1.429   8.017 -1.3373  0.3386 -0.1256
 2015SOL     OW17503   0.460   3.916  11.245 -0.0917  0.3396 -0.1307
 2015SOL    HW117504   0.537   3.959  11.284  0.0586 -0.4774  0.4754
 2015SOL    HW217505   0.430   3.972  11.174 -4.2323 -1.8111 -0.0311
 2016SOL     OW17506   4.396   3.605   4.525  0.2009  0.4108  0.3514
 2016SOL    HW117507   4.453   3.532   4.549 -1.0977 -1.0879 -1.1295
 2016SOL    HW217508   4.465   3.671   4.537  1.3929 -0.6014 -1.0288
 2017SOL     OW17509   4.324   3.437   2.829 -0.3637 -0.1054  0.3354
 2017SOL    HW117510   4.366   3.409   2.911  0.9524 -0.0763 -0.3295
 2017SOL    HW217511   4.229   3.429   2.837 -0.2004 -1.6412  0.7794
 2018SOL     OW17512   3.978   1.740  16.888 -1.2969  0.3867 -0.1292
 2018SOL    HW117513   3.942   1.658  16.921 -2.9882  0.1648 -2.5754
 2018SOL    HW217514   3.993   1.722  16.796  0.5013  0.6883  0.1018
 2019SOL     OW17515   2.476   2.692   5.611 -0.1522  0.1375 -0.0101
 2019SOL    HW117516   2.567   2.720   5.600 -0.6674  1.7366 -0.1681
 2019SOL    HW217517   2.493   2.598   5.616  0.2129  0.1749 -0.5376
 2020SOL     OW17518   0.881   4.641   5.869 -0.1422 -0.1427 -0.2880
 2020SOL    HW117519   0.790   4.620   5.891  0.0190 -0.2183  0.2916
 2020SOL    HW217520   0.891   4.567   5.809  2.8451 -0.7504  0.9894
 2021SOL     OW17521   2.229   4.194   1.765 -0.1779  0.3122  0.2842
 2021SOL    HW117522   2.245   4.285   1.741  1.9342  0.4387  2.1690
 2021SOL    HW217523   2.239   4.147   1.682  0.5465  1.9851 -0.5858
 2022SOL     OW17524   1.431   2.771   6.267  0.3522 -0.0690  0.2944
 2022SOL    HW117525   1.345   2.784   6.229  0.9822  0.7781 -0.8580
 2022SOL    HW217526   1.470   2.698   6.218 -1.0905 -1.2285  0.8812
 2023SOL     OW17527   0.604   3.274   6.276 -0.3119 -0.2347  0.0193
 2023SOL    HW117528   0.694   3.274   6.311  0.1344 -3.6748 -1.1215
 2023SOL    HW217529   0.599   3.369   6.272  0.7747 -0.2234 -0.9755
 2024SOL     OW17530   0.137   3.497  17.090 -0.1958  0.4588  0.1095
 2024SOL    HW117531   0.048   3.521  17.068 -0.1856  2.2792  2.0162
 2024SOL    HW217532   0.136   3.468  17.181 -3.2177 -0.4878 -0.2559
 2025SOL     OW17533   2.256   4.614   2.817  0.0419  0.1378 -0.1106
 2025SOL    HW117534   2.202   4.552   2.867  0.2802 -0.8503 -1.0873
 2025SOL    HW217535   2.298   4.654   2.893  1.9172 -2.8833  0.4222
 2026SOL     OW17536   0.254   3.984   9.505  0.3055  0.3871  0.1032
 2026SOL    HW117537   0.263   3.948   9.593 -1.8773  1.6622  0.8444
 2026SOL    HW217538   0.160   3.968   9.493  0.5105 -0.0047 -1.0414
 2027SOL     OW17539   1.201   4.467   5.026 -0.1453 -0.5807 -0.8212
 2027SOL    HW117540   1.227   4.377   5.009 -0.5705 -0.9649  0.5546
 2027SOL    HW217541   1.106   4.453   5.021  0.2216 -3.4250  0.1426
 2028SOL     OW17542   0.943   1.967   2.386  0.6451  0.8999  0.1434
 2028SOL    HW117543   0.966   1.965   2.479  0.4564 -1.1031  0.1449
 2028SOL    HW217544   0.856   2.008   2.386  0.3475  0.2744 -1.7337
 2029SOL     OW17545   0.814   0.478  14.128 -0.4961 -0.1846 -0.1093
 2029SOL    HW117546   0.768   0.394  14.126 -0.8260 -0.0059 -0.0328
 2029SOL    HW217547   0.821   0.491  14.223 -0.5956  1.4897 -0.3356
 2030SOL     OW17548   1.752   2.437   9.411 -0.8202  0.2068 -0.0670
 2030SOL    HW117549   1.772   2.347   9.386 -0.6503  0.6073 -1.3868
 2030SOL    HW217550   1.803   2.496   9.355  0.8625 -1.5223 -0.3364
 2031SOL     OW17551   3.181   0.435  17.529 -0.0993 -0.6431 -0.0709
 2031SOL    HW117552   3.189   0.514  17.582 -3.2021 -1.0052  0.8861
 2031SOL    HW217553   3.130   0.377  17.586  1.8503 -1.9545  0.3509
 2032SOL     OW17554   2.106   2.854   6.332  0.1700 -0.1266  0.9112
 2032SOL    HW117555   2.170   2.806   6.278 -0.4915  2.3487 -2.1119
 2032SOL    HW217556   2.151   2.933   6.360 -0.8357  0.4741  0.8218
 2033SOL     OW17557   3.425   1.451   6.383 -0.0774 -1.0572  0.0259
 2033SOL    HW117558   3.476   1.522   6.421 -1.9176  1.1404 -1.6625
 2033SOL    HW217559   3.355   1.505   6.347  0.6249  0.4639  0.9785
 2034SOL     OW17560   0.581   1.151   5.362 -0.3919  0.1747  0.1905
 2034SOL    HW117561   0.644   1.220   5.380  1.1827 -1.0511 -0.5425
 2034SOL    HW217562   0.634   1.071   5.365 -1.5889 -0.7489 -2.9134
 2035SOL     OW17563   3.664   1.961   6.843 -0.0909 -0.1081  0.5076
 2035SOL    HW117564   3.725   1.955   6.917  1.1509  1.6446 -0.3725
 2035SOL    HW217565   3.711   2.027   6.793 -0.2357 -0.8715 -0.6242
 2036SOL     OW17566   3.138   4.119   5.274 -0.7493  0.6077 -0.2542
 2036SOL    HW117567   3.077   4.154   5.339  0.5306 -0.6838  1.6489
 2036SOL    HW217568   3.227   4.144   5.302 -1.0762  1.7492 -0.2332
 2037SOL     OW17569   0.415   1.770   5.948  0.5370  0.1084  0.0471
 2037SOL    HW117570   0.338   1.822   5.923  0.6611  1.4601  2.4481
 2037SOL    HW217571   0.440   1.737   5.862  2.5310  0.7061  0.4051
 2038SOL     OW17572   3.087   1.821   8.698  0.3182 -0.5550 -0.0934
 2038SOL    HW117573   3.172   1.781   8.679 -0.2105 -1.8568  0.2427
 2038SOL    HW217574   3.117   1.875   8.771  0.1905 -1.9734  1.0135
 2039SOL     OW17575   2.128   2.667   4.849 -0.2502  0.2927 -0.3522
 2039SOL    HW117576   2.136   2.726   4.924 -2.6516 -0.5609  0.5639
 2039SOL    HW217577   2.221   2.659   4.830 -0.2252 -0.5808  0.1336
 2040SOL     OW17578   3.324   3.489   2.254  0.7044 -0.0886 -0.1158
 2040SOL    HW117579   3.311   3.440   2.335 -1.0274 -0.0307 -0.3758
 2040SOL    HW217580   3.316   3.575   2.295  0.1242  0.1272 -0.6901
 2041SOL     OW17581   4.501   1.938   3.997 -0.7655  0.6123  0.2055
 2041SOL    HW117582   4.560   1.999   3.953  1.0045 -1.3515 -0.1674
 2041SOL    HW217583   4.427   1.946   3.938  0.6913 -1.1028 -1.8290
 2042SOL     OW17584   1.479   1.645   4.435  0.2173 -0.3306  1.1107
 2042SOL    HW117585   1.568   1.678   4.424  0.2162 -0.6575  0.1905
 2042SOL    HW217586   1.453   1.629   4.345 -1.1435 -0.8692  1.6097
 2043SOL     OW17587   1.862   3.643   8.353 -0.4586  0.2823  0.2932
 2043SOL    HW117588   1.921   3.593   8.296 -0.5112  0.7185 -0.1433
 2043SOL    HW217589   1.876   3.732   8.319 -1.4950  0.2695 -0.1668
 2044SOL     OW17590   2.965   1.086  12.077 -0.3205 -0.3456  0.1727
 2044SOL    HW117591   2.883   1.134  12.070  0.6981  1.4074  0.1158
 2044SOL    HW217592   2.982   1.078  12.171  1.2644  1.3173  0.0285
 2045SOL     OW17593   4.433   1.577   6.586 -0.8535  0.8077  0.0341
 2045SOL    HW117594   4.481   1.597   6.666 -1.3516  0.4358  0.4224
 2045SOL    HW217595   4.491   1.604   6.514  0.2362 -1.5256  0.0277
 2046SOL     OW17596   0.023   3.176  16.653 -0.5464  0.1519 -0.0752
 2046SOL    HW117597   0.051   3.245  16.712 -0.4559 -0.8349  1.0450
 2046SOL    HW217598   0.032   3.099  16.709  1.4376  0.9523  0.7021
 2047SOL     OW17599   1.173   0.119   8.863  0.6703 -0.2559  0.3378
 2047SOL    HW117600   1.141   0.143   8.950 -1.9898  0.6608 -0.8968
 2047SOL    HW217601   1.162   0.025   8.849 -1.1710 -0.5177  3.6761
 2048SOL     OW17602   0.581   0.800   3.818  0.1306 -0.1788 -0.0231
 2048SOL    HW117603   0.595   0.802   3.723  0.7153  0.5813  0.0822
 2048SOL    HW217604   0.496   0.758   3.826  1.5098 -3.2026 -1.3019
 2049SOL     OW17605   3.935   4.046   0.948  0.0980 -0.2141 -0.9355
 2049SOL    HW117606   3.997   3.994   1.000  2.1151  1.0283 -2.1114
 2049SOL    HW217607   3.968   4.135   0.963  0.2472 -0.0942 -1.9670
 2050SOL     OW17608   1.729   4.455   5.374  0.0303 -0.3488 -0.5400
 2050SOL    HW117609   1.656   4.399   5.348 -0.8668 -0.1576  1.5618
 2050SOL    HW217610   1.740   4.408   5.457 -1.4351  0.7342  0.2752
 2051SOL     OW17611   4.626   3.130   9.667  0.4720 -0.4640  0.5395
 2051SOL    HW117612   4.588   3.059   9.719 -1.4594  0.5293  0.4650
 2051SOL    HW217613   4.576   3.209   9.686  1.9490  0.6203 -0.0031
 2052SOL     OW17614   4.580   3.958   0.767  0.1175 -0.2242 -0.3364
 2052SOL    HW117615   4.605   4.048   0.791 -1.2621 -0.2206  1.0807
 2052SOL    HW217616   4.608   3.915   0.848 -3.7612 -0.1990  1.0352
 2053SOL     OW17617   1.659   0.418   6.090  0.0777 -0.0033 -0.2565
 2053SOL    HW117618   1.695   0.390   6.174  0.2190 -0.4749 -0.4764
 2053SOL    HW217619   1.635   0.331   6.059  0.8833 -0.8361  1.4641
 2054SOL     OW17620   3.503   2.310   5.122 -0.3529  0.3559  0.8905
 2054SOL    HW117621   3.538   2.328   5.210  0.1654  0.4392  0.6641
 2054SOL    HW217622   3.488   2.217   5.137 -2.8991  0.8775  1.6000
 2055SOL     OW17623   1.223   4.058  16.521  0.4125 -0.3631  0.3545
 2055SOL    HW117624   1.166   4.038  16.447  1.7480 -0.2144 -0.7155
 2055SOL    HW217625   1.154   4.078  16.584  0.9804 -2.3443  1.6248
 2056SOL     OW17626   4.536   4.509  14.158 -0.4220  0.2645  0.5883
 2056SOL    HW117627   4.528   4.418  14.188  0.7176 -0.7389 -2.1178
 2056SOL    HW217628   4.632   4.514  14.168 -0.6734  2.2665  1.9302
 2057SOL     OW17629   4.274   1.394   5.203  0.8749  0.1057  0.0701
 2057SOL    HW117630   4.353   1.414   5.254 -0.1333  0.2849  1.5922
 2057SOL    HW217631   4.279   1.299   5.202 -2.8168 -0.0964  0.0837
 2058SOL     OW17632   1.261   1.023   6.370 -0.0002 -0.0253 -0.2542
 2058SOL    HW117633   1.322   0.992   6.303  0.1035  0.0021 -0.1731
 2058SOL    HW217634   1.269   1.118   6.356  0.0833  0.1545  1.0219
 2059SOL     OW17635   2.163   1.357   4.468 -0.4917  0.1009 -0.0675
 2059SOL    HW117636   2.252   1.340   4.499  0.4234 -1.5823 -3.6580
 2059SOL    HW217637   2.164   1.340   4.374  2.2269  0.8570 -0.1691
 2060SOL     OW17638   2.684   0.125   7.732  0.3215 -0.7390  0.4651
 2060SOL    HW117639   2.636   0.189   7.786 -0.3053 -0.9513  0.1570
 2060SOL    HW217640   2.674   0.161   7.644 -0.2832  0.9597  1.2197
 2061SOL     OW17641   1.305   3.175   0.806  0.0348  0.2536 -0.3718
 2061SOL    HW117642   1.320   3.118   0.731  2.3756 -0.0720  0.3482
 2061SOL    HW217643   1.210   3.168   0.818  0.3409 -0.4075  1.5961
 2062SOL     OW17644   0.022   4.268   8.843  0.0086 -0.5245  0.1187
 2062SOL    HW117645   0.050   4.216   8.768  0.9223 -1.3545  1.0507
 2062SOL    HW217646   0.099   4.323   8.835 -1.0218  0.6435 -1.8293
 2063SOL     OW17647   2.166   4.205   3.703  0.3343 -0.1594  0.7745
 2063SOL    HW117648   2.174   4.113   3.676  2.0882  0.4991 -0.9300
 2063SOL    HW217649   2.156   4.243   3.616 -1.0826  1.0504  1.4563
 2064SOL     OW17650   2.505   3.088   6.557  0.6038 -0.1221  0.2375
 2064SOL    HW117651   2.468   3.106   6.644  1.2675  0.4914  0.3905
 2064SOL    HW217652   2.592   3.057   6.584  0.7401  0.8347  0.9086
 2065SOL     OW17653   3.417   0.373  16.124 -0.0518  0.4416 -0.0167
 2065SOL    HW117654   3.464   0.425  16.189 -2.2498 -0.3404  2.1587
 2065SOL    HW217655   3.483   0.368  16.054 -0.9668 -1.7604 -0.7151
 2066SOL     OW17656   3.582   2.461   4.385 -0.6810 -0.2788 -0.2930
 2066SOL    HW117657   3.674   2.471   4.409 -1.3484  1.8141  1.3947
 2066SOL    HW217658   3.529   2.478   4.463 -0.7135  0.6890 -0.5248
 2067SOL     OW17659   0.442   0.037   3.808 -0.3196 -0.7247 -0.4303
 2067SOL    HW117660   0.406   0.074   3.727 -0.6617  0.5176  0.3000
 2067SOL    HW217661   0.415   4.668   3.804  1.3745 -1.1550 -2.3162
 2068SOL     OW17662   2.932   0.448   9.984 -0.1423  0.1743 -0.7364
 2068SOL    HW117663   3.003   0.445   9.920  0.0447 -2.2779 -0.4399
 2068SOL    HW217664   2.856   0.425   9.931  1.2328 -2.7625 -1.4339
 2069SOL     OW17665   3.794   3.771  13.496 -0.5107 -0.4466  0.4193
 2069SOL    HW117666   3.763   3.838  13.557 -2.0199 -1.1019  0.3626
 2069SOL    HW217667   3.843   3.714  13.556  0.1620  1.0855  1.3458
 2070SOL     OW17668   4.627   0.585   2.440 -0.3018 -0.0533  0.2563
 2070SOL    HW117669   4.604   0.506   2.391  0.6694  0.1716 -0.5647
 2070SOL    HW217670   4.713   0.602   2.402  0.5856 -2.0867  1.3340
 2071SOL     OW17671   1.931   3.154   9.160 -0.1487  0.0053 -0.1433
 2071SOL    HW117672   1.846   3.194   9.178  0.2843  0.6145  0.5788
 2071SOL    HW217673   1.958   3.236   9.118 -3.8255 -0.2442 -2.9499
 2072SOL     OW17674   3.230   4.641   8.750  0.4480 -0.1181 -0.4730
 2072SOL    HW117675   3.188   4.571   8.701  0.6545 -0.8618  0.4061
 2072SOL    HW217676   3.203   4.618   8.839  0.1784  0.6045 -0.3674
 2073SOL     OW17677   4.210   0.669  15.259 -0.5511 -0.6642  0.2986
 2073SOL    HW117678   4.191   0.760  15.239 -1.2753 -1.1236 -1.0959
 2073SOL    HW217679   4.140   0.621  15.215 -0.9668  1.7413 -1.6516
 2074SOL     OW17680   3.629   2.496   6.829 -0.5910 -0.4258 -0.0806
 2074SOL    HW117681   3.556   2.543   6.868 -0.7145 -0.5026 -0.2200
 2074SOL    HW217682   3.697   2.531   6.887  1.8154 -1.4881 -2.2434
 2075SOL     OW17683   3.023   0.336   4.191  0.2208  0.0437  0.2097
 2075SOL    HW117684   3.041   0.247   4.161 -0.7588  0.7769 -2.5262
 2075SOL    HW217685   2.929   0.324   4.205  0.2946 -0.2716  0.4439
 2076SOL     OW17686   4.405   2.225   0.615 -0.2949 -0.0133  0.1350
 2076SOL    HW117687   4.482   2.172   0.594  2.6335  3.4993  2.1711
 2076SOL    HW217688   4.437   2.314   0.604  0.3835 -0.2946 -0.2032
 2077SOL     OW17689   3.541   3.679   8.320 -0.8093 -0.1679  1.0224
 2077SOL    HW117690   3.605   3.749   8.324 -0.7374 -0.0384 -2.1731
 2077SOL    HW217691   3.515   3.680   8.413 -2.1281  1.4058  0.6441
 2078SOL     OW17692   4.161   4.339   2.201 -0.0863  0.7011  0.0353
 2078SOL    HW117693   4.159   4.432   2.178  0.1101  0.7346  0.1536
 2078SOL    HW217694   4.097   4.328   2.272 -0.1013 -1.6097 -0.3173
 2079SOL     OW17695   3.042   4.683  15.519  0.2836 -0.1494  0.6453
 2079SOL    HW117696   2.947   4.675  15.509  0.3970 -2.7305  1.4457
 2079SOL    HW217697   3.045   4.694  15.614 -1.2603 -2.0662  0.9383
 2080SOL     OW17698   1.710   0.214  17.351 -0.4800 -0.1318  0.2976
 2080SOL    HW117699   1.653   0.157  17.298 -0.2573  0.3791 -0.4777
 2080SOL    HW217700   1.731   0.157  17.425 -1.7536  0.5677  1.2131
 2081SOL     OW17701   3.329   2.076   6.332  0.3339  0.3719  0.3243
 2081SOL    HW117702   3.412   2.088   6.379  0.8684  1.3578 -0.8810
 2081SOL    HW217703   3.290   2.006   6.384 -1.3559  1.6179  0.7476
 2082SOL     OW17704   0.357   2.495   8.641  0.5716  0.6896  0.6139
 2082SOL    HW117705   0.425   2.557   8.616  0.0926  1.0321  0.1496
 2082SOL    HW217706   0.414   2.433   8.685  1.8273 -0.5307 -2.7927
 2083SOL     OW17707   3.936   2.946   3.236  0.4162  0.1170  0.4152
 2083SOL    HW117708   3.992   2.922   3.163 -0.7632  0.7218 -0.6806
 2083SOL    HW217709   3.971   3.030   3.266  1.4498  0.3402 -1.4190
 2084SOL     OW17710   3.314   3.803   5.331 -0.5980  0.1882 -0.6981
 2084SOL    HW117711   3.228   3.840   5.352 -0.3775  0.9913 -1.1879
 2084SOL    HW217712   3.321   3.722   5.381  0.4385 -0.0850 -1.2771
 2085SOL     OW17713   4.279   3.208   7.553 -0.8876  0.4312  0.2778
 2085SOL    HW117714   4.365   3.166   7.557 -2.0948 -2.0338  0.6902
 2085SOL    HW217715   4.300   3.301   7.547  2.5380 -0.3849 -0.7615
 2086SOL     OW17716   3.082   3.360  13.905 -0.8397  0.0564 -0.3547
 2086SOL    HW117717   3.063   3.278  13.860  0.4969 -1.2198  1.4268
 2086SOL    HW217718   3.109   3.321  13.988  0.1373  2.1544  0.3231
 2087SOL     OW17719   3.504   2.341   5.406  0.2914  0.6450 -0.2739
 2087SOL    HW117720   3.418   2.382   5.406 -0.5843 -1.1724 -2.1147
 2087SOL    HW217721   3.508   2.295   5.490 -1.9135 -1.7899 -1.5015
 2088SOL     OW17722   3.322   1.942   4.799  0.0710  0.2429 -0.6030
 2088SOL    HW117723   3.366   2.026   4.814 -0.3631 -0.2683  3.5142
 2088SOL    HW217724   3.279   1.932   4.884  1.2146  2.0307  0.1964
 2089SOL     OW17725   2.595   3.297   3.082 -0.0764  0.9245  0.0169
 2089SOL    HW117726   2.594   3.374   3.024 -0.1158  0.9148  0.0044
 2089SOL    HW217727   2.501   3.297   3.100  0.3546  0.2456  2.2221
 2090SOL     OW17728   2.785   1.469   2.935 -0.5779 -0.0498 -0.2949
 2090SOL    HW117729   2.741   1.405   2.879 -0.5671  0.2881 -0.6850
 2090SOL    HW217730   2.871   1.428   2.931  0.1500  1.3685  0.9440
 2091SOL     OW17731   0.952   2.683   7.742 -0.6107  0.4421 -0.4790
 2091SOL    HW117732   0.969   2.593   7.713  0.6610  0.0966  1.3148
 2091SOL    HW217733   0.893   2.711   7.672  0.0272 -0.5220 -1.3957
 2092SOL     OW17734   0.608   1.495  17.337  0.4193  0.5286  0.2615
 2092SOL    HW117735   0.623   1.476  17.245  1.7291  0.2178  0.5408
 2092SOL    HW217736   0.697   1.517  17.362  0.2741 -0.6062  1.7857
 2093SOL     OW17737   2.711   4.583   3.964 -0.3763  0.0795 -0.3505
 2093SOL    HW117738   2.620   4.554   3.951 -0.2430 -0.8878  0.8795
 2093SOL    HW217739   2.728   4.563   4.056 -1.3207  1.7991  0.1980
 2094SOL     OW17740   1.301   1.575   2.904  0.3215  0.2558  0.2816
 2094SOL    HW117741   1.259   1.608   2.983  1.0982 -0.3013  0.9237
 2094SOL    HW217742   1.389   1.609   2.919 -0.3605  1.0703  2.3564
 2095SOL     OW17743   0.520   1.621   7.376 -0.2875 -0.0074  0.4698
 2095SOL    HW117744   0.522   1.702   7.325  1.8806 -1.9115 -2.4666
 2095SOL    HW217745   0.567   1.566   7.313  0.0309 -0.2141  0.8921
 2096SOL     OW17746   1.589   0.521   6.888  1.0642 -0.0844 -0.4396
 2096SOL    HW117747   1.679   0.519   6.857  0.7792  2.7131 -1.4981
 2096SOL    HW217748   1.599   0.508   6.983 -0.7057 -2.3882 -0.5824
 2097SOL     OW17749   1.981   4.488  13.837  0.0548  0.3566  0.0457
 2097SOL    HW117750   2.074   4.469  13.834  0.0449  0.0064  1.8736
 2097SOL    HW217751   1.981   4.580  13.863 -0.5108  0.4735 -0.3615
 2098SOL     OW17752   4.103   2.277   4.304 -0.4486 -0.3016  0.1545
 2098SOL    HW117753   4.159   2.225   4.362  2.4767  0.2984 -2.1015
 2098SOL    HW217754   4.043   2.207   4.279 -0.1556 -1.2963  2.2937
 2099SOL     OW17755   2.061   3.707  14.495  0.3140 -0.5397  0.7111
 2099SOL    HW117756   1.999   3.638  14.517 -0.2694  0.0333  0.8736
 2099SOL    HW217757   2.143   3.679  14.536 -0.6183 -2.4371  1.2724
 2100SOL     OW17758   0.730   0.133  15.558 -0.6467 -0.5022  0.0614
 2100SOL    HW117759   0.636   0.120  15.543 -0.8516 -1.1990  2.0531
 2100SOL    HW217760   0.725   0.222  15.592  0.6885  0.0534 -1.1694
 2101SOL     OW17761   2.535   3.426  13.019  0.4002 -0.4206 -0.0530
 2101SOL    HW117762   2.547   3.480  12.941 -0.1035  0.7272  0.6631
 2101SOL    HW217763   2.498   3.353  12.969  0.6843 -0.6215  0.0305
 2102SOL     OW17764   3.901   0.763  13.542  0.2640 -0.1592  0.0824
 2102SOL    HW117765   3.824   0.765  13.598 -1.3387 -0.1389 -2.1176
 2102SOL    HW217766   3.924   0.855  13.532 -0.2638 -0.1231 -0.7646
 2103SOL     OW17767   1.124   1.574   8.521 -0.7475 -0.2023  0.4770
 2103SOL    HW117768   1.163   1.659   8.541 -0.7077  0.0258 -0.5495
 2103SOL    HW217769   1.032   1.601   8.511 -0.4457  0.8953  0.6806
 2104SOL     OW17770   0.164   2.403   6.047  0.4837 -0.4486  0.0157
 2104SOL    HW117771   0.158   2.394   6.142  0.7318  0.8452  0.1634
 2104SOL    HW217772   0.147   2.496   6.032 -0.1326 -0.4205  0.8530
 2105SOL     OW17773   0.546   1.834   7.214  0.1515 -0.5555 -0.1884
 2105SOL    HW117774   0.459   1.855   7.179 -0.0322  0.1690  0.7314
 2105SOL    HW217775   0.571   1.925   7.230 -1.4184 -0.5075  1.9425
 2106SOL     OW17776   4.508   1.245  15.658  0.6533  0.0036  0.2588
 2106SOL    HW117777   4.572   1.175  15.656 -1.0245 -1.5604  1.5468
 2106SOL    HW217778   4.524   1.279  15.569  1.7286  0.4177  0.6087
 2107SOL     OW17779   0.017   0.982  17.688  0.6608 -0.3666  0.0055
 2107SOL    HW117780   0.109   1.005  17.670  0.4421 -0.5897 -1.3928
 2107SOL    HW217781   0.018   0.980   0.092  0.0560 -2.6340 -0.0375
 2108SOL     OW17782   0.323   0.624  12.579 -0.2377  0.7317  0.5955
 2108SOL    HW117783   0.412   0.616  12.611 -0.9899  1.4835  2.8894
 2108SOL    HW217784   0.342   0.705  12.531 -1.0383  1.1082  0.9025
 2109SOL     OW17785   4.167   4.570  13.191  0.4341 -0.9448  0.4944
 2109SOL    HW117786   4.081   4.605  13.214  0.8971  1.4663 -1.4271
 2109SOL    HW217787   4.214   4.652  13.180  1.0871 -1.1548  1.7042
 2110SOL     OW17788   0.954   3.049   3.321  0.4247  0.4217 -0.2682
 2110SOL    HW117789   0.862   3.056   3.348 -0.0616 -3.4276 -0.8851
 2110SOL    HW217790   1.006   3.091   3.390 -0.7459  0.3646  0.6543
 2111SOL     OW17791   3.728   4.201  16.735 -0.1948  0.4012 -0.2347
 2111SOL    HW117792   3.700   4.176  16.647  0.2874  1.0840 -0.5837
 2111SOL    HW217793   3.734   4.123  16.789  0.2774  0.3675 -0.3332
 2112SOL     OW17794   2.162   0.803  12.900  0.3403  0.2771 -0.0413
 2112SOL    HW117795   2.088   0.859  12.923 -0.6618 -1.2616  0.5193
 2112SOL    HW217796   2.150   0.791  12.806 -1.1983 -0.6094  0.2635
 2113SOL     OW17797   1.527   3.270   7.975 -0.0922  0.4926  0.2786
 2113SOL    HW117798   1.474   3.349   7.973  1.2215  1.3959  0.8707
 2113SOL    HW217799   1.530   3.251   8.068 -0.8859 -1.1458 -0.0240
 2114SOL     OW17800   0.320   1.887   7.055 -0.3837  0.1163 -0.0124
 2114SOL    HW117801   0.291   1.919   6.970 -0.2763  1.4075  0.4298
 2114SOL    HW217802   0.369   1.811   7.025 -1.3132 -0.6095  0.2798
 2115SOL     OW17803   4.439   3.496   3.419 -0.3636  0.4652  0.4971
 2115SOL    HW117804   4.357   3.448   3.430  0.2493 -1.3175 -2.7046
 2115SOL    HW217805   4.430   3.573   3.475 -0.0976  1.7473 -1.1752
 2116SOL     OW17806   3.708   1.404   1.905 -0.8048  0.6289  0.5207
 2116SOL    HW117807   3.681   1.336   1.842  0.0625 -0.4790  1.3511
 2116SOL    HW217808   3.678   1.479   1.854 -0.2917  0.2669 -0.3127
 2117SOL     OW17809   3.696   2.596  10.382 -0.2680 -0.0567 -0.1734
 2117SOL    HW117810   3.785   2.629  10.371 -0.0220  0.0497  2.0919
 2117SOL    HW217811   3.676   2.621  10.472 -0.1117  0.5140 -0.2972
 2118SOL     OW17812   4.562   1.174   2.587  0.0247  0.0017 -0.0628
 2118SOL    HW117813   4.623   1.231   2.540  0.2179  0.2321  0.4689
 2118SOL    HW217814   4.528   1.224   2.661 -1.3899 -2.6550  1.0778
 2119SOL     OW17815   2.601   0.200  13.392 -0.1897 -0.0539  0.1629
 2119SOL    HW117816   2.512   0.230  13.374  1.5207  4.4952 -0.6094
 2119SOL    HW217817   2.647   0.278  13.423  0.4520  0.1629 -1.3554
 2120SOL     OW17818   1.378   0.092  10.317 -0.0257 -0.8421  0.2614
 2120SOL    HW117819   1.294   0.047  10.329 -0.5548  0.6094  2.1274
 2120SOL    HW217820   1.420   0.032  10.256  1.3217  0.4107 -0.0583
 2121SOL     OW17821   3.332   0.387   6.447 -0.7952  0.2060 -0.0513
 2121SOL    HW117822   3.336   0.468   6.498 -1.3559  0.3628 -0.2447
 2121SOL    HW217823   3.253   0.350   6.486  1.4107 -1.8852  2.3808
 2122SOL     OW17824   4.547   1.319   4.655 -0.3365  0.4396 -0.3733
 2122SOL    HW117825   4.503   1.400   4.629  0.5942  0.6264 -1.3771
 2122SOL    HW217826   4.528   1.331   4.748 -1.6835  0.5092 -0.6573
 2123SOL     OW17827   2.035   2.910   4.680  0.0999 -0.0573 -0.0883
 2123SOL    HW117828   2.130   2.917   4.680  0.1303 -0.5800 -1.7882
 2123SOL    HW217829   2.025   2.815   4.674 -2.7711  0.1931  0.4489
 2124SOL     OW17830   0.687   2.413   0.538 -0.3003 -0.7897  0.0956
 2124SOL    HW117831   0.644   2.487   0.580  0.4147  0.5041 -1.4725
 2124SOL    HW217832   0.663   2.345   0.602 -0.9469 -0.7902 -0.1463
 2125SOL     OW17833   0.966   1.265   7.172 -0.5338  0.0524  0.5033
 2125SOL    HW117834   0.966   1.259   7.267  0.6286 -3.0472  0.3071
 2125SOL    HW217835   1.059   1.287   7.163 -0.1830 -2.2142 -1.4493
 2126SOL     OW17836   4.149   3.409  17.341 -0.0285 -0.1598  0.3276
 2126SOL    HW117837   4.186   3.439  17.424 -0.3220  3.9960 -1.0393
 2126SOL    HW217838   4.111   3.323  17.357 -0.2604  0.0184  0.7470
 2127SOL     OW17839   0.569   3.112   0.127 -0.5167  0.2120 -0.4582
 2127SOL    HW117840   0.475   3.119   0.111 -0.7973 -1.2438  0.6754
 2127SOL    HW217841   0.591   3.203   0.149 -1.4047 -0.3332  2.5926
 2128SOL     OW17842   0.826   2.332  17.452  0.4021 -0.1930 -0.4278
 2128SOL    HW117843   0.921   2.339  17.448  0.4923 -1.3983 -0.2772
 2128SOL    HW217844   0.785   2.354  17.369  1.9955 -2.8257 -1.9310
 2129SOL     OW17845   3.905   4.069   2.773 -0.4072  0.0695 -0.2923
 2129SOL    HW117846   3.948   4.153   2.764 -0.2538 -0.1802 -2.0768
 2129SOL    HW217847   3.947   4.018   2.842 -1.0770 -0.6407 -0.3966
 2130SOL     OW17848   4.036   1.518   8.260  0.7596 -0.9080 -0.4937
 2130SOL    HW117849   4.052   1.612   8.246 -2.0351 -0.1764  1.2842
 2130SOL    HW217850   3.940   1.519   8.256  0.6797 -1.6652  1.5318
 2131SOL     OW17851   3.074   3.200   1.649  0.5453  0.6907  0.2576
 2131SOL    HW117852   3.043   3.290   1.642  2.0516  1.2671  1.1258
 2131SOL    HW217853   3.039   3.166   1.566 -3.8210  0.8549  2.0343
 2132SOL     OW17854   0.483   4.302   8.409  0.4572 -0.5468 -0.2869
 2132SOL    HW117855   0.390   4.287   8.428 -0.1950  0.2148 -2.9271
 2132SOL    HW217856   0.472   4.280   8.317  0.3084 -1.7614  0.0254
 2133SOL     OW17857   0.239   1.757  11.842 -0.1446 -0.1008 -0.4526
 2133SOL    HW117858   0.150   1.748  11.877  0.3794 -1.1722  0.5987
 2133SOL    HW217859   0.251   1.851  11.828 -2.7514 -0.2027 -3.5662
 2134SOL     OW17860   0.461   0.774   2.514  0.0163  0.3871 -0.0981
 2134SOL    HW117861   0.391   0.831   2.546 -2.3776 -2.4075 -0.3772
 2134SOL    HW217862   0.503   0.741   2.593 -1.8623 -2.6686 -0.3643
 2135SOL     OW17863   3.128   0.880   5.890 -0.5984 -0.0685  0.6788
 2135SOL    HW117864   3.166   0.885   5.978  1.0006  3.8059 -0.2433
 2135SOL    HW217865   3.085   0.795   5.893  0.5528 -0.6835 -0.9784
 2136SOL     OW17866   2.782   1.027   2.144  0.3244  0.0200 -0.2046
 2136SOL    HW117867   2.831   0.970   2.085 -1.8492 -3.4868  1.4168
 2136SOL    HW217868   2.721   0.960   2.175  1.6946 -0.5854  1.1473
 2137SOL     OW17869   4.581   0.625   2.757  0.3362 -0.3666  0.2889
 2137SOL    HW117870   4.661   0.599   2.710  0.6883 -1.8957  1.7269
 2137SOL    HW217871   4.615   0.694   2.815 -0.2147 -0.2693  0.4985
 2138SOL     OW17872   3.984   0.811  12.963  0.2958 -0.2610 -0.4522
 2138SOL    HW117873   3.932   0.854  12.895  2.2368 -0.3674 -2.0108
 2138SOL    HW217874   3.947   0.839  13.046 -1.0184 -4.1272  0.2295
 2139SOL     OW17875   1.066   2.409   0.995 -0.2493  0.6435 -0.8033
 2139SOL    HW117876   1.146   2.359   1.015  0.4170  1.7293 -0.7260
 2139SOL    HW217877   1.056   2.468   1.070  0.9794 -1.6426  1.1642
 2140SOL     OW17878   4.083   1.408   7.893  0.3751  0.9710 -0.5555
 2140SOL    HW117879   4.001   1.386   7.848 -0.7064 -0.1228  1.9893
 2140SOL    HW217880   4.147   1.350   7.851 -0.4958 -0.3860 -0.0041
 2141SOL     OW17881   1.819   3.985  15.449  0.7327  0.3659 -0.1335
 2141SOL    HW117882   1.882   4.058  15.450 -0.9648  1.8188  1.2105
 2141SOL    HW217883   1.747   4.027  15.497  1.0238  3.2798 -2.2638
 2142SOL     OW17884   2.428   1.916   6.061 -0.5043  0.3153 -0.2787
 2142SOL    HW117885   2.451   1.914   6.154  0.3379  0.4245 -0.4862
 2142SOL    HW217886   2.481   1.845   6.025  0.6157  1.4844 -0.9154
 2143SOL     OW17887   3.423   1.460   3.190  0.1325 -1.4969 -0.2696
 2143SOL    HW117888   3.375   1.478   3.271  1.3226  0.0924  0.0922
 2143SOL    HW217889   3.380   1.386   3.149  1.7592 -2.8423  0.4751
 2144SOL     OW17890   4.286   4.665  14.623 -0.2570  0.5011  0.4026
 2144SOL    HW117891   4.280   4.574  14.595  0.3956  0.6051 -0.0780
 2144SOL    HW217892   4.382   4.669  14.630 -0.3649  2.5389  0.8823
 2145SOL     OW17893   2.044   2.131   8.341  0.3308  0.1906 -0.1652
 2145SOL    HW117894   2.089   2.052   8.370 -1.1729  0.1073  1.9772
 2145SOL    HW217895   2.052   2.126   8.245  2.5437 -2.6452  0.1534
 2146SOL     OW17896   2.685   2.342  15.277  0.4386  0.1142  0.8689
 2146SOL    HW117897   2.595   2.349  15.245  1.4786  2.5552 -1.5469
 2146SOL    HW217898   2.663   2.340  15.370  2.9902  3.3983  1.5462
 2147SOL     OW17899   0.870   0.495   9.066  0.2974  0.4517  0.1799
 2147SOL    HW117900   0.872   0.572   9.009  0.7501  1.5063  1.6188
 2147SOL    HW217901   0.946   0.444   9.038  0.1061 -0.0401  0.5466
 2148SOL     OW17902   4.139   1.986  14.324 -0.8206 -0.1823 -0.0755
 2148SOL    HW117903   4.076   1.993  14.252 -2.2608  0.9095  1.2712
 2148SOL    HW217904   4.092   1.918  14.373  0.8209  0.2940  2.1281
 2149SOL     OW17905   1.734   0.364  17.604 -0.0049  0.1111  0.3518
 2149SOL    HW117906   1.652   0.371  17.654  0.9909  1.9912  1.6851
 2149SOL    HW217907   1.703   0.343  17.516 -0.0796  2.6817 -0.2510
 2150SOL     OW17908   0.541   4.396   4.423 -0.3646  0.5548  0.1825
 2150SOL    HW117909   0.529   4.321   4.482  0.1589  0.8499  0.6594
 2150SOL    HW217910   0.450   4.426   4.420 -0.8107 -0.6514  1.4785
 2151SOL     OW17911   2.807   4.351   5.748 -0.6119 -0.0859  0.5950
 2151SOL    HW117912   2.839   4.434   5.713  1.0878  0.0560  2.4815
 2151SOL    HW217913   2.759   4.385   5.824 -1.6054 -2.5827  1.0899
 2152SOL     OW17914   1.201   3.035   6.396  0.3327  0.1715  0.1135
 2152SOL    HW117915   1.159   3.093   6.459 -1.3715 -2.2287  1.1905
 2152SOL    HW217916   1.276   3.089   6.371  2.5069 -2.8052  0.1808
 2153SOL     OW17917   3.097   4.693   6.903  0.3503  0.0852 -0.0551
 2153SOL    HW117918   3.182   0.010   6.885  0.4357 -0.1249 -0.1071
 2153SOL    HW217919   3.038   0.033   6.861 -3.2798 -2.2143  1.6110
 2154SOL     OW17920   0.513   0.791   8.995  0.1882  0.4178 -0.1788
 2154SOL    HW117921   0.512   0.697   9.015  0.4933  0.5592  0.4927
 2154SOL    HW217922   0.541   0.832   9.077  0.0988 -1.0336  0.5801
 2155SOL     OW17923   0.747   0.775   2.827 -0.1683 -0.0323  0.1105
 2155SOL    HW117924   0.666   0.740   2.789  0.1503 -0.6987  0.0426
 2155SOL    HW217925   0.812   0.763   2.757 -0.6923 -1.1580 -0.1845
 2156SOL     OW17926   0.382   4.150   2.954 -0.0556 -0.3733  0.4028
 2156SOL    HW117927   0.381   4.213   2.882 -0.0526 -0.5671  0.2312
 2156SOL    HW217928   0.389   4.212   3.027  1.1917 -0.4417  0.3403
 2157SOL     OW17929   4.556   3.838   3.704  0.0675  0.5990 -0.4664
 2157SOL    HW117930   4.642   3.859   3.666  1.6890 -0.9072  2.4264
 2157SOL    HW217931   4.568   3.866   3.794  0.6430 -1.5120  0.0937
 2158SOL     OW17932   1.565   0.011  13.114  0.3234 -0.1286  0.0863
 2158SOL    HW117933   1.606   4.650  13.091 -0.7353 -0.1583 -1.6969
 2158SOL    HW217934   1.623   0.081  13.084 -1.1561  1.6310  1.3374
 2159SOL     OW17935   2.616   2.987   9.337  0.4575 -0.0835  0.0374
 2159SOL    HW117936   2.594   2.980   9.244  1.5713 -0.0830 -0.2269
 2159SOL    HW217937   2.650   2.902   9.366  2.2696  0.9421  0.9430
 2160SOL     OW17938   3.602   3.679   6.360 -0.2773  0.2574  0.1065
 2160SOL    HW117939   3.511   3.696   6.338 -1.2374 -3.7484  0.9431
 2160SOL    HW217940   3.647   3.721   6.287 -0.9649  0.0806 -0.4141
 2161SOL     OW17941   2.961   4.525   5.083  0.2629  0.7383 -0.1289
 2161SOL    HW117942   2.951   4.430   5.092  0.1716  0.9476  2.0684
 2161SOL    HW217943   2.884   4.550   5.032  0.1979  1.2552  0.2242
 2162SOL     OW17944   4.059   1.691   2.591 -0.1379  0.1443  0.0447
 2162SOL    HW117945   4.135   1.649   2.630  1.2682  0.5480 -2.2441
 2162SOL    HW217946   4.017   1.620   2.542  0.8067 -0.9612  0.8339
 2163SOL     OW17947   1.465   2.976   5.322  0.3126  0.1311 -0.0241
 2163SOL    HW117948   1.426   2.963   5.408 -1.7275  1.6184 -0.7296
 2163SOL    HW217949   1.401   3.039   5.289 -0.1963  0.7964  2.2679
 2164SOL     OW17950   3.690   3.707  10.232 -0.4046  0.1840 -0.4325
 2164SOL    HW117951   3.770   3.723  10.183 -1.1005  0.6664 -1.4107
 2164SOL    HW217952   3.708   3.621  10.270 -0.3844 -0.0896 -1.0567
 2165SOL     OW17953   4.200   0.558  12.892  0.1231  0.1188 -0.1632
 2165SOL    HW117954   4.185   0.473  12.850  1.3822  0.0124 -0.4088
 2165SOL    HW217955   4.254   0.525  12.964 -2.6786 -1.3237  1.2491
 2166SOL     OW17956   3.840   2.589   6.597  0.1951  0.3915 -0.1973
 2166SOL    HW117957   3.861   2.670   6.550 -1.4539  1.1505  0.3974
 2166SOL    HW217958   3.796   2.616   6.677  3.3268  0.1991  1.6029
 2167SOL     OW17959   2.722   1.400   8.213  0.3651 -0.1362  0.0335
 2167SOL    HW117960   2.686   1.312   8.227  1.3925 -0.6346 -0.4003
 2167SOL    HW217961   2.741   1.420   8.304  0.4651 -0.0263 -0.0105
 2168SOL     OW17962   3.689   1.520   1.294 -0.3475  0.3656  0.4130
 2168SOL    HW117963   3.780   1.491   1.288 -0.4907  0.1830 -0.9948
 2168SOL    HW217964   3.661   1.496   1.205  2.3443  1.0818 -0.6358
 2169SOL     OW17965   4.403   4.695   5.900  0.2087  0.1468 -0.0465
 2169SOL    HW117966   4.351   4.616   5.884  2.0013 -1.4332  1.8179
 2169SOL    HW217967   4.335   0.023   5.944 -0.6126 -2.8502  2.1274
 2170SOL     OW17968   0.455   3.314  11.086  0.0996 -0.0539  0.1165
 2170SOL    HW117969   0.479   3.395  11.131  1.2507 -1.8324  2.7427
 2170SOL    HW217970   0.454   3.256  11.162  1.2525  0.7803  0.7603
 2171SOL     OW17971   4.420   2.200  16.634 -0.1261 -0.6981  0.3953
 2171SOL    HW117972   4.504   2.246  16.630 -0.9148  0.7842  0.8368
 2171SOL    HW217973   4.358   2.273  16.626  0.1738 -0.2982  1.6905
 2172SOL     OW17974   1.700   0.802   1.976 -0.4976 -0.2294  0.7513
 2172SOL    HW117975   1.764   0.832   1.911  0.3587  0.2121  1.7924
 2172SOL    HW217976   1.762   0.783   2.047  0.4931 -0.8830 -0.2756
 2173SOL     OW17977   2.752   2.131  15.479 -0.1162 -0.6977 -0.6327
 2173SOL    HW117978   2.714   2.057  15.527 -1.4088 -0.0340 -0.6245
 2173SOL    HW217979   2.722   2.206  15.531 -0.4412 -0.8989 -0.5277
 2174SOL     OW17980   0.260   1.774   2.911 -0.2859  0.2454 -0.5065
 2174SOL    HW117981   0.264   1.869   2.919 -0.5278  0.3169 -1.2306
 2174SOL    HW217982   0.293   1.749   2.825 -0.8742  2.2013 -1.2874
 2175SOL     OW17983   2.788   1.350  17.359 -0.3876 -0.1351  0.5065
 2175SOL    HW117984   2.740   1.428  17.388 -1.3806 -0.8397  0.7761
 2175SOL    HW217985   2.735   1.313  17.289 -2.4884  1.5508  1.2091
 2176SOL     OW17986   4.303   3.021   4.354 -0.0119  0.5115  0.3915
 2176SOL    HW117987   4.254   3.091   4.312  0.0943 -0.1655 -0.8587
 2176SOL    HW217988   4.240   2.952   4.375  0.7428 -0.0326  0.8606
 2177SOL     OW17989   0.119   1.825   4.039 -0.1161  0.2064  0.0836
 2177SOL    HW117990   0.065   1.833   3.960  0.0410 -3.7602 -0.4185
 2177SOL    HW217991   0.109   1.730   4.047  1.6085  0.1949  2.0609
 2178SOL     OW17992   2.422   4.590  15.349  0.2411 -0.6004  0.0642
 2178SOL    HW117993   2.328   4.585  15.330  0.2341 -0.9697  0.1998
 2178SOL    HW217994   2.454   4.528  15.284  0.5784 -1.3765  0.9622
 2179SOL     OW17995   0.816   2.534   8.320 -0.3478 -0.3119  0.4319
 2179SOL    HW117996   0.863   2.473   8.377  0.9555 -0.3798 -0.7300
 2179SOL    HW217997   0.879   2.600   8.295  0.3421 -1.4772 -0.9119
 2180SOL     OW17998   1.819   4.688   5.432  0.4755 -0.3228  0.0571
 2180SOL    HW117999   1.764   4.611   5.421  0.1519 -0.0176 -0.4330
 2180SOL    HW218000   1.854   4.686   5.521  0.5246  1.6333  0.0779
 2181SOL     OW18001   1.738   0.521  13.550  0.5221 -0.3691  0.3183
 2181SOL    HW118002   1.830   0.497  13.538  0.1934 -1.6494  0.2993
 2181SOL    HW218003   1.738   0.542  13.643  1.4048 -2.5655  0.8014
 2182SOL     OW18004   1.660   0.970   7.965 -0.3371 -0.0180  0.2838
 2182SOL    HW118005   1.671   1.059   7.934 -0.8409 -0.3414 -0.8330
 2182SOL    HW218006   1.704   0.911   7.904 -1.9036 -2.2181  1.2828
 2183SOL     OW18007   3.408   0.602   1.368 -0.1921  0.3813 -0.3905
 2183SOL    HW118008   3.466   0.629   1.440 -2.3868  0.0326  1.4861
 2183SOL    HW218009   3.450   0.647   1.294  0.5319  2.0769  1.0368
 2184SOL     OW18010   4.507   0.085   7.255  0.7336 -0.1317 -0.7372
 2184SOL    HW118011   4.471   0.166   7.221 -1.1324  0.1643  1.9664
 2184SOL    HW218012   4.602   0.097   7.263  0.8937 -1.9191  0.1317
 2185SOL     OW18013   4.346   1.792  11.071 -0.0063  0.5827 -0.0181
 2185SOL    HW118014   4.355   1.715  11.126 -1.4334 -0.3034 -1.0079
 2185SOL    HW218015   4.251   1.802  11.061 -0.1235  0.4692  1.0042
 2186SOL     OW18016   0.478   0.227   9.030  0.0449 -0.1985 -0.0462
 2186SOL    HW118017   0.465   0.319   9.053  0.5071  0.3103 -1.8587
 2186SOL    HW218018   0.572   0.219   9.015  0.3261  2.4202  0.4177
 2187SOL     OW18019   4.097   0.718   6.372  0.3178 -0.1370  0.3558
 2187SOL    HW118020   4.152   0.750   6.301  1.7522 -0.6496  1.2385
 2187SOL    HW218021   4.119   0.625   6.366  0.2387 -0.0682 -1.1887
 2188SOL     OW18022   4.053   3.358   2.885  0.4505 -0.4304  0.2002
 2188SOL    HW118023   4.043   3.289   2.950  1.0665 -0.7151 -0.0088
 2188SOL    HW218024   3.963   3.347   2.856 -0.2394  0.7342  1.9297
 2189SOL     OW18025   1.967   0.657   8.787  0.2943  0.4314 -0.0392
 2189SOL    HW118026   2.062   0.655   8.798  0.3487 -2.0944 -0.8713
 2189SOL    HW218027   1.937   0.661   8.878  0.5770  1.2506  0.0196
 2190SOL     OW18028   1.802   3.901   8.283 -0.2513 -0.4172 -0.0448
 2190SOL    HW118029   1.868   3.970   8.295 -0.4989  0.2760 -2.5917
 2190SOL    HW218030   1.724   3.953   8.305  1.0686  0.4804  2.5121
 2191SOL     OW18031   2.366   4.140   2.104  0.4041 -0.4339  0.1816
 2191SOL    HW118032   2.354   4.234   2.095 -3.0804 -0.8636  0.1322
 2191SOL    HW218033   2.354   4.109   2.014 -0.0652  0.9256 -0.2179
 2192SOL     OW18034   2.915   1.894   8.374  0.3370 -0.6939  0.1300
 2192SOL    HW118035   3.004   1.859   8.378 -0.3529 -2.0264  4.0967
 2192SOL    HW218036   2.888   1.856   8.291  2.5164 -1.7801 -0.0774
 2193SOL     OW18037   0.952   0.305   2.121  0.6929 -0.4754 -0.0845
 2193SOL    HW118038   0.872   0.271   2.161  0.4390  1.2853  0.9194
 2193SOL    HW218039   1.018   0.296   2.190  1.8038  0.8777 -0.9716
 2194SOL     OW18040   1.983   0.426  13.541  0.0858 -0.1512 -0.4944
 2194SOL    HW118041   1.976   0.351  13.483 -2.8529 -1.3720  1.4108
 2194SOL    HW218042   2.062   0.405  13.590 -1.1184 -0.7595  1.2063
 2195SOL     OW18043   4.346   3.145   8.556  0.5734 -0.5823 -0.3135
 2195SOL    HW118044   4.279   3.214   8.548  1.8564  0.6159 -0.6985
 2195SOL    HW218045   4.414   3.192   8.604  1.3060 -1.2926 -0.6714
 2196SOL     OW18046   2.882   0.417  11.106 -0.2089  0.1131  0.6145
 2196SOL    HW118047   2.956   0.368  11.140  0.1996  1.1452  1.2019
 2196SOL    HW218048   2.922   0.503  11.094  0.0649  0.0353  0.9646
 2197SOL     OW18049   1.547   0.807   2.616  0.1812 -0.1207  0.2163
 2197SOL    HW118050   1.599   0.888   2.615  0.2008 -0.1239  2.0262
 2197SOL    HW218051   1.599   0.742   2.663  1.2204 -0.4370 -1.3640
 2198SOL     OW18052   4.010   4.296   0.921  0.0451  0.3275  0.1766
 2198SOL    HW118053   4.033   4.274   0.831  0.0976  0.8790  0.0560
 2198SOL    HW218054   4.007   4.392   0.919 -0.8324  0.3091  1.1972
 2199SOL     OW18055   2.838   4.535   2.454  0.3180  0.2973 -0.1896
 2199SOL    HW118056   2.854   4.446   2.424 -0.8013  1.2478 -3.5807
 2199SOL    HW218057   2.867   4.596   2.386 -0.8560  0.1955 -0.7798
 2200SOL     OW18058   3.246   0.476   8.296  0.3510 -0.6323 -0.0471
 2200SOL    HW118059   3.296   0.534   8.353 -0.5269  2.1974 -2.1510
 2200SOL    HW218060   3.268   0.390   8.332 -0.1277 -1.4820 -1.7580
 2201SOL     OW18061   3.444   3.320   4.953 -0.0176  0.3165 -0.0130
 2201SOL    HW118062   3.498   3.279   4.884 -1.8942 -1.9835 -0.1096
 2201SOL    HW218063   3.514   3.358   5.007 -0.2942  1.0751 -0.1871
 2202SOL     OW18064   0.345   1.592   7.557 -0.0516 -1.0391  0.1803
 2202SOL    HW118065   0.402   1.628   7.490 -0.9567  0.0891  0.0051
 2202SOL    HW218066   0.313   1.521   7.501  2.7168 -1.1311 -1.2667
 2203SOL     OW18067   0.857   0.718   4.297  0.5107  0.3557 -0.5445
 2203SOL    HW118068   0.875   0.799   4.249 -0.9655 -0.0102 -1.7291
 2203SOL    HW218069   0.907   0.652   4.250  0.2360  0.1352 -0.5274
 2204SOL     OW18070   3.962   2.631   3.111 -0.1683  0.4729  0.1915
 2204SOL    HW118071   3.944   2.672   3.026  0.4278  0.9833  0.3135
 2204SOL    HW218072   4.057   2.623   3.110 -0.1806  0.3146  0.1560
 2205SOL     OW18073   0.174   0.763   4.559  0.7044 -0.2952  0.3255
 2205SOL    HW118074   0.155   0.851   4.590  0.4328 -0.5193  0.8065
 2205SOL    HW218075   0.266   0.753   4.581  0.6582 -1.6750 -0.0879
 2206SOL     OW18076   2.586   2.222  12.252  0.1282 -0.0008 -0.3727
 2206SOL    HW118077   2.672   2.242  12.215  0.9586  1.5693  2.3765
 2206SOL    HW218078   2.534   2.294  12.216 -2.6308 -1.1501  1.2809
 2207SOL     OW18079   3.145   1.977   8.966 -1.0914 -0.1379 -0.3214
 2207SOL    HW118080   3.172   1.898   9.013  1.7818 -0.1912 -2.0559
 2207SOL    HW218081   3.111   2.036   9.032  1.6507  0.3835  0.6403
 2208SOL     OW18082   1.838   2.517  11.915  0.0291 -0.2101 -0.1220
 2208SOL    HW118083   1.753   2.522  11.959  0.2877 -1.3265  0.5056
 2208SOL    HW218084   1.894   2.548  11.985 -0.8427  0.2328  0.3854
 2209SOL     OW18085   3.125   1.461   9.375  0.2465  0.4198 -0.2606
 2209SOL    HW118086   3.063   1.426   9.311  0.8127 -1.0214 -0.0258
 2209SOL    HW218087   3.133   1.383   9.430  1.0266  1.3938  0.9980
 2210SOL     OW18088   4.313   4.277  11.494 -1.0582  0.0580  0.3220
 2210SOL    HW118089   4.300   4.201  11.551 -2.9751 -1.3757 -2.0201
 2210SOL    HW218090   4.228   4.269  11.450 -0.3257  1.8398 -1.3839
 2211SOL     OW18091   3.419   0.925   5.852  0.3500  0.5004 -0.0357
 2211SOL    HW118092   3.375   0.937   5.936  0.5917  0.8719  0.0374
 2211SOL    HW218093   3.364   0.959   5.781  0.2387 -0.3339 -0.3556
 2212SOL     OW18094   3.670   4.238   1.183  0.9069 -0.5652  0.6897
 2212SOL    HW118095   3.634   4.150   1.191  0.1406 -0.3605 -0.4860
 2212SOL    HW218096   3.683   4.232   1.088 -1.9056  0.8179  0.2025
 2213SOL     OW18097   3.952   3.203   7.781  0.0582 -0.4191  0.1115
 2213SOL    HW118098   3.971   3.276   7.722 -1.3618 -1.0430 -1.1207
 2213SOL    HW218099   4.000   3.129   7.743  1.1227  2.2509 -3.7228
 2214SOL     OW18100   3.564   0.301   2.798  0.3029 -0.1091  0.7027
 2214SOL    HW118101   3.525   0.303   2.711 -0.1259  2.3983  0.9557
 2214SOL    HW218102   3.527   0.220   2.834  0.4652 -0.3470  0.3281
 2215SOL     OW18103   2.940   2.442  16.532  0.5454  0.0133  0.3723
 2215SOL    HW118104   3.031   2.432  16.506  0.5346 -0.7800  0.6568
 2215SOL    HW218105   2.952   2.510  16.599 -1.0199 -0.5283  1.2231
 2216SOL     OW18106   3.453   1.492   4.191  0.1037  0.5861 -0.5771
 2216SOL    HW118107   3.476   1.411   4.236 -1.4871 -0.6264 -1.9559
 2216SOL    HW218108   3.411   1.549   4.256 -0.1488 -2.5648  2.0141
 2217SOL     OW18109   1.774   2.840   3.441  0.4633  0.0047  0.4630
 2217SOL    HW118110   1.765   2.906   3.373  0.1267 -0.9150 -0.3869
 2217SOL    HW218111   1.867   2.824   3.452  0.1832 -1.8263  0.1304
 2218SOL     OW18112   3.703   2.192   6.217  0.3793  0.0790  0.1570
 2218SOL    HW118113   3.762   2.118   6.199  0.7946  0.1793  1.0546
 2218SOL    HW218114   3.640   2.200   6.146 -0.0797 -0.5108  0.4974
 2219SOL     OW18115   0.416   4.434  10.906 -0.3686  0.0795 -0.8140
 2219SOL    HW118116   0.364   4.405  10.981 -1.0534  0.4203 -1.1533
 2219SOL    HW218117   0.424   4.529  10.898  0.6958  0.1373  1.2158
 2220SOL     OW18118   1.390   2.085   5.346 -0.4037 -0.2501  0.0153
 2220SOL    HW118119   1.418   2.023   5.414  1.2341 -0.1016 -0.5121
 2220SOL    HW218120   1.382   2.022   5.275  0.9852 -1.4161  0.8952
 2221SOL     OW18121   2.239   0.091   9.030 -0.2988 -0.7276  0.2534
 2221SOL    HW118122   2.304   0.120   9.094 -3.0980  1.9342  1.9064
 2221SOL    HW218123   2.164   0.140   9.065 -0.4741 -0.1240 -0.9461
 2222SOL     OW18124   2.854   1.161   8.065  0.5863  0.7192 -0.1818
 2222SOL    HW118125   2.874   1.150   7.972 -1.4665  0.4036 -0.5711
 2222SOL    HW218126   2.822   1.251   8.063  0.8935  0.7730 -2.0331
 2223SOL     OW18127   4.448   4.303   5.709  0.1106  0.1688 -0.4272
 2223SOL    HW118128   4.524   4.335   5.661 -0.3789  1.7055 -0.1794
 2223SOL    HW218129   4.472   4.329   5.798 -0.1845  0.9472 -0.5709
 2224SOL     OW18130   2.182   0.209   8.110  0.1854  0.1916 -0.1939
 2224SOL    HW118131   2.225   0.146   8.052  1.7298  2.0643 -1.1085
 2224SOL    HW218132   2.261   0.259   8.134 -0.0008  1.0642 -1.3907
 2225SOL     OW18133   0.370   2.377  11.490 -0.5559  0.3134  0.5427
 2225SOL    HW118134   0.393   2.373  11.397 -0.7881  1.4550  0.4394
 2225SOL    HW218135   0.387   2.467  11.520 -1.8507  0.9804 -0.7455
 2226SOL     OW18136   2.768   1.076   4.039 -0.0707 -0.5411  0.6867
 2226SOL    HW118137   2.746   1.162   4.075 -0.1245  0.4263 -1.6903
 2226SOL    HW218138   2.686   1.036   4.069 -1.1125  0.9911 -0.1344
 2227SOL     OW18139   3.610   0.783   3.035  0.3193  0.6141  0.2864
 2227SOL    HW118140   3.610   0.704   2.981  0.6269  1.1064 -0.4341
 2227SOL    HW218141   3.519   0.812   3.034  1.3803  3.9475  0.2060
 2228SOL     OW18142   2.350   3.697   3.701 -0.1140  0.3342  0.3254
 2228SOL    HW118143   2.349   3.717   3.607 -1.1354  1.2585  0.5316
 2228SOL    HW218144   2.355   3.602   3.699 -0.2398  0.3431 -0.6058
 2229SOL     OW18145   4.496   3.452  17.184  0.4265  0.6949 -0.8297
 2229SOL    HW118146   4.497   3.455  17.280 -2.5062  3.4206 -0.8862
 2229SOL    HW218147   4.525   3.543  17.169  1.5041  0.4076 -0.5165
 2230SOL     OW18148   1.462   2.121   0.605 -0.1876  0.6234 -0.8430
 2230SOL    HW118149   1.375   2.126   0.644  0.0617 -0.6465 -0.1169
 2230SOL    HW218150   1.449   2.174   0.526 -0.2816  1.0040 -0.5727
 2231SOL     OW18151   0.766   0.048   1.830 -0.3349 -0.7661 -0.7376
 2231SOL    HW118152   0.685   4.722   1.848 -1.3310  1.4503  0.6556
 2231SOL    HW218153   0.797   0.054   1.920 -1.4279 -0.9820 -0.3504
 2232SOL     OW18154   0.528   1.862  10.369 -0.3150 -0.8340  0.1376
 2232SOL    HW118155   0.444   1.895  10.400 -0.4707 -1.0436 -0.0660
 2232SOL    HW218156   0.516   1.775  10.408  0.6750 -1.6724 -1.4534
 2233SOL     OW18157   4.464   1.038   1.575 -0.1916  0.5902  0.1800
 2233SOL    HW118158   4.428   0.952   1.596  0.3824  0.4639  0.6500
 2233SOL    HW218159   4.387   1.079   1.536 -0.7875 -0.3863  0.3582
 2234SOL     OW18160   0.430   3.691   1.017 -0.4729 -0.0066  0.6001
 2234SOL    HW118161   0.344   3.652   1.004 -0.3641  0.9291 -2.7802
 2234SOL    HW218162   0.429   3.746   0.939  2.9352 -1.6536 -0.5814
 2235SOL     OW18163   0.007   3.460   2.457  0.2158  0.4554 -0.1764
 2235SOL    HW118164   0.049   3.536   2.417  0.0586  1.2397  1.1432
 2235SOL    HW218165   0.079   3.397   2.454  0.6730  0.9457  0.4590
 2236SOL     OW18166   0.240   1.779  17.605 -0.1243 -0.1816 -0.2950
 2236SOL    HW118167   0.207   1.792  17.516  1.0766 -3.3864 -1.1882
 2236SOL    HW218168   0.317   1.723  17.596 -0.9270 -1.2990 -0.2311
 2237SOL     OW18169   0.981   2.091   6.297 -0.3333  0.1163 -0.1491
 2237SOL    HW118170   0.889   2.071   6.281 -0.3514 -0.3722  0.5383
 2237SOL    HW218171   1.022   2.051   6.220 -0.1003  0.5173 -0.2290
 2238SOL     OW18172   2.723   1.189   6.471  0.4970 -0.2046  0.4722
 2238SOL    HW118173   2.748   1.117   6.529 -1.9353  0.3684  2.2187
 2238SOL    HW218174   2.643   1.151   6.432  0.0020  1.4865 -0.1478
 2239SOL     OW18175   0.102   0.787   6.716  0.2129 -0.6223  0.7345
 2239SOL    HW118176   0.089   0.752   6.627  0.1422  0.1357  0.4488
 2239SOL    HW218177   0.196   0.806   6.715  0.0557  0.2039  2.0195
 2240SOL     OW18178   1.372   1.790  12.416 -0.1962 -0.2285  0.0159
 2240SOL    HW118179   1.442   1.750  12.364 -1.3393 -1.6745 -0.3995
 2240SOL    HW218180   1.380   1.883  12.394 -2.5142 -0.1863 -0.6781
 2241SOL     OW18181   0.888   2.648   6.168 -0.5250  0.2078 -0.3089
 2241SOL    HW118182   0.958   2.670   6.228  0.1273 -0.0760 -0.9709
 2241SOL    HW218183   0.812   2.688   6.210 -1.3441 -0.7182 -0.9003
 2242SOL     OW18184   3.098   3.448   5.106 -1.0891  0.1356  0.1982
 2242SOL    HW118185   3.160   3.427   5.036  0.2512  2.1225  0.7587
 2242SOL    HW218186   3.046   3.521   5.072  1.5489  1.7144 -0.5238
 2243SOL     OW18187   0.612   4.107   9.017  0.4174  0.0683  0.1962
 2243SOL    HW118188   0.686   4.165   9.038  0.3978 -0.5011  1.7900
 2243SOL    HW218189   0.558   4.131   9.092 -0.9864  0.0253 -0.8150
 2244SOL     OW18190   0.079   1.241   8.136 -0.1097 -0.2206 -0.4765
 2244SOL    HW118191   0.146   1.278   8.193 -0.9576  1.2359 -0.4346
 2244SOL    HW218192   0.007   1.226   8.198 -1.1449  0.1267 -1.5937
 2245SOL     OW18193   2.255   4.326   7.498 -0.0231 -0.6276 -0.0645
 2245SOL    HW118194   2.192   4.384   7.455  1.4461  1.5622  0.7235
 2245SOL    HW218195   2.196   4.251   7.501 -0.6149 -0.1329  0.8179
 2246SOL     OW18196   4.156   0.971   3.480 -0.7202  0.2221  0.9373
 2246SOL    HW118197   4.161   1.053   3.530 -1.3376  2.4074 -2.6172
 2246SOL    HW218198   4.097   0.919   3.534 -0.1920 -0.6724  0.6514
 2247SOL     OW18199   2.697   3.814   5.751 -0.0152 -0.2989 -0.0424
 2247SOL    HW118200   2.759   3.742   5.743  0.1370 -0.3525  1.6669
 2247SOL    HW218201   2.615   3.768   5.736  0.1211 -1.3727  2.5830
 2248SOL     OW18202   2.625   0.710   5.857 -0.3231 -0.5706  0.0196
 2248SOL    HW118203   2.598   0.665   5.777 -0.2269 -0.9945  0.2240
 2248SOL    HW218204   2.566   0.786   5.858  0.6254  0.1498  1.4184
 2249SOL     OW18205   2.765   1.520   6.806 -0.0438 -0.2087  0.0280
 2249SOL    HW118206   2.838   1.470   6.844 -1.3676 -1.0360  1.4493
 2249SOL    HW218207   2.714   1.451   6.763  0.9976 -1.3041  0.5330
 2250SOL     OW18208   0.108   4.209  14.272 -0.5836 -1.0730 -0.2808
 2250SOL    HW118209   0.014   4.222  14.280 -0.6700 -1.4839 -0.6350
 2250SOL    HW218210   0.108   4.127  14.223  0.1851 -0.3061 -1.5838
 2251SOL     OW18211   2.415   4.409   9.976 -0.0063  0.2664 -0.3882
 2251SOL    HW118212   2.346   4.470   9.951 -0.1755  0.0991 -0.3300
 2251SOL    HW218213   2.441   4.383   9.888  0.4964  2.2664 -0.8189
 2252SOL     OW18214   3.263   1.844  16.226  0.0944 -0.5017 -0.3870
 2252SOL    HW118215   3.183   1.894  16.241  0.2335 -0.0942 -1.0424
 2252SOL    HW218216   3.323   1.917  16.208 -3.3609  2.1895 -0.9302
 2253SOL     OW18217   0.886   4.466   4.146  0.3387  0.2495 -0.0837
 2253SOL    HW118218   0.832   4.387   4.141 -0.1798  0.4380  2.2197
 2253SOL    HW218219   0.880   4.496   4.237  0.8597 -0.9081  0.3343
 2254SOL     OW18220   2.588   2.349  15.529 -0.1605 -0.0009  0.3210
 2254SOL    HW118221   2.536   2.308  15.598  2.1214 -1.0633  1.3931
 2254SOL    HW218222   2.571   2.441  15.548 -2.3343  0.2654 -2.7484
 2255SOL     OW18223   3.001   3.810   0.536  0.2472 -0.4320  0.8221
 2255SOL    HW118224   2.965   3.894   0.567 -2.4385 -1.5050  0.6076
 2255SOL    HW218225   2.986   3.750   0.609  1.9481 -0.3786  1.2178
 2256SOL     OW18226   2.163   4.628   5.469 -0.1206 -0.7911  0.4588
 2256SOL    HW118227   2.230   4.579   5.517  0.7044 -1.1007 -1.0031
 2256SOL    HW218228   2.091   4.565   5.468 -0.1128 -0.7872 -0.5069
 2257SOL     OW18229   4.504   1.179  16.827 -0.3024  0.4417  0.5514
 2257SOL    HW118230   4.558   1.202  16.902 -0.2168 -0.9920  0.9266
 2257SOL    HW218231   4.575   1.156  16.768  0.3628  3.3595  0.2071
 2258SOL     OW18232   2.539   1.546   3.738  0.2127 -0.1753  0.1856
 2258SOL    HW118233   2.498   1.571   3.656  1.5963  1.6203  0.0459
 2258SOL    HW218234   2.615   1.490   3.723  0.6104  0.1330  1.0326
 2259SOL     OW18235   1.122   0.325   7.382 -0.0812 -0.0643 -0.0127
 2259SOL    HW118236   1.099   0.396   7.442 -2.4673 -0.1249 -0.8303
 2259SOL    HW218237   1.197   0.359   7.333  0.8883 -1.6577  0.3956
 2260SOL     OW18238   0.227   2.689   2.641  0.0815 -0.3501  0.0967
 2260SOL    HW118239   0.203   2.633   2.715 -0.6667 -1.5553 -1.0756
 2260SOL    HW218240   0.157   2.665   2.581 -1.3225  2.3576  0.6529
 2261SOL     OW18241   2.493   4.312   5.501 -0.5268  0.3472  0.1680
 2261SOL    HW118242   2.522   4.234   5.549  0.8046  0.4016 -0.5499
 2261SOL    HW218243   2.578   4.346   5.475 -1.5472  2.3898 -0.5295
 2262SOL     OW18244   1.148   0.439  11.350 -0.2551  0.3301  0.2206
 2262SOL    HW118245   1.243   0.448  11.354 -0.3775  0.5418  2.7875
 2262SOL    HW218246   1.130   0.426  11.443  1.2419  0.2347  0.4991
 2263SOL     OW18247   1.776   3.384   0.028 -0.0044 -0.0747 -0.2844
 2263SOL    HW118248   1.814   3.372  17.633  0.0204  0.5241 -0.3607
 2263SOL    HW218249   1.768   3.480   0.025 -0.5199 -0.0618  1.2404
 2264SOL     OW18250   0.405   1.124  16.907  0.1394  0.4956  0.1933
 2264SOL    HW118251   0.387   1.041  16.863  0.2264 -0.4353  1.8995
 2264SOL    HW218252   0.340   1.174  16.859 -0.7128  0.5355  1.3672
 2265SOL     OW18253   1.597   1.154  15.663 -0.9746 -0.4074  0.1930
 2265SOL    HW118254   1.664   1.173  15.728 -1.1498 -0.4317  0.3785
 2265SOL    HW218255   1.576   1.242  15.631  0.4076  0.4737  1.7454
 2266SOL     OW18256   1.861   4.543   7.080  0.9622  0.1911 -0.4221
 2266SOL    HW118257   1.778   4.509   7.114  1.6588 -1.2333 -0.1260
 2266SOL    HW218258   1.923   4.475   7.109  0.4339 -0.2528 -0.3362
 2267SOL     OW18259   2.014   4.597   4.337  0.5333  0.0553  0.3541
 2267SOL    HW118260   2.051   4.665   4.280  1.7044  0.0639  1.1155
 2267SOL    HW218261   2.062   4.519   4.309  0.5939  0.3096 -0.2616
 2268SOL     OW18262   2.732   4.052   2.530  0.1184  0.6808 -0.4022
 2268SOL    HW118263   2.682   3.988   2.581  1.6144  0.9395  1.4248
 2268SOL    HW218264   2.670   4.124   2.531  0.8909  1.3537 -0.8297
 2269SOL     OW18265   4.163   0.991   6.772 -0.2956 -0.3082  0.0571
 2269SOL    HW118266   4.218   1.068   6.763 -2.8994  1.4102 -1.0220
 2269SOL    HW218267   4.132   0.992   6.682  0.8927  2.1406 -0.3134
 2270SOL     OW18268   1.169   2.670   2.575  0.1423  0.1495 -0.5082
 2270SOL    HW118269   1.224   2.699   2.502 -0.5072  0.6120 -0.8138
 2270SOL    HW218270   1.082   2.656   2.537  0.6456  0.5680 -1.8130
 2271SOL     OW18271   1.838   3.472   7.603  0.8976 -0.2857  0.0378
 2271SOL    HW118272   1.809   3.424   7.681  0.5421  0.3248  0.2770
 2271SOL    HW218273   1.880   3.396   7.562  2.6374  1.0870 -0.6942
 2272SOL     OW18274   3.771   0.631   4.866  0.4371  0.5406 -0.0938
 2272SOL    HW118275   3.819   0.574   4.806 -0.9523 -0.4093 -0.3110
 2272SOL    HW218276   3.680   0.601   4.856 -0.4820  2.1334  3.3847
 2273SOL     OW18277   4.012   0.357   2.349 -0.1098  0.5552 -0.4137
 2273SOL    HW118278   4.006   0.437   2.401  2.7294  0.3346  0.2472
 2273SOL    HW218279   3.965   0.379   2.269 -1.2573  0.6435  0.2822
 2274SOL     OW18280   2.921   3.801   2.130  0.2441  0.2816  0.1656
 2274SOL    HW118281   2.993   3.840   2.181  0.4141 -0.1615  0.2603
 2274SOL    HW218282   2.971   3.737   2.079  2.6631  1.8213  0.5834
 2275SOL     OW18283   3.360   0.635   7.321 -0.6687 -0.2402 -0.0542
 2275SOL    HW118284   3.398   0.722   7.308 -1.3317  0.0986  0.2545
 2275SOL    HW218285   3.286   0.635   7.260 -0.7101  1.0717  0.0064
 2276SOL     OW18286   4.525   0.473   6.677 -0.1255 -0.4552 -0.0847
 2276SOL    HW118287   4.452   0.524   6.641 -0.4711 -0.3970  0.7008
 2276SOL    HW218288   4.542   0.408   6.609 -1.1798 -1.1738  0.3332
 2277SOL     OW18289   3.140   2.362  12.716  0.0148 -0.4088  0.6922
 2277SOL    HW118290   3.235   2.359  12.733  0.0676 -0.4692  0.3815
 2277SOL    HW218291   3.158   2.307  12.640  0.0197  1.2488 -0.5149
 2278SOL     OW18292   3.069   2.345   7.422 -0.5379 -0.5336  0.2731
 2278SOL    HW118293   3.075   2.421   7.480 -0.2886 -1.2480  1.1738
 2278SOL    HW218294   3.156   2.341   7.382 -1.0753  0.2177 -0.9683
 2279SOL     OW18295   0.123   1.768   2.115 -0.4260 -0.7520 -0.4607
 2279SOL    HW118296   0.039   1.752   2.072 -0.2432  0.2567 -1.2022
 2279SOL    HW218297   0.093   1.803   2.199 -0.9671  2.2530 -1.9106
 2280SOL     OW18298   1.157   0.116   4.237  0.5412 -0.4476 -0.3691
 2280SOL    HW118299   1.078   0.104   4.184 -0.6656  1.3362  1.0106
 2280SOL    HW218300   1.111   0.114   4.321 -2.0610 -2.6741 -1.8222
 2281SOL     OW18301   1.677   2.942   2.541  0.4231  0.0531 -0.3010
 2281SOL    HW118302   1.644   3.030   2.557 -0.3616  0.1453 -2.4343
 2281SOL    HW218303   1.701   2.935   2.448 -0.0158 -3.5245 -0.1649
 2282SOL     OW18304   1.068   2.204   8.007  0.1852  0.0787  0.0686
 2282SOL    HW118305   1.112   2.281   8.043  0.2686  0.5357 -1.0083
 2282SOL    HW218306   0.978   2.238   8.003 -0.1140 -0.8283 -0.9079
 2283SOL     OW18307   1.780   3.306   1.718  0.1534  0.4140 -0.3085
 2283SOL    HW118308   1.706   3.362   1.740  0.7353  1.0184  0.1100
 2283SOL    HW218309   1.851   3.370   1.710  1.6052 -1.3914 -1.9245
 2284SOL     OW18310   1.796   2.019  12.277  0.2504 -0.4798  0.4935
 2284SOL    HW118311   1.798   1.926  12.256 -2.5874 -0.6023  0.6759
 2284SOL    HW218312   1.787   2.066  12.193 -1.3527 -1.7191 -0.0386
 2285SOL     OW18313   0.775   1.664  12.689  0.5868  0.0874  0.2907
 2285SOL    HW118314   0.860   1.667  12.733  0.3712 -0.8453  0.7666
 2285SOL    HW218315   0.758   1.569  12.693  2.4173 -0.2222  0.5196
 2286SOL     OW18316   3.877   1.040   5.520 -0.0269  0.1478  0.4304
 2286SOL    HW118317   3.957   1.011   5.476  0.8034  0.9804  1.3888
 2286SOL    HW218318   3.813   0.979   5.485 -0.2724  0.6607 -0.0183
 2287SOL     OW18319   4.636   1.369   7.089  0.7986 -0.5044 -0.2671
 2287SOL    HW118320   4.596   1.283   7.104 -0.7398  0.3706  0.6120
 2287SOL    HW218321   4.575   1.404   7.024 -0.6014 -0.4030  1.1124
 2288SOL     OW18322   3.391   4.217   5.287 -0.6388  0.3704 -0.3509
 2288SOL    HW118323   3.453   4.213   5.214  2.2199  0.9183  2.0116
 2288SOL    HW218324   3.384   4.312   5.298 -2.5840 -0.3779  4.6857
 2289SOL     OW18325   0.982   0.513   5.383 -0.1899 -0.0749  0.0014
 2289SOL    HW118326   1.014   0.423   5.369  0.5816  0.1523  0.3338
 2289SOL    HW218327   1.054   0.551   5.333 -0.1915  1.5189  1.2572
 2290SOL     OW18328   0.004   0.687   3.561 -0.1354  0.0534  0.0790
 2290SOL    HW118329   4.710   0.626   3.490  0.9809 -1.6095  1.2636
 2290SOL    HW218330   0.025   0.768   3.514  0.8869 -0.2792 -0.0210
 2291SOL     OW18331   0.975   1.465   6.966 -0.2558 -0.0792 -0.0576
 2291SOL    HW118332   0.962   1.399   7.034  0.4831 -1.4961 -1.2769
 2291SOL    HW218333   0.893   1.450   6.918 -0.0610  2.5389 -1.2178
 2292SOL     OW18334   0.811   4.084   8.038 -0.5293  0.0560  0.3342
 2292SOL    HW118335   0.743   4.026   8.073  0.2901 -0.4944  0.9990
 2292SOL    HW218336   0.841   4.113   8.124  0.9627 -2.2162  0.5853
 2293SOL     OW18337   2.827   2.347   4.400  0.2780 -0.4231 -0.0009
 2293SOL    HW118338   2.922   2.354   4.402  0.1653  0.9334  0.2522
 2293SOL    HW218339   2.815   2.283   4.329  1.9363 -1.0155  0.2608
 2294SOL     OW18340   3.737   1.317   0.546 -0.5494 -0.3559  0.1007
 2294SOL    HW118341   3.747   1.302   0.452  0.0529 -0.2025  0.1438
 2294SOL    HW218342   3.771   1.233   0.579  0.6180  0.8510  1.9914
 2295SOL     OW18343   2.263   4.348  16.516 -0.6209 -0.1598  0.5339
 2295SOL    HW118344   2.283   4.403  16.440  0.5821 -0.3878  0.6870
 2295SOL    HW218345   2.310   4.405  16.577  0.3215  0.5441 -0.8310
 2296SOL     OW18346   3.237   3.445   8.321 -0.1734 -0.6154 -0.0186
 2296SOL    HW118347   3.288   3.499   8.381 -1.0191 -0.0847  0.2228
 2296SOL    HW218348   3.160   3.435   8.377  1.1382  0.7809  2.0324
 2297SOL     OW18349   2.132   2.754   7.858  0.5029  0.1800 -0.1442
 2297SOL    HW118350   2.098   2.707   7.783 -1.8465  0.7511  0.5820
 2297SOL    HW218351   2.219   2.714   7.859 -0.1981 -1.3128  0.2778
 2298SOL     OW18352   1.301   3.808   8.708  0.2392 -0.2374 -0.1430
 2298SOL    HW118353   1.313   3.900   8.685 -0.2766  0.2978  1.7388
 2298SOL    HW218354   1.243   3.770   8.641  0.5610 -0.5282 -0.2569
 2299SOL     OW18355   0.869   1.132  13.254  0.1740  0.0343 -0.0712
 2299SOL    HW118356   0.866   1.079  13.333  1.5836  1.1328  0.7091
 2299SOL    HW218357   0.963   1.143  13.238  0.7867 -2.3527  2.0051
 2300SOL     OW18358   4.565   1.733  10.176  0.2977 -0.1345  0.4229
 2300SOL    HW118359   4.657   1.710  10.167  0.0542 -1.2398  0.7457
 2300SOL    HW218360   4.522   1.702  10.096  1.1867 -2.7993  0.9925
 2301SOL     OW18361   4.097   0.926   1.381 -0.1732  0.2102  0.1300
 2301SOL    HW118362   4.094   0.980   1.302  0.6016 -0.2381 -0.2043
 2301SOL    HW218363   4.179   0.880   1.363 -0.3173  0.1394 -0.3363
 2302SOL     OW18364   2.150   3.949  10.500 -0.1134  0.4398  0.5837
 2302SOL    HW118365   2.231   3.908  10.471  0.5045  1.3565  1.0218
 2302SOL    HW218366   2.129   3.883  10.566  0.4156 -0.1085  0.1998
 2303SOL     OW18367   0.596   1.720   2.879  1.3711  0.2917  0.3879
 2303SOL    HW118368   0.626   1.794   2.932  2.9143  0.4333 -0.6854
 2303SOL    HW218369   0.599   1.656   2.950  1.4060  0.1690  0.2756
 2304SOL     OW18370   0.043   3.795   3.419 -0.2783 -0.2056  0.1686
 2304SOL    HW118371   0.083   3.737   3.355 -0.0493  0.8139 -0.6030
 2304SOL    HW218372   4.691   3.834   3.373  0.0554 -1.8726 -1.7609
 2305SOL     OW18373   3.278   1.826  10.889  0.7466 -0.1738  0.4515
 2305SOL    HW118374   3.320   1.745  10.862 -0.8851 -1.4493  1.7914
 2305SOL    HW218375   3.354   1.880  10.912  0.8652 -0.3713  0.5252
 2306SOL     OW18376   2.652   1.047  11.393  0.4664 -0.3568 -0.2149
 2306SOL    HW118377   2.592   0.990  11.344  1.7736 -0.4267 -1.7344
 2306SOL    HW218378   2.614   1.048  11.481 -2.2027  1.0960 -1.3796
 2307SOL     OW18379   1.889   0.668   9.061 -0.0076 -0.0728  0.2213
 2307SOL    HW118380   1.949   0.674   9.135  0.5873  3.2918 -0.5639
 2307SOL    HW218381   1.837   0.747   9.071  1.0898  0.9711 -2.2496
 2308SOL     OW18382   1.341   4.336   2.088 -0.4576  0.5943 -0.1584
 2308SOL    HW118383   1.372   4.255   2.129  1.4196  1.1029 -0.5868
 2308SOL    HW218384   1.270   4.370   2.142  1.3452  0.9394  1.9801
 2309SOL     OW18385   3.436   2.314  14.707  0.4067  0.1617 -0.3272
 2309SOL    HW118386   3.402   2.274  14.787 -3.0214  0.8778 -1.4349
 2309SOL    HW218387   3.518   2.339  14.749  0.4066 -1.6588  0.7814
 2310SOL     OW18388   4.309   0.749   4.696 -0.0503  0.1557  1.4458
 2310SOL    HW118389   4.281   0.788   4.613 -1.5337 -0.4497  1.6556
 2310SOL    HW218390   4.363   0.672   4.682 -1.5916 -0.5880 -0.5533
 2311SOL     OW18391   3.881   3.076   7.114 -0.3166 -0.9644  0.0239
 2311SOL    HW118392   3.800   3.025   7.114 -0.5488 -0.5862  0.0661
 2311SOL    HW218393   3.944   3.035   7.174  0.8636 -0.8552 -1.1317
 2312SOL     OW18394   1.146   1.928   0.173 -0.2320  0.2961 -0.1460
 2312SOL    HW118395   1.094   1.884   0.106  2.0457  2.0245 -3.0499
 2312SOL    HW218396   1.078   1.927   0.240  1.1840  0.1418  1.3082
 2313SOL     OW18397   2.854   4.105   5.871  0.3572  0.2599 -0.5303
 2313SOL    HW118398   2.820   4.179   5.821 -1.8290  0.3847  1.1576
 2313SOL    HW218399   2.873   4.047   5.797  0.6105 -1.3274  0.7619
 2314SOL     OW18400   2.147   0.663   4.765  0.5410  0.1821  0.1989
 2314SOL    HW118401   2.228   0.667   4.714  0.6019 -0.1451  0.2708
 2314SOL    HW218402   2.159   0.574   4.799 -2.0528 -0.4834 -0.6730
 2315SOL     OW18403   4.134   2.249   3.655  0.3250  0.0311  0.0092
 2315SOL    HW118404   4.123   2.182   3.587  1.6744  0.4834 -0.6619
 2315SOL    HW218405   4.115   2.204   3.737 -2.0238 -0.6617 -0.9138
 2316SOL     OW18406   3.127   0.346   9.170  0.4125 -0.1875  0.0977
 2316SOL    HW118407   3.126   0.432   9.212  0.7057 -0.5395  0.8366
 2316SOL    HW218408   3.162   0.362   9.082 -1.6842 -1.2112 -0.9157
 2317SOL     OW18409   0.998   1.166  17.068 -0.2740  0.5978  0.2922
 2317SOL    HW118410   0.947   1.247  17.067 -0.1865  0.6154 -2.9017
 2317SOL    HW218411   0.966   1.136  17.153  1.7523 -1.5605  0.3238
 2318SOL     OW18412   0.368   2.146   5.287  0.2827 -0.3758  0.8005
 2318SOL    HW118413   0.334   2.190   5.364  1.7524  2.0798  0.0684
 2318SOL    HW218414   0.437   2.088   5.319  0.3536  0.8463  2.8505
 2319SOL     OW18415   2.977   0.296  13.339 -0.2274 -0.0297  0.2352
 2319SOL    HW118416   3.021   0.379  13.324  1.4722 -1.0124 -0.2724
 2319SOL    HW218417   2.892   0.318  13.377  0.1964  0.6869  0.7599
 2320SOL     OW18418   0.996   4.375  10.834 -0.6328 -0.2466 -0.1031
 2320SOL    HW118419   1.066   4.406  10.892 -0.9629  0.5730 -0.1472
 2320SOL    HW218420   0.987   4.442  10.766 -0.8561  0.1165  0.2889
 2321SOL     OW18421   2.532   2.596   9.533  0.3679  0.0705  0.2030
 2321SOL    HW118422   2.570   2.513   9.561  0.6990 -0.0857 -0.7032
 2321SOL    HW218423   2.502   2.626   9.618  2.1992  0.5745  0.6754
 2322SOL     OW18424   0.598   1.126   7.296  0.8317  0.0617 -0.1675
 2322SOL    HW118425   0.536   1.053   7.308 -1.7092  2.7841  3.0188
 2322SOL    HW218426   0.587   1.183   7.371  0.2387  0.4189 -0.5283
 2323SOL     OW18427   3.367   1.401  10.872  0.0222  0.0201  0.6672
 2323SOL    HW118428   3.299   1.344  10.835 -0.1015  0.5240  0.1133
 2323SOL    HW218429   3.399   1.350  10.946 -3.8962 -3.7924 -0.2563
 2324SOL     OW18430   3.192   2.610   3.982 -0.1357 -0.2759 -0.9504
 2324SOL    HW118431   3.256   2.630   4.051 -1.9347 -0.8221  0.8562
 2324SOL    HW218432   3.185   2.516   3.998 -0.8376  0.0979  0.9233
 2325SOL     OW18433   0.774   2.805  10.928  0.6256  0.2962 -0.0852
 2325SOL    HW118434   0.787   2.721  10.883  1.6999 -1.3022  3.1872
 2325SOL    HW218435   0.808   2.787  11.016 -0.4799 -1.9883 -0.1224
 2326SOL     OW18436   2.717   0.304   6.359  0.0413  0.1969  0.0008
 2326SOL    HW118437   2.789   0.264   6.408  1.3266  1.5157 -0.8222
 2326SOL    HW218438   2.647   0.287   6.422 -1.1782 -0.5765 -1.5926
 2327SOL     OW18439   0.507   2.622  11.048 -0.0949  0.6759  0.3507
 2327SOL    HW118440   0.555   2.574  10.981 -0.8719  0.5178 -0.0944
 2327SOL    HW218441   0.514   2.714  11.024 -1.3606 -0.0405 -2.7242
 2328SOL     OW18442   1.297   4.426   1.545  0.1773 -0.0954 -0.3859
 2328SOL    HW118443   1.269   4.341   1.513  0.7693  0.2373 -1.7725
 2328SOL    HW218444   1.315   4.421   1.639 -0.7770 -1.0984 -0.2696
 2329SOL     OW18445   2.678   0.113   4.519 -0.1389  0.2155 -0.6604
 2329SOL    HW118446   2.735   0.040   4.543 -0.9730 -0.1917  0.1181
 2329SOL    HW218447   2.655   0.167   4.594  1.2995 -0.5306  0.2953
 2330SOL     OW18448   4.041   3.485   2.319 -0.4716  0.4403  0.0455
 2330SOL    HW118449   4.058   3.568   2.364  0.9773  0.2546 -0.1757
 2330SOL    HW218450   4.100   3.489   2.244 -1.5913 -1.3272 -0.9122
 2331SOL     OW18451   2.393   1.230   0.449 -0.2634  0.1940  0.3627
 2331SOL    HW118452   2.319   1.251   0.393 -0.7225  1.7937  1.5694
 2331SOL    HW218453   2.357   1.226   0.538 -0.3331  0.5362  0.3510
 2332SOL     OW18454   0.929   0.707  10.626  0.1131 -0.0536 -0.0152
 2332SOL    HW118455   0.955   0.797  10.604  1.4070 -0.0949  1.3069
 2332SOL    HW218456   0.950   0.656  10.548 -0.1758  0.6896 -0.5821
 2333SOL     OW18457   2.141   2.066   2.191 -0.0968 -0.6595 -0.0481
 2333SOL    HW118458   2.136   1.976   2.224 -1.1585  0.1722  2.0370
 2333SOL    HW218459   2.203   2.098   2.256 -0.0046  0.5019 -0.7152
 2334SOL     OW18460   2.574   2.434   6.455 -0.4530 -0.0081  0.2618
 2334SOL    HW118461   2.483   2.432   6.427  0.3685 -0.0341 -2.3937
 2334SOL    HW218462   2.614   2.381   6.385 -0.0663 -1.5548  1.6409
 2335SOL     OW18463   1.684   1.224   3.689  1.0547 -0.3636 -0.2032
 2335SOL    HW118464   1.778   1.239   3.677  0.3642  4.3806  0.3714
 2335SOL    HW218465   1.669   1.159   3.620  0.3488 -1.7474  1.2539
 2336SOL     OW18466   3.201   1.492   5.668  0.1479  0.0577  0.3066
 2336SOL    HW118467   3.126   1.451   5.711 -0.2007  2.2232  1.7857
 2336SOL    HW218468   3.190   1.460   5.579  1.9198 -0.1973  0.1915
 2337SOL     OW18469   3.899   1.991   4.992  0.3994  0.0025 -0.4843
 2337SOL    HW118470   3.951   1.987   4.911  0.9237  1.6268 -0.2323
 2337SOL    HW218471   3.915   1.906   5.032  0.7614  0.5892  0.6291
 2338SOL     OW18472   2.468   4.058  12.773 -1.2100  0.2077  0.7374
 2338SOL    HW118473   2.463   4.126  12.841 -2.5897 -2.2958  3.1302
 2338SOL    HW218474   2.562   4.039  12.776 -1.2075 -0.3208 -3.6740
 2339SOL     OW18475   0.376   3.365   3.999 -0.0719  0.6056 -0.7510
 2339SOL    HW118476   0.330   3.399   3.922  0.0289 -0.3802 -1.2488
 2339SOL    HW218477   0.347   3.274   4.006  1.6995  0.2534  2.1253
 2340SOL     OW18478   3.942   1.435   1.218  0.7115  0.0187  0.2658
 2340SOL    HW118479   4.008   1.501   1.237  0.9158 -0.5307  1.4098
 2340SOL    HW218480   3.963   1.416   1.126  1.3748  1.4180  0.1205
 2341SOL     OW18481   2.616   3.559  15.988 -0.0526 -0.0890 -0.4062
 2341SOL    HW118482   2.575   3.527  16.069  1.2283 -0.2762  0.1682
 2341SOL    HW218483   2.536   3.571  15.937 -1.6399 -0.1738  2.0495
 2342SOL     OW18484   1.320   3.147   6.721  0.1025  0.5842  0.2310
 2342SOL    HW118485   1.377   3.105   6.785  0.0754  0.3482  0.0989
 2342SOL    HW218486   1.376   3.145   6.644  0.5747 -2.6775  0.6793
 2343SOL     OW18487   1.621   4.547   3.126  0.0582  0.1816  0.4302
 2343SOL    HW118488   1.649   4.611   3.060 -0.0520 -0.6963 -0.4547
 2343SOL    HW218489   1.695   4.546   3.187 -0.3451  0.3097  0.9175
 2344SOL     OW18490   3.432   4.050   7.810  0.2415  0.3967  0.3376
 2344SOL    HW118491   3.497   3.981   7.821 -0.6603 -0.5893 -0.4540
 2344SOL    HW218492   3.373   3.995   7.757  0.4278  0.6754 -0.1614
 2345SOL     OW18493   3.744   3.545   3.180 -0.0036  0.0294  0.7230
 2345SOL    HW118494   3.773   3.594   3.103 -0.8567  0.4886  0.6990
 2345SOL    HW218495   3.678   3.494   3.132  2.0891  0.2310 -2.3520
 2346SOL     OW18496   1.041   2.065   0.795 -0.3884 -0.0809 -0.2638
 2346SOL    HW118497   1.124   2.018   0.803 -0.5048 -0.2496 -0.0519
 2346SOL    HW218498   1.079   2.153   0.796 -1.0511  0.2326 -2.1119
 2347SOL     OW18499   0.735   0.951   8.910 -0.2790 -0.2306 -0.3522
 2347SOL    HW118500   0.741   1.046   8.910  1.3516 -0.3357  1.0487
 2347SOL    HW218501   0.684   0.935   8.989 -0.6481 -1.2481 -0.7910
 2348SOL     OW18502   2.995   3.562   3.241 -0.4649  0.4882  0.3124
 2348SOL    HW118503   2.900   3.549   3.245 -0.5601  0.5473 -1.8971
 2348SOL    HW218504   2.996   3.640   3.296 -0.9125 -0.0214  1.0393
 2349SOL     OW18505   1.066   0.768   7.257  0.0592 -0.0635 -0.4546
 2349SOL    HW118506   1.026   0.855   7.253 -1.9058 -0.7845  3.9606
 2349SOL    HW218507   1.060   0.732   7.168 -2.6016  0.3548 -0.4678
 2350SOL     OW18508   1.602   2.032  16.943 -0.0488 -0.2598 -0.4143
 2350SOL    HW118509   1.608   2.036  17.038 -2.0769  0.2730 -0.3052
 2350SOL    HW218510   1.571   1.941  16.934 -0.0342  0.0087 -3.2531
 2351SOL     OW18511   3.581   1.355  11.180  0.1975 -0.3725  0.0377
 2351SOL    HW118512   3.485   1.363  11.181  0.2938  1.0350 -1.8323
 2351SOL    HW218513   3.595   1.310  11.097  0.2625  2.6774 -1.5904
 2352SOL     OW18514   2.708   4.319   9.058 -0.1256 -0.2786 -0.3642
 2352SOL    HW118515   2.693   4.318   8.964 -0.6344 -0.2142 -0.2856
 2352SOL    HW218516   2.749   4.403   9.081  2.8974 -1.6646 -0.6396
 2353SOL     OW18517   2.623   4.445  17.274 -0.6323  0.0252 -0.0506
 2353SOL    HW118518   2.681   4.370  17.285 -0.7263 -0.0673 -0.1768
 2353SOL    HW218519   2.553   4.417  17.214 -0.1832  1.5285 -1.2730
 2354SOL     OW18520   1.888   3.833   6.186  0.5814 -0.0788  0.3629
 2354SOL    HW118521   1.826   3.904   6.171 -0.2672 -0.9259 -0.1934
 2354SOL    HW218522   1.947   3.844   6.111  0.3411  0.3651  0.2439
 2355SOL     OW18523   2.137   2.177   9.216  0.0093  0.3924  0.0630
 2355SOL    HW118524   2.209   2.237   9.234  0.1428  0.8816 -2.1109
 2355SOL    HW218525   2.186   2.095   9.214 -0.6945 -0.0342  0.3491
 2356SOL     OW18526   2.284   3.078   3.389  0.6802 -0.3541  0.1946
 2356SOL    HW118527   2.192   3.088   3.415  0.1230 -2.3116 -1.0230
 2356SOL    HW218528   2.275   3.011   3.322  1.0837  0.0361 -0.2461
 2357SOL     OW18529   4.152   3.139   0.193  0.0323 -0.3689  0.0713
 2357SOL    HW118530   4.148   3.217   0.137 -3.3401 -0.6108 -0.0702
 2357SOL    HW218531   4.058   3.124   0.207  0.4563 -2.0259  1.0939
 2358SOL     OW18532   4.410   0.726   4.047  0.0702  0.1844  0.5522
 2358SOL    HW118533   4.461   0.799   4.012 -2.4081  1.9978  0.7553
 2358SOL    HW218534   4.374   0.677   3.974 -1.3576  0.8800  0.7960
 2359SOL     OW18535   1.698   3.028   3.245  0.1537  0.3502  0.3205
 2359SOL    HW118536   1.753   3.010   3.169 -1.7715  1.6725 -1.3761
 2359SOL    HW218537   1.703   3.122   3.265  0.1824  0.0746  1.6491
 2360SOL     OW18538   1.261   3.281  10.722  0.1158 -0.3326  0.7724
 2360SOL    HW118539   1.223   3.195  10.705  1.9116 -0.9882  0.0196
 2360SOL    HW218540   1.355   3.274  10.707  0.3290 -0.2522  1.9949
 2361SOL     OW18541   1.118   1.627   3.136  0.3691 -0.0130 -0.5609
 2361SOL    HW118542   1.131   1.532   3.141 -0.7967 -0.1562 -0.3793
 2361SOL    HW218543   1.091   1.639   3.227 -1.3507  2.4155 -1.3885
 2362SOL     OW18544   1.849   1.266   0.546  0.1802 -0.0964  0.1819
 2362SOL    HW118545   1.932   1.290   0.587  0.3340  0.6911 -0.5911
 2362SOL    HW218546   1.871   1.179   0.512  0.9816 -0.3132  1.2583
 2363SOL     OW18547   0.193   0.442  12.224  0.3828 -0.0363  0.6763
 2363SOL    HW118548   0.113   0.480  12.187  1.0447  1.4613  0.7674
 2363SOL    HW218549   0.239   0.405  12.149 -0.2915  0.6809 -0.0930
 2364SOL     OW18550   1.010   3.724   9.422  0.0665  1.0434  0.2823
 2364SOL    HW118551   1.104   3.730   9.433  0.0461  1.5834  0.1430
 2364SOL    HW218552   1.006   3.660   9.350  1.2887  0.3619  0.8232
 2365SOL     OW18553   4.040   4.401   0.587  0.7950  0.2026 -0.6431
 2365SOL    HW118554   4.043   4.323   0.532 -0.5687  1.7625 -2.9570
 2365SOL    HW218555   4.074   4.463   0.522  0.0831  0.7335 -0.5151
 2366SOL     OW18556   1.805   2.855   8.907  0.2341 -0.1222 -0.1718
 2366SOL    HW118557   1.895   2.887   8.905  0.6841 -1.4488 -1.0081
 2366SOL    HW218558   1.747   2.907   8.851  0.5178  1.4664  1.0175
 2367SOL     OW18559   0.616   3.489   4.019 -0.5272  0.1319  0.3454
 2367SOL    HW118560   0.632   3.471   3.926  1.2530 -1.3797  0.9626
 2367SOL    HW218561   0.536   3.437   4.026 -0.6191  0.2597  0.2527
 2368SOL     OW18562   4.646   0.239   9.160 -0.5048  0.1730  1.1256
 2368SOL    HW118563   4.664   0.274   9.248  0.6022  0.2655  0.8572
 2368SOL    HW218564   4.606   0.160   9.197  0.2170 -0.6720  0.0727
 2369SOL     OW18565   4.422   1.783   1.834 -0.7082 -0.0722  0.0153
 2369SOL    HW118566   4.437   1.876   1.852 -2.5935  0.4360 -1.1444
 2369SOL    HW218567   4.362   1.792   1.760  0.9155  1.3212 -1.1392
 2370SOL     OW18568   0.822   3.537   7.090 -0.4579 -0.2315 -0.1037
 2370SOL    HW118569   0.890   3.595   7.056 -0.2861 -1.4408 -1.8532
 2370SOL    HW218570   0.872   3.507   7.165 -0.4951 -0.8295 -0.3157
 2371SOL     OW18571   1.941   0.140   7.678  0.8546  0.1902  0.2292
 2371SOL    HW118572   1.945   0.228   7.717  2.3478  0.3839 -0.3668
 2371SOL    HW218573   2.010   0.089   7.721 -0.8393 -0.7726  1.8385
 2372SOL     OW18574   1.158   4.131   9.454 -0.1686  0.0302 -0.2768
 2372SOL    HW118575   1.099   4.108   9.525 -0.0792  1.5199  0.2678
 2372SOL    HW218576   1.215   4.054   9.453  0.8941  0.8002  0.7921
 2373SOL     OW18577   2.385   3.678  12.771 -0.4451 -0.5728 -0.0594
 2373SOL    HW118578   2.380   3.773  12.759 -0.0140 -0.1010  3.4990
 2373SOL    HW218579   2.479   3.660  12.765 -0.3791 -0.0202 -0.6757
 2374SOL     OW18580   2.614   0.353   7.858 -0.3289  0.2130  0.2366
 2374SOL    HW118581   2.701   0.391   7.847 -0.0280 -0.3062  0.8191
 2374SOL    HW218582   2.557   0.421   7.823 -1.1993  0.7024  2.6004
 2375SOL     OW18583   2.359   2.995  13.676  0.2305 -0.1796 -0.2096
 2375SOL    HW118584   2.358   2.939  13.599  0.4195 -1.2518  0.5624
 2375SOL    HW218585   2.282   3.052  13.674  0.6622  0.3957 -0.3906
 2376SOL     OW18586   1.841   3.165   7.394 -0.5075 -0.2525  0.5344
 2376SOL    HW118587   1.869   3.074   7.408 -0.0560 -0.3058 -0.6423
 2376SOL    HW218588   1.908   3.207   7.448  0.3643  0.7412 -1.2917
 2377SOL     OW18589   1.444   0.471   5.041  0.1786 -0.3921 -0.5291
 2377SOL    HW118590   1.524   0.419   5.041  0.7806  0.4929  2.4963
 2377SOL    HW218591   1.438   0.513   5.127  1.8700 -0.2279 -0.5011
 2378SOL     OW18592   1.402   1.959  17.471  0.0973 -0.3659 -0.3174
 2378SOL    HW118593   1.317   1.968  17.514 -0.8717 -1.2991 -1.9982
 2378SOL    HW218594   1.461   2.020  17.515 -0.4014 -0.8452  0.9874
 2379SOL     OW18595   0.336   3.725   5.323  0.4863 -0.4517  0.3757
 2379SOL    HW118596   0.322   3.723   5.229 -0.8347  1.9217  0.5115
 2379SOL    HW218597   0.323   3.817   5.347  1.1558 -0.3526  0.3465
 2380SOL     OW18598   2.717   3.196   1.378  0.3733  0.4784  0.4092
 2380SOL    HW118599   2.812   3.188   1.375  0.3298  0.2576 -0.6319
 2380SOL    HW218600   2.695   3.178   1.469  1.7298 -2.4798  0.1646
 2381SOL     OW18601   0.058   0.239   2.214 -0.2742  0.4417  0.6794
 2381SOL    HW118602   0.011   0.207   2.137  0.9622 -2.6363  1.1766
 2381SOL    HW218603   4.710   0.284   2.260  0.1405  0.5437  1.2125
 2382SOL     OW18604   4.405   3.809  15.325 -0.0521 -0.4315  0.1602
 2382SOL    HW118605   4.337   3.837  15.386  0.2614  1.1144 -0.1899
 2382SOL    HW218606   4.415   3.715  15.337 -0.7295 -0.5618 -0.3469
 2383SOL     OW18607   3.385   1.534  14.530 -0.5044 -0.3468 -0.1172
 2383SOL    HW118608   3.435   1.543  14.611 -0.1347  0.6843 -0.4688
 2383SOL    HW218609   3.325   1.471  14.570  0.1563 -0.6869  0.3581
 2384SOL     OW18610   0.626   1.822   0.548 -0.4676  0.1198 -0.2556
 2384SOL    HW118611   0.660   1.793   0.464 -0.0221  1.2619 -0.4743
 2384SOL    HW218612   0.708   1.853   0.586 -0.7328  0.1567  0.2800
 2385SOL     OW18613   3.041   3.344   2.789 -0.1378  0.7909  0.6722
 2385SOL    HW118614   2.999   3.378   2.710  2.0817 -1.7319 -1.5905
 2385SOL    HW218615   2.964   3.299   2.822  1.1150 -1.2621  0.7931
 2386SOL     OW18616   4.335   0.346  10.191 -1.0374  0.4459  0.0726
 2386SOL    HW118617   4.311   0.371  10.280 -1.4573 -2.4555  0.7670
 2386SOL    HW218618   4.412   0.401  10.176  0.9875 -3.0699 -2.3405
 2387SOL     OW18619   0.107   1.339   8.663 -0.1244  0.1520  0.3388
 2387SOL    HW118620   0.095   1.391   8.742 -0.8243 -1.8601  1.5348
 2387SOL    HW218621   0.148   1.261   8.699 -1.1516  0.0399  1.2667
 2388SOL     OW18622   2.177   0.233   7.079  0.2911 -0.4653 -0.7192
 2388SOL    HW118623   2.156   0.171   7.148  3.3232 -0.3717  0.2872
 2388SOL    HW218624   2.125   0.312   7.095  2.5093  0.8001  0.2593
 2389SOL     OW18625   2.244   4.363  13.756  0.1969 -0.1743  0.1541
 2389SOL    HW118626   2.306   4.412  13.811 -1.8556 -0.0923  2.3864
 2389SOL    HW218627   2.315   4.318  13.711  0.6527 -0.5435  1.2484
 2390SOL     OW18628   2.609   3.019   5.724 -0.0168  0.5471 -0.3395
 2390SOL    HW118629   2.621   2.944   5.783  0.2659  0.1335 -0.9220
 2390SOL    HW218630   2.602   3.094   5.783 -2.1386  0.7519 -0.8346
 2391SOL     OW18631   3.601   1.508   4.983  0.3935 -0.1033 -0.2402
 2391SOL    HW118632   3.573   1.420   4.957 -4.1823  0.9691  1.1766
 2391SOL    HW218633   3.683   1.490   5.029  0.6052 -0.1333 -0.6282
 2392SOL     OW18634   0.747   1.296   3.588 -0.2267  0.0922 -0.4508
 2392SOL    HW118635   0.840   1.272   3.588 -0.4894 -0.9277 -1.0157
 2392SOL    HW218636   0.712   1.207   3.589  0.4346 -0.1512  2.5200
 2393SOL     OW18637   0.140   0.218   6.967 -0.2344  0.2029  0.4518
 2393SOL    HW118638   0.047   0.227   6.946 -0.6210  0.5095  2.2790
 2393SOL    HW218639   0.191   0.199   6.888  0.7787 -1.8005  1.5999
 2394SOL     OW18640   0.238   3.615   3.264 -0.5284 -0.5336  0.1206
 2394SOL    HW118641   0.326   3.630   3.299 -0.6814 -0.5296  0.5069
 2394SOL    HW218642   0.249   3.624   3.170 -0.6694  0.1253  0.1671
 2395SOL     OW18643   2.941   3.443   6.567  0.3977  0.4297  0.3178
 2395SOL    HW118644   2.896   3.464   6.486  1.8039 -0.9466 -0.8085
 2395SOL    HW218645   3.016   3.503   6.576  0.5819  0.4463 -1.4398
 2396SOL     OW18646   1.754   3.129   2.047  0.1578 -0.2723 -0.2932
 2396SOL    HW118647   1.810   3.074   2.101  1.1617  0.7428 -0.3054
 2396SOL    HW218648   1.823   3.193   2.030 -0.1532 -0.4976 -2.4101
 2397SOL     OW18649   0.837   2.009   8.538  0.6131  0.4679  0.8185
 2397SOL    HW118650   0.891   1.983   8.464 -1.2300 -2.0065  0.3523
 2397SOL    HW218651   0.890   1.974   8.610  0.2191  0.3319  1.0421
 2398SOL     OW18652   3.419   0.871  10.487  0.2504 -0.2460  0.0651
 2398SOL    HW118653   3.390   0.921  10.411 -1.8873 -1.6678 -0.0367
 2398SOL    HW218654   3.512   0.884  10.467  0.9033  0.7584  3.6824
 2399SOL     OW18655   1.568   0.179  16.962 -0.1237  0.1066  0.0463
 2399SOL    HW118656   1.554   0.154  17.054  0.3359  1.2880  0.4378
 2399SOL    HW218657   1.622   0.258  16.968  1.3283 -0.7861 -1.2665
 2400SOL     OW18658   0.248   3.572   8.299  0.4226  0.3918  0.1924
 2400SOL    HW118659   0.212   3.550   8.384 -0.2414 -1.3591 -0.5363
 2400SOL    HW218660   0.331   3.615   8.321 -0.6041  2.0378  0.8185
 2401SOL     OW18661   2.255   4.700  13.727  0.0450  0.2899  0.1834
 2401SOL    HW118662   2.167   4.704  13.689  0.1720  0.0210 -0.1392
 2401SOL    HW218663   2.239   0.005  13.817 -2.5683 -0.6497  0.0080
 2402SOL     OW18664   1.765   1.195   8.614  0.4887  0.4654 -0.3950
 2402SOL    HW118665   1.847   1.153   8.587  0.0516 -0.0283 -0.9670
 2402SOL    HW218666   1.793   1.283   8.636 -0.3990  1.0297 -1.4816
 2403SOL     OW18667   0.058   2.176  17.453 -0.0617  0.4253  0.8665
 2403SOL    HW118668   4.719   2.234  17.497 -0.4873 -0.3980  1.3533
 2403SOL    HW218669   0.110   2.164  17.532  1.8904  0.2829 -0.4406
 2404SOL     OW18670   1.324   2.398   9.598  0.1672 -0.1659 -0.2419
 2404SOL    HW118671   1.303   2.406   9.691  0.8712 -2.0126  0.0612
 2404SOL    HW218672   1.411   2.438   9.594  0.4677 -0.8138 -0.2404
 2405SOL     OW18673   3.440   3.427   5.600 -0.0647  0.4365 -0.1389
 2405SOL    HW118674   3.458   3.333   5.607  2.2516  0.7747 -1.4353
 2405SOL    HW218675   3.511   3.464   5.652  0.2013 -1.7104  1.0156
 2406SOL     OW18676   1.248   2.742  11.428  0.5343  0.0634 -0.4875
 2406SOL    HW118677   1.310   2.685  11.473  0.9505  0.5437 -0.4481
 2406SOL    HW218678   1.298   2.823  11.434  2.3277 -1.1563  0.9664
 2407SOL     OW18679   2.126   1.217   6.437 -0.4144  0.3300  0.4073
 2407SOL    HW118680   2.205   1.264   6.411 -0.6622 -0.2930 -1.4331
 2407SOL    HW218681   2.161   1.152   6.498 -0.2974 -1.3442 -1.4498
 2408SOL     OW18682   3.703   4.665   6.880  0.5223  0.3078 -1.0332
 2408SOL    HW118683   3.687   4.651   6.787  2.1341  1.9937 -1.5753
 2408SOL    HW218684   3.633   4.611   6.916  0.8787  0.1713 -0.5417
 2409SOL     OW18685   0.515   0.822   0.321  0.2550  0.1805 -0.6710
 2409SOL    HW118686   0.529   0.916   0.326 -0.6340  0.3002 -0.5572
 2409SOL    HW218687   0.553   0.803   0.235 -3.0093 -2.8026 -1.4754
 2410SOL     OW18688   2.031   2.842   3.480  0.0291  0.8409 -0.2650
 2410SOL    HW118689   2.087   2.823   3.405  0.6220 -1.0807  0.6768
 2410SOL    HW218690   2.084   2.853   3.559 -3.4333  0.6886  2.0933
 2411SOL     OW18691   0.919   4.318  11.533  0.1985  0.8200 -0.0816
 2411SOL    HW118692   0.882   4.394  11.577 -1.4089 -0.5300  0.9256
 2411SOL    HW218693   0.902   4.343  11.443  0.3353  1.0959 -0.0310
 2412SOL     OW18694   0.560   0.259   7.943 -0.3119  0.3607 -0.1279
 2412SOL    HW118695   0.548   0.330   8.007 -1.7647 -1.8103  1.9798
 2412SOL    HW218696   0.473   0.252   7.903  0.0805 -1.9174 -0.5681
 2413SOL     OW18697   3.430   0.899   7.265 -0.3551 -0.4623 -0.1523
 2413SOL    HW118698   3.433   0.993   7.286 -1.5107 -0.1211 -1.5670
 2413SOL    HW218699   3.419   0.893   7.170  1.6888 -0.4094 -0.3978
 2414SOL     OW18700   0.409   0.540  11.288 -0.1713 -0.3010  0.3938
 2414SOL    HW118701   0.372   0.566  11.372  0.6197 -0.6389  0.8512
 2414SOL    HW218702   0.485   0.488  11.315  0.1369 -0.8251 -1.5155
 2415SOL     OW18703   2.593   2.274   2.620 -0.3380  0.0547  0.3698
 2415SOL    HW118704   2.664   2.283   2.555 -0.3775 -1.4974  0.1142
 2415SOL    HW218705   2.522   2.319   2.575 -0.5616  0.2950  0.9737
 2416SOL     OW18706   4.424   3.977   2.565  0.2692  0.8772 -0.1002
 2416SOL    HW118707   4.502   3.969   2.620 -0.9656 -0.8713  1.3641
 2416SOL    HW218708   4.357   3.940   2.622 -0.3785  0.1201 -1.3636
 2417SOL     OW18709   4.436   4.009  13.563  0.2755  0.0497 -0.0963
 2417SOL    HW118710   4.375   4.044  13.628  1.2521 -1.4628  1.6199
 2417SOL    HW218711   4.507   3.980  13.620 -1.6764 -2.6213  0.9710
 2418SOL     OW18712   2.957   0.155   4.844 -0.1244  0.3664  0.1684
 2418SOL    HW118713   3.027   0.143   4.908  2.2218 -0.8793 -2.6001
 2418SOL    HW218714   2.892   0.193   4.903  1.4183  0.8666  1.5464
 2419SOL     OW18715   3.536   3.644   8.619 -0.0355  0.2123  0.3208
 2419SOL    HW118716   3.466   3.702   8.588 -0.0770  0.4029  0.7654
 2419SOL    HW218717   3.519   3.648   8.713 -0.2885 -0.2187  0.2941
 2420SOL     OW18718   4.292   0.260   2.235  0.1232 -0.0958 -0.1827
 2420SOL    HW118719   4.261   0.297   2.152  4.1359  2.0219 -0.7757
 2420SOL    HW218720   4.212   0.277   2.283  0.7806 -0.6559  1.1116
 2421SOL     OW18721   0.581   1.849   6.145 -0.3394 -0.1674  0.1200
 2421SOL    HW118722   0.626   1.771   6.177  1.0752  0.0962 -1.2539
 2421SOL    HW218723   0.512   1.809   6.092 -0.9343 -0.1557  0.8826
 2422SOL     OW18724   3.848   3.882   8.268  0.1417  0.1457  0.3895
 2422SOL    HW118725   3.824   3.825   8.341  1.1549 -0.0757  0.5449
 2422SOL    HW218726   3.929   3.921   8.300  0.8868 -0.3288 -0.8870
 2423SOL     OW18727   0.940   3.711   6.433  0.1436 -0.0567 -0.3435
 2423SOL    HW118728   0.999   3.663   6.492  1.2887  1.1506 -0.4885
 2423SOL    HW218729   0.974   3.690   6.346  0.3127 -0.4721 -0.1781
 2424SOL     OW18730   3.142   4.550  11.945  0.4463  0.6878 -0.1835
 2424SOL    HW118731   3.178   4.629  11.985  2.1368  0.4931 -1.2943
 2424SOL    HW218732   3.224   4.508  11.920  0.2825 -0.4119  1.0915
 2425SOL     OW18733   3.286   3.538   5.979  0.3660  0.0145 -0.4887
 2425SOL    HW118734   3.237   3.529   5.897  0.6652  0.9258 -0.7645
 2425SOL    HW218735   3.342   3.614   5.963  1.1319 -0.6113 -0.7341
 2426SOL     OW18736   1.146   3.535   3.752  0.0270 -0.0598 -0.1461
 2426SOL    HW118737   1.116   3.577   3.832  1.9281  1.0799 -0.0444
 2426SOL    HW218738   1.240   3.546   3.760  0.1055 -0.4182 -0.5254
 2427SOL     OW18739   4.391   4.320   8.774  0.3902  0.0718  0.0547
 2427SOL    HW118740   4.325   4.329   8.843 -0.8674  1.2827 -1.3064
 2427SOL    HW218741   4.446   4.249   8.807  0.0137  0.0568  0.6704
 2428SOL     OW18742   3.248   3.392   2.495  0.0194 -0.3687 -0.6711
 2428SOL    HW118743   3.179   3.412   2.558 -0.6152 -1.3938 -1.0276
 2428SOL    HW218744   3.292   3.328   2.551 -1.8362 -2.0826 -1.1509
 2429SOL     OW18745   0.105   1.551   4.066 -0.0862  0.1727  0.2456
 2429SOL    HW118746   0.022   1.514   4.037 -0.4182  1.3441 -0.2749
 2429SOL    HW218747   0.156   1.518   3.992  0.4474  0.8178  0.3285
 2430SOL     OW18748   1.917   2.547   2.694 -0.2992 -0.1298  0.1922
 2430SOL    HW118749   1.890   2.483   2.627  2.7862 -2.4993  1.2047
 2430SOL    HW218750   1.943   2.623   2.642 -0.9026 -0.3355 -0.4105
 2431SOL     OW18751   4.351   3.461   9.337  0.2060 -0.4073  0.2406
 2431SOL    HW118752   4.402   3.484   9.415  1.4805  1.8737 -1.2476
 2431SOL    HW218753   4.376   3.537   9.284 -3.7506  1.3942  1.0232
 2432SOL     OW18754   0.512   3.660   3.286 -0.5195  0.1060 -0.1333
 2432SOL    HW118755   0.592   3.619   3.254 -1.3264  0.1841 -2.2468
 2432SOL    HW218756   0.524   3.755   3.287 -1.1456  0.2027 -1.5733
 2433SOL     OW18757   1.857   2.398   4.571  0.1755  0.3169  0.5847
 2433SOL    HW118758   1.805   2.338   4.517 -0.5479  1.5287 -0.0720
 2433SOL    HW218759   1.889   2.344   4.644 -0.5677  0.5980  1.1267
 2434SOL     OW18760   4.714   1.584  11.946 -0.0548 -0.1165 -0.0465
 2434SOL    HW118761   4.624   1.578  11.914 -0.3970 -2.8853  1.3593
 2434SOL    HW218762   0.028   1.573  11.858 -0.3528  1.5750 -0.3853
 2435SOL     OW18763   1.357   0.597   4.021  0.5606 -0.1320 -0.6617
 2435SOL    HW118764   1.399   0.595   4.107  0.7419  2.8315 -0.6775
 2435SOL    HW218765   1.313   0.683   4.022 -0.2655 -0.5757  1.5729
 2436SOL     OW18766   1.223   0.915   8.339  0.1856  0.1429  0.6408
 2436SOL    HW118767   1.304   0.880   8.301  0.3342  0.7068  0.4411
 2436SOL    HW218768   1.256   0.944   8.425 -1.3335  0.0513  1.2539
 2437SOL     OW18769   1.551   3.215   1.458 -1.0860 -0.2539  0.1075
 2437SOL    HW118770   1.580   3.201   1.548  0.5820 -1.8223 -0.6752
 2437SOL    HW218771   1.627   3.258   1.419 -0.7200  2.8693  4.2748
 2438SOL     OW18772   4.059   4.666   8.049  0.0769  0.3621 -0.3554
 2438SOL    HW118773   4.040   4.621   8.131 -1.8565  2.3061  0.2891
 2438SOL    HW218774   4.134   4.616   8.019  1.0875  1.0828  0.9823
 2439SOL     OW18775   0.358   1.067  15.124  0.0448 -0.5711  0.0059
 2439SOL    HW118776   0.334   0.974  15.115 -0.0469 -0.4026 -1.4470
 2439SOL    HW218777   0.423   1.057  15.054  0.1130 -1.5984  0.2050
 2440SOL     OW18778   2.871   1.146   7.789  0.1646  0.2037 -0.9117
 2440SOL    HW118779   2.947   1.119   7.737 -1.0059 -2.2528 -1.3734
 2440SOL    HW218780   2.832   1.212   7.732  1.7721  0.7820 -1.3312
 2441SOL     OW18781   0.248   2.394   8.357  0.2418 -0.3224  0.2533
 2441SOL    HW118782   0.193   2.456   8.405 -1.4335 -2.3196  0.8866
 2441SOL    HW218783   0.267   2.332   8.426 -2.0808  1.6505  2.6560
 2442SOL     OW18784   0.762   0.329   1.436 -0.8536 -0.1562  0.7575
 2442SOL    HW118785   0.735   0.420   1.431 -0.5081 -0.0467  0.8760
 2442SOL    HW218786   0.792   0.324   1.527  2.2642 -2.3038 -0.3787
 2443SOL     OW18787   0.660   3.937   2.052  1.0916 -0.3229 -0.1822
 2443SOL    HW118788   0.726   3.872   2.077  2.1313  1.1483  0.8514
 2443SOL    HW218789   0.603   3.882   1.997  0.2182  1.0292 -0.6131
 2444SOL     OW18790   4.659   4.233  11.557  0.0133  0.0629 -0.5614
 2444SOL    HW118791   4.629   4.323  11.568  2.2137  0.5306  1.3677
 2444SOL    HW218792   0.028   4.245  11.532  0.2009 -0.3822 -0.0873
 2445SOL     OW18793   0.077   3.609   5.787 -0.1718 -0.1362  0.2546
 2445SOL    HW118794   0.124   3.584   5.707 -2.7294 -2.7270 -0.4802
 2445SOL    HW218795   0.006   3.664   5.755 -1.9548 -2.7781 -0.3181
 2446SOL     OW18796   1.555   3.415   3.183  0.1824 -0.1175  0.0851
 2446SOL    HW118797   1.546   3.339   3.126 -1.3727 -0.6919  1.0911
 2446SOL    HW218798   1.623   3.397   3.249  2.6928  1.3917 -2.0939
 2447SOL     OW18799   1.572   2.508   4.561 -0.4154  0.1867 -0.0312
 2447SOL    HW118800   1.651   2.509   4.508 -1.9580 -0.4726 -2.3572
 2447SOL    HW218801   1.513   2.551   4.499  0.0288 -1.6229 -1.6862
 2448SOL     OW18802   3.142   2.719  13.484  0.4305  0.4660 -0.3984
 2448SOL    HW118803   3.185   2.661  13.547  0.3426  0.4556 -0.3480
 2448SOL    HW218804   3.120   2.805  13.519 -0.9792  0.4899 -1.3321
 2449SOL     OW18805   1.727   3.361   6.089  0.0142  0.3531  0.4768
 2449SOL    HW118806   1.730   3.334   5.997 -1.8986  1.9413 -0.0531
 2449SOL    HW218807   1.816   3.395   6.102  0.4339  0.5228 -2.8392
 2450SOL     OW18808   0.427   0.496   9.922  0.5287  0.4832  0.2363
 2450SOL    HW118809   0.373   0.535   9.990  0.0754  0.3984 -0.0749
 2450SOL    HW218810   0.513   0.493   9.963  0.4024  2.1252  0.6228
 2451SOL     OW18811   2.219   2.344   3.513 -0.7103  0.1178  0.0132
 2451SOL    HW118812   2.129   2.314   3.526  0.2996 -2.1760  1.7054
 2451SOL    HW218813   2.212   2.433   3.549  0.9919  0.5403 -0.6696
 2452SOL     OW18814   4.000   3.735  16.263 -0.0045  0.6116 -0.5062
 2452SOL    HW118815   4.024   3.824  16.288 -1.8924  0.9511  0.0846
 2452SOL    HW218816   3.918   3.753  16.217 -1.1098 -2.1757  0.3800
 2453SOL     OW18817   3.687   0.563   4.114 -1.0387  0.5267 -0.0934
 2453SOL    HW118818   3.715   0.597   4.029 -3.6351  1.9502 -0.3666
 2453SOL    HW218819   3.647   0.478   4.100 -0.7704  0.5051 -0.7348
 2454SOL     OW18820   1.535   0.662   1.289  0.1439  0.8544  0.3065
 2454SOL    HW118821   1.553   0.594   1.353 -0.4310  0.9453  0.5665
 2454SOL    HW218822   1.497   0.617   1.214 -1.4823  1.0983  0.9763
 2455SOL     OW18823   0.796   0.795  13.343  0.3851  0.2925 -0.3032
 2455SOL    HW118824   0.873   0.835  13.383 -0.7771  1.5234  0.7353
 2455SOL    HW218825   0.731   0.858  13.377 -0.2392 -0.4925 -0.0412
 2456SOL     OW18826   4.535   4.630  10.212 -0.6451  0.4197  0.3843
 2456SOL    HW118827   4.485   4.608  10.133 -0.6781  0.0322  0.5112
 2456SOL    HW218828   4.488   4.711  10.230  0.4588  0.4787  2.8830
 2457SOL     OW18829   2.923   4.533   6.014 -0.2983 -0.1220 -0.2109
 2457SOL    HW118830   2.905   4.447   6.051  0.5051 -0.9085 -1.6067
 2457SOL    HW218831   2.839   4.552   5.973  0.5668  0.4927 -1.7338
 2458SOL     OW18832   0.254   0.029   6.227  0.0055  0.3605  0.3161
 2458SOL    HW118833   0.194   4.711   6.289 -0.2838 -2.3015 -1.6909
 2458SOL    HW218834   0.278   4.686   6.161 -3.4707  1.1802 -1.8211
 2459SOL     OW18835   2.389   4.437   6.411 -0.0111 -0.2232 -0.4244
 2459SOL    HW118836   2.330   4.510   6.431 -0.9997 -0.6011 -1.9571
 2459SOL    HW218837   2.397   4.406   6.502 -0.5276  2.1197  0.4188
 2460SOL     OW18838   1.890   1.233  14.984 -0.0605 -0.2551  0.1016
 2460SOL    HW118839   1.898   1.298  15.053 -2.3363  0.4292 -0.2785
 2460SOL    HW218840   1.970   1.182  14.996 -0.3244 -1.0996 -1.6641
 2461SOL     OW18841   4.096   4.028   5.916 -0.1545  0.2263  0.4057
 2461SOL    HW118842   4.148   4.105   5.942  1.0076 -0.1371 -0.8598
 2461SOL    HW218843   4.091   3.974   5.995 -0.9689  0.4411  0.5071
 2462SOL     OW18844   0.197   1.871   8.597 -0.1491  0.1222 -0.2294
 2462SOL    HW118845   0.139   1.811   8.551 -1.7226  0.6042  1.1444
 2462SOL    HW218846   0.251   1.906   8.525 -0.9791  0.6360 -0.6002
 2463SOL     OW18847   1.510   1.145   4.361 -0.0596  0.3276  0.4559
 2463SOL    HW118848   1.565   1.083   4.409 -0.1401 -0.3834 -0.3710
 2463SOL    HW218849   1.569   1.164   4.288  1.1518  1.1174  1.6437
 2464SOL     OW18850   3.852   4.419   7.108  0.1494  0.4665 -0.2795
 2464SOL    HW118851   3.864   4.500   7.159  1.2622 -0.2530  0.5996
 2464SOL    HW218852   3.915   4.438   7.039  0.5887 -0.4591 -0.1316
 2465SOL     OW18853   0.650   1.872   0.967  0.6006  0.6400  0.5061
 2465SOL    HW118854   0.652   1.918   0.883  1.0084  0.4574  0.4186
 2465SOL    HW218855   0.583   1.807   0.946 -0.1415  1.2039  1.0858
 2466SOL     OW18856   3.405   4.657   3.162  0.4394 -0.3387 -0.1522
 2466SOL    HW118857   3.309   4.655   3.163  0.4461 -0.9364 -0.4154
 2466SOL    HW218858   3.427   4.569   3.192 -1.2798  0.3376  3.1109
 2467SOL     OW18859   0.719   3.119   3.439 -0.0636 -0.6235  0.3860
 2467SOL    HW118860   0.663   3.197   3.432  0.3598 -0.6276 -3.1050
 2467SOL    HW218861   0.680   3.064   3.508 -0.6759  1.0474  1.3882
 2468SOL     OW18862   3.609   1.691  16.518  0.0451  0.1860  0.4488
 2468SOL    HW118863   3.553   1.632  16.467  0.8435  0.6768 -0.9795
 2468SOL    HW218864   3.627   1.757  16.452  3.2888 -0.4456  0.7140
 2469SOL     OW18865   4.317   2.184  12.644 -0.4457  0.1672  0.3585
 2469SOL    HW118866   4.300   2.278  12.648  1.6508  0.5479  0.4246
 2469SOL    HW218867   4.390   2.172  12.705 -0.4545 -0.0639  0.3233
 2470SOL     OW18868   1.109   0.807   8.645  0.3054  0.1533  0.0443
 2470SOL    HW118869   1.150   0.721   8.643  0.4103  0.1698  1.7592
 2470SOL    HW218870   1.179   0.872   8.634 -0.5775  1.1474  0.2459
 2471SOL     OW18871   2.961   0.266   6.512  0.1755 -0.2221  0.0474
 2471SOL    HW118872   2.933   0.286   6.601  0.8282 -1.4611  0.5301
 2471SOL    HW218873   3.037   0.210   6.527  0.3269 -0.2699 -0.9260
 2472SOL     OW18874   4.250   3.820   1.991  0.3750 -0.0908  0.5091
 2472SOL    HW118875   4.164   3.792   1.959 -0.3244  2.9539 -0.2549
 2472SOL    HW218876   4.232   3.910   2.018 -0.9000 -0.1396 -0.1621
 2473SOL     OW18877   4.375   4.544   5.552 -0.3136 -0.2453  0.1203
 2473SOL    HW118878   4.361   4.634   5.521 -0.6087 -0.2070  0.3585
 2473SOL    HW218879   4.342   4.547   5.642 -3.1683 -2.2104 -0.8697
 2474SOL     OW18880   1.886   4.609   4.805 -0.4835  0.2254 -0.2043
 2474SOL    HW118881   1.930   4.662   4.872  1.5736  0.1623 -1.4736
 2474SOL    HW218882   1.929   4.524   4.810 -0.5205  0.3236  1.5806
 2475SOL     OW18883   3.547   4.331  11.184 -0.4210 -0.0948  0.1271
 2475SOL    HW118884   3.563   4.367  11.096 -0.0329  0.4516  0.4251
 2475SOL    HW218885   3.495   4.406  11.213 -0.5661 -0.1544  0.0226
 2476SOL     OW18886   4.385   0.130   8.290  0.3343 -0.1473  0.0294
 2476SOL    HW118887   4.477   0.148   8.306  0.0393 -1.3910  3.0730
 2476SOL    HW218888   4.382   0.185   8.211  4.3838 -2.8363 -1.9820
 2477SOL     OW18889   2.432   2.878  16.845 -0.0373 -0.4883 -0.2681
 2477SOL    HW118890   2.441   2.968  16.875  0.9397 -0.3083 -1.0928
 2477SOL    HW218891   2.513   2.837  16.876  1.2573 -0.4388 -3.6219
 2478SOL     OW18892   1.594   4.026  13.769 -0.2552  0.2873  0.4924
 2478SOL    HW118893   1.583   4.109  13.723 -1.0742 -1.1048 -1.8046
 2478SOL    HW218894   1.618   3.962  13.702 -0.3073  1.3725 -0.5613
 2479SOL     OW18895   2.472   0.019   5.875 -0.1704  0.1219  0.7691
 2479SOL    HW118896   2.486   0.016   5.970  0.2758  0.1536  0.7020
 2479SOL    HW218897   2.388   4.696   5.869 -0.5535  0.8617  0.5371
 2480SOL     OW18898   0.240   4.273   1.914  0.1271  0.7053  0.6645
 2480SOL    HW118899   0.182   4.217   1.862 -1.6926  3.7220 -0.5187
 2480SOL    HW218900   0.202   4.354   1.881 -0.6864 -0.0194 -0.1938
 2481SOL     OW18901   0.172   4.711   2.213 -0.2908 -0.1261 -0.0856
 2481SOL    HW118902   0.136   0.068   2.252  0.7334  0.5061 -0.4160
 2481SOL    HW218903   0.092   4.663   2.195 -0.8041  0.3064  1.0415
 2482SOL     OW18904   2.223   0.975   2.768  0.0949 -0.2489  0.3100
 2482SOL    HW118905   2.148   1.007   2.717  1.1222  0.7365 -0.5728
 2482SOL    HW218906   2.212   0.880   2.766  0.0817 -0.2505  0.4625
 2483SOL     OW18907   0.065   2.478   4.176 -0.0698 -0.0111 -0.1061
 2483SOL    HW118908   0.004   2.551   4.162 -2.3447 -1.6374  1.2473
 2483SOL    HW218909   0.052   2.466   4.270  0.9293 -2.3296 -0.2629
 2484SOL     OW18910   4.633   4.183   8.375  0.2250 -0.5274  0.6010
 2484SOL    HW118911   4.677   4.184   8.291 -0.7381 -0.7637  0.0945
 2484SOL    HW218912   4.591   4.098   8.385  0.6136 -0.6613  1.0979
 2485SOL     OW18913   1.416   2.315   9.090 -0.0971 -0.4717  0.0291
 2485SOL    HW118914   1.427   2.375   9.165  1.1629 -0.4936 -0.1445
 2485SOL    HW218915   1.507   2.292   9.074  0.1037  0.0931  0.3492
 2486SOL     OW18916   0.857   2.878  13.863 -0.2911  0.0143 -0.0627
 2486SOL    HW118917   0.919   2.946  13.886 -1.9161  0.8452  1.8217
 2486SOL    HW218918   0.848   2.840  13.950 -0.5903 -0.1963 -0.1858
 2487SOL     OW18919   0.444   4.424   0.943  0.0241 -0.3485 -0.1525
 2487SOL    HW118920   0.405   4.498   0.897  1.5263 -0.6125 -1.8548
 2487SOL    HW218921   0.390   4.429   1.022 -0.2195 -0.8310 -0.2921
 2488SOL     OW18922   3.218   0.990   3.601  0.0183 -0.4475 -0.2741
 2488SOL    HW118923   3.255   0.942   3.526  0.1360 -1.9164  0.7233
 2488SOL    HW218924   3.127   0.959   3.597  0.2759 -1.4097  1.2939
 2489SOL     OW18925   4.200   0.085   6.038 -0.2855  0.0688  0.4917
 2489SOL    HW118926   4.109   0.066   6.016 -0.4441  1.2128  0.1859
 2489SOL    HW218927   4.191   0.048   6.126  0.3371  0.1916  0.6017
 2490SOL     OW18928   4.310   3.755   9.419  0.0780 -0.0501 -0.0993
 2490SOL    HW118929   4.351   3.685   9.470  1.2221  0.1719 -0.7032
 2490SOL    HW218930   4.379   3.822   9.417  0.2638 -0.1810  2.0658
 2491SOL     OW18931   2.767   0.654   1.291 -0.2921 -0.6648 -0.3246
 2491SOL    HW118932   2.845   0.698   1.258 -0.8811  1.5320  1.1779
 2491SOL    HW218933   2.762   0.689   1.380  0.7238  1.4787 -1.1178
 2492SOL     OW18934   4.175   4.603   7.054 -0.0440  0.7581  0.3814
 2492SOL    HW118935   4.159   4.670   7.122  0.4342  0.3388  0.9082
 2492SOL    HW218936   4.267   4.623   7.040  0.0692 -0.2554 -0.2585
 2493SOL     OW18937   4.069   0.787   9.083 -0.2897  0.0804 -0.0313
 2493SOL    HW118938   4.109   0.785   8.995  0.6176  1.7700  0.3523
 2493SOL    HW218939   4.146   0.769   9.138  0.3760  0.1061 -0.9389
 2494SOL     OW18940   0.250   4.290  16.324 -0.4520  0.4133  0.2303
 2494SOL    HW118941   0.318   4.356  16.312  0.4424 -0.4612  0.5962
 2494SOL    HW218942   0.286   4.244  16.399 -2.0771  1.3966  1.6140
 2495SOL     OW18943   2.327   2.542  16.895 -0.5710  0.2562 -0.1129
 2495SOL    HW118944   2.339   2.447  16.888  0.9981  0.4736 -0.5552
 2495SOL    HW218945   2.237   2.556  16.867 -0.6013 -1.6224 -1.0033
 2496SOL     OW18946   4.235   4.292  12.987 -0.4556 -0.0282  0.1614
 2496SOL    HW118947   4.215   4.259  12.899  0.7277 -2.9826  1.0031
 2496SOL    HW218948   4.272   4.212  13.027  3.7362  1.4321 -0.7542
 2497SOL     OW18949   0.593   0.539  10.132 -0.4132 -0.2928 -0.0500
 2497SOL    HW118950   0.614   0.628  10.159  1.3716 -0.8547  0.4378
 2497SOL    HW218951   0.668   0.492  10.170 -0.2432  0.5996  0.7178
 2498SOL     OW18952   2.709   0.018   6.741  0.1725 -1.1081 -0.2140
 2498SOL    HW118953   2.651   0.092   6.723 -0.2156 -1.0448  1.2836
 2498SOL    HW218954   2.709   4.699   6.655  0.7261  3.4786 -2.3671
 2499SOL     OW18955   3.112   2.497   2.286  0.0344 -0.5791 -0.4301
 2499SOL    HW118956   3.175   2.555   2.244  0.7670  0.1104  1.6645
 2499SOL    HW218957   3.032   2.508   2.234 -0.8623  0.4826  1.1615
 2500SOL     OW18958   2.269   0.807   6.450 -0.1190  0.2214  0.3062
 2500SOL    HW118959   2.365   0.808   6.446 -0.1836  1.9731 -0.8674
 2500SOL    HW218960   2.256   0.878   6.513  0.9104 -1.3182  2.2322
 2501SOL     OW18961   2.121   2.272   6.970 -0.0180  0.7285 -0.0895
 2501SOL    HW118962   2.160   2.235   7.049 -0.8370 -1.6354 -0.7913
 2501SOL    HW218963   2.196   2.296   6.916 -1.6666  0.0542 -2.7147
 2502SOL     OW18964   4.204   4.553  11.127  0.0598  0.0958  0.1241
 2502SOL    HW118965   4.218   4.646  11.107  2.5224 -0.3486 -0.1573
 2502SOL    HW218966   4.117   4.560  11.167 -0.5720  0.8459 -1.3878
 2503SOL     OW18967   1.060   2.701   6.902 -0.0708  0.0241  0.3030
 2503SOL    HW118968   1.098   2.678   6.987 -2.8736 -0.6558  1.3662
 2503SOL    HW218969   1.100   2.784   6.879 -0.1297  0.2371  0.9652
 2504SOL     OW18970   3.393   1.193   3.050 -0.0582 -0.0215  0.1129
 2504SOL    HW118971   3.461   1.128   3.036 -0.9833 -0.9671 -0.0450
 2504SOL    HW218972   3.366   1.219   2.962  2.9740  2.0135 -0.1876
 2505SOL     OW18973   0.009   2.372   4.943  0.2971  0.2712 -0.1137
 2505SOL    HW118974   4.664   2.373   4.875 -0.7070 -0.6361  0.8639
 2505SOL    HW218975   0.035   2.281   4.931  0.6993  0.6881 -2.3975
 2506SOL     OW18976   2.492   4.558   2.133  0.0260  0.0032 -0.1278
 2506SOL    HW118977   2.471   4.569   2.225 -1.5126  2.3821 -0.7491
 2506SOL    HW218978   2.419   4.497   2.122  0.6955 -0.7549 -0.3474
 2507SOL     OW18979   4.706   4.151   4.652 -0.6149  0.4760  0.4040
 2507SOL    HW118980   0.001   4.192   4.736  0.6819  0.1348  0.3034
 2507SOL    HW218981   4.649   4.077   4.674 -0.0844  0.0911  0.4968
 2508SOL     OW18982   2.447   1.152   8.229 -0.3661 -0.3828  0.0410
 2508SOL    HW118983   2.508   1.094   8.276 -0.2308  1.3107  1.9718
 2508SOL    HW218984   2.387   1.188   8.294 -2.0786 -3.2040  0.0267
 2509SOL     OW18985   2.984   2.628   6.169 -0.4928  0.0162 -0.1385
 2509SOL    HW118986   2.956   2.617   6.260  0.4669  1.2713  0.3028
 2509SOL    HW218987   2.940   2.707   6.137  0.1009  0.8706  1.1703
 2510SOL     OW18988   2.417   3.623   6.977 -0.0695 -0.4134 -0.2558
 2510SOL    HW118989   2.416   3.712   7.011 -4.3446  0.6276 -3.0645
 2510SOL    HW218990   2.366   3.572   7.041 -1.1068 -0.4411 -1.1068
 2511SOL     OW18991   3.324   4.224  17.529  0.3173 -0.1089 -0.0056
 2511SOL    HW118992   3.236   4.247  17.498  0.3605  0.3443  0.2008
 2511SOL    HW218993   3.288   4.167  17.597  2.2491  0.4862  1.4961
 2512SOL     OW18994   3.100   3.924   2.292 -0.1302  0.1867 -0.4317
 2512SOL    HW118995   3.146   3.954   2.213 -1.0558  2.8713  0.0433
 2512SOL    HW218996   3.145   3.979   2.356  2.0169 -1.0939 -0.8378
 2513SOL     OW18997   3.476   4.701  13.916 -0.7316  0.1475  0.0607
 2513SOL    HW118998   3.501   4.667  13.830 -0.5238  1.2130 -0.3007
 2513SOL    HW218999   3.510   4.633  13.974  0.7749  1.8735  1.1986
 2514SOL     OW19000   3.884   1.352   3.803 -0.2999  0.4068  0.1064
 2514SOL    HW119001   3.789   1.358   3.787 -0.4699  0.6069  1.1872
 2514SOL    HW219002   3.879   1.328   3.896  2.4410  1.9016  0.6286
 2515SOL     OW19003   0.335   3.796  10.573  0.1127  0.0175  0.0704
 2515SOL    HW119004   0.315   3.771  10.663 -2.4988 -1.8743 -1.0331
 2515SOL    HW219005   0.349   3.890  10.586  1.5295 -0.0790 -0.7813
 2516SOL     OW19006   3.028   2.838   7.450 -0.4641 -0.3603 -0.2738
 2516SOL    HW119007   2.983   2.773   7.396  0.0815 -0.0478 -1.1148
 2516SOL    HW219008   3.099   2.788   7.490 -0.5060  0.4429  0.8122
 2517SOL     OW19009   3.878   4.439   3.751 -0.0563 -0.1030 -0.0654
 2517SOL    HW119010   3.812   4.429   3.682 -0.6483 -0.9021  0.6125
 2517SOL    HW219011   3.833   4.391   3.820 -1.7226  2.0182  0.3298
 2518SOL     OW19012   0.903   0.328  17.194 -0.3970  0.2129 -0.3541
 2518SOL    HW119013   0.992   0.309  17.222 -1.1846  2.4123  3.6628
 2518SOL    HW219014   0.913   0.419  17.167  0.5345  0.5652  1.2033
 2519SOL     OW19015   2.821   4.204   3.810 -0.4516 -0.1127 -0.3091
 2519SOL    HW119016   2.775   4.121   3.803  0.0107 -0.5047  1.2059
 2519SOL    HW219017   2.851   4.216   3.901 -1.3362 -0.7975  0.0674
 2520SOL     OW19018   1.175   4.553   4.199  0.6991  0.1690 -0.2127
 2520SOL    HW119019   1.188   4.647   4.198 -2.7484  0.6485  0.4776
 2520SOL    HW219020   1.266   4.524   4.190  0.9989  0.6729  1.1689
 2521SOL     OW19021   2.916   0.278   4.608 -0.5967 -0.2145  0.1741
 2521SOL    HW119022   2.947   0.238   4.689  1.0342 -1.7026 -1.1584
 2521SOL    HW219023   2.822   0.283   4.621 -0.3884  0.7256  1.2530
 2522SOL     OW19024   2.955   0.302   0.369 -0.6845 -0.0015 -0.0417
 2522SOL    HW119025   2.946   0.224   0.314 -0.8078  2.0153 -2.8869
 2522SOL    HW219026   3.032   0.344   0.331 -1.0583 -0.4589 -1.3413
 2523SOL     OW19027   3.640   4.456  17.400 -0.6512  0.2817  0.9755
 2523SOL    HW119028   3.627   4.402  17.478  0.0967  0.0010  0.9030
 2523SOL    HW219029   3.709   4.407  17.355 -0.1746  1.8382  0.0216
 2524SOL     OW19030   2.624   2.378   8.268  0.2278  0.6758 -0.1062
 2524SOL    HW119031   2.643   2.285   8.273 -0.3233  0.4836 -1.5740
 2524SOL    HW219032   2.561   2.382   8.196  0.2042  1.1910 -0.0639
 2525SOL     OW19033   2.792   2.780   4.861  0.3436  0.2911  0.5939
 2525SOL    HW119034   2.841   2.826   4.930  2.7246 -1.0238 -0.1902
 2525SOL    HW219035   2.855   2.726   4.813 -0.3340 -1.1459  1.3000
 2526SOL     OW19036   3.552   0.526   9.549  0.4658  0.2629  0.3995
 2526SOL    HW119037   3.573   0.465   9.478 -2.8059  0.5903 -0.8200
 2526SOL    HW219038   3.481   0.572   9.504  2.1024  1.5655 -0.8913
 2527SOL     OW19039   2.832   4.279  17.306 -0.2772  0.7744 -0.9591
 2527SOL    HW119040   2.921   4.297  17.276 -0.5398 -0.2570 -2.3894
 2527SOL    HW219041   2.838   4.193  17.348 -0.0862  1.3903  0.2541
 2528SOL     OW19042   0.519   3.698   2.022  0.5498  0.6265  0.4774
 2528SOL    HW119043   0.553   3.609   2.034  0.6028  0.4067 -1.2577
 2528SOL    HW219044   0.440   3.691   2.074  0.8702  2.3490  1.1987
 2529SOL     OW19045   2.386   3.635   4.254  0.1492 -0.0663 -0.0656
 2529SOL    HW119046   2.347   3.624   4.167 -3.9854  0.8403  1.6558
 2529SOL    HW219047   2.391   3.544   4.283  0.2682 -0.1119 -0.2312
 2530SOL     OW19048   3.095   2.404   4.466  0.6933 -0.4795 -0.5145
 2530SOL    HW119049   3.179   2.364   4.441  0.3285 -1.4090 -0.2601
 2530SOL    HW219050   3.122   2.443   4.549 -0.3129 -2.3443  0.6829
 2531SOL     OW19051   4.480   4.411   9.154  0.1963 -0.7934  0.1412
 2531SOL    HW119052   4.550   4.347   9.141 -0.0182 -1.6833  3.3436
 2531SOL    HW219053   4.464   4.409   9.248  0.1449  0.4520  0.1579
 2532SOL     OW19054   1.265   2.585   5.417 -0.3910  0.2191 -0.5181
 2532SOL    HW119055   1.171   2.570   5.407 -0.4676 -0.0881  0.7233
 2532SOL    HW219056   1.297   2.495   5.421 -1.2440  0.0636  2.1473
 2533SOL     OW19057   0.663   3.934   1.490 -0.0822 -0.4000 -0.3769
 2533SOL    HW119058   0.670   3.867   1.422 -1.6614  0.4186 -1.3433
 2533SOL    HW219059   0.691   3.872   1.558 -1.9710  0.5856  1.3062
 2534SOL     OW19060   2.916   2.368   4.853 -0.5163  0.0799 -0.3081
 2534SOL    HW119061   2.990   2.331   4.901 -2.0494 -3.3117 -0.6279
 2534SOL    HW219062   2.906   2.296   4.792 -3.2893 -0.4343  0.7644
 2535SOL     OW19063   4.439   2.566   7.000 -0.0319 -0.1748 -0.1458
 2535SOL    HW119064   4.464   2.474   7.005  0.2014 -0.1147 -0.2093
 2535SOL    HW219065   4.347   2.552   7.023  1.0212 -1.6471  3.2506
 2536SOL     OW19066   4.540   2.734   0.967  0.2245 -0.0131  0.0164
 2536SOL    HW119067   4.619   2.682   0.982 -0.7126 -0.9030  1.8528
 2536SOL    HW219068   4.467   2.678   0.991 -0.3665  0.8585  0.2792
 2537SOL     OW19069   0.154   3.349   8.895 -0.3324 -0.3428 -0.6003
 2537SOL    HW119070   0.122   3.439   8.905 -1.0470 -0.5473 -0.9934
 2537SOL    HW219071   0.228   3.338   8.954 -0.0154  1.3833 -0.6844
 2538SOL     OW19072   3.585   0.543   1.715  0.0061  0.3614  0.7245
 2538SOL    HW119073   3.524   0.475   1.688  2.2649 -1.3052 -0.1726
 2538SOL    HW219074   3.597   0.591   1.633 -1.2996 -1.4988 -0.5326
 2539SOL     OW19075   1.614   4.348   6.360  0.0353 -0.6300 -0.5554
 2539SOL    HW119076   1.533   4.310   6.328 -0.3343  0.1272 -0.5280
 2539SOL    HW219077   1.592   4.370   6.450 -1.7070  0.7443 -1.3147
 2540SOL     OW19078   1.052   2.043   8.743  0.4106 -0.1420 -0.4548
 2540SOL    HW119079   1.030   2.136   8.746  2.4183  0.3364 -0.4213
 2540SOL    HW219080   1.148   2.045   8.733  0.7159  1.6726  2.6810
 2541SOL     OW19081   2.087   4.267   5.657 -0.0005 -0.4592  0.5342
 2541SOL    HW119082   2.033   4.339   5.626  0.2255 -0.5750 -0.1451
 2541SOL    HW219083   2.176   4.304   5.659  0.9989 -2.7768 -0.6089
 2542SOL     OW19084   0.949   1.731   2.185 -0.4432 -0.3376 -0.5939
 2542SOL    HW119085   0.995   1.756   2.266  2.5831 -0.4490 -2.2632
 2542SOL    HW219086   0.958   1.811   2.134  0.0677  0.0798  0.1414
 2543SOL     OW19087   3.863   3.672   2.556 -0.2995  0.3306 -0.0346
 2543SOL    HW119088   3.869   3.767   2.548 -1.3834  0.3967 -0.0449
 2543SOL    HW219089   3.852   3.645   2.465  0.4249 -0.9092  0.2381
 2544SOL     OW19090   0.827   1.378   2.105 -0.3214 -0.1722 -0.0135
 2544SOL    HW119091   0.912   1.365   2.063 -0.1825 -0.6139  0.4125
 2544SOL    HW219092   0.784   1.446   2.053  0.9266 -0.1314 -0.9900
 2545SOL     OW19093   4.632   0.083  14.381  0.8430 -0.7608  0.5016
 2545SOL    HW119094   4.537   0.083  14.375  0.8738 -2.3109  0.1394
 2545SOL    HW219095   4.663   4.715  14.389 -1.4106 -1.7302 -1.9450
 2546SOL     OW19096   2.291   0.692   2.140  0.4193  1.1645  0.3316
 2546SOL    HW119097   2.378   0.660   2.117 -0.3191 -0.0777 -0.7354
 2546SOL    HW219098   2.237   0.614   2.155  0.5766  1.1859  1.0123
 2547SOL     OW19099   0.816   3.013   4.863 -0.1294  0.5424 -0.0230
 2547SOL    HW119100   0.811   3.104   4.894  1.3018  0.6538 -0.1631
 2547SOL    HW219101   0.723   2.992   4.851  0.6276 -2.7853 -0.0655
 2548SOL     OW19102   4.069   2.109   5.803 -0.3158 -0.6138  0.6029
 2548SOL    HW119103   4.138   2.175   5.791 -1.1488 -0.2228 -2.0520
 2548SOL    HW219104   3.997   2.150   5.756  2.0217 -0.9314 -3.3504
 2549SOL     OW19105   1.599   3.583   5.821 -0.8966 -0.6739 -0.8768
 2549SOL    HW119106   1.678   3.637   5.827 -0.6671 -0.9151 -1.6723
 2549SOL    HW219107   1.601   3.550   5.911  0.0506 -1.1330 -1.0631
 2550SOL     OW19108   2.020   3.648   4.152  0.1438 -0.2571  0.3633
 2550SOL    HW119109   2.034   3.639   4.247  0.1330  0.2647  0.4170
 2550SOL    HW219110   2.042   3.741   4.142  0.9828 -0.3235  1.6282
 2551SOL     OW19111   0.580   3.408   0.130 -0.3475 -0.0103  0.2630
 2551SOL    HW119112   0.546   3.466   0.061 -1.3194  0.5697  1.2248
 2551SOL    HW219113   0.590   3.479   0.193  0.8983 -2.5220  2.8850
 2552SOL     OW19114   1.846   3.055   0.121  0.8558 -0.0226  0.0999
 2552SOL    HW119115   1.905   3.026   0.052 -0.1098  2.3016 -1.7099
 2552SOL    HW219116   1.893   3.137   0.135  1.0688  0.0601 -1.1080
 2553SOL     OW19117   0.937   3.842   5.253 -0.3060  0.3667 -0.1549
 2553SOL    HW119118   0.976   3.771   5.305  1.0207  0.3489 -1.1714
 2553SOL    HW219119   0.883   3.797   5.189 -0.0528  0.8533 -0.7200
 2554SOL     OW19120   3.409   4.237   8.605  0.3988  0.2760  0.2016
 2554SOL    HW119121   3.453   4.266   8.525  0.0125 -0.6593 -0.3496
 2554SOL    HW219122   3.422   4.319   8.653  0.8522  0.3150  0.0190
 2555SOL     OW19123   3.336   4.056   5.511  0.4323  0.0005 -0.5312
 2555SOL    HW119124   3.357   4.113   5.437 -1.4598  2.0947  0.5236
 2555SOL    HW219125   3.416   4.005   5.515 -0.2361 -1.0015  0.1948
 2556SOL     OW19126   2.568   0.038   2.797 -0.1816 -0.0241 -0.1608
 2556SOL    HW119127   2.566   4.707   2.717  2.2869 -0.4852  0.1010
 2556SOL    HW219128   2.487   0.090   2.795 -1.0235 -1.3695 -0.8419
 2557SOL     OW19129   2.660   4.466   5.938 -0.4149  0.3993  0.0930
 2557SOL    HW119130   2.629   4.429   6.020  0.3734  1.9975  1.0989
 2557SOL    HW219131   2.579   4.493   5.896 -0.3203  0.7204  0.1207
 2558SOL     OW19132   0.457   3.827   5.039 -0.2761 -0.2407  0.2964
 2558SOL    HW119133   0.453   3.890   5.111 -0.1818  0.4839 -0.3273
 2558SOL    HW219134   0.376   3.777   5.053 -0.9596 -0.0909 -3.0866
 2559SOL     OW19135   0.727   4.146  11.645  0.6544  0.1357 -0.1146
 2559SOL    HW119136   0.689   4.221  11.690 -0.5564 -0.7222  0.3138
 2559SOL    HW219137   0.791   4.195  11.594 -0.0923  0.3815 -0.8127
 2560SOL     OW19138   4.590   4.636   9.041  0.7307 -0.0788  0.0982
 2560SOL    HW119139   4.566   4.546   9.062 -0.1676 -0.8297 -4.1134
 2560SOL    HW219140   4.649   4.654   9.115  0.0316  0.1919  0.5837
 2561SOL     OW19141   4.025   3.190   3.583 -0.0843  0.1713  0.0111
 2561SOL    HW119142   4.078   3.113   3.606 -0.2752 -0.1002 -0.4686
 2561SOL    HW219143   3.985   3.178   3.497 -0.7996 -1.5765  0.5917
 2562SOL     OW19144   2.147   0.620  17.560  0.1720  0.0645  0.1881
 2562SOL    HW119145   2.207   0.566  17.611  0.9076 -1.6395 -2.4799
 2562SOL    HW219146   2.208   0.686  17.528  0.6401 -0.5590 -0.2073
 2563SOL     OW19147   2.823   0.290   1.456  0.1645 -0.5193 -0.3752
 2563SOL    HW119148   2.885   0.259   1.521  0.0517  0.1137  0.0343
 2563SOL    HW219149   2.886   0.345   1.410 -0.8914  0.2164 -0.9671
 2564SOL     OW19150   2.963   0.752   9.879 -0.3976 -0.0876 -0.4694
 2564SOL    HW119151   2.954   0.817   9.949  2.6543 -0.3558  0.1554
 2564SOL    HW219152   2.949   0.670   9.927  0.7908 -0.0539 -0.0705
 2565SOL     OW19153   4.654   2.648   3.446  0.0979  0.0334 -0.0934
 2565SOL    HW119154   4.650   2.553   3.443  1.0509 -0.0156  0.0932
 2565SOL    HW219155   4.572   2.666   3.491  1.6088  0.9584  2.2749
 2566SOL     OW19156   2.663   0.426  12.700  0.0723 -0.2186  0.3755
 2566SOL    HW119157   2.614   0.355  12.742 -0.7506 -0.4940 -1.0639
 2566SOL    HW219158   2.598   0.494  12.714  0.1183  0.1894 -1.4011
 2567SOL     OW19159   3.113   4.567   7.499  0.0594 -0.1945  0.1804
 2567SOL    HW119160   3.075   4.517   7.572 -0.0851  0.3655  0.4859
 2567SOL    HW219161   3.031   4.604   7.467 -0.3606 -0.4310  0.9751
 2568SOL     OW19162   1.650   0.944   6.635 -0.2991 -0.0159  0.1256
 2568SOL    HW119163   1.579   0.901   6.684 -0.1837 -1.2029 -0.7618
 2568SOL    HW219164   1.602   1.015   6.592 -1.4341 -0.7019  0.2577
 2569SOL     OW19165   2.695   2.053   2.794  0.4043 -0.3545  0.5917
 2569SOL    HW119166   2.664   2.125   2.739  2.8626  0.9755  0.9245
 2569SOL    HW219167   2.749   2.008   2.729  1.6978 -0.0214  1.4410
 2570SOL     OW19168   3.624   1.095  17.411  0.1534 -0.1072  0.0310
 2570SOL    HW119169   3.626   1.190  17.396  0.9538  0.0028  0.8865
 2570SOL    HW219170   3.674   1.067  17.334  0.7342 -0.3926  0.5227
 2571SOL     OW19171   1.782   2.581   1.879  0.0024 -0.4835  0.3964
 2571SOL    HW119172   1.797   2.626   1.796 -1.5860  0.3049  0.5501
 2571SOL    HW219173   1.872   2.573   1.911  0.9226  1.9587 -1.5781
 2572SOL     OW19174   1.896   3.280  10.116 -0.4722 -0.4581 -0.1868
 2572SOL    HW119175   1.981   3.295  10.156 -1.4234 -0.4786  1.8717
 2572SOL    HW219176   1.907   3.189  10.090  0.6194 -0.4024  0.0964
 2573SOL     OW19177   3.341   2.953   8.417  0.4187 -0.1379  0.5470
 2573SOL    HW119178   3.302   2.892   8.480 -1.1427  0.2569 -0.0333
 2573SOL    HW219179   3.359   3.021   8.482 -1.4391 -0.4270  1.3710
 2574SOL     OW19180   0.392   1.317   0.505 -0.7526  0.4818 -0.2427
 2574SOL    HW119181   0.396   1.412   0.521  1.5876  0.7328 -2.4622
 2574SOL    HW219182   0.376   1.291   0.596 -1.4319  0.5144 -0.3538
 2575SOL     OW19183   3.332   1.412   5.415  0.2793 -0.1939 -0.0066
 2575SOL    HW119184   3.417   1.376   5.388  0.5791  0.9210 -0.5599
 2575SOL    HW219185   3.277   1.355   5.361 -2.0936 -0.1068  2.3360
 2576SOL     OW19186   1.032   0.547   4.165  0.3240  0.1806 -0.1294
 2576SOL    HW119187   1.035   0.452   4.151  0.3198  0.2705 -0.7209
 2576SOL    HW219188   1.126   0.560   4.173  0.4243 -1.7905  2.0871
 2577SOL     OW19189   3.221   3.419   4.801 -0.2394  0.1279 -0.0656
 2577SOL    HW119190   3.299   3.383   4.842  0.3602 -0.6130 -1.8283
 2577SOL    HW219191   3.192   3.349   4.743 -1.1392  0.5876 -0.1709
 2578SOL     OW19192   4.038   2.759   5.704 -0.1268  0.1445 -0.0815
 2578SOL    HW119193   4.095   2.829   5.672 -3.2179  3.4256  1.6138
 2578SOL    HW219194   3.985   2.739   5.627 -0.8276  1.9023 -0.0692
 2579SOL     OW19195   3.574   4.492   8.628  0.3633 -0.3921 -0.4568
 2579SOL    HW119196   3.600   4.488   8.720  1.9027  1.2891 -0.8109
 2579SOL    HW219197   3.559   4.587   8.623 -0.2160 -0.5179 -1.0877
 2580SOL     OW19198   3.875   2.441   3.686  0.3870  0.0006 -0.5434
 2580SOL    HW119199   3.901   2.367   3.740  2.2829 -0.2392 -1.7814
 2580SOL    HW219200   3.862   2.394   3.603  0.5168 -0.6987 -0.1707
 2581SOL     OW19201   2.365   2.904   6.975 -0.1438  0.1127 -0.3648
 2581SOL    HW119202   2.376   2.821   7.022  2.5432  0.9794  0.4790
 2581SOL    HW219203   2.296   2.952   7.021 -1.6692 -3.0537  0.6831
 2582SOL     OW19204   4.219   1.081   5.015 -0.1861 -0.2990  0.0704
 2582SOL    HW119205   4.133   1.063   5.053 -1.3557  2.1483 -1.4278
 2582SOL    HW219206   4.225   1.023   4.939 -1.9471  1.2606 -1.2399
 2583SOL     OW19207   1.594   0.037   2.920 -0.0232 -0.6063 -0.0681
 2583SOL    HW119208   1.656   0.048   2.847  0.6456  1.5851  0.8285
 2583SOL    HW219209   1.543   4.697   2.868  0.1713 -1.6753  1.0157
 2584SOL     OW19210   2.015   0.717   4.046 -0.3773  0.4505 -0.3214
 2584SOL    HW119211   2.014   0.802   4.090 -1.2920 -1.1999  2.7980
 2584SOL    HW219212   1.983   0.748   3.961  1.6421 -0.5138 -1.4261
 2585SOL     OW19213   2.896   2.678   9.622 -0.8490 -0.0103 -0.5342
 2585SOL    HW119214   2.981   2.698   9.661  0.2223 -3.8016 -0.9678
 2585SOL    HW219215   2.834   2.717   9.684  0.8384  0.3146  0.9738
 2586SOL     OW19216   4.403   3.523  15.379 -0.0654  0.0515 -0.4355
 2586SOL    HW119217   4.445   3.437  15.386 -1.2231 -0.6437 -1.9258
 2586SOL    HW219218   4.312   3.493  15.366  0.1894 -0.7323 -0.4283
 2587SOL     OW19219   2.428   0.334   8.365  0.4263  0.0319  0.7255
 2587SOL    HW119220   2.415   0.325   8.271 -1.1849  1.5089  0.8175
 2587SOL    HW219221   2.346   0.371   8.397 -0.2437 -0.1240 -0.8277
 2588SOL     OW19222   2.372   2.640   5.330 -0.3655  0.0325 -0.1278
 2588SOL    HW119223   2.387   2.617   5.421 -1.1574  0.1558  0.0391
 2588SOL    HW219224   2.444   2.695   5.298  1.1201 -1.9391 -0.1147
 2589SOL     OW19225   0.517   3.416  12.130 -0.2511  0.6781 -0.0578
 2589SOL    HW119226   0.466   3.338  12.107 -1.4869  1.0211  1.5299
 2589SOL    HW219227   0.603   3.375  12.139 -0.2696  0.9464  1.3129
 2590SOL     OW19228   1.209   2.924   2.649 -0.6935  0.0216 -0.1984
 2590SOL    HW119229   1.217   2.830   2.633 -1.7654  0.0376 -0.8307
 2590SOL    HW219230   1.297   2.943   2.684 -0.6945 -2.8182  1.3474
 2591SOL     OW19231   1.212   0.266   6.589 -0.3052 -0.2375  0.2298
 2591SOL    HW119232   1.236   0.302   6.674  0.0635  0.5362 -0.2053
 2591SOL    HW219233   1.195   0.176   6.615 -0.2521 -0.2125  0.3498
 2592SOL     OW19234   3.072   2.258   3.807 -0.0938 -0.2436 -0.7397
 2592SOL    HW119235   3.019   2.338   3.812  2.3836  1.4576 -1.6907
 2592SOL    HW219236   3.021   2.184   3.840  1.1197 -0.3570  0.8885
 2593SOL     OW19237   4.061   3.012   4.950  0.4639 -0.1426  0.0360
 2593SOL    HW119238   4.095   3.021   5.040  1.9339 -0.0096 -0.5204
 2593SOL    HW219239   4.133   3.028   4.888 -0.9823 -0.2838 -1.6736
 2594SOL     OW19240   3.367   3.610   1.940  0.1293 -0.3574  0.8789
 2594SOL    HW119241   3.385   3.550   2.013  0.6070 -0.9980  0.2310
 2594SOL    HW219242   3.422   3.687   1.952  1.0858 -0.8240 -0.5103
 2595SOL     OW19243   0.572   1.813  15.046  0.1363 -0.3056  0.1941
 2595SOL    HW119244   0.569   1.863  15.127  1.4435  0.4044 -0.1933
 2595SOL    HW219245   0.627   1.737  15.068 -0.7747 -1.2200 -0.6967
 2596SOL     OW19246   0.928   4.167   3.900  0.4877 -0.0266 -0.3795
 2596SOL    HW119247   0.992   4.221   3.854  0.7922 -1.4315 -1.6025
 2596SOL    HW219248   0.899   4.107   3.832  0.0115  0.1012 -0.2910
 2597SOL     OW19249   0.876   2.394  16.120 -0.0855 -0.0388 -0.4188
 2597SOL    HW119250   0.880   2.426  16.030  1.1485 -1.3599 -0.8323
 2597SOL    HW219251   0.886   2.482  16.159  0.5934  0.8820 -2.6665
 2598SOL     OW19252   1.241   2.082   8.303 -0.1444 -0.1197  0.2629
 2598SOL    HW119253   1.226   2.172   8.276 -0.9737 -0.0137  1.1062
 2598SOL    HW219254   1.334   2.087   8.326 -0.2957  3.9093 -0.0412
 2599SOL     OW19255   3.815   0.916   9.329  0.0792 -0.0328 -0.4510
 2599SOL    HW119256   3.906   0.923   9.357  0.6329  1.5598 -2.6231
 2599SOL    HW219257   3.824   0.914   9.233 -1.4332 -0.8091 -0.5808
 2600SOL     OW19258   4.167   4.284   9.686  0.1995  0.2102 -0.0998
 2600SOL    HW119259   4.251   4.239   9.694  0.2429  0.6204  1.7024
 2600SOL    HW219260   4.105   4.215   9.710  0.6300 -0.7243 -1.6421
 2601SOL     OW19261   4.545   2.167  11.899  0.4116  0.1091  0.2142
 2601SOL    HW119262   4.551   2.223  11.976  0.0957 -0.3308  0.5568
 2601SOL    HW219263   4.503   2.224  11.835  0.6733 -0.6792 -0.6654
 2602SOL     OW19264   1.274   3.446  11.917  0.4380 -0.0698  0.0825
 2602SOL    HW119265   1.185   3.474  11.896  0.4898 -0.9010 -1.2538
 2602SOL    HW219266   1.316   3.463  11.833  1.9048 -0.0974  0.8066
 2603SOL     OW19267   2.475   0.742  17.538  0.2521  0.1857 -0.1094
 2603SOL    HW119268   2.440   0.702  17.459 -3.0997  1.0677  0.9379
 2603SOL    HW219269   2.508   0.826  17.504  1.2524 -0.2023 -0.1070
 2604SOL     OW19270   4.318   1.612   7.988  0.3283  0.6362 -0.4720
 2604SOL    HW119271   4.275   1.698   7.988  1.1974  1.0742  1.3885
 2604SOL    HW219272   4.259   1.563   7.931 -1.3184  1.8835  0.1486
 2605SOL     OW19273   0.275   0.380  13.223  0.3463  0.3682 -0.0285
 2605SOL    HW119274   0.192   0.425  13.234 -1.0180 -1.9618 -0.7723
 2605SOL    HW219275   0.338   0.432  13.272  0.0709 -0.7881  1.5389
 2606SOL     OW19276   4.107   1.077   1.170 -0.0305 -0.5306 -0.2867
 2606SOL    HW119277   4.043   1.129   1.121  0.8099  0.8224  0.0805
 2606SOL    HW219278   4.186   1.130   1.161 -1.6870  1.7421 -1.5122
 2607SOL     OW19279   0.231   0.358  14.677 -0.3830  0.2147 -1.1260
 2607SOL    HW119280   0.203   0.269  14.697  1.0067 -0.1065 -0.6284
 2607SOL    HW219281   0.149   0.408  14.682 -0.0044  0.6693  0.7514
 2608SOL     OW19282   1.045   4.095   5.511 -0.1075 -0.3182 -0.5869
 2608SOL    HW119283   0.974   4.159   5.517  0.5205  0.5231 -2.1684
 2608SOL    HW219284   1.051   4.079   5.417 -2.4103 -0.4816 -0.7022
 2609SOL     OW19285   3.289   4.673   1.562  0.4658  0.0484  0.6309
 2609SOL    HW119286   3.315   0.004   1.487 -0.6723 -1.0674 -0.5574
 2609SOL    HW219287   3.272   4.591   1.516  0.3792 -0.5717  1.7680
 2610SOL     OW19288   1.337   0.482   7.644 -0.0971 -0.1134  0.3249
 2610SOL    HW119289   1.278   0.522   7.707 -1.7865  0.5863 -1.6927
 2610SOL    HW219290   1.337   0.547   7.574 -0.4955 -0.2060  0.2398
 2611SOL     OW19291   0.888   3.959   6.144  0.5103 -0.1594 -0.2787
 2611SOL    HW119292   0.943   4.017   6.196 -2.4775  2.8533 -0.4920
 2611SOL    HW219293   0.807   3.966   6.194 -0.5546 -2.1733 -1.7116
 2612SOL     OW19294   1.182   1.437   4.632  0.3810  0.4980 -0.2138
 2612SOL    HW119295   1.227   1.519   4.652  0.2681  0.2520  1.0503
 2612SOL    HW219296   1.260   1.382   4.633  0.7788  1.0859  1.3826
 2613SOL     OW19297   3.327   1.975   4.002 -0.0812 -0.3189  0.3034
 2613SOL    HW119298   3.368   1.957   4.087  2.6981 -0.8156 -1.1405
 2613SOL    HW219299   3.233   1.968   4.022  0.2928  0.4175  2.3919
 2614SOL     OW19300   1.331   0.976   9.342  0.6889  0.1806 -0.4042
 2614SOL    HW119301   1.387   0.960   9.418  0.0164  1.3213  0.3234
 2614SOL    HW219302   1.368   1.056   9.304  0.3495  0.3345 -0.4068
 2615SOL     OW19303   4.693   0.219   4.774  0.3428  0.0395  0.1899
 2615SOL    HW119304   0.051   0.171   4.756  0.9226  0.9756  0.2786
 2615SOL    HW219305   4.642   0.164   4.833 -1.6667  0.2036 -1.3786
 2616SOL     OW19306   2.680   0.999  11.779  0.3004  0.1279 -0.2042
 2616SOL    HW119307   2.725   1.083  11.788 -0.6449  0.8765 -2.5309
 2616SOL    HW219308   2.699   0.948  11.858 -1.2780 -0.8434 -0.4499
 2617SOL     OW19309   0.834   1.547   3.967 -0.0315  0.0291  0.2451
 2617SOL    HW119310   0.854   1.570   3.876  0.6173 -0.6685  0.2191
 2617SOL    HW219311   0.779   1.469   3.964  2.8991 -1.9733 -0.1606
 2618SOL     OW19312   2.100   0.913   6.263  0.3680  0.6805  0.2373
 2618SOL    HW119313   2.162   0.890   6.332 -0.5862 -0.5790  0.6692
 2618SOL    HW219314   2.014   0.881   6.289  1.4648 -1.6339  0.9565
 2619SOL     OW19315   1.614   1.935   6.069  0.0339  0.1407  0.2398
 2619SOL    HW119316   1.577   2.015   6.033  0.6089 -0.2468 -1.2241
 2619SOL    HW219317   1.667   1.915   5.992 -1.1508 -0.2010 -0.4761
 2620SOL     OW19318   2.772   2.248   2.147 -0.0045 -0.3247  0.1306
 2620SOL    HW119319   2.848   2.287   2.104 -0.5243  0.9906  0.3942
 2620SOL    HW219320   2.785   2.160   2.113  0.2150 -1.2556  2.6511
 2621SOL     OW19321   3.463   0.130   6.379  0.2729 -0.1282 -0.8651
 2621SOL    HW119322   3.386   0.081   6.405  0.0955 -0.4841 -2.0561
 2621SOL    HW219323   3.423   0.217   6.389  2.4234  0.6372  1.0868
 2622SOL     OW19324   2.586   3.474   5.838 -0.2370  0.4380  0.3334
 2622SOL    HW119325   2.666   3.425   5.818 -0.0954  1.7848 -2.2902
 2622SOL    HW219326   2.545   3.426   5.911 -0.9760 -1.0699 -1.0781
 2623SOL     OW19327   2.572   1.939   0.789  0.0491  0.0766 -0.4303
 2623SOL    HW119328   2.540   1.962   0.876  2.2247 -0.4509  0.5171
 2623SOL    HW219329   2.665   1.962   0.786  0.5066 -1.9121 -1.7860
 2624SOL     OW19330   4.316   4.637   2.872  0.3038 -0.0953  0.0523
 2624SOL    HW119331   4.369   4.579   2.926 -1.9255  0.2600  2.6105
 2624SOL    HW219332   4.379   4.677   2.811 -0.2797  1.4123  0.4524
 2625SOL     OW19333   0.255   1.322   2.038 -0.0693  0.3069 -0.2295
 2625SOL    HW119334   0.174   1.343   1.991 -0.9719 -0.5264  0.9393
 2625SOL    HW219335   0.241   1.233   2.071 -1.4430  0.7654  0.4532
 2626SOL     OW19336   0.268   3.653   9.974 -0.0771 -0.2743  0.4721
 2626SOL    HW119337   0.346   3.629   9.924  2.2462  3.0551  2.4988
 2626SOL    HW219338   0.320   3.681  10.050  1.2123 -1.9942  0.2497
 2627SOL     OW19339   2.651   3.358   4.441  0.3012 -0.8932  0.3066
 2627SOL    HW119340   2.734   3.367   4.487 -0.3961 -1.3488  1.6505
 2627SOL    HW219341   2.645   3.263   4.448  2.1672 -1.0159  0.1321
 2628SOL     OW19342   2.393   3.428   5.055 -0.5748 -0.0743 -0.2924
 2628SOL    HW119343   2.388   3.333   5.067  1.7661 -0.0773  0.5400
 2628SOL    HW219344   2.305   3.455   5.084  0.1721  1.3511  0.6339
 2629SOL     OW19345   0.768   4.110  12.335  0.1842 -0.3536 -0.4414
 2629SOL    HW119346   0.710   4.056  12.390 -1.9749  1.0789 -1.3240
 2629SOL    HW219347   0.707   4.141  12.269 -0.2585  0.2883  0.2658
 2630SOL     OW19348   4.062   2.887   8.378  0.2051  0.2083 -0.4509
 2630SOL    HW119349   4.030   2.977   8.372 -1.8469 -0.5141 -0.4396
 2630SOL    HW219350   3.999   2.871   8.448 -0.0752 -1.2652 -1.0267
 2631SOL     OW19351   0.017   0.591   4.410  0.2808  0.4704  0.2787
 2631SOL    HW119352   0.085   0.641   4.456 -0.2975  0.5995  0.9952
 2631SOL    HW219353   0.001   0.524   4.476  2.1968  0.4410  0.7210
 2632SOL     OW19354   3.379   3.319   1.631 -0.2258 -0.0933 -0.1807
 2632SOL    HW119355   3.428   3.291   1.709  1.1805 -1.6813 -1.6332
 2632SOL    HW219356   3.295   3.281   1.656 -0.8573 -0.4806 -2.9277
 2633SOL     OW19357   3.228   2.622  12.025 -0.5202 -0.4236 -0.0731
 2633SOL    HW119358   3.192   2.583  12.105 -0.2740 -0.4994 -0.0025
 2633SOL    HW219359   3.148   2.621  11.972 -1.4843  0.3168  1.3658
 2634SOL     OW19360   4.467   0.753   8.905  0.4554 -0.2387 -0.1680
 2634SOL    HW119361   4.485   0.699   8.982  3.0573  1.5665  0.4607
 2634SOL    HW219362   4.408   0.815   8.948 -0.2980  0.2564 -1.9321
 2635SOL     OW19363   3.870   2.727   3.731 -0.0541 -0.3806  0.3681
 2635SOL    HW119364   3.855   2.636   3.706 -1.8095  0.0818 -0.2470
 2635SOL    HW219365   3.853   2.757   3.641  0.7314  1.3466  0.7886
 2636SOL     OW19366   0.769   3.355   8.618 -0.1568 -0.0956 -0.2387
 2636SOL    HW119367   0.840   3.349   8.682 -0.5472  1.9051  0.4087
 2636SOL    HW219368   0.783   3.445   8.590  2.7875  0.0913  1.8622
 2637SOL     OW19369   3.128   1.755  17.401 -0.3109 -0.0322  0.2614
 2637SOL    HW119370   3.189   1.781  17.332  0.8954  0.2671  1.4633
 2637SOL    HW219371   3.169   1.795  17.477  0.8017  1.3043 -1.0485
 2638SOL     OW19372   4.056   1.230   9.119  0.3506 -0.2320  0.2042
 2638SOL    HW119373   4.085   1.180   9.195 -2.0837  0.3345  1.4918
 2638SOL    HW219374   4.135   1.250   9.070  0.2528 -0.2471  0.0402
 2639SOL     OW19375   4.243   1.815  16.706 -0.0804  0.2614  0.1639
 2639SOL    HW119376   4.162   1.805  16.656 -1.2234  0.7677  1.8877
 2639SOL    HW219377   4.240   1.734  16.758 -1.4406  0.9580  1.1849
 2640SOL     OW19378   1.250   4.166   9.056 -0.0941  0.1246  0.0423
 2640SOL    HW119379   1.340   4.190   9.075 -0.1386 -2.2694  3.2932
 2640SOL    HW219380   1.260   4.073   9.035 -0.6820  0.3055 -1.0755
 2641SOL     OW19381   4.375   4.264   8.517  0.3326 -0.4359 -0.4713
 2641SOL    HW119382   4.416   4.347   8.497  2.5778 -1.3296  0.4706
 2641SOL    HW219383   4.357   4.289   8.608  1.8674 -0.5493 -0.1362
 2642SOL     OW19384   1.293   1.982   6.804 -0.6190  0.6410 -0.1932
 2642SOL    HW119385   1.265   1.973   6.895  2.0726  1.9945  0.7761
 2642SOL    HW219386   1.219   2.029   6.766 -0.3163  0.7756 -0.6099
 2643SOL     OW19387   2.767   4.469   5.397 -0.0905 -0.7429 -0.0029
 2643SOL    HW119388   2.776   4.446   5.305 -2.0461 -0.6065 -0.2219
 2643SOL    HW219389   2.861   4.474   5.419  0.4549 -1.7248 -2.1552
 2644SOL     OW19390   2.501   2.804  13.258 -0.5686 -0.3454  0.6581
 2644SOL    HW119391   2.447   2.824  13.335 -0.2363 -3.9811  1.8233
 2644SOL    HW219392   2.436   2.827  13.191 -0.8866  0.2977  1.1766
 2645SOL     OW19393   2.988   4.264  11.015 -0.3769  0.0881 -0.3756
 2645SOL    HW119394   3.007   4.243  10.924 -0.3746 -0.8847 -0.1571
 2645SOL    HW219395   2.960   4.354  10.998 -1.6164 -0.0302  1.0146
 2646SOL     OW19396   2.267   3.655   7.457  0.2042  0.3251  0.1755
 2646SOL    HW119397   2.357   3.656   7.426 -0.0463  2.9420 -0.5179
 2646SOL    HW219398   2.234   3.585   7.401 -1.0415  0.9154  0.1640
 2647SOL     OW19399   2.606   2.184  16.662 -0.1873  0.7222  1.1111
 2647SOL    HW119400   2.698   2.161  16.646 -1.3439 -0.6045 -3.4973
 2647SOL    HW219401   2.579   2.094  16.681  0.8877  0.3170  0.7350
 2648SOL     OW19402   0.442   2.648   1.725 -0.2579 -0.5520 -0.1575
 2648SOL    HW119403   0.480   2.665   1.811  2.4968 -1.3344 -1.2253
 2648SOL    HW219404   0.353   2.669   1.754 -0.2140  2.9680 -2.5630
 2649SOL     OW19405   2.740   2.544   4.054 -0.1431 -0.3165  0.2806
 2649SOL    HW119406   2.738   2.501   3.969 -2.1980  0.2420  0.0391
 2649SOL    HW219407   2.801   2.616   4.036 -0.7590  0.0031 -0.5417
 2650SOL     OW19408   2.232   1.113  15.368  0.2943 -0.5744  0.0798
 2650SOL    HW119409   2.178   1.079  15.296  2.0473 -0.8971 -1.1097
 2650SOL    HW219410   2.225   1.050  15.439 -2.8193  0.1249  0.3720
 2651SOL     OW19411   2.911   1.126   3.094  0.5512  0.2291 -0.2452
 2651SOL    HW119412   2.820   1.098   3.094  0.7834 -0.5366 -0.8067
 2651SOL    HW219413   2.933   1.094   3.182 -1.1004  1.2773  0.5434
 2652SOL     OW19414   0.067   3.080   5.577 -0.2621  0.1929  0.0740
 2652SOL    HW119415   0.040   3.090   5.668 -0.5782 -1.8845  0.2281
 2652SOL    HW219416   4.709   3.038   5.545  0.1254  0.3218 -1.0812
 2653SOL     OW19417   0.799   2.813   6.942  0.3624  0.5056  0.1227
 2653SOL    HW119418   0.760   2.807   6.855  1.9567 -1.5131 -0.4599
 2653SOL    HW219419   0.887   2.797   6.908  0.0073  0.8308 -0.9512
 2654SOL     OW19420   4.191   2.829  13.924 -0.0610 -0.2548 -0.3906
 2654SOL    HW119421   4.108   2.858  13.884 -0.2998 -1.5579 -0.8562
 2654SOL    HW219422   4.249   2.850  13.851 -2.2477  0.9847 -1.8098
 2655SOL     OW19423   2.289   3.551   0.347  0.0440 -0.0096  0.3545
 2655SOL    HW119424   2.270   3.575   0.437 -0.2606  0.7663  0.0879
 2655SOL    HW219425   2.381   3.527   0.359  0.1003  1.2581  2.3709
 2656SOL     OW19426   2.693   2.767   2.668  0.3902 -0.5697  0.9993
 2656SOL    HW119427   2.747   2.703   2.622  1.4972  0.8399  0.3445
 2656SOL    HW219428   2.752   2.842   2.671  0.3551 -0.5274  0.6425
 2657SOL     OW19429   2.955   3.937  10.996  0.2138 -0.1353 -0.2705
 2657SOL    HW119430   2.981   3.937  10.904  0.1483 -0.7580 -0.2932
 2657SOL    HW219431   3.002   3.860  11.029  1.8723  0.3475 -1.5331
 2658SOL     OW19432   4.013   4.424   5.470  0.6646  0.6740  0.0140
 2658SOL    HW119433   4.045   4.462   5.552  0.6404 -2.9901  1.7143
 2658SOL    HW219434   3.918   4.426   5.480  0.4144 -1.1200 -2.0732
 2659SOL     OW19435   1.259   0.066   5.922 -0.1409 -0.4297 -0.3347
 2659SOL    HW119436   1.184   0.021   5.961  0.5877 -2.2068 -0.9742
 2659SOL    HW219437   1.324   4.718   5.930 -1.3747 -1.7730 -2.3910
 2660SOL     OW19438   1.881   3.769   5.366  0.2520  0.3268 -0.2065
 2660SOL    HW119439   1.843   3.764   5.454 -1.7101  0.1955 -1.0709
 2660SOL    HW219440   1.950   3.830   5.394  3.0609 -2.8667 -0.0794
 2661SOL     OW19441   3.697   2.533   5.287  0.0647 -0.1366  0.1877
 2661SOL    HW119442   3.629   2.474   5.319 -0.2437 -0.8259 -1.7257
 2661SOL    HW219443   3.774   2.478   5.303  0.7559  1.1213  1.2257
 2662SOL     OW19444   0.603   0.347  11.527  0.3668 -0.4475  0.4421
 2662SOL    HW119445   0.521   0.299  11.542 -0.3625  0.6947  0.1002
 2662SOL    HW219446   0.609   0.354  11.432  3.4797  1.6967  0.8008
 2663SOL     OW19447   1.748   1.188   4.237  0.1445 -0.7767  0.0672
 2663SOL    HW119448   1.735   1.157   4.147  1.3891 -0.4697 -0.2170
 2663SOL    HW219449   1.793   1.112   4.274  1.0439 -0.1896  0.1705
 2664SOL     OW19450   2.671   1.544   4.620  0.8851 -0.0757  0.3573
 2664SOL    HW119451   2.731   1.548   4.694 -1.5852  2.9483  2.2278
 2664SOL    HW219452   2.623   1.464   4.641  2.6075 -0.9891  0.7962
 2665SOL     OW19453   3.417   1.733  14.331 -0.0059 -0.0360 -0.3023
 2665SOL    HW119454   3.397   1.663  14.392 -1.8192  0.7172 -0.0425
 2665SOL    HW219455   3.444   1.801  14.393 -1.2299  0.9247 -0.8154
 2666SOL     OW19456   2.484   2.479   0.237 -0.2855  0.0893 -0.2817
 2666SOL    HW119457   2.521   2.499   0.151  1.0548  2.4369  0.8265
 2666SOL    HW219458   2.506   2.389   0.258 -2.7968 -0.8432 -1.6437
 2667SOL     OW19459   4.525   0.279   3.665  0.4627  0.2670  0.3721
 2667SOL    HW119460   4.493   0.306   3.579 -2.4376  0.5259  1.5136
 2667SOL    HW219461   4.473   0.199   3.678  0.0968  0.6061  0.9955
 2668SOL     OW19462   2.159   0.977  15.593 -0.1401  0.1380  0.0610
 2668SOL    HW119463   2.096   0.941  15.654 -1.6181  1.1305 -0.8888
 2668SOL    HW219464   2.151   0.913  15.522  2.7342 -0.8199  0.6044
 2669SOL     OW19465   1.134   0.667   7.741 -0.4076  0.3548 -0.3853
 2669SOL    HW119466   1.122   0.666   7.836  0.0025 -0.2253 -0.3406
 2669SOL    HW219467   1.105   0.756   7.720  0.2294  0.4564 -0.8302
 2670SOL     OW19468   0.155   3.368  16.820 -0.7994 -0.4016  0.0594
 2670SOL    HW119469   0.090   3.409  16.878  0.2658  0.8507  0.3754
 2670SOL    HW219470   0.171   3.436  16.755 -2.2007 -1.7122 -1.6585
 2671SOL     OW19471   0.371   1.799  15.372 -0.4985 -0.0328  0.7370
 2671SOL    HW119472   0.449   1.839  15.412  0.0712 -2.0463  1.6346
 2671SOL    HW219473   0.305   1.849  15.421 -0.6094  0.8266 -0.3038
 2672SOL     OW19474   4.600   4.707  13.250  0.6754 -0.0733  0.1741
 2672SOL    HW119475   4.694   4.690  13.244  0.7237 -0.2128  1.3854
 2672SOL    HW219476   4.597   4.722  13.345 -2.2956  0.4385  0.0042
 2673SOL     OW19477   0.886   3.338   2.321  0.0997  0.0517  0.0377
 2673SOL    HW119478   0.835   3.278   2.374  0.8535  0.4341  1.2041
 2673SOL    HW219479   0.938   3.373   2.393  0.5048  2.6810 -1.5385
 2674SOL     OW19480   3.088   2.188  15.885 -0.5896  0.0730 -0.1243
 2674SOL    HW119481   3.119   2.192  15.976  2.0754 -0.9151 -0.9841
 2674SOL    HW219482   3.095   2.279  15.857 -0.6950  0.1439  0.0810
 2675SOL     OW19483   4.245   4.209   7.660 -0.4590 -0.1506  0.6455
 2675SOL    HW119484   4.159   4.180   7.692  0.2970 -1.3012  1.6424
 2675SOL    HW219485   4.257   4.140   7.595 -0.3499  0.5942 -0.1272
 2676SOL     OW19486   1.217   4.353   3.516  0.4348 -0.1532 -0.0413
 2676SOL    HW119487   1.260   4.423   3.466  0.9728  0.4269  1.2547
 2676SOL    HW219488   1.265   4.278   3.481  2.0130  0.5554  0.6378
 2677SOL     OW19489   3.450   4.133   9.433  0.6217  0.5487 -0.3574
 2677SOL    HW119490   3.533   4.151   9.476  0.1983 -0.3358  0.8356
 2677SOL    HW219491   3.408   4.067   9.489 -1.2165  0.6881 -1.5757
 2678SOL     OW19492   2.009   2.211   0.231  0.1031  0.5466  0.0292
 2678SOL    HW119493   1.954   2.208   0.310  1.8747 -1.7046  1.2063
 2678SOL    HW219494   1.977   2.126   0.202 -0.2228  0.4619  0.6414
 2679SOL     OW19495   2.542   1.450   7.059  0.1150  0.2842 -0.2006
 2679SOL    HW119496   2.606   1.521   7.060  0.5395 -0.0933 -0.2530
 2679SOL    HW219497   2.492   1.466   7.139 -1.1507  1.2997 -1.2017
 2680SOL     OW19498   3.637   4.543   8.270 -0.4166  0.1294  0.0488
 2680SOL    HW119499   3.677   4.630   8.261 -3.2727  1.5655  1.4086
 2680SOL    HW219500   3.680   4.511   8.349  2.2264 -2.1056 -2.2970
 2681SOL     OW19501   2.582   4.345   3.655 -0.5621 -0.1201 -0.2000
 2681SOL    HW119502   2.594   4.273   3.717 -0.3956  0.3002  0.2594
 2681SOL    HW219503   2.641   4.318   3.585 -0.8122  2.7610 -1.5223
 2682SOL     OW19504   4.528   0.674  13.123 -0.4941 -0.3562  0.1231
 2682SOL    HW119505   4.488   0.760  13.111  0.6129  0.3721  1.6598
 2682SOL    HW219506   4.609   0.688  13.074 -1.4484  2.3771 -0.6988
 2683SOL     OW19507   3.302   0.959  11.901 -0.0976  0.2148  0.0760
 2683SOL    HW119508   3.347   0.876  11.917  0.7911  0.1094 -2.9191
 2683SOL    HW219509   3.311   0.984  11.993  0.9837  3.3421 -0.8969
 2684SOL     OW19510   2.199   1.800  10.143 -0.0019  0.0631  0.2874
 2684SOL    HW119511   2.210   1.746  10.222 -3.0375 -0.9593  0.0331
 2684SOL    HW219512   2.208   1.890  10.175 -0.2696  0.0755  0.3304
 2685SOL     OW19513   3.436   3.156   8.568 -0.2201  0.5897  0.2737
 2685SOL    HW119514   3.505   3.191   8.512 -0.6324  2.9547  1.2558
 2685SOL    HW219515   3.416   3.234   8.619 -0.9373  0.4333  0.2364
 2686SOL     OW19516   0.453   2.348   7.680  0.2165  0.3125  0.0698
 2686SOL    HW119517   0.466   2.256   7.701  0.7042  0.7392  1.6653
 2686SOL    HW219518   0.359   2.342   7.666  0.2764 -1.4667  0.4461
 2687SOL     OW19519   2.432   3.928   3.098 -0.3093  0.2268  0.3190
 2687SOL    HW119520   2.413   3.963   3.011  0.2225  1.4782  0.7058
 2687SOL    HW219521   2.525   3.908   3.093 -0.4691 -0.5126  0.2787
 2688SOL     OW19522   3.371   3.859  13.241  0.1526  0.0568 -0.0291
 2688SOL    HW119523   3.328   3.837  13.158  1.8120 -2.8208 -0.1403
 2688SOL    HW219524   3.304   3.852  13.308  2.1126 -0.3235  1.8781
 2689SOL     OW19525   1.569   0.548  10.920 -0.0295 -0.2380  0.3351
 2689SOL    HW119526   1.659   0.515  10.930 -0.7105 -2.3686 -0.6272
 2689SOL    HW219527   1.536   0.499  10.845 -2.8859  0.1631  1.3473
 2690SOL     OW19528   0.115   0.805   9.035  0.3426 -0.2779  0.3905
 2690SOL    HW119529   0.073   0.891   9.030 -0.2788 -0.6875 -1.3218
 2690SOL    HW219530   0.200   0.842   9.012  0.2528  1.1141  2.2937
 2691SOL     OW19531   2.130   3.233   3.948  0.2862 -0.2754 -0.2101
 2691SOL    HW119532   2.201   3.258   4.008  0.2150  1.5773 -0.8935
 2691SOL    HW219533   2.181   3.182   3.886  1.2458  0.4517 -0.0239
 2692SOL     OW19534   0.578   3.757  16.226 -0.3150 -0.1075  0.5098
 2692SOL    HW119535   0.554   3.664  16.231  0.0482 -0.2636 -0.6990
 2692SOL    HW219536   0.670   3.759  16.251 -0.3222 -0.6011  0.5901
 2693SOL     OW19537   2.335   4.640   8.301 -0.2871  0.1077 -0.4513
 2693SOL    HW119538   2.291   4.572   8.250  0.6730 -0.6731 -0.2401
 2693SOL    HW219539   2.426   4.609   8.298  0.1946  1.3146  1.4670
 2694SOL     OW19540   4.645   3.436  12.264 -0.4882 -0.4290  0.3408
 2694SOL    HW119541   0.010   3.400  12.283  0.6912  2.3001  0.1075
 2694SOL    HW219542   4.675   3.513  12.216 -0.4566 -0.8847 -0.3857
 2695SOL     OW19543   0.603   3.772   1.277 -0.1826  0.2955 -0.3402
 2695SOL    HW119544   0.580   3.762   1.185  0.6773 -0.3293 -0.4890
 2695SOL    HW219545   0.639   3.684   1.289 -0.1010  0.2805 -0.6771
 2696SOL     OW19546   3.587   3.180   2.956 -0.4565 -0.1428 -0.3509
 2696SOL    HW119547   3.572   3.240   3.029  0.0398 -1.4715  0.8383
 2696SOL    HW219548   3.542   3.101   2.986  2.2657 -0.9004  1.7007
 2697SOL     OW19549   2.671   0.070   5.247  0.6822  0.0440  0.2317
 2697SOL    HW119550   2.669   0.160   5.278  0.0254 -0.8040  2.6546
 2697SOL    HW219551   2.610   0.022   5.304  1.3593 -1.4696 -0.3051
 2698SOL     OW19552   1.839   0.585   5.275  0.1243  0.5827  0.4356
 2698SOL    HW119553   1.821   0.563   5.184 -1.5668  0.5820  0.7639
 2698SOL    HW219554   1.818   0.678   5.281 -0.6103  0.5432 -1.6447
 2699SOL     OW19555   3.409   3.195   5.717 -0.2061 -0.9155  0.5599
 2699SOL    HW119556   3.434   3.111   5.680  1.0659  0.8102 -2.5326
 2699SOL    HW219557   3.330   3.172   5.766 -0.4760  1.7176  1.3671
 2700SOL     OW19558   4.059   4.621   2.506 -0.2996  0.4366 -0.4766
 2700SOL    HW119559   4.136   4.568   2.527 -0.5775 -0.0848 -0.7856
 2700SOL    HW219560   3.999   4.613   2.580 -1.5993 -2.0084 -1.8067
 2701SOL     OW19561   2.920   2.220   9.596  0.1079 -0.0985  0.0047
 2701SOL    HW119562   2.907   2.293   9.536  0.2258  1.0850  1.4123
 2701SOL    HW219563   2.894   2.144   9.543 -1.4150  0.6386 -0.2861
 2702SOL     OW19564   2.101   3.303  12.814  0.3612  0.3425  0.0881
 2702SOL    HW119565   2.105   3.224  12.760  0.0465 -0.2270  0.8922
 2702SOL    HW219566   2.009   3.324  12.797 -0.3288 -2.2076  0.5886
 2703SOL     OW19567   1.058   4.027   3.447 -0.0326  0.3034  0.1572
 2703SOL    HW119568   1.099   3.941   3.455 -0.6647  0.3675  4.0912
 2703SOL    HW219569   1.120   4.070   3.389 -0.9492  1.5791  0.1286
 2704SOL     OW19570   0.733   3.998  15.276 -0.5170 -0.4352  0.2697
 2704SOL    HW119571   0.739   4.089  15.246 -0.8612 -0.8067 -0.9282
 2704SOL    HW219572   0.643   3.980  15.250 -0.3087  1.4311 -1.7692
 2705SOL     OW19573   3.432   2.339   8.200 -0.2750  0.2315  0.6575
 2705SOL    HW119574   3.356   2.343   8.257 -0.7542 -1.7734  0.1769
 2705SOL    HW219575   3.393   2.307   8.119  1.0101  0.3207  0.0022
 2706SOL     OW19576   0.765   4.197  10.109  0.1668  0.3723  0.5971
 2706SOL    HW119577   0.773   4.281  10.156  0.1812  1.3520 -1.1462
 2706SOL    HW219578   0.705   4.149  10.166 -1.3053  1.9291  0.3628
 2707SOL     OW19579   2.512   4.716   5.017  0.5653  0.3917  0.0783
 2707SOL    HW119580   2.456   0.012   5.092 -1.0305 -1.0229 -0.7577
 2707SOL    HW219581   2.456   0.022   4.944 -0.5586 -2.3725 -0.1075
 2708SOL     OW19582   4.362   3.032   3.722 -0.5975  0.6359  0.5294
 2708SOL    HW119583   4.343   2.973   3.795  1.8939  0.5507  1.1220
 2708SOL    HW219584   4.455   3.021   3.702 -0.7633 -0.8450  0.5419
 2709SOL     OW19585   3.728   2.119   2.850 -0.5183 -0.0139  0.3431
 2709SOL    HW119586   3.660   2.136   2.785 -0.5141 -0.1029  0.3161
 2709SOL    HW219587   3.802   2.163   2.808  0.9778 -3.1810 -0.2783
 2710SOL     OW19588   1.826   1.986  14.266  0.0685 -0.2364 -0.6755
 2710SOL    HW119589   1.763   2.049  14.300  0.2869 -0.0584 -0.6030
 2710SOL    HW219590   1.877   2.032  14.199  0.0475 -1.2762 -1.4196
 2711SOL     OW19591   2.957   0.983   5.082 -0.6151  0.5502  0.3003
 2711SOL    HW119592   2.881   1.032   5.115 -0.5027  0.6170  0.4607
 2711SOL    HW219593   2.936   0.992   4.989  0.1146 -2.6404 -0.1511
 2712SOL     OW19594   0.069   3.053  10.270  0.0473  0.1949  0.0595
 2712SOL    HW119595   4.704   3.022  10.294 -0.3384  2.0792  1.0958
 2712SOL    HW219596   0.080   3.008  10.186 -1.2806  1.5896 -0.8541
 2713SOL     OW19597   1.753   0.540   9.446  0.0621  0.0033  0.3569
 2713SOL    HW119598   1.827   0.562   9.389  1.1671  0.2956  1.9127
 2713SOL    HW219599   1.684   0.559   9.382  1.1609  1.0609 -0.4986
 2714SOL     OW19600   1.855   0.768   6.314  0.2875  0.4763  0.3224
 2714SOL    HW119601   1.827   0.820   6.239 -0.8972  0.1915  0.5550
 2714SOL    HW219602   1.772   0.736   6.349  0.2380  0.4867  0.2148
 2715SOL     OW19603   2.545   1.306  12.687 -0.1706 -0.7450 -0.2783
 2715SOL    HW119604   2.461   1.351  12.673 -2.1978 -3.7581  2.2877
 2715SOL    HW219605   2.599   1.385  12.692 -2.1209  0.6384 -0.6059
 2716SOL     OW19606   2.032   3.355   6.364 -0.0314  0.1537  0.1597
 2716SOL    HW119607   1.993   3.358   6.277 -1.0900 -1.3818  0.5944
 2716SOL    HW219608   1.961   3.387   6.419  0.8078 -1.1445  1.9704
 2717SOL     OW19609   1.548   4.046   6.553 -0.5648  0.1710  0.2855
 2717SOL    HW119610   1.506   4.126   6.585 -2.1959 -0.8981  0.8023
 2717SOL    HW219611   1.499   3.976   6.597 -1.9482  0.5263 -0.7042
 2718SOL     OW19612   0.669   4.352   2.959  0.0978  0.1779 -0.6048
 2718SOL    HW119613   0.734   4.374   2.892 -0.4747  0.2166 -1.1461
 2718SOL    HW219614   0.614   4.428   2.946  1.1700  0.7385 -1.9050
 2719SOL     OW19615   0.021   0.825  17.453  0.4181 -0.4163 -0.5263
 2719SOL    HW119616   0.016   0.885  17.527 -2.5628 -0.0181 -1.0613
 2719SOL    HW219617   0.015   0.737  17.490 -1.0442  0.9423  2.4387
 2720SOL     OW19618   0.656   1.844   8.263  0.3137 -0.5486 -0.1273
 2720SOL    HW119619   0.739   1.891   8.264  0.6150 -1.0765 -0.4036
 2720SOL    HW219620   0.637   1.846   8.169 -0.7200 -1.4620  0.0547
 2721SOL     OW19621   1.600   1.453   5.611  0.3522  0.2190 -0.2347
 2721SOL    HW119622   1.645   1.401   5.678 -1.3687  1.2231  1.6910
 2721SOL    HW219623   1.510   1.436   5.637 -0.0377 -0.2928 -1.9174
 2722SOL     OW19624   4.510   4.298   6.882 -0.6964  0.1177  0.4520
 2722SOL    HW119625   4.552   4.283   6.967  0.9276 -0.8731 -0.5212
 2722SOL    HW219626   4.508   4.209   6.846  1.5722  0.9496 -1.6813
 2723SOL     OW19627   3.179   3.483  12.517  0.3271 -0.0839 -0.0681
 2723SOL    HW119628   3.095   3.528  12.529 -0.0507 -0.8517  0.1824
 2723SOL    HW219629   3.167   3.401  12.567  0.5630 -0.0911 -0.0234
 2724SOL     OW19630   2.731   1.914   6.010  0.2877  0.1551  0.1011
 2724SOL    HW119631   2.821   1.881   6.011 -0.6881 -2.4841 -0.8991
 2724SOL    HW219632   2.729   1.936   6.103  1.8738  2.0092 -0.2848
 2725SOL     OW19633   4.320   0.130   5.359  0.2114  0.0422 -0.0067
 2725SOL    HW119634   4.324   0.156   5.451  1.6802 -2.0047  0.5077
 2725SOL    HW219635   4.251   0.067   5.374 -0.3161  1.0497  1.7965
 2726SOL     OW19636   3.564   2.140   2.646  0.1142 -0.7248  0.3687
 2726SOL    HW119637   3.534   2.228   2.623 -0.8305 -1.5485 -1.5675
 2726SOL    HW219638   3.591   2.100   2.563  3.1285  2.6552 -0.2870
 2727SOL     OW19639   2.791   2.100   7.044  0.0968  0.2213  0.1988
 2727SOL    HW119640   2.696   2.106   7.044  0.2573  2.8449 -3.8866
 2727SOL    HW219641   2.803   2.090   7.139 -2.7446 -0.0343  0.5198
 2728SOL     OW19642   2.178   2.746   6.597  0.0447 -0.5608 -0.7867
 2728SOL    HW119643   2.147   2.694   6.524  1.4179 -1.0452 -1.0284
 2728SOL    HW219644   2.262   2.777   6.563 -0.0298  1.2702  0.6485
 2729SOL     OW19645   3.294   1.815   5.071 -0.1918  0.0077  0.3683
 2729SOL    HW119646   3.350   1.772   5.135 -0.0370  1.7328  1.3901
 2729SOL    HW219647   3.262   1.735   5.029  1.1715 -0.4251  0.1504
 2730SOL     OW19648   4.198   0.929   8.713 -0.6280  0.1691  0.3757
 2730SOL    HW119649   4.259   0.957   8.781 -0.4109 -1.5431  0.9040
 2730SOL    HW219650   4.199   1.006   8.657  0.3081  0.7582  1.2021
 2731SOL     OW19651   4.587   1.247   5.136  0.6971 -0.2237 -0.5261
 2731SOL    HW119652   4.569   1.156   5.159  0.7701  0.5594  2.6864
 2731SOL    HW219653   4.597   1.293   5.220  1.9548 -1.1192 -0.1938
 2732SOL     OW19654   3.703   0.609   9.204 -0.0666  0.1199  0.0266
 2732SOL    HW119655   3.693   0.547   9.131 -1.2665  0.4082 -0.0473
 2732SOL    HW219656   3.742   0.682   9.155 -3.0561  1.5870 -0.1370
 2733SOL     OW19657   1.958   2.070   4.720  0.2612 -0.2840 -0.0699
 2733SOL    HW119658   1.944   2.159   4.752 -1.3469 -0.9052  0.9084
 2733SOL    HW219659   1.923   2.027   4.798 -2.1449  0.6053 -0.6666
 2734SOL     OW19660   1.363   2.676  12.584  0.2161  0.7872  0.2645
 2734SOL    HW119661   1.284   2.625  12.600 -1.6032  3.0116 -1.5034
 2734SOL    HW219662   1.332   2.752  12.534  1.9556  2.0534  1.1248
 2735SOL     OW19663   3.905   3.263  12.381  0.2014 -0.1431  0.2735
 2735SOL    HW119664   3.845   3.220  12.319  0.4336 -0.9620  0.6137
 2735SOL    HW219665   3.986   3.261  12.329  0.3529 -2.8668  0.5893
 2736SOL     OW19666   0.552   1.592   8.322  0.5259  0.4627 -0.4712
 2736SOL    HW119667   0.598   1.573   8.404 -0.2380 -1.5302 -0.4992
 2736SOL    HW219668   0.610   1.662   8.292  0.1047  0.4555 -1.2830
 2737SOL     OW19669   0.171   2.294   7.597  0.2761 -0.1468 -0.3837
 2737SOL    HW119670   0.124   2.237   7.659 -2.5565 -0.2212 -2.6231
 2737SOL    HW219671   0.106   2.359   7.571 -0.0666 -0.4881 -0.3781
 2738SOL     OW19672   1.874   3.329  17.473  0.1322 -0.1845  0.6924
 2738SOL    HW119673   1.949   3.383  17.444  1.1509 -0.6138  2.5324
 2738SOL    HW219674   1.819   3.327  17.395 -1.0793 -0.4250  1.5546
 2739SOL     OW19675   2.351   2.846  11.300  0.2760 -0.4723 -0.2936
 2739SOL    HW119676   2.378   2.793  11.375 -0.6504  2.5982  2.1927
 2739SOL    HW219677   2.438   2.862  11.264 -0.0920  2.6615  0.2126
 2740SOL     OW19678   3.236   1.964  13.862 -0.5728  0.2925 -0.6760
 2740SOL    HW119679   3.157   1.987  13.912  0.0783  1.3066 -0.1045
 2740SOL    HW219680   3.306   1.962  13.927 -0.6642 -0.5720 -0.6000
 2741SOL     OW19681   2.383   3.286  10.015  0.2887  0.0132 -0.3929
 2741SOL    HW119682   2.351   3.284   9.924 -2.5401 -2.3577  0.6529
 2741SOL    HW219683   2.297   3.284  10.057  0.8555 -4.4297  0.5962
 2742SOL     OW19684   3.120   3.012   7.857 -0.0055  0.4558  0.2105
 2742SOL    HW119685   3.198   2.962   7.880 -0.6630 -0.3444  0.6868
 2742SOL    HW219686   3.046   2.983   7.910  0.4788  1.3276  1.3551
 2743SOL     OW19687   1.466   1.339   1.474 -0.5091  0.3510  0.1242
 2743SOL    HW119688   1.558   1.352   1.452  0.0750  0.2979  2.4503
 2743SOL    HW219689   1.423   1.307   1.395  0.2948 -0.6513  0.0941
 2744SOL     OW19690   3.212   4.334   8.170 -0.0896 -0.3562 -0.0491
 2744SOL    HW119691   3.251   4.308   8.086 -2.4356 -0.7797 -0.9961
 2744SOL    HW219692   3.127   4.366   8.138 -0.1771  0.7468  1.3058
 2745SOL     OW19693   3.542   4.200   0.366  0.1353 -0.2859  0.3031
 2745SOL    HW119694   3.462   4.153   0.342 -1.2836  1.5752  1.4223
 2745SOL    HW219695   3.516   4.256   0.439  0.2960  1.1383 -0.7426
 2746SOL     OW19696   1.535   2.517  12.739 -0.2138 -0.5549  0.3844
 2746SOL    HW119697   1.465   2.571  12.704 -1.7919 -1.8399  1.5917
 2746SOL    HW219698   1.604   2.580  12.719 -0.5563  0.3632  2.0454
 2747SOL     OW19699   1.733   1.486   0.388  0.1610 -0.4069  0.0570
 2747SOL    HW119700   1.800   1.484   0.320  0.0714 -0.7436 -0.0245
 2747SOL    HW219701   1.790   1.466   0.463  0.4226  0.8620  0.1998
 2748SOL     OW19702   3.549   0.111   2.995  0.9091  0.2401 -0.0686
 2748SOL    HW119703   3.623   0.050   2.998 -0.7647 -1.7631  0.5661
 2748SOL    HW219704   3.476   0.068   3.039 -0.2836  1.2140 -1.1122
 2749SOL     OW19705   4.490   1.303   4.061  0.5169  0.3460 -0.2821
 2749SOL    HW119706   4.465   1.382   4.013 -0.7732 -0.3249 -0.7176
 2749SOL    HW219707   4.498   1.244   3.987 -0.4218  1.0798 -0.9653
 2750SOL     OW19708   2.830   2.587   2.931 -0.6043 -0.2916  0.0513
 2750SOL    HW119709   2.803   2.659   2.987  1.5987  1.3283 -0.9827
 2750SOL    HW219710   2.745   2.564   2.894  2.1881 -2.1775 -5.1901
 2751SOL     OW19711   4.346   0.185   6.691 -0.2892 -0.1499 -0.4734
 2751SOL    HW119712   4.371   0.201   6.782 -2.7986 -0.3301  0.2406
 2751SOL    HW219713   4.282   0.115   6.707 -1.0110  0.8326  0.8998
 2752SOL     OW19714   0.010   1.323   3.099  0.0375 -0.5603 -0.1822
 2752SOL    HW119715   4.637   1.322   3.089  0.0832 -0.1627 -0.6193
 2752SOL    HW219716   0.018   1.232   3.130 -1.7713 -0.3058  1.0881
 2753SOL     OW19717   4.132   0.001   6.291  0.1951 -0.3805  0.2476
 2753SOL    HW119718   4.037   0.010   6.304  0.2587 -1.1949  1.2797
 2753SOL    HW219719   4.147   4.631   6.310  0.5218  0.5987  5.0007
 2754SOL     OW19720   0.193   3.627   6.415 -0.1863 -0.0526  0.4489
 2754SOL    HW119721   0.179   3.583   6.499  1.0786  0.7599  1.0976
 2754SOL    HW219722   0.110   3.624   6.368 -1.9029  1.3791  3.3824
 2755SOL     OW19723   0.334   0.502   4.682  0.3584  0.7230 -0.0159
 2755SOL    HW119724   0.245   0.469   4.678  0.9610 -0.9963  0.6261
 2755SOL    HW219725   0.344   0.538   4.770 -0.8817 -0.1037  0.4578
 2756SOL     OW19726   3.891   4.616   0.050 -0.6564  0.0070  0.0603
 2756SOL    HW119727   3.851   4.665  17.670  1.3026  1.3729 -0.1164
 2756SOL    HW219728   3.898   4.531   0.008 -0.3389  0.0446  0.0391
 2757SOL     OW19729   4.575   0.418  15.373 -0.2657 -0.1437 -0.2172
 2757SOL    HW119730   4.512   0.355  15.338 -0.9020 -0.7509  1.9804
 2757SOL    HW219731   4.547   0.488  15.314 -0.2536 -0.7003 -0.8851
 2758SOL     OW19732   3.578   1.197  10.971 -0.0990 -0.0273  0.3085
 2758SOL    HW119733   3.580   1.103  10.989 -0.5844 -0.6053 -2.6784
 2758SOL    HW219734   3.569   1.192  10.876 -3.7822 -0.3766  0.6633
 2759SOL     OW19735   0.971   0.044   4.016  0.2600 -0.0419  0.3850
 2759SOL    HW119736   0.892   4.715   4.002  1.0943 -0.8627 -1.3862
 2759SOL    HW219737   1.035   4.707   3.976  0.0079 -1.1361  1.6185
 2760SOL     OW19738   1.730   4.668   7.650 -0.3014 -0.6347  0.4074
 2760SOL    HW119739   1.730   4.634   7.740 -0.7045 -0.1869  0.5741
 2760SOL    HW219740   1.791   0.019   7.660  1.1788 -1.8872  0.7499
 2761SOL     OW19741   2.201   0.098   7.730 -0.4105 -0.4989 -0.3880
 2761SOL    HW119742   2.238   0.062   7.810  1.8317 -0.1287 -1.2734
 2761SOL    HW219743   2.178   0.188   7.755  0.6314 -0.0515 -1.0839
 2762SOL     OW19744   1.345   2.281   0.022 -0.0463  0.3542 -0.1457
 2762SOL    HW119745   1.374   2.203   0.069  0.6328 -0.3762 -1.7597
 2762SOL    HW219746   1.406   2.284  17.640  0.4306 -0.9689  0.2087
 2763SOL     OW19747   0.308   3.392  15.482 -0.5166 -0.1054  0.2255
 2763SOL    HW119748   0.350   3.462  15.431 -2.2426  1.5448  1.0451
 2763SOL    HW219749   0.242   3.449  15.523 -1.1647  0.5182 -1.6668
 2764SOL     OW19750   3.446   3.253   1.345  0.4120  0.3113 -0.2184
 2764SOL    HW119751   3.411   3.302   1.420 -0.1483 -1.2621  0.5532
 2764SOL    HW219752   3.504   3.311   1.296  1.6216 -0.9946 -0.3212
 2765SOL     OW19753   3.496   0.950   4.683 -0.4046  0.4354  0.2676
 2765SOL    HW119754   3.514   0.869   4.635 -0.0830  1.1664 -0.8528
 2765SOL    HW219755   3.401   0.948   4.688 -0.3896 -0.3782  0.3027
 2766SOL     OW19756   0.071   4.517   3.066  0.3892 -0.7165 -0.4216
 2766SOL    HW119757   0.088   4.443   3.007 -3.3397 -0.8098 -1.3470
 2766SOL    HW219758   0.066   4.586   3.000 -0.0026 -1.0981 -0.7896
 2767SOL     OW19759   1.780   0.878   7.746  0.2947 -0.0206 -0.4020
 2767SOL    HW119760   1.869   0.843   7.757 -0.2153 -0.7631  1.3505
 2767SOL    HW219761   1.729   0.817   7.692  1.2380  2.3199 -3.9373
 2768SOL     OW19762   0.642   1.668  13.005  0.1160  0.5038 -0.2266
 2768SOL    HW119763   0.677   1.589  13.046 -1.3047 -0.3636 -0.7104
 2768SOL    HW219764   0.720   1.698  12.959 -0.1919 -0.6765 -1.5013
 2769SOL     OW19765   1.132   1.155   1.801  0.2598 -0.0768  0.3354
 2769SOL    HW119766   1.223   1.136   1.777 -0.4231 -2.2566 -0.5177
 2769SOL    HW219767   1.098   1.192   1.719  2.1257  0.7301 -0.0821
 2770SOL     OW19768   0.889   3.285  10.150  0.4513 -0.3821  0.9212
 2770SOL    HW119769   0.817   3.312  10.093  0.3767  1.1649  1.7409
 2770SOL    HW219770   0.853   3.204  10.185 -0.7981 -1.0740 -1.9826
 2771SOL     OW19771   1.216   3.624   2.243  0.6302  0.1012  0.7222
 2771SOL    HW119772   1.240   3.536   2.273  1.9406  0.7679  1.6304
 2771SOL    HW219773   1.170   3.660   2.319  0.4116 -0.3139  0.7906
 2772SOL     OW19774   0.403   3.837   4.480 -0.3343 -0.5528  0.0165
 2772SOL    HW119775   0.416   3.822   4.574  1.0150 -3.4627 -0.6258
 2772SOL    HW219776   0.417   3.750   4.443 -0.7396 -0.6169  0.0121
 2773SOL     OW19777   0.800   3.332   9.099  0.3576  0.1065  0.3186
 2773SOL    HW119778   0.754   3.290   9.172  0.2974 -0.5486 -0.0963
 2773SOL    HW219779   0.761   3.419   9.105 -1.1500 -0.4964 -0.5752
 2774SOL     OW19780   3.814   0.349   4.254 -0.0117 -0.2282  0.7287
 2774SOL    HW119781   3.753   0.420   4.234  1.2844  1.1617  1.6314
 2774SOL    HW219782   3.754   0.279   4.279  0.2050 -0.7515 -0.2460
 2775SOL     OW19783   0.242   1.774   5.189  0.4535 -0.1378  0.4406
 2775SOL    HW119784   0.282   1.698   5.147 -1.1263  0.5540 -2.2851
 2775SOL    HW219785   0.156   1.753   5.224  0.9542 -0.4904  1.4796
 2776SOL     OW19786   4.288   0.476   5.097  0.2653 -0.8521 -0.1843
 2776SOL    HW119787   4.283   0.385   5.125  0.1246 -0.7295  0.1808
 2776SOL    HW219788   4.254   0.461   5.008 -0.9760  1.0338 -0.0368
 2777SOL     OW19789   2.819   0.928   6.322 -0.0068 -1.0762 -0.3555
 2777SOL    HW119790   2.814   0.837   6.350 -1.5700 -0.3391  1.7805
 2777SOL    HW219791   2.729   0.955   6.305  0.6506  0.5389 -1.3215
 2778SOL     OW19792   0.652   2.751   6.304  0.3665  0.1074 -0.3854
 2778SOL    HW119793   0.641   2.801   6.385 -0.0575  2.5432 -1.9452
 2778SOL    HW219794   0.597   2.800   6.243  0.3693  0.5712 -0.0192
 2779SOL     OW19795   1.234   3.444  17.259  0.1936  0.3925  0.0113
 2779SOL    HW119796   1.319   3.487  17.257 -0.5619  1.9363  1.8187
 2779SOL    HW219797   1.260   3.368  17.311 -0.0096 -1.0272 -1.9723
 2780SOL     OW19798   1.637   2.839   4.326 -0.3830  0.4047 -0.4040
 2780SOL    HW119799   1.575   2.869   4.260 -1.5798  0.6122  0.7978
 2780SOL    HW219800   1.598   2.865   4.410  0.8077 -0.0481  0.2855
 2781SOL     OW19801   0.676   1.536  12.042  0.0867  0.0007  0.0104
 2781SOL    HW119802   0.723   1.615  12.070  0.4361 -0.6565  1.2800
 2781SOL    HW219803   0.745   1.486  12.000 -1.2871 -0.5886 -1.5300
 2782SOL     OW19804   1.218   0.344  10.217  0.1180  0.3977 -0.0132
 2782SOL    HW119805   1.199   0.383  10.132  1.1236 -1.4312 -1.0727
 2782SOL    HW219806   1.137   0.295  10.230 -0.0980  0.6191 -0.5210
 2783SOL     OW19807   3.455   4.427  17.210  0.0599 -0.0076  0.2373
 2783SOL    HW119808   3.363   4.422  17.237  0.0618 -1.1555  0.0541
 2783SOL    HW219809   3.503   4.433  17.292  0.2658  1.5551 -0.0101
 2784SOL     OW19810   4.556   1.302  12.197  0.4416 -0.0425 -0.3351
 2784SOL    HW119811   4.568   1.396  12.190 -1.9841  0.2735 -0.3311
 2784SOL    HW219812   4.595   1.289  12.283 -2.1233 -3.1037  0.3970
 2785SOL     OW19813   2.417   2.346   4.490 -0.2681  0.7157  0.4698
 2785SOL    HW119814   2.449   2.341   4.399  0.4158  0.6785  0.7097
 2785SOL    HW219815   2.331   2.377   4.464  0.4380  2.2649 -0.0063
 2786SOL     OW19816   3.062   2.413   9.258 -0.2275 -0.2566  0.5108
 2786SOL    HW119817   3.061   2.328   9.214 -2.9737 -1.1117  2.2170
 2786SOL    HW219818   3.153   2.442   9.267 -0.2942 -0.0159  0.3985
 2787SOL     OW19819   2.461   2.091   8.147 -0.2684 -0.3677 -0.2275
 2787SOL    HW119820   2.379   2.084   8.195  0.1919 -0.5554  0.5362
 2787SOL    HW219821   2.435   2.062   8.060 -1.8508 -0.7973  0.3978
 2788SOL     OW19822   2.210   3.983  12.721  0.3010 -0.6762 -0.3614
 2788SOL    HW119823   2.304   3.988  12.740  0.5111  1.6365 -1.9113
 2788SOL    HW219824   2.197   4.078  12.726 -3.6403 -1.2684  0.3071
 2789SOL     OW19825   1.456   1.464   2.591 -0.4412 -0.2535 -0.1413
 2789SOL    HW119826   1.479   1.459   2.684  0.5188  2.9791 -0.1953
 2789SOL    HW219827   1.365   1.437   2.582 -0.4241 -0.4482  0.2807
 2790SOL     OW19828   0.033   1.208   6.295  0.4829  0.1748  0.0715
 2790SOL    HW119829   4.701   1.278   6.331 -0.0474 -0.9104  1.3785
 2790SOL    HW219830   0.008   1.139   6.356  0.7173  0.5666  0.6108
 2791SOL     OW19831   4.004   2.488   8.015 -0.1341  0.4323 -0.4651
 2791SOL    HW119832   4.015   2.455   8.104  2.6877 -0.9895 -1.3358
 2791SOL    HW219833   3.913   2.467   7.994 -0.3714  1.0308 -0.0093
 2792SOL     OW19834   2.146   4.434   8.283  0.1360  0.3263  0.5209
 2792SOL    HW119835   2.051   4.427   8.271  0.1305 -1.3560  1.5328
 2792SOL    HW219836   2.173   4.437   8.191  1.1915 -1.8953  0.7545
 2793SOL     OW19837   1.653   2.200  17.420  0.2513 -0.0212  0.2652
 2793SOL    HW119838   1.680   2.286  17.453  0.5257 -0.5714  1.4806
 2793SOL    HW219839   1.664   2.151  17.501  1.2420 -0.6444 -0.2635
 2794SOL     OW19840   3.440   2.901   6.567 -0.4409  0.0113 -0.6596
 2794SOL    HW119841   3.515   2.955   6.591 -2.2029  2.1626  0.0413
 2794SOL    HW219842   3.371   2.967   6.575  1.2628  1.8260 -1.0923
 2795SOL     OW19843   1.153   1.580   1.275 -0.3185 -0.3662  0.0943
 2795SOL    HW119844   1.161   1.603   1.367  2.0295 -2.0640  0.3359
 2795SOL    HW219845   1.191   1.659   1.235 -0.8582 -0.8351 -1.3338
 2796SOL     OW19846   1.709   3.486   1.996  0.4850 -0.2565  0.4143
 2796SOL    HW119847   1.671   3.550   2.057  1.0247 -1.1337  1.6742
 2796SOL    HW219848   1.637   3.429   1.969 -0.5855  2.7910 -3.1486
 2797SOL     OW19849   1.939   0.588   2.777 -0.2128 -0.4966 -1.0202
 2797SOL    HW119850   1.880   0.662   2.791  2.6065  0.9963  2.7864
 2797SOL    HW219851   1.923   0.565   2.685 -0.1152 -0.5202 -1.0317
 2798SOL     OW19852   2.499   3.501  14.593 -0.5090  0.1312  0.7838
 2798SOL    HW119853   2.479   3.408  14.582 -0.6877  0.3622 -0.9530
 2798SOL    HW219854   2.412   3.538  14.607  0.4923  2.6206  0.5695
 2799SOL     OW19855   3.173   0.627   4.536  0.1337  0.4500 -0.1919
 2799SOL    HW119856   3.129   0.635   4.621 -0.8367 -4.5490 -0.2569
 2799SOL    HW219857   3.122   0.554   4.502 -1.2150  1.1443  0.3143
 2800SOL     OW19858   1.611   1.955   7.848  0.2075 -0.2265  0.1852
 2800SOL    HW119859   1.551   1.918   7.783 -2.9839  0.6282  2.6300
 2800SOL    HW219860   1.563   2.036   7.865 -0.1695 -0.5133  0.4721
 2801SOL     OW19861   3.222   2.470   4.710 -0.2193  0.8848  0.3537
 2801SOL    HW119862   3.317   2.465   4.713 -0.1472  0.7942 -2.0962
 2801SOL    HW219863   3.197   2.412   4.782 -1.1418  1.3367  0.3974
 2802SOL     OW19864   3.576   2.152   6.459  0.0918  0.0716 -0.1529
 2802SOL    HW119865   3.619   2.154   6.373  0.6731  0.8998  0.1506
 2802SOL    HW219866   3.597   2.235   6.502 -0.2068  1.3679 -2.4930
 2803SOL     OW19867   0.162   2.283   2.582  0.2548 -0.2117 -0.2351
 2803SOL    HW119868   0.256   2.303   2.590  0.3060 -1.0609  1.4068
 2803SOL    HW219869   0.134   2.284   2.674 -1.7328 -2.9827 -0.8111
 2804SOL     OW19870   0.066   2.855  10.888  0.0201 -0.5776  0.3164
 2804SOL    HW119871   0.142   2.912  10.894  0.3756 -0.6900 -2.8767
 2804SOL    HW219872   0.028   2.904  10.814 -1.2768  1.0000  2.0221
 2805SOL     OW19873   4.328   0.532   8.735  0.3798 -0.0625 -0.7562
 2805SOL    HW119874   4.373   0.597   8.790 -0.9733 -0.7927  1.1977
 2805SOL    HW219875   4.306   0.463   8.796  1.0736 -0.8693 -1.4119
 2806SOL     OW19876   1.911   0.085   0.126  0.3089 -0.6758 -0.2764
 2806SOL    HW119877   1.878   0.161   0.174  2.2701  0.2117 -0.3192
 2806SOL    HW219878   1.889   0.018   0.191  0.1324 -1.7642 -1.4623
 2807SOL     OW19879   2.723   3.813   6.875 -0.0223  0.1649 -0.3304
 2807SOL    HW119880   2.740   3.856   6.959  1.4613  2.1981 -1.6629
 2807SOL    HW219881   2.737   3.719   6.885  1.7593  0.3681 -0.8185
 2808SOL     OW19882   2.156   0.617  14.177 -0.6848 -0.6600 -0.7311
 2808SOL    HW119883   2.214   0.693  14.182 -0.7318 -0.6887  0.3340
 2808SOL    HW219884   2.103   0.637  14.101 -1.1020  1.8731  0.2308
 2809SOL     OW19885   2.420   2.022  14.498 -0.4571  0.1723 -0.6270
 2809SOL    HW119886   2.474   1.964  14.445 -1.2609 -0.2132 -1.0142
 2809SOL    HW219887   2.352   2.049  14.436 -1.7826  1.6969  1.4728
 2810SOL     OW19888   4.625   1.583   6.796  0.0553  0.2961 -0.2417
 2810SOL    HW119889   4.561   1.565   6.865 -0.4092 -0.2886 -0.8312
 2810SOL    HW219890   4.638   1.493   6.766  0.9456  0.2551  0.2562
 2811SOL     OW19891   1.510   1.960  10.896 -0.1215 -0.0754  0.2947
 2811SOL    HW119892   1.471   2.001  10.973  0.0319  0.4480  0.1005
 2811SOL    HW219893   1.583   2.020  10.882  0.3202 -0.4350  1.1445
 2812SOL     OW19894   2.358   1.302   3.431  0.1628  0.5330  0.1919
 2812SOL    HW119895   2.423   1.236   3.407  0.8623  0.9258  0.9845
 2812SOL    HW219896   2.394   1.377   3.383  0.9578 -1.0957 -1.7436
 2813SOL     OW19897   0.887   3.334   3.221  0.3592  0.0107 -0.2989
 2813SOL    HW119898   0.816   3.275   3.246 -0.1909 -0.2940 -2.5957
 2813SOL    HW219899   0.961   3.300   3.270 -1.7946 -1.2036  2.0939
 2814SOL     OW19900   2.808   1.982   9.480  0.3177 -0.0176  0.2533
 2814SOL    HW119901   2.900   1.962   9.467  0.1194 -1.6155  1.4049
 2814SOL    HW219902   2.771   1.897   9.502 -1.7050  1.1263  1.2613
 2815SOL     OW19903   4.680   0.628   0.676 -0.7235  0.5224 -0.1101
 2815SOL    HW119904   4.692   0.710   0.627 -0.6806  0.3603 -0.3722
 2815SOL    HW219905   4.622   0.588   0.611  0.5079 -1.1221 -0.1956
 2816SOL     OW19906   4.490   2.630   7.947  0.0250  0.1495  0.3645
 2816SOL    HW119907   4.444   2.712   7.966  0.7884  0.3812  1.2327
 2816SOL    HW219908   4.533   2.614   8.031  0.1978  0.2226  0.2915
 2817SOL     OW19909   0.460   3.647  10.968  0.5206  0.9878  0.5571
 2817SOL    HW119910   0.423   3.647  11.056 -2.2097 -1.0408 -0.6032
 2817SOL    HW219911   0.490   3.736  10.952 -1.6210  1.8680  1.4836
 2818SOL     OW19912   0.585   3.644  15.509  0.3102 -0.0547 -0.3689
 2818SOL    HW119913   0.547   3.625  15.424  1.4533  1.4790 -1.2348
 2818SOL    HW219914   0.653   3.577  15.515  0.7291  0.3780 -0.2539
 2819SOL     OW19915   1.092   4.648   6.057  0.0108 -0.6868  0.6581
 2819SOL    HW119916   1.019   4.610   6.008  0.5154  0.6381 -1.1215
 2819SOL    HW219917   1.132   4.565   6.084 -1.8801 -1.9269 -0.3409
 2820SOL     OW19918   2.712   3.957   3.324  0.3921  0.2698  0.2511
 2820SOL    HW119919   2.706   3.906   3.243  0.0334  2.1330 -0.8934
 2820SOL    HW219920   2.751   4.040   3.295  0.9869 -1.2499 -3.3184
 2821SOL     OW19921   4.675   3.620   3.004 -1.0022 -0.0052 -0.1721
 2821SOL    HW119922   4.657   3.542   2.951 -2.3112  1.3870 -1.8108
 2821SOL    HW219923   0.048   3.625   3.005 -1.0323  0.1825  1.4730
 2822SOL     OW19924   0.328   4.700   4.222  0.0488  0.0435  0.5365
 2822SOL    HW119925   0.320   4.610   4.254  0.8414 -0.3650 -0.4267
 2822SOL    HW219926   0.261   4.700   4.154  1.0640 -0.7769 -0.4683
 2823SOL     OW19927   0.441   2.531   5.086 -0.0482  0.3542 -0.1192
 2823SOL    HW119928   0.502   2.533   5.160 -1.6636 -2.2409  1.2733
 2823SOL    HW219929   0.465   2.447   5.046 -0.7835  0.0500  0.0729
 2824SOL     OW19930   4.332   0.123  14.387 -0.0621  0.1562  0.0221
 2824SOL    HW119931   4.352   0.209  14.425 -1.5003  0.2079  0.6621
 2824SOL    HW219932   4.288   0.086  14.463  0.6266 -2.5120 -0.9051
 2825SOL     OW19933   2.818   2.800   8.674 -0.1519 -0.0099  0.4590
 2825SOL    HW119934   2.888   2.737   8.693 -0.6376 -0.6495  0.1308
 2825SOL    HW219935   2.788   2.828   8.761 -0.4041 -0.3531  0.4813
 2826SOL     OW19936   1.703   4.404  12.271 -0.3768  0.3504  0.5281
 2826SOL    HW119937   1.750   4.347  12.210 -1.1617 -0.5993  0.8215
 2826SOL    HW219938   1.775   4.419  12.332  0.8219 -0.5905 -0.6560
 2827SOL     OW19939   3.083   2.625   2.816 -0.4042  0.0566  0.1867
 2827SOL    HW119940   2.996   2.643   2.853 -0.3893  1.1217 -0.2985
 2827SOL    HW219941   3.078   2.529   2.823  2.0318 -0.1578 -1.1528
 2828SOL     OW19942   1.994   1.909   7.156  0.3055  0.5275 -0.1695
 2828SOL    HW119943   1.996   1.856   7.236 -0.9891 -1.1356 -1.2414
 2828SOL    HW219944   1.903   1.930   7.137 -0.2036 -2.5321 -1.0854
 2829SOL     OW19945   1.665   2.534   6.220 -0.0606  0.2877 -0.2252
 2829SOL    HW119946   1.735   2.533   6.286 -1.3637  0.0523  1.1414
 2829SOL    HW219947   1.607   2.468   6.258 -0.1763 -0.3215 -1.4469
 2830SOL     OW19948   1.197   4.132   8.216 -0.2336 -0.1518 -0.4614
 2830SOL    HW119949   1.252   4.057   8.240  3.0610  3.5257  3.2526
 2830SOL    HW219950   1.138   4.137   8.291 -0.6020  0.5967 -0.7982
 2831SOL     OW19951   4.073   2.702   0.641 -0.2029  0.1461 -1.0589
 2831SOL    HW119952   4.126   2.626   0.665  0.1786  0.8485  0.3642
 2831SOL    HW219953   4.101   2.727   0.553  0.6086 -0.4799 -0.9822
 2832SOL     OW19954   4.243   2.016  13.555  0.1083 -0.2995  0.1782
 2832SOL    HW119955   4.227   2.036  13.648  0.8533 -1.6503  0.5926
 2832SOL    HW219956   4.278   2.098  13.520  1.4494 -1.6103 -1.5456
 2833SOL     OW19957   3.846   4.631   2.694 -0.1091 -0.2518 -0.3121
 2833SOL    HW119958   3.918   4.620   2.756  0.6999  1.3316 -0.9808
 2833SOL    HW219959   3.843   0.004   2.700  1.1506 -0.1633 -0.9609
 2834SOL     OW19960   0.683   0.356   8.636  0.5173 -0.2817  0.3003
 2834SOL    HW119961   0.653   0.315   8.554  0.5351  0.5171 -0.1069
 2834SOL    HW219962   0.710   0.283   8.691 -1.9528 -0.5400  1.1711
 2835SOL     OW19963   1.184   1.360   3.234  1.0046  0.3992  0.8129
 2835SOL    HW119964   1.192   1.386   3.326 -0.9372 -1.3633  1.4695
 2835SOL    HW219965   1.179   1.266   3.251  2.2898  0.1543 -0.2026
 2836SOL     OW19966   3.937   1.717   6.329  0.0969  0.4080  0.0235
 2836SOL    HW119967   3.955   1.632   6.368  1.9419  0.1468 -1.3874
 2836SOL    HW219968   3.872   1.697   6.261 -0.7712  0.1695  0.9248
 2837SOL     OW19969   0.462   0.456   6.950 -0.2364 -0.5263  0.5376
 2837SOL    HW119970   0.546   0.413   6.930 -0.3997 -0.3499 -0.5582
 2837SOL    HW219971   0.459   0.449   7.045 -1.4069  1.9234  0.6861
 2838SOL     OW19972   0.256   1.637   8.844  0.0365 -0.4019 -0.2511
 2838SOL    HW119973   0.180   1.585   8.869  1.0031 -1.2866  0.8518
 2838SOL    HW219974   0.305   1.581   8.783 -0.4537  1.7585 -2.6334
 2839SOL     OW19975   3.973   4.677   1.641  0.1222 -0.1601  0.5374
 2839SOL    HW119976   4.012   0.036   1.672 -1.9646  1.5505 -1.2915
 2839SOL    HW219977   3.931   4.650   1.723  0.7918 -2.0075  0.2783
 2840SOL     OW19978   2.931   0.404   6.844 -0.5296  0.3455  1.0674
 2840SOL    HW119979   2.950   0.433   6.933 -1.5641  0.9164  1.0951
 2840SOL    HW219980   2.948   0.483   6.793  2.5849 -0.7192  0.4564
 2841SOL     OW19981   2.166   0.687   6.707  0.1356 -0.0389 -0.1843
 2841SOL    HW119982   2.116   0.688   6.625  3.2200 -2.8862 -2.1025
 2841SOL    HW219983   2.164   0.593   6.724  0.8445 -0.7215 -3.7650
 2842SOL     OW19984   1.372   3.418   8.256 -0.3262 -0.0888 -0.0829
 2842SOL    HW119985   1.301   3.365   8.220  0.1397  0.2497 -1.4667
 2842SOL    HW219986   1.391   3.481   8.187  0.3487 -0.6434 -0.4122
 2843SOL     OW19987   0.577   2.055   1.522  0.1831  0.2600 -0.6524
 2843SOL    HW119988   0.532   1.979   1.487  0.2449  0.2662 -0.7457
 2843SOL    HW219989   0.524   2.131   1.498  0.1340  0.9072  1.4981
 2844SOL     OW19990   4.537   4.165   8.958 -0.2618 -0.0167  0.1136
 2844SOL    HW119991   4.560   4.095   9.019  1.2791  0.8533  0.5466
 2844SOL    HW219992   4.619   4.205   8.929 -0.5229 -1.0926 -2.1065
 2845SOL     OW19993   4.192   2.494  14.630 -0.3968  0.1392 -0.4230
 2845SOL    HW119994   4.164   2.554  14.560 -1.8463 -0.5719 -0.4535
 2845SOL    HW219995   4.113   2.439  14.629  3.0192 -4.7994  2.5457
 2846SOL     OW19996   2.082   0.319   7.851  0.1666  0.3303  0.9045
 2846SOL    HW119997   2.087   0.291   7.942 -0.6100 -0.4612  0.6936
 2846SOL    HW219998   2.079   0.415   7.860  2.4880  0.4634  0.2649
 2847SOL     OW19999   2.670   2.064   8.323  0.4254  0.2052  0.0694
 2847SOL    HW120000   2.620   2.063   8.241  3.1039 -0.6973 -1.5344
 2847SOL    HW220001   2.621   1.999   8.373  0.4090 -1.3376 -1.9629
 2848SOL     OW20002   3.114   4.567   3.613  0.6859  0.1284  0.6060
 2848SOL    HW120003   3.030   4.560   3.658  0.8904 -4.2567  0.2958
 2848SOL    HW220004   3.107   4.503   3.542 -2.1858 -0.9944  1.8997
 2849SOL     OW20005   4.444   4.424  11.233 -0.4322  0.0831 -0.3584
 2849SOL    HW120006   4.363   4.465  11.201 -0.8882  1.0177  2.0194
 2849SOL    HW220007   4.416   4.375  11.310 -0.9358  0.6269 -0.1934
 2850SOL     OW20008   3.757   1.754   8.776  0.0555  0.0947  0.2062
 2850SOL    HW120009   3.739   1.724   8.687 -1.7895 -2.5318  1.4778
 2850SOL    HW220010   3.848   1.782   8.764  0.2251  0.5929  2.7403
 2851SOL     OW20011   2.942   1.036  12.338 -0.2034 -0.4573 -0.3481
 2851SOL    HW120012   2.908   1.116  12.378  3.4905  0.9069  0.0612
 2851SOL    HW220013   3.024   1.019  12.385  0.3268 -0.2391 -1.1825
 2852SOL     OW20014   4.603   4.498  10.446  0.0908  0.0480  0.2503
 2852SOL    HW120015   4.612   4.551  10.366  0.1685 -2.2895 -1.2859
 2852SOL    HW220016   4.561   4.424  10.402  2.4617 -0.1826 -1.5991
 2853SOL     OW20017   0.227   1.097  12.495 -0.8428  0.3035 -0.5703
 2853SOL    HW120018   0.237   1.167  12.430  0.1956  1.7344  1.1450
 2853SOL    HW220019   0.171   1.141  12.558 -0.9716  1.1012 -1.2392
 2854SOL     OW20020   4.502   2.291   7.321  0.3050  0.1138 -0.3376
 2854SOL    HW120021   4.564   2.361   7.304  0.0652  0.7056  1.2237
 2854SOL    HW220022   4.543   2.205   7.331  1.0822  0.6832  1.3690
 2855SOL     OW20023   0.923   0.962   9.119  0.6446 -0.4058 -0.5241
 2855SOL    HW120024   0.880   0.913   9.049 -3.0468  0.4267  1.1605
 2855SOL    HW220025   0.887   1.050   9.107  2.2580  0.5166  1.3354
 2856SOL     OW20026   3.738   3.510   5.350 -0.4198 -0.4211  0.0361
 2856SOL    HW120027   3.818   3.523   5.402  0.7432  0.9495 -2.1237
 2856SOL    HW220028   3.666   3.535   5.408 -1.7248 -1.9509 -0.9344
 2857SOL     OW20029   3.147   4.669   3.122 -0.1280  0.3891  0.2794
 2857SOL    HW120030   3.133   0.002   3.198 -0.7856  1.0297 -0.3042
 2857SOL    HW220031   3.059   4.631   3.114 -0.0536  0.6056 -1.7042
 2858SOL     OW20032   2.699   0.798   8.359 -0.1250  0.7900 -0.0484
 2858SOL    HW120033   2.742   0.722   8.397 -1.1988  0.2247  0.0491
 2858SOL    HW220034   2.629   0.745   8.320  0.3590 -0.4722  0.8206
 2859SOL     OW20035   3.836   0.129   1.888  0.0153 -0.2216 -0.4080
 2859SOL    HW120036   3.756   0.149   1.840 -0.1058 -0.5963 -0.3608
 2859SOL    HW220037   3.904   0.166   1.832 -0.9031  1.5948 -0.3356
 2860SOL     OW20038   0.513   3.742   6.567 -0.1344 -0.1420 -0.0839
 2860SOL    HW120039   0.426   3.776   6.588  0.8617  0.4665  3.0118
 2860SOL    HW220040   0.496   3.653   6.536 -1.8365  0.8009 -1.8848
 2861SOL     OW20041   3.405   2.059   5.148  0.5627  0.7570 -0.1641
 2861SOL    HW120042   3.372   1.991   5.089 -0.7152  1.9561 -0.8236
 2861SOL    HW220043   3.327   2.079   5.200  2.1348  3.3211  1.1809
 2862SOL     OW20044   3.454   3.427   6.812  0.0408 -0.0456  0.0938
 2862SOL    HW120045   3.407   3.473   6.742  0.0470  0.2162  0.2627
 2862SOL    HW220046   3.517   3.491   6.846  0.4218  1.1316 -2.8420
 2863SOL     OW20047   3.890   2.544   5.057  0.3363 -0.1904  0.4779
 2863SOL    HW120048   3.927   2.583   5.137 -0.1642  2.1900 -0.4479
 2863SOL    HW220049   3.906   2.452   5.080  0.6929 -0.1944  0.2283
 2864SOL     OW20050   1.374   0.336   6.870  0.0585  0.0602  0.2600
 2864SOL    HW120051   1.443   0.399   6.887  1.8521 -1.7880 -0.1708
 2864SOL    HW220052   1.427   0.257   6.862 -0.8978 -0.5343 -0.2866
 2865SOL     OW20053   0.444   0.572  13.062 -0.1070 -0.0868 -0.1646
 2865SOL    HW120054   0.460   0.526  12.980 -0.7852  3.1011 -2.0862
 2865SOL    HW220055   0.538   0.574  13.081  0.3275 -0.5084 -2.3131
 2866SOL     OW20056   1.549   0.608   0.669  0.1053  0.5405  0.1878
 2866SOL    HW120057   1.571   0.694   0.634 -0.7958  0.3762 -0.7867
 2866SOL    HW220058   1.585   0.625   0.755  0.5922 -0.9210  0.2792
 2867SOL     OW20059   0.086   0.379   6.430  0.2211 -0.1965  0.3036
 2867SOL    HW120060   0.096   0.309   6.494  2.5554 -0.4248 -0.3170
 2867SOL    HW220061   0.004   0.348   6.390  0.0546 -1.9551  2.0113
 2868SOL     OW20062   2.723   1.900   1.923 -0.2001  0.2512  0.0245
 2868SOL    HW120063   2.787   1.874   1.989 -1.2284  0.2348  1.0086
 2868SOL    HW220064   2.787   1.901   1.852 -0.3827 -0.0613 -0.1482
 2869SOL     OW20065   1.017   1.944   8.324 -0.4692  0.4100 -0.2272
 2869SOL    HW120066   1.096   1.997   8.333  1.4360 -2.2860 -0.9634
 2869SOL    HW220067   0.961   1.999   8.270 -1.5966 -0.7502 -0.2417
 2870SOL     OW20068   0.479   3.944  11.681 -0.7145  0.5079 -0.3678
 2870SOL    HW120069   0.427   4.002  11.625 -0.7084 -1.2167 -2.1659
 2870SOL    HW220070   0.569   3.970  11.659 -1.0399  2.8170  1.0296
 2871SOL     OW20071   4.259   4.544   3.458 -0.5757  0.7944  0.1380
 2871SOL    HW120072   4.198   4.540   3.531 -0.8845  1.6040 -0.0844
 2871SOL    HW220073   4.342   4.519   3.500 -0.5905 -0.0244 -0.3175
 2872SOL     OW20074   2.496   0.136  15.313  0.1400  0.2200 -0.4355
 2872SOL    HW120075   2.582   0.092  15.318 -0.1874 -0.3084  0.5295
 2872SOL    HW220076   2.444   0.055  15.309 -0.1919  0.4069  0.2022
 2873SOL     OW20077   1.951   0.954  12.300  0.2210  0.1631 -0.1034
 2873SOL    HW120078   2.018   0.886  12.308 -0.1759 -0.4234 -1.8895
 2873SOL    HW220079   1.942   0.986  12.390  1.4764 -1.3336  0.5521
 2874SOL     OW20080   1.838   3.374  12.775 -0.1133 -0.2932 -0.4922
 2874SOL    HW120081   1.783   3.400  12.850 -1.1842  1.4024 -1.8674
 2874SOL    HW220082   1.778   3.408  12.709  0.3513 -1.9387 -1.7353
 2875SOL     OW20083   2.477   1.422   4.950  0.6835  0.2253 -1.0838
 2875SOL    HW120084   2.433   1.405   4.866  2.4802 -2.1561 -1.5381
 2875SOL    HW220085   2.429   1.501   4.972 -0.3690 -1.0939  1.3262
 2876SOL     OW20086   0.523   4.455  11.996  0.7466  0.7964 -0.0885
 2876SOL    HW120087   0.611   4.491  11.990  0.9034  0.7498  1.8396
 2876SOL    HW220088   0.475   4.524  12.042  0.1715 -0.1932  0.8099
 2877SOL     OW20089   2.210   2.238  17.507  0.4224  0.0549  0.4141
 2877SOL    HW120090   2.260   2.163  17.540 -1.3495 -0.8465  1.0637
 2877SOL    HW220091   2.124   2.198  17.522  0.3822 -0.7924 -2.0556
 2878SOL     OW20092   3.439   1.397  16.148 -0.0810  0.0524  0.3939
 2878SOL    HW120093   3.505   1.362  16.089  0.8925 -2.7513  3.2112
 2878SOL    HW220094   3.476   1.384  16.235  1.5273  1.1865 -0.1112
 2879SOL     OW20095   1.302   2.594  14.832  0.5306 -0.2562 -0.1341
 2879SOL    HW120096   1.326   2.615  14.922  1.0327  2.2934 -0.8730
 2879SOL    HW220097   1.218   2.639  14.825  0.2866 -0.5172  1.0305
 2880SOL     OW20098   4.314   0.198   5.626  0.1507 -0.1574 -0.1262
 2880SOL    HW120099   4.354   0.281   5.649 -1.4619  0.5260  0.2192
 2880SOL    HW220100   4.378   0.130   5.648 -1.0322 -0.8672  1.1978
 2881SOL     OW20101   1.773   2.604  14.095 -0.0687 -0.2003  0.2346
 2881SOL    HW120102   1.795   2.541  14.027 -0.3677 -1.1219  0.9938
 2881SOL    HW220103   1.846   2.665  14.084  1.6146 -2.2626  0.0297
 2882SOL     OW20104   4.143   0.069   4.440  0.3692  0.0737 -0.0363
 2882SOL    HW120105   4.236   0.047   4.441  0.6195  1.0693 -1.3141
 2882SOL    HW220106   4.118   0.044   4.351 -2.0448  0.1575  0.6314
 2883SOL     OW20107   4.651   1.110  16.605 -0.7870 -0.0895 -1.0259
 2883SOL    HW120108   4.716   1.077  16.542 -0.3173  1.2934 -1.2645
 2883SOL    HW220109   4.581   1.105  16.540 -1.4809 -1.8100 -0.1507
 2884SOL     OW20110   1.389   4.693   4.010 -0.2688  0.0434 -0.5685
 2884SOL    HW120111   1.350   0.035   3.952 -0.5244  0.0861 -0.3509
 2884SOL    HW220112   1.466   4.663   3.962 -0.5620  2.3761 -2.4788
 2885SOL     OW20113   2.142   3.209   4.675  0.1152  0.0259 -0.1881
 2885SOL    HW120114   2.138   3.117   4.701 -1.9701 -0.2035 -1.3257
 2885SOL    HW220115   2.133   3.194   4.581 -0.6923 -0.4949 -0.0337
 2886SOL     OW20116   0.906   0.224   3.435 -0.4019  0.0393  0.6990
 2886SOL    HW120117   0.980   0.272   3.470  0.7401  0.5550 -2.4404
 2886SOL    HW220118   0.925   0.131   3.445  1.9777  0.4177 -0.2718
 2887SOL     OW20119   2.533   1.762   7.854  0.1817 -0.3943 -0.2276
 2887SOL    HW120120   2.536   1.677   7.897 -1.0832 -0.1050  0.4196
 2887SOL    HW220121   2.461   1.800   7.905 -0.7185 -1.7255 -0.5168
 2888SOL     OW20122   0.934   4.412   9.308  0.2850  0.6678 -0.0087
 2888SOL    HW120123   1.030   4.415   9.315  0.5757 -1.2806 -2.8034
 2888SOL    HW220124   0.909   4.496   9.346 -1.0567  0.5317 -0.5816
 2889SOL     OW20125   0.855   0.811   9.778  0.0136  0.6960  1.2278
 2889SOL    HW120126   0.906   0.765   9.712 -0.4353  0.1005  1.2930
 2889SOL    HW220127   0.775   0.760   9.769 -0.7513  1.5888  2.8273
 2890SOL     OW20128   1.275   1.220   5.007 -0.4271  0.5442  0.3774
 2890SOL    HW120129   1.306   1.294   4.955  1.4161 -0.2367  0.3454
 2890SOL    HW220130   1.244   1.163   4.937  0.7831 -0.7246  0.8851
 2891SOL     OW20131   4.162   2.118  17.330  0.7373  0.1090 -0.1813
 2891SOL    HW120132   4.106   2.041  17.344  0.7079  0.2916  0.7117
 2891SOL    HW220133   4.151   2.141  17.238 -2.5221  1.4412  0.5207
 2892SOL     OW20134   0.934   0.739  12.948 -0.1993 -0.1239 -0.2557
 2892SOL    HW120135   0.991   0.742  13.025 -0.3200  2.0620 -0.2445
 2892SOL    HW220136   0.881   0.817  12.963  0.2090  0.8004 -3.8356
 2893SOL     OW20137   4.247   0.532   8.426 -0.2060 -0.0216  0.1533
 2893SOL    HW120138   4.210   0.587   8.495  1.3437  2.7195 -1.1828
 2893SOL    HW220139   4.163   0.507   8.388  1.3233  0.1136 -3.3656
 2894SOL     OW20140   2.187   0.204   5.765 -0.5264 -0.2040 -0.2523
 2894SOL    HW120141   2.179   0.111   5.787  1.1036 -0.4853 -0.8349
 2894SOL    HW220142   2.177   0.208   5.670 -0.9423  1.8767 -0.1165
 2895SOL     OW20143   4.656   3.498  16.856  0.4749 -0.0298  0.2925
 2895SOL    HW120144   4.562   3.513  16.866  0.1438 -1.5663 -0.4280
 2895SOL    HW220145   4.671   3.563  16.788 -1.4257  2.0056  1.8344
 2896SOL     OW20146   3.722   0.879   2.741 -0.7248 -0.2078  0.1290
 2896SOL    HW120147   3.686   0.851   2.656 -1.8211  2.5786 -0.3299
 2896SOL    HW220148   3.669   0.847   2.813 -1.5655  3.0202  0.9287
 2897SOL     OW20149   2.739   0.510   7.478 -0.5406  0.3587 -0.3085
 2897SOL    HW120150   2.805   0.565   7.437  0.4034  0.1161  0.8767
 2897SOL    HW220151   2.772   0.509   7.568  1.1368  1.2571 -0.9149
 2898SOL     OW20152   2.264   1.402   2.681 -0.4644  0.1770  0.1941
 2898SOL    HW120153   2.314   1.320   2.673  1.0578  0.9595  1.6997
 2898SOL    HW220154   2.170   1.383   2.680 -0.2793 -0.9053  2.1399
 2899SOL     OW20155   3.299   2.363   6.577 -0.2151 -0.2208  0.7569
 2899SOL    HW120156   3.344   2.279   6.567 -0.6053 -0.3040 -0.3276
 2899SOL    HW220157   3.251   2.343   6.657 -0.8505  0.9984  0.6827
 2900SOL     OW20158   2.798   2.288   2.437 -0.0804 -0.5029 -0.1537
 2900SOL    HW120159   2.810   2.303   2.343 -0.0086  1.1951  0.1192
 2900SOL    HW220160   2.866   2.226   2.463  0.3396 -0.0237 -0.0981
 2901SOL     OW20161   3.278   4.148  14.537 -0.4349  0.3001  0.3179
 2901SOL    HW120162   3.338   4.117  14.604  0.6972  0.0868 -0.8014
 2901SOL    HW220163   3.293   4.242  14.547  2.3436 -0.0438 -0.8861
 2902SOL     OW20164   1.566   4.641   3.816 -0.6761  0.2759  0.5001
 2902SOL    HW120165   1.532   4.719   3.773 -1.3184 -0.4086 -0.2324
 2902SOL    HW220166   1.659   4.661   3.809 -1.1403  1.2202 -3.2112
 2903SOL     OW20167   3.170   2.647   6.735  0.3314  0.2088 -0.2451
 2903SOL    HW120168   3.099   2.601   6.689  0.4454  1.1475 -1.3504
 2903SOL    HW220169   3.124   2.730   6.749 -3.1980 -1.9408  0.8980
 2904SOL     OW20170   3.456   1.476  16.414  0.0927 -0.4585 -0.2436
 2904SOL    HW120171   3.393   1.500  16.347  0.9667 -0.4557 -1.0704
 2904SOL    HW220172   3.406   1.434  16.484 -1.3098  0.0506 -0.9358
 2905SOL     OW20173   2.136   4.205   4.033  0.1285  0.0127  0.2112
 2905SOL    HW120174   2.214   4.257   4.014  0.4139  0.1066  1.6495
 2905SOL    HW220175   2.108   4.233   4.120  0.7738  1.3485 -0.0073
 2906SOL     OW20176   2.076   0.114   2.839  0.4845 -0.1586  0.4364
 2906SOL    HW120177   2.046   0.160   2.760  0.4073  0.4014  0.7917
 2906SOL    HW220178   2.120   0.038   2.800 -1.2259 -0.1250 -1.5933
 2907SOL     OW20179   1.500   0.791   4.406 -0.1064  0.3427  0.3025
 2907SOL    HW120180   1.430   0.790   4.342 -0.9056  3.7279  1.1562
 2907SOL    HW220181   1.454   0.815   4.486 -0.7489 -1.5943  0.5186
 2908SOL     OW20182   0.963   0.166  15.719 -0.0091  0.0371  0.1768
 2908SOL    HW120183   0.905   0.148  15.645 -0.8565  4.2273 -0.2085
 2908SOL    HW220184   0.968   0.082  15.763  0.4163 -0.4377 -0.7686
 2909SOL     OW20185   3.824   3.023  12.203  0.0475  0.3553  0.1232
 2909SOL    HW120186   3.843   3.084  12.131  1.9608 -2.2783 -1.5833
 2909SOL    HW220187   3.897   2.966  12.181 -1.0457 -0.7169 -0.7125
 2910SOL     OW20188   2.932   1.980   7.787  0.2525 -0.1472  0.3054
 2910SOL    HW120189   2.858   1.923   7.764  0.6594 -1.3899  2.1147
 2910SOL    HW220190   2.932   2.042   7.714  1.4676 -2.9514 -2.0628
 2911SOL     OW20191   1.082   2.320   8.671 -0.1620  0.1877 -0.0279
 2911SOL    HW120192   1.063   2.412   8.688 -1.0509  0.3045 -1.6845
 2911SOL    HW220193   1.166   2.304   8.716 -0.5344 -1.1012  0.2185
 2912SOL     OW20194   4.126   3.870   1.048 -0.0845 -0.2029  0.2050
 2912SOL    HW120195   4.150   3.848   0.958 -1.7132 -0.6590 -0.1191
 2912SOL    HW220196   4.215   3.885   1.081 -0.6007 -0.3834  1.7006
 2913SOL     OW20197   0.568   4.092  10.741  0.2086  0.3397 -0.1472
 2913SOL    HW120198   0.645   4.063  10.693  1.2613  1.4685  0.8723
 2913SOL    HW220199   0.605   4.106  10.828  0.9454 -0.0929 -0.3935
 2914SOL     OW20200   0.199   3.928   5.905  0.0325 -0.2966  0.6456
 2914SOL    HW120201   0.204   3.841   5.944 -1.6039  0.2223  2.0684
 2914SOL    HW220202   0.236   3.980   5.977 -0.7422  0.9698  0.1467
 2915SOL     OW20203   0.419   0.471   5.339 -0.2534  0.9744  0.1720
 2915SOL    HW120204   0.492   0.534   5.342 -0.4675  1.0608  3.5145
 2915SOL    HW220205   0.434   0.402   5.403  0.6988  0.7295 -0.3094
 2916SOL     OW20206   1.009   2.369   5.232 -0.3495  0.1098  0.0627
 2916SOL    HW120207   1.069   2.397   5.162  1.7143 -1.7472  1.1081
 2916SOL    HW220208   1.061   2.349   5.310 -0.7073 -1.7572 -0.1825
 2917SOL     OW20209   0.929   0.969  10.566  0.1147 -0.0499 -0.0637
 2917SOL    HW120210   0.903   1.043  10.510  1.0138 -0.8203 -1.4971
 2917SOL    HW220211   0.850   0.963  10.619 -0.2922  1.8105 -0.4351
 2918SOL     OW20212   2.433   0.214   9.169 -0.1687 -0.2716  0.5205
 2918SOL    HW120213   2.471   0.209   9.256 -1.5167 -2.4729  0.9689
 2918SOL    HW220214   2.507   0.197   9.111 -0.2770  1.2065 -0.0662
 2919SOL     OW20215   0.558   1.725  16.422  0.2441  0.2222  0.0300
 2919SOL    HW120216   0.639   1.680  16.399 -0.8130 -2.0249  0.7686
 2919SOL    HW220217   0.543   1.778  16.343 -0.8603  2.7289  1.9269
 2920SOL     OW20218   0.770   0.230   9.081  0.5425  0.3117 -0.0680
 2920SOL    HW120219   0.830   0.186   9.141  2.1787 -1.9946 -3.3404
 2920SOL    HW220220   0.775   0.322   9.106  0.1853  0.0780  0.8618
 2921SOL     OW20221   2.182   2.740  13.892  0.3645  0.2554 -0.1476
 2921SOL    HW120222   2.260   2.684  13.893 -0.0180 -0.2221  1.7820
 2921SOL    HW220223   2.228   2.824  13.890  0.4892  0.2296  2.4193
 2922SOL     OW20224   2.484   0.187   3.838 -0.3528 -0.4613  0.2809
 2922SOL    HW120225   2.526   0.253   3.784 -0.5139 -0.0358  0.6806
 2922SOL    HW220226   2.491   0.115   3.775  1.3593 -0.1247  0.0695
 2923SOL     OW20227   0.735   0.233   7.742  0.0703  0.3841 -0.0385
 2923SOL    HW120228   0.768   0.309   7.694 -0.3140  0.7665  0.3060
 2923SOL    HW220229   0.699   0.281   7.816 -1.0863 -0.2661 -0.1851
 2924SOL     OW20230   1.209   4.448   5.736 -0.8609 -0.7151 -0.5314
 2924SOL    HW120231   1.158   4.513   5.687  0.5578 -0.7315 -2.0293
 2924SOL    HW220232   1.251   4.407   5.660 -0.0393 -0.3002 -0.2960
 2925SOL     OW20233   4.196   1.614  11.321 -0.0983  0.2209  0.2060
 2925SOL    HW120234   4.117   1.559  11.317  0.6127 -0.9006  1.4852
 2925SOL    HW220235   4.181   1.682  11.256 -0.6177 -1.5717 -1.5553
 2926SOL     OW20236   4.406   3.915   4.216 -0.5068 -0.2034 -0.5922
 2926SOL    HW120237   4.311   3.906   4.212 -0.5860  0.2457  0.1928
 2926SOL    HW220238   4.423   3.915   4.310 -0.5306  1.2879 -0.5859
 2927SOL     OW20239   3.317   2.733   7.478  0.0736  0.2557  0.0056
 2927SOL    HW120240   3.346   2.740   7.387  1.3461 -3.1565  0.1587
 2927SOL    HW220241   3.345   2.818   7.513  0.8730 -0.5849  1.3696
 2928SOL     OW20242   3.697   3.959  16.917  0.2422  0.5456 -0.5170
 2928SOL    HW120243   3.677   3.914  16.835 -1.0607 -0.2730  0.2687
 2928SOL    HW220244   3.768   3.912  16.962  0.4050  0.2554 -1.0790
 2929SOL     OW20245   0.082   0.981   4.694 -0.0731  0.8038 -0.0586
 2929SOL    HW120246   0.027   1.032   4.635  2.4715  1.5049 -1.7942
 2929SOL    HW220247   0.038   0.999   4.778 -0.9686  1.0479 -0.5859
 2930SOL     OW20248   0.649   4.154   8.551  0.2063  0.3044 -0.2208
 2930SOL    HW120249   0.594   4.214   8.501 -1.2822 -1.1789 -0.3883
 2930SOL    HW220250   0.733   4.200   8.559  0.0201  0.7705 -0.9592
 2931SOL     OW20251   2.377   0.743   4.216 -0.5194  0.6243  0.4464
 2931SOL    HW120252   2.314   0.809   4.186 -1.5624 -0.1487  0.9177
 2931SOL    HW220253   2.334   0.707   4.293 -0.8166 -1.3195 -0.6176
 2932SOL     OW20254   3.250   0.341   9.597 -0.2145  0.0031  0.5734
 2932SOL    HW120255   3.253   0.245   9.598 -0.1743 -0.0036 -0.2006
 2932SOL    HW220256   3.289   0.367   9.514 -0.3230  0.2070  0.5874
 2933SOL     OW20257   3.627   0.870   6.497  0.1136 -0.2751 -0.7845
 2933SOL    HW120258   3.705   0.823   6.527  0.4217  1.7868  1.6782
 2933SOL    HW220259   3.659   0.946   6.447  1.7019 -0.3883  0.0715
 2934SOL     OW20260   1.667   2.433   2.514 -0.1655 -0.6714 -0.0445
 2934SOL    HW120261   1.625   2.376   2.450  1.9625 -2.7003  0.3548
 2934SOL    HW220262   1.677   2.506   2.454  0.0531 -1.4941 -1.0091
 2935SOL     OW20263   2.283   0.557   5.428  0.4806 -0.1079 -0.3751
 2935SOL    HW120264   2.222   0.570   5.356  0.5375  2.1352 -0.0202
 2935SOL    HW220265   2.284   0.462   5.435  2.6443  0.0442  1.2959
 2936SOL     OW20266   1.620   1.158   6.111 -0.2293 -0.3503 -0.7677
 2936SOL    HW120267   1.543   1.215   6.117  1.2180  1.6320 -1.0962
 2936SOL    HW220268   1.665   1.206   6.180 -0.5215 -0.5095 -0.4681
 2937SOL     OW20269   0.545   2.051  16.630 -0.1131 -0.3159  0.0230
 2937SOL    HW120270   0.450   2.055  16.620 -0.1468  0.1867  0.5305
 2937SOL    HW220271   0.546   2.127  16.688  1.9375 -0.9076  0.7743
 2938SOL     OW20272   2.712   1.354   3.317  0.4025 -0.4440 -1.0656
 2938SOL    HW120273   2.660   1.330   3.240 -0.7683  0.6109 -0.5923
 2938SOL    HW220274   2.733   1.266   3.349  1.6655  0.3214  0.1896
 2939SOL     OW20275   0.284   0.374   2.242  0.2717 -0.2693 -0.0236
 2939SOL    HW120276   0.331   0.327   2.310 -0.1653  0.3590  0.7158
 2939SOL    HW220277   0.223   0.304   2.216 -1.1118  1.0175 -0.3025
 2940SOL     OW20278   4.673   2.165   3.218  0.0193 -0.1052 -0.0062
 2940SOL    HW120279   4.688   2.078   3.255 -2.7357 -0.7250 -0.3455
 2940SOL    HW220280   4.623   2.148   3.138 -0.6851  0.4440  0.3183
 2941SOL     OW20281   1.256   2.250   2.743 -0.0426  0.1957 -0.4628
 2941SOL    HW120282   1.236   2.233   2.651 -0.6145 -2.3470  0.1254
 2941SOL    HW220283   1.205   2.330   2.758 -0.8658 -0.9087  2.5057
 2942SOL     OW20284   3.572   4.628  15.266  0.0272 -0.0697 -0.5645
 2942SOL    HW120285   3.652   4.576  15.255  0.8111  1.1457 -0.6500
 2942SOL    HW220286   3.591   4.674  15.348  0.5453 -0.1809 -0.6205
 2943SOL     OW20287   0.276   0.900   1.676  0.3742 -0.1057  0.1142
 2943SOL    HW120288   0.235   0.833   1.621  1.7934  1.5127 -2.8589
 2943SOL    HW220289   0.312   0.840   1.741  1.1730  1.8466  1.4776
 2944SOL     OW20290   1.257   2.310   4.236 -0.4426  0.1355 -0.0618
 2944SOL    HW120291   1.249   2.396   4.278 -1.0392  0.0294  0.0439
 2944SOL    HW220292   1.182   2.274   4.285 -0.7230  0.1157 -0.5048
 2945SOL     OW20293   4.172   4.414   7.486  0.0404  0.4620  0.7277
 2945SOL    HW120294   4.221   4.349   7.537  0.1172 -0.5275 -0.5915
 2945SOL    HW220295   4.138   4.470   7.556 -0.0927 -1.0730  1.8988
 2946SOL     OW20296   3.409   0.190   6.029  0.2149 -0.3911  0.1884
 2946SOL    HW120297   3.365   0.240   5.960 -0.3336 -0.1680  0.7051
 2946SOL    HW220298   3.434   0.267   6.080  0.4848 -0.7978  0.6669
 2947SOL     OW20299   1.383   1.145   8.842 -0.3056  0.1624  0.0524
 2947SOL    HW120300   1.338   1.080   8.897 -0.2788  0.3998  0.3557
 2947SOL    HW220301   1.471   1.141   8.879 -1.3701 -2.3702  2.3493
 2948SOL     OW20302   4.474   2.075   5.056  0.3978 -0.3641 -0.3270
 2948SOL    HW120303   4.520   2.122   5.126 -1.8633  1.0934  0.1780
 2948SOL    HW220304   4.470   2.148   4.995  0.3059 -0.3701 -0.3271
 2949SOL     OW20305   1.246   3.122   7.851  0.2331 -0.5383  0.8735
 2949SOL    HW120306   1.206   3.038   7.829 -0.2505 -0.3117  0.8621
 2949SOL    HW220307   1.273   3.146   7.762 -2.7969 -0.6854 -0.1063
 2950SOL     OW20308   1.189   4.037   5.963 -0.2697 -0.0381  0.5725
 2950SOL    HW120309   1.201   4.055   6.056 -0.4806  1.9868  0.2035
 2950SOL    HW220310   1.196   3.942   5.968  1.8179  0.1368  0.7565
 2951SOL     OW20311   3.997   3.906  17.340  0.5643 -0.4195  0.1036
 2951SOL    HW120312   4.054   3.945  17.274 -2.0627  2.2038 -0.5862
 2951SOL    HW220313   4.040   3.824  17.363 -2.3359 -1.1713  2.8555
 2952SOL     OW20314   2.960   0.105   6.091 -0.1875 -0.0799 -0.1782
 2952SOL    HW120315   2.977   0.070   6.179 -0.9245 -1.2202 -0.4850
 2952SOL    HW220316   2.962   0.025   6.038  0.9632  0.1380 -0.4636
 2953SOL     OW20317   4.078   0.874   3.107 -0.4875 -0.3434  0.2696
 2953SOL    HW120318   4.041   0.792   3.076 -2.0355  0.2266  0.6488
 2953SOL    HW220319   4.002   0.932   3.102 -1.1608 -1.3613 -1.3946
 2954SOL     OW20320   2.703   0.190   3.462  0.0151 -0.3972  0.5137
 2954SOL    HW120321   2.674   0.274   3.428  0.9417 -0.5383 -0.6327
 2954SOL    HW220322   2.798   0.192   3.451  0.1673 -4.1392  1.1343
 2955SOL     OW20323   1.919   2.938   4.259  0.1801 -0.1078 -0.2478
 2955SOL    HW120324   1.980   2.874   4.295  0.5848  0.3475 -0.1135
 2955SOL    HW220325   1.834   2.899   4.276  0.2981 -1.2612 -2.1871
 2956SOL     OW20326   0.753   1.217  11.387  0.4184 -0.6632 -0.1460
 2956SOL    HW120327   0.792   1.263  11.313 -1.7169 -0.6830 -1.2778
 2956SOL    HW220328   0.834   1.187  11.429  0.2005  0.3665  1.0260
 2957SOL     OW20329   1.785   4.159   6.443  0.1503 -0.3558 -0.4632
 2957SOL    HW120330   1.734   4.229   6.402  0.2986 -0.4093 -0.7409
 2957SOL    HW220331   1.721   4.090   6.462  1.9058 -1.8598 -0.0605
 2958SOL     OW20332   1.339   1.715  16.566  0.2368  0.4602  0.1186
 2958SOL    HW120333   1.280   1.791  16.561 -2.3139 -1.5114  0.5037
 2958SOL    HW220334   1.424   1.759  16.565  0.9147 -0.8501 -0.6394
 2959SOL     OW20335   0.285   0.785  13.123  0.2791  0.6208  0.0380
 2959SOL    HW120336   0.286   0.747  13.211  0.3082 -0.3371 -0.3819
 2959SOL    HW220337   0.338   0.723  13.073  0.6781  1.2206 -0.2914
 2960SOL     OW20338   0.272   2.100   1.420 -0.6172  0.1378 -0.8017
 2960SOL    HW120339   0.245   2.180   1.466 -0.5369  0.4582 -1.3087
 2960SOL    HW220340   0.232   2.127   1.337 -1.6548  1.3157  0.0735
 2961SOL     OW20341   1.998   3.687   6.795 -0.2389 -0.4733 -0.2107
 2961SOL    HW120342   1.916   3.725   6.826  0.6122  0.4978  0.8639
 2961SOL    HW220343   1.998   3.602   6.839  2.7155 -1.3710 -1.9808
 2962SOL     OW20344   3.996   2.007  12.243 -0.2554  0.5164  0.0058
 2962SOL    HW120345   4.064   2.028  12.307 -0.3232 -0.9181  0.5566
 2962SOL    HW220346   3.959   1.927  12.281 -0.1521  0.9324  0.9881
 2963SOL     OW20347   3.222   2.507   9.786 -0.3648  0.0193  0.3448
 2963SOL    HW120348   3.292   2.550   9.836 -0.2366  1.0548 -0.7402
 2963SOL    HW220349   3.176   2.585   9.756 -0.3810 -0.4175 -0.7652
 2964SOL     OW20350   0.569   3.935   7.032  0.3081  0.3322  0.1332
 2964SOL    HW120351   0.604   3.891   7.109  0.4009 -0.2626 -0.2494
 2964SOL    HW220352   0.604   4.025   7.032  2.5140 -0.5090 -1.2406
 2965SOL     OW20353   2.258   1.026   3.330 -1.0525  0.2485  0.3606
 2965SOL    HW120354   2.269   1.060   3.241  0.4771  0.6598  0.7072
 2965SOL    HW220355   2.164   1.044   3.337 -0.9466  0.0418  2.1166
 2966SOL     OW20356   3.371   1.142   6.659  0.0884  0.1303 -0.1704
 2966SOL    HW120357   3.293   1.151   6.713 -0.0903 -0.7870 -0.2651
 2966SOL    HW220358   3.332   1.119   6.575  0.2600 -0.4190 -0.1027
 2967SOL     OW20359   1.048   4.072   7.385 -0.4396 -0.5811 -0.3074
 2967SOL    HW120360   0.958   4.088   7.413  0.0015 -0.4397  1.0227
 2967SOL    HW220361   1.043   3.976   7.380 -0.4635 -0.5623 -0.6441
 2968SOL     OW20362   1.650   1.370   8.126 -0.0857 -0.6239  0.1555
 2968SOL    HW120363   1.630   1.444   8.183 -1.2429  0.0001 -1.0515
 2968SOL    HW220364   1.577   1.371   8.064 -0.3101  0.1423  0.4404
 2969SOL     OW20365   3.147   0.833   0.732  0.0338  0.0053  0.1480
 2969SOL    HW120366   3.115   0.829   0.642  1.4211  0.0710 -0.3427
 2969SOL    HW220367   3.143   0.928   0.740 -0.3332  0.3057 -3.3898
 2970SOL     OW20368   4.443   1.948  16.550 -0.1152 -0.7130 -0.3543
 2970SOL    HW120369   4.428   2.037  16.584  0.8026 -0.6371 -0.1413
 2970SOL    HW220370   4.381   1.895  16.601 -0.7010  0.1053 -0.2050
 2971SOL     OW20371   0.138   1.476   1.610 -0.3929 -0.0096  0.0390
 2971SOL    HW120372   0.223   1.519   1.605 -1.0876  1.3008 -0.6407
 2971SOL    HW220373   0.079   1.538   1.654 -0.2208  0.6544 -0.6711
 2972SOL     OW20374   3.249   3.098   1.283 -0.3093 -0.3683 -0.2230
 2972SOL    HW120375   3.328   3.152   1.296 -1.0478  0.6718 -0.0460
 2972SOL    HW220376   3.267   3.014   1.325  2.6454  0.7096  0.6765
 2973SOL     OW20377   0.298   3.144   0.183  0.0831 -0.5444 -0.0988
 2973SOL    HW120378   0.249   3.225   0.196 -1.7999 -1.7087  0.0743
 2973SOL    HW220379   0.261   3.092   0.254 -0.6156  1.3018  0.9032
 2974SOL     OW20380   0.717   2.095   2.145  0.0957  0.2694 -0.2196
 2974SOL    HW120381   0.649   2.030   2.159  1.4472 -0.7964  1.4466
 2974SOL    HW220382   0.791   2.048   2.106 -0.4624  0.6459 -1.7322
 2975SOL     OW20383   2.706   0.886  12.312  0.0645 -0.3988 -0.5713
 2975SOL    HW120384   2.776   0.950  12.321 -0.0804 -0.4806  1.0393
 2975SOL    HW220385   2.694   0.858  12.403  5.1728  2.9011  1.0794
 2976SOL     OW20386   4.528   2.137   2.972 -0.4734 -0.4922  0.6018
 2976SOL    HW120387   4.533   2.087   2.891  1.4537 -0.2494  0.5588
 2976SOL    HW220388   4.440   2.113   3.002 -0.7497  2.1483  1.9371
 2977SOL     OW20389   4.416   0.040   4.446  0.1949  0.4498 -0.1399
 2977SOL    HW120390   4.487   0.044   4.510  2.0733 -0.2410 -2.1859
 2977SOL    HW220391   4.445   0.107   4.384  2.5547  0.3205  0.8263
 2978SOL     OW20392   0.914   4.640   3.747 -0.1127  0.1249 -0.1618
 2978SOL    HW120393   0.992   4.610   3.794  0.3365 -0.8774 -1.5537
 2978SOL    HW220394   0.843   4.626   3.810  0.4408 -0.4800  0.3330
 2979SOL     OW20395   4.597   3.654   7.514 -0.1169 -0.3236 -0.3152
 2979SOL    HW120396   4.617   3.568   7.552  1.3132  0.6980  1.2651
 2979SOL    HW220397   4.519   3.633   7.464  0.8378 -1.5352 -1.3072
 2980SOL     OW20398   0.650   3.908   8.143 -0.1924  0.0288  0.2643
 2980SOL    HW120399   0.604   3.842   8.091 -1.3940  0.8480  0.2794
 2980SOL    HW220400   0.590   3.929   8.215  1.3742  2.1890  0.9499
 2981SOL     OW20401   4.218   2.682   2.935 -0.2354 -0.8425  0.6635
 2981SOL    HW120402   4.293   2.723   2.891  0.3754 -2.5052  0.1419
 2981SOL    HW220403   4.269   2.624   2.991  1.2442  1.1871  1.4465
 2982SOL     OW20404   2.084   1.822  13.101 -0.4649 -0.2025 -0.2278
 2982SOL    HW120405   2.166   1.856  13.065 -0.6388  1.1459  0.6374
 2982SOL    HW220406   2.122   1.777  13.176  1.7434  3.3466  0.7778
 2983SOL     OW20407   3.011   1.873   4.779  0.6277  0.5386 -0.5016
 2983SOL    HW120408   2.978   1.960   4.757  3.6194  1.9357  0.5533
 2983SOL    HW220409   3.032   1.836   4.693  0.4936  1.2649 -0.8458
 2984SOL     OW20410   2.657   0.352   5.284  0.1070  0.4509  0.2490
 2984SOL    HW120411   2.587   0.383   5.226  2.2556  2.0393 -1.4913
 2984SOL    HW220412   2.715   0.427   5.274 -0.9993  1.3585  0.5442
 2985SOL     OW20413   4.207   4.370   3.049 -0.4257 -0.5738  0.0122
 2985SOL    HW120414   4.230   4.355   3.141  1.2568 -2.5403 -0.7417
 2985SOL    HW220415   4.292   4.367   3.007  0.5349  2.4905  1.7319
 2986SOL     OW20416   3.265   4.525   4.435 -0.3239 -0.5738  0.1965
 2986SOL    HW120417   3.311   4.587   4.379  0.6768  0.5981  2.3083
 2986SOL    HW220418   3.192   4.577   4.466 -0.3681 -0.8492  0.5616
 2987SOL     OW20419   0.161   4.626   7.818  0.6052 -0.5243 -0.1940
 2987SOL    HW120420   0.179   4.546   7.868  1.1633  1.5866  2.9802
 2987SOL    HW220421   0.183   4.698   7.878  1.9251 -1.5749  0.5921
 2988SOL     OW20422   0.258   1.916   7.309 -0.4322  0.7935 -0.4893
 2988SOL    HW120423   0.191   1.847   7.309 -0.8558  1.2057  1.5997
 2988SOL    HW220424   0.257   1.938   7.216  1.7476  1.4496 -0.3567
 2989SOL     OW20425   3.185   3.236   8.138  0.0835 -0.4039 -0.2684
 2989SOL    HW120426   3.195   3.302   8.070 -2.2222  2.0155  1.7324
 2989SOL    HW220427   3.184   3.290   8.217  0.8534  2.5659 -2.2817
 2990SOL     OW20428   0.605   1.906  15.521 -0.3892  0.6428  0.3593
 2990SOL    HW120429   0.554   1.889  15.600  1.5202 -0.0132  1.4150
 2990SOL    HW220430   0.688   1.869  15.549 -1.1181 -0.9603  0.3993
 2991SOL     OW20431   4.121   2.444   1.563 -0.0520 -0.0119 -0.2585
 2991SOL    HW120432   4.116   2.371   1.625 -0.0749 -0.2147 -0.4972
 2991SOL    HW220433   4.209   2.475   1.582  0.3368 -0.0145 -2.0744
 2992SOL     OW20434   4.363   1.947  12.903  0.6551 -0.2111 -0.3112
 2992SOL    HW120435   4.409   2.031  12.907 -0.0568  0.0417  2.4381
 2992SOL    HW220436   4.332   1.936  12.813 -0.2897  1.2141 -0.1640
 2993SOL     OW20437   2.984   3.833   4.363  0.1215  0.3563 -0.0578
 2993SOL    HW120438   2.988   3.740   4.344 -0.7547  0.4242 -0.5517
 2993SOL    HW220439   2.931   3.862   4.289  1.3091 -2.1426 -1.8688
 2994SOL     OW20440   1.546   4.080   2.538  0.4614 -0.0257 -0.1613
 2994SOL    HW120441   1.468   4.071   2.483  0.0281 -1.4548  0.6814
 2994SOL    HW220442   1.555   3.997   2.585 -1.8134  1.4130  2.8555
 2995SOL     OW20443   1.804   3.330   1.419  0.2358 -0.0775  0.3126
 2995SOL    HW120444   1.862   3.257   1.396 -0.4631 -1.0949  1.7982
 2995SOL    HW220445   1.821   3.345   1.512 -1.0005  0.5600  0.4288
 2996SOL     OW20446   1.523   2.539   5.929 -0.3479 -0.2725 -0.2116
 2996SOL    HW120447   1.589   2.577   5.988  0.0531 -1.0658 -0.1416
 2996SOL    HW220448   1.579   2.522   5.853  0.1332  0.5052 -0.0349
 2997SOL     OW20449   2.906   3.011  15.854  0.3962 -0.0419 -0.4169
 2997SOL    HW120450   2.988   3.020  15.806  0.3011  0.1287 -0.5471
 2997SOL    HW220451   2.874   2.932  15.812  1.7705 -1.0346  0.4346
 2998SOL     OW20452   1.842   0.996   9.934 -0.5289  0.2199  0.3275
 2998SOL    HW120453   1.897   0.946   9.994 -0.6340 -1.7399 -1.2336
 2998SOL    HW220454   1.783   1.054   9.983  0.1965  1.5584 -0.3961
 2999SOL     OW20455   4.096   1.468   3.662 -0.0728  0.3869  0.4536
 2999SOL    HW120456   4.126   1.391   3.709  0.8315  1.6541  1.9511
 2999SOL    HW220457   4.001   1.457   3.674 -0.0041 -0.6004  0.0397
 3000SOL     OW20458   1.808   1.464   8.654  0.2543  0.9059 -0.1270
 3000SOL    HW120459   1.885   1.521   8.662  1.0706 -0.5104  2.1359
 3000SOL    HW220460   1.762   1.506   8.581  0.3833  0.9565 -0.1782
 3001SOL     OW20461   2.362   0.403   5.888 -0.4456  0.0715  0.3060
 3001SOL    HW120462   2.349   0.363   5.974 -0.6800 -0.1800  0.1510
 3001SOL    HW220463   2.316   0.340   5.834 -3.7230  3.2580 -0.5999
 3002SOL     OW20464   3.326   3.772   6.322 -0.1111 -0.3346 -0.0824
 3002SOL    HW120465   3.254   3.709   6.321  0.0805 -0.5707  1.2135
 3002SOL    HW220466   3.280   3.853   6.299  1.3000  0.7198  0.8184
 3003SOL     OW20467   0.305   3.153   3.398  0.3950  0.4197  0.4032
 3003SOL    HW120468   0.279   3.243   3.417  1.4984  0.4200  1.8498
 3003SOL    HW220469   0.332   3.128   3.486 -0.0818 -0.9854  0.1572
 3004SOL     OW20470   1.629   2.156   6.967  0.4661 -0.0112 -0.0528
 3004SOL    HW120471   1.661   2.087   6.909 -1.5689 -2.4961  1.7988
 3004SOL    HW220472   1.551   2.186   6.921  0.1323 -1.1215 -0.2161
 3005SOL     OW20473   0.728   0.954  16.460  0.2578 -0.5325 -0.6119
 3005SOL    HW120474   0.674   0.925  16.534  0.3934  0.5717 -0.0794
 3005SOL    HW220475   0.751   0.866  16.431 -0.0469 -0.9954  0.5508
 3006SOL     OW20476   4.162   1.528   1.568  0.5202 -0.1485 -0.0219
 3006SOL    HW120477   4.254   1.547   1.588  0.0524 -0.2950  2.2456
 3006SOL    HW220478   4.174   1.480   1.486 -0.2004 -1.3775  0.5993
 3007SOL     OW20479   4.272   4.254   0.653 -0.0204  0.0224  0.0454
 3007SOL    HW120480   4.270   4.350   0.653 -1.4891 -0.0051 -0.2393
 3007SOL    HW220481   4.348   4.232   0.706 -1.5088  2.9477  3.3865
 3008SOL     OW20482   1.252   3.790  15.773 -0.6873  0.1192 -0.2318
 3008SOL    HW120483   1.270   3.861  15.711 -0.6904 -0.4694 -0.9120
 3008SOL    HW220484   1.182   3.742  15.729 -0.4989  0.2660 -0.6914
 3009SOL     OW20485   0.179   0.013   7.266  0.0105  0.0402  0.1017
 3009SOL    HW120486   0.112   4.675   7.233 -1.1336  2.0330 -1.2532
 3009SOL    HW220487   0.150   0.016   7.357 -1.7295 -1.5086 -0.4011
 3010SOL     OW20488   2.517   4.542   9.581  0.3904 -0.7225  0.3938
 3010SOL    HW120489   2.452   4.545   9.651  0.3933 -2.5149  0.4717
 3010SOL    HW220490   2.591   4.561   9.638  0.1650  1.6919 -0.1024
 3011SOL     OW20491   0.910   2.289  15.141 -0.1416 -0.2305  0.3192
 3011SOL    HW120492   0.832   2.294  15.085 -0.5229 -1.9529  0.6904
 3011SOL    HW220493   0.970   2.337  15.084 -0.6551 -0.6457 -0.5772
 3012SOL     OW20494   2.330   2.643  15.470  0.0954  0.4598  0.2246
 3012SOL    HW120495   2.343   2.688  15.387 -3.0698 -2.3268 -1.7970
 3012SOL    HW220496   2.236   2.626  15.465 -0.1474  1.8155  0.3056
 3013SOL     OW20497   2.757   2.514  16.287 -0.2134 -0.4827  0.5630
 3013SOL    HW120498   2.791   2.495  16.374 -0.5264  2.1548  1.2469
 3013SOL    HW220499   2.690   2.579  16.309  0.1064 -0.0349  0.2029
 3014SOL     OW20500   2.923   1.898   1.295  0.8858 -0.7110  0.5491
 3014SOL    HW120501   2.970   1.940   1.223  1.6181  0.9403  1.9830
 3014SOL    HW220502   2.834   1.933   1.287  1.6110  0.9419 -0.3945
 3015SOL     OW20503   1.865   0.574   0.661 -0.3283 -0.3762  0.5331
 3015SOL    HW120504   1.781   0.579   0.615  1.7243  1.6518 -3.0294
 3015SOL    HW220505   1.882   0.665   0.687  0.0316  0.1222 -1.4443
 3016SOL     OW20506   0.464   0.091   1.785  0.0453  0.4059  0.2329
 3016SOL    HW120507   0.467   0.141   1.867  0.3132  1.2623 -0.3083
 3016SOL    HW220508   0.446   0.160   1.722 -1.7377 -0.9997 -0.7981
 3017SOL     OW20509   1.283   3.844  13.784  0.2143 -0.3369 -0.2515
 3017SOL    HW120510   1.364   3.811  13.745  0.5478 -1.7070  1.5703
 3017SOL    HW220511   1.304   3.937  13.798 -2.0043  0.3385 -1.3656
 3018SOL     OW20512   1.485   0.596  17.446 -0.2158  0.2821  0.1534
 3018SOL    HW120513   1.553   0.570  17.383 -0.0993 -0.7540  0.7040
 3018SOL    HW220514   1.519   0.681  17.474  0.8088 -0.6793  1.7916
 3019SOL     OW20515   4.028   3.617   4.734 -0.1229  0.1590 -0.0772
 3019SOL    HW120516   4.025   3.635   4.828  1.3256 -2.6668  0.4877
 3019SOL    HW220517   3.974   3.694   4.711  1.3144  1.4804  0.9678
 3020SOL     OW20518   1.666   3.108  17.469 -0.4391 -0.2819 -0.0164
 3020SOL    HW120519   1.706   3.070  17.391 -2.0611 -1.4038 -0.2983
 3020SOL    HW220520   1.728   3.173  17.503 -0.8440 -0.0656  0.3136
 3021SOL     OW20521   1.944   3.252   0.479 -0.3576 -0.2126  0.1498
 3021SOL    HW120522   1.998   3.233   0.556  1.1979  0.8654 -0.6643
 3021SOL    HW220523   1.959   3.172   0.428 -2.0620 -0.1089 -0.5105
 3022SOL     OW20524   0.138   2.765   5.452  0.2741 -0.4466 -0.0449
 3022SOL    HW120525   0.114   2.795   5.364 -2.2371 -1.1894  0.3803
 3022SOL    HW220526   0.216   2.710   5.442  0.7813  0.3321 -0.4121
 3023SOL     OW20527   0.130   3.123   6.085 -0.2965 -0.2512  0.1295
 3023SOL    HW120528   0.050   3.159   6.124  1.0303  0.4163  2.2104
 3023SOL    HW220529   0.185   3.142   6.161 -1.9010  1.4853  0.8613
 3024SOL     OW20530   1.536   1.013  11.145  0.2501 -0.3547 -0.1187
 3024SOL    HW120531   1.585   1.050  11.072  1.3486  1.6481  1.6231
 3024SOL    HW220532   1.569   1.049  11.227 -2.6014 -3.0630  2.1992
 3025SOL     OW20533   0.270   1.957   9.656  0.3077  0.0123  0.5039
 3025SOL    HW120534   0.252   1.996   9.570  0.8625 -0.2993  0.2406
 3025SOL    HW220535   0.182   1.922   9.668  0.9009 -1.0246  1.8092
 3026SOL     OW20536   1.160   4.538  16.204 -0.0374  0.4410  0.2970
 3026SOL    HW120537   1.128   4.627  16.218  1.2418  1.2460 -1.8410
 3026SOL    HW220538   1.111   4.484  16.267 -1.8825  0.5649 -1.0116
 3027SOL     OW20539   2.898   3.580   5.716 -0.4320  0.2538  0.0683
 3027SOL    HW120540   2.983   3.604   5.752  0.6137 -2.2586 -0.7685
 3027SOL    HW220541   2.883   3.494   5.755 -1.2592  0.7214  0.7899
 3028SOL     OW20542   3.338   1.351   7.724 -0.7651 -0.5146 -0.1599
 3028SOL    HW120543   3.262   1.408   7.717 -1.1776 -1.0239  0.1989
 3028SOL    HW220544   3.302   1.268   7.693 -2.3165  0.4546 -0.9235
 3029SOL     OW20545   1.072   0.874   9.339  0.0262  0.1263 -0.0748
 3029SOL    HW120546   1.010   0.901   9.271  1.5137  0.3848 -1.3381
 3029SOL    HW220547   1.148   0.930   9.323 -0.2141  0.6637  0.6560
 3030SOL     OW20548   3.950   2.357  14.579 -0.2779  0.0894  0.1321
 3030SOL    HW120549   3.912   2.367  14.491 -1.2396  1.7224  0.7430
 3030SOL    HW220550   3.869   2.348  14.628 -0.1899 -0.4625  0.1855
 3031SOL     OW20551   1.302   1.301   6.438 -0.1748  0.1483  0.3526
 3031SOL    HW120552   1.263   1.279   6.523  0.1257  0.6432  0.6180
 3031SOL    HW220553   1.247   1.378   6.423 -0.0025  0.0583 -0.7704
 3032SOL     OW20554   0.214   0.814   7.705  0.8666 -0.1174 -0.3742
 3032SOL    HW120555   0.125   0.792   7.733  0.6441  1.8853  0.5191
 3032SOL    HW220556   0.241   0.724   7.691  3.2526  0.5195  0.1302
 3033SOL     OW20557   3.195   0.382   0.286 -0.9817 -0.1281 -0.0587
 3033SOL    HW120558   3.241   0.459   0.319 -0.2724 -0.5813  0.0327
 3033SOL    HW220559   3.242   0.304   0.317 -2.7362 -1.0130  0.3878
 3034SOL     OW20560   1.624   1.221   3.332 -0.3633 -0.6358 -0.0263
 3034SOL    HW120561   1.578   1.293   3.287  2.1954 -0.9349 -3.1438
 3034SOL    HW220562   1.707   1.265   3.350 -1.0278 -0.0781  1.6771
 3035SOL     OW20563   0.693   3.616  10.521 -0.0800  0.1045  0.1958
 3035SOL    HW120564   0.784   3.601  10.498 -0.3147 -0.3036 -0.4713
 3035SOL    HW220565   0.700   3.578  10.609  1.0826  0.3573  0.2117
 3036SOL     OW20566   4.106   4.214   7.048 -0.0319 -0.2913  0.1447
 3036SOL    HW120567   4.096   4.151   7.119  2.1425 -0.9652 -0.1720
 3036SOL    HW220568   4.171   4.275   7.081 -1.7732  0.8577  1.4813
 3037SOL     OW20569   3.347   1.350   1.179  0.1419  0.2109  0.6334
 3037SOL    HW120570   3.261   1.383   1.204  0.9613  2.0147  1.1328
 3037SOL    HW220571   3.328   1.308   1.095 -0.9513 -3.1660  2.5875
 3038SOL     OW20572   2.096   1.336   4.005  0.2164 -0.4688 -0.0502
 3038SOL    HW120573   2.067   1.245   4.001  1.2324 -0.7181 -1.5247
 3038SOL    HW220574   2.024   1.394   3.982  0.2218 -0.0875  0.8812
 3039SOL     OW20575   1.786   4.331   8.835 -0.0009  0.2242 -0.3071
 3039SOL    HW120576   1.745   4.399   8.887 -0.9871 -0.3200 -0.3784
 3039SOL    HW220577   1.727   4.258   8.849  0.5253 -0.1854 -0.2211
 3040SOL     OW20578   2.087   0.242   6.150  0.4626  0.3080  0.4108
 3040SOL    HW120579   2.066   0.276   6.063  0.1580 -0.5305  0.1576
 3040SOL    HW220580   2.013   0.281   6.197 -1.2445  0.1980 -2.1636
 3041SOL     OW20581   0.737   0.934  10.818 -0.0459  0.0532  0.2026
 3041SOL    HW120582   0.676   1.007  10.811 -0.4594 -0.1286  1.9687
 3041SOL    HW220583   0.777   0.959  10.901 -0.6493  0.2355  0.4345
 3042SOL     OW20584   2.836   4.705   2.812 -0.6863  0.3152 -0.3560
 3042SOL    HW120585   2.744   0.001   2.793 -1.0330 -1.5536 -0.4671
 3042SOL    HW220586   2.835   4.640   2.883 -3.2283  0.5223 -0.1950
 3043SOL     OW20587   0.120   1.423   4.323 -0.1923  0.1061  0.1361
 3043SOL    HW120588   0.122   1.478   4.245 -0.1220  0.8337  0.6459
 3043SOL    HW220589   0.183   1.357   4.294 -0.5883  0.3616 -1.3016
 3044SOL     OW20590   4.692   0.895   8.330 -0.7125 -0.3929 -0.7396
 3044SOL    HW120591   0.037   0.933   8.275 -1.9990  0.7013 -1.5495
 3044SOL    HW220592   0.025   0.880   8.407 -0.7895  0.6571 -0.4869
 3045SOL     OW20593   3.849   3.777   1.963 -0.0846  0.3025 -0.7482
 3045SOL    HW120594   3.891   3.810   2.043 -0.6031  1.8197 -1.0929
 3045SOL    HW220595   3.908   3.761   1.890 -1.5990 -0.6918 -1.7576
 3046SOL     OW20596   3.666   3.298  12.586 -0.3441  0.0514  0.5174
 3046SOL    HW120597   3.734   3.279  12.522  0.0801 -2.5930  1.7519
 3046SOL    HW220598   3.717   3.346  12.651 -2.0637  1.9926  0.4178
 3047SOL     OW20599   3.301   2.201   7.593  0.1287 -0.0240  0.4793
 3047SOL    HW120600   3.285   2.290   7.623  3.5374  1.5248 -2.4414
 3047SOL    HW220601   3.396   2.194   7.601  0.3242  0.5081 -1.5971
 3048SOL     OW20602   4.582   4.401   1.295 -0.3088  0.4654 -0.1736
 3048SOL    HW120603   4.542   4.393   1.381 -1.3821  1.6800 -0.5589
 3048SOL    HW220604   4.541   4.481   1.262 -0.0766 -0.4016 -2.5954
 3049SOL     OW20605   0.568   4.667  11.749  0.2487  0.1443  0.0692
 3049SOL    HW120606   0.538   0.006  11.681  0.2020 -1.2675 -1.1879
 3049SOL    HW220607   0.563   4.576  11.718 -1.5045  0.6601 -1.1748
 3050SOL     OW20608   1.334   1.149  16.366  0.5021 -0.1519 -0.0248
 3050SOL    HW120609   1.344   1.126  16.459  0.6039  2.1858  0.5441
 3050SOL    HW220610   1.386   1.078  16.328  0.0159 -1.0491  0.9931
 3051SOL     OW20611   3.950   2.130  12.001  0.5645 -0.4576  0.3731
 3051SOL    HW120612   3.884   2.089  11.946 -1.4576  0.9688  1.7393
 3051SOL    HW220613   3.961   2.067  12.072  1.3262 -1.0208 -0.2472
 3052SOL     OW20614   0.041   2.955   4.789  0.0456 -0.2893  0.4558
 3052SOL    HW120615   0.117   3.002   4.756 -0.4774 -0.0245 -0.3892
 3052SOL    HW220616   4.696   2.985   4.728 -0.9611 -0.5175  1.4583
 3053SOL     OW20617   0.462   4.189   2.031 -0.6110  0.5828  0.1324
 3053SOL    HW120618   0.468   4.113   1.973 -0.1229 -0.6168  1.7788
 3053SOL    HW220619   0.387   4.231   1.989 -0.3842 -0.0609 -0.9270
 3054SOL     OW20620   1.974   2.465   0.118 -0.4717 -0.0498  0.5671
 3054SOL    HW120621   2.058   2.462   0.071 -1.7573 -2.3797 -1.5944
 3054SOL    HW220622   1.974   2.374   0.147  0.2119 -0.4916 -0.8110
 3055SOL     OW20623   2.232   3.135  16.757 -0.5555 -0.2389 -0.4215
 3055SOL    HW120624   2.293   3.163  16.825 -2.8157  0.5861  1.2361
 3055SOL    HW220625   2.184   3.059  16.788  1.3413 -0.4476  1.9775
 3056SOL     OW20626   1.551   4.080  17.211 -0.2026  0.3223  0.4417
 3056SOL    HW120627   1.536   4.140  17.138  0.8718 -0.2509 -0.2567
 3056SOL    HW220628   1.533   4.137  17.286  2.5580  1.2511  0.3773
 3057SOL     OW20629   2.806   4.424   8.397  0.0925  0.1437  0.0128
 3057SOL    HW120630   2.798   4.447   8.490  1.9838 -0.0637  0.2310
 3057SOL    HW220631   2.825   4.332   8.415 -0.0170  0.2250  0.5543
 3058SOL     OW20632   0.648   1.007   8.469 -0.0056  0.6006  0.3694
 3058SOL    HW120633   0.687   1.089   8.501  2.3805 -0.9256  1.3535
 3058SOL    HW220634   0.722   0.946   8.461 -0.3834 -0.2219  3.3507
 3059SOL     OW20635   3.385   1.594   2.971 -0.3092 -0.0038  0.6357
 3059SOL    HW120636   3.451   1.664   2.968  0.7225 -1.0496 -1.1353
 3059SOL    HW220637   3.412   1.540   3.045  0.9310 -3.0088 -1.9909
 3060SOL     OW20638   3.728   2.942   7.666  0.1897 -0.6976  0.4027
 3060SOL    HW120639   3.730   3.008   7.596 -3.1859 -0.0280  0.9210
 3060SOL    HW220640   3.806   2.887   7.661  0.7432  0.2384 -1.1757
 3061SOL     OW20641   3.610   3.409   7.736  0.1153 -0.0699 -0.5857
 3061SOL    HW120642   3.606   3.317   7.713 -1.1293 -0.5687  1.6926
 3061SOL    HW220643   3.518   3.434   7.731 -0.3907 -1.8016  0.3086
 3062SOL     OW20644   1.203   0.327   9.636 -0.4007  0.3690  0.0628
 3062SOL    HW120645   1.254   0.257   9.595  0.2066  0.9766 -0.2020
 3062SOL    HW220646   1.269   0.396   9.644 -0.0471 -0.0853  1.0870
 3063SOL     OW20647   3.702   3.810  17.315  0.3229 -0.2679  0.0560
 3063SOL    HW120648   3.747   3.765  17.387 -0.9955 -0.5105  0.7309
 3063SOL    HW220649   3.779   3.839  17.265 -0.1231  3.2900  1.4373
 3064SOL     OW20650   1.167   2.268   7.748 -0.2486 -0.3233 -0.0219
 3064SOL    HW120651   1.127   2.217   7.819  1.1258 -1.9154 -0.3708
 3064SOL    HW220652   1.239   2.314   7.792  0.0630 -0.5288 -0.3148
 3065SOL     OW20653   3.887   4.048   3.665  0.4024 -0.2435 -0.1007
 3065SOL    HW120654   3.978   4.030   3.644  0.5263 -2.2968  2.1212
 3065SOL    HW220655   3.848   3.983   3.606  0.3970 -0.8822  0.5974
 3066SOL     OW20656   3.284   0.250   4.610  0.9517  0.8073 -0.1478
 3066SOL    HW120657   3.345   0.244   4.537 -1.0762 -0.8860 -1.7084
 3066SOL    HW220658   3.199   0.256   4.567  0.2465 -0.4086  1.0546
 3067SOL     OW20659   2.889   1.126   3.587  0.0778  0.5735 -0.0061
 3067SOL    HW120660   2.808   1.138   3.637 -1.6853  0.2795 -2.8493
 3067SOL    HW220661   2.925   1.050   3.633 -0.7733 -0.5100 -1.1297
 3068SOL     OW20662   3.876   3.465   3.417 -0.3605  0.4285  0.3906
 3068SOL    HW120663   3.812   3.404   3.454  2.2805 -1.6690  1.5601
 3068SOL    HW220664   3.818   3.505   3.353 -0.7470 -1.2712 -0.3076
 3069SOL     OW20665   0.799   2.769   3.039  0.4567  0.0848  0.2633
 3069SOL    HW120666   0.824   2.679   3.058  0.5519 -0.3872 -2.0999
 3069SOL    HW220667   0.790   2.751   2.945  0.1579 -1.6238  0.6147
 3070SOL     OW20668   1.514   2.170  16.358 -0.1510  0.1202 -0.1922
 3070SOL    HW120669   1.421   2.154  16.376  0.3324 -2.9733 -0.4131
 3070SOL    HW220670   1.503   2.239  16.293 -1.6359  1.1751  1.1646
 3071SOL     OW20671   4.091   3.328  12.952  0.3106  0.1390 -0.2064
 3071SOL    HW120672   4.124   3.401  13.004  0.5793 -0.7734  0.9147
 3071SOL    HW220673   4.000   3.330  12.983  0.1040  1.2255 -0.9024
 3072SOL     OW20674   4.376   2.644   3.779 -0.4015 -0.0763  0.3216
 3072SOL    HW120675   4.393   2.664   3.687 -1.4491 -1.9442 -0.2682
 3072SOL    HW220676   4.304   2.583   3.767  0.7576 -1.3000 -0.4286
 3073SOL     OW20677   0.116   3.690   8.747  0.9618  0.0863  0.1208
 3073SOL    HW120678   0.195   3.738   8.773 -0.3450  1.9717  0.6463
 3073SOL    HW220679   0.063   3.766   8.723  0.8879  0.7544  2.3763
 3074SOL     OW20680   4.578   1.267  13.320 -0.2789  0.4138  0.3128
 3074SOL    HW120681   4.595   1.361  13.321 -1.4395  0.6140  2.0213
 3074SOL    HW220682   4.586   1.238  13.410 -2.1918  1.3445  0.7740
 3075SOL     OW20683   0.935   4.403  15.949 -0.3014  0.6279 -0.1795
 3075SOL    HW120684   0.954   4.334  15.885 -1.2864  0.3550 -0.1872
 3075SOL    HW220685   0.957   4.480  15.898 -0.9323  0.2954 -0.9619
 3076SOL     OW20686   0.342   0.585   4.971  0.1469  0.2450  0.2138
 3076SOL    HW120687   0.286   0.657   4.946 -1.1703 -0.8420  0.0428
 3076SOL    HW220688   0.419   0.638   4.993 -0.5583  1.1254  0.5412
 3077SOL     OW20689   0.283   0.793   5.870 -0.3621 -0.2190  0.4161
 3077SOL    HW120690   0.198   0.831   5.848  0.0993  0.6240  0.0984
 3077SOL    HW220691   0.259   0.701   5.881  1.1490 -0.6156  0.4256
 3078SOL     OW20692   3.820   1.783   3.590  0.1618  0.4369 -0.1748
 3078SOL    HW120693   3.808   1.688   3.591  0.0587  0.4812  2.0168
 3078SOL    HW220694   3.800   1.800   3.498 -0.4680  2.6490  0.3857
 3079SOL     OW20695   1.440   3.025   6.926 -0.3572  0.0774  0.0165
 3079SOL    HW120696   1.440   2.996   7.018 -0.7204  0.1419  0.0364
 3079SOL    HW220697   1.494   2.957   6.886  0.2049  0.6573 -0.1912
 3080SOL     OW20698   3.721   3.876  12.528  0.0589  0.1799 -0.0840
 3080SOL    HW120699   3.652   3.864  12.463 -0.2617 -1.7623  0.5939
 3080SOL    HW220700   3.791   3.913  12.474 -0.1163  0.9810  0.2368
 3081SOL     OW20701   4.121   0.799   1.745 -0.3571  0.5011 -0.6260
 3081SOL    HW120702   4.062   0.733   1.710  0.8791 -0.8568 -0.1165
 3081SOL    HW220703   4.055   0.862   1.774 -2.1351 -0.1412 -3.2174
 3082SOL     OW20704   1.012   3.639   4.618 -0.0022  0.0976  0.3052
 3082SOL    HW120705   1.099   3.611   4.590 -0.7343 -0.5954 -1.2818
 3082SOL    HW220706   1.016   3.734   4.611  2.6807 -0.1060 -0.8820
 3083SOL     OW20707   4.160   1.868   7.952 -0.2655  0.0922  0.8070
 3083SOL    HW120708   4.192   1.858   7.862 -0.0087  1.5766  0.7277
 3083SOL    HW220709   4.205   1.949   7.978 -1.5311  0.7241  0.9932
 3084SOL     OW20710   0.804   3.712   7.400 -0.5082  0.2597 -0.7086
 3084SOL    HW120711   0.841   3.774   7.337  0.7957 -0.2090 -0.4040
 3084SOL    HW220712   0.857   3.635   7.379 -3.1653 -1.3788 -1.2819
 3085SOL     OW20713   1.861   0.550   5.974  0.3356 -0.2114  1.0072
 3085SOL    HW120714   1.902   0.469   5.945  0.3302 -0.0257  0.4911
 3085SOL    HW220715   1.781   0.513   6.012 -0.3986 -0.0811 -0.4366
 3086SOL     OW20716   1.886   0.508   7.699 -0.3147  0.3829  0.6330
 3086SOL    HW120717   1.867   0.475   7.611  1.9397 -1.2303  0.7394
 3086SOL    HW220718   1.811   0.498   7.757 -1.8783 -1.3134 -1.6840
 3087SOL     OW20719   1.008   3.119   3.036  0.1267 -0.1835 -0.9706
 3087SOL    HW120720   0.913   3.106   3.038  0.1119  0.2823  0.7588
 3087SOL    HW220721   1.035   3.068   3.112  0.7098 -0.0333 -1.0779
 3088SOL     OW20722   3.933   0.909  16.969 -0.0739  0.2249 -0.0567
 3088SOL    HW120723   3.929   0.860  16.887  1.6337 -1.4057  0.8153
 3088SOL    HW220724   3.969   0.991  16.935  0.5927 -0.1519 -0.2723
 3089SOL     OW20725   2.134   1.321   0.611  0.1044 -0.2288 -0.2597
 3089SOL    HW120726   2.216   1.302   0.656 -0.6328 -2.0470  0.3141
 3089SOL    HW220727   2.158   1.400   0.563  1.0336  0.5222  1.4658
 3090SOL     OW20728   1.004   3.550   9.206  0.0914  0.0505 -0.2036
 3090SOL    HW120729   1.061   3.619   9.173 -0.7910  0.0280 -1.7528
 3090SOL    HW220730   0.921   3.572   9.163  1.4801  1.9434 -1.8918
 3091SOL     OW20731   2.664   4.580  10.821  0.3940 -0.5997 -0.2582
 3091SOL    HW120732   2.658   4.584  10.726  0.0709  0.0063 -0.2147
 3091SOL    HW220733   2.628   4.665  10.849  2.6832  0.6384 -1.0317
 3092SOL     OW20734   2.426   1.399  10.399  0.1253 -0.4367  0.3918
 3092SOL    HW120735   2.489   1.369  10.333 -0.5777  0.6072 -0.7472
 3092SOL    HW220736   2.390   1.481  10.367 -0.4462 -0.8970 -0.1400
 3093SOL     OW20737   3.736   4.356   2.856 -0.2154  0.2898  0.4344
 3093SOL    HW120738   3.703   4.339   2.768 -1.1637  0.6834  0.7125
 3093SOL    HW220739   3.712   4.448   2.859 -2.3428 -0.2506 -0.5059
 3094SOL     OW20740   3.863   4.718   4.709 -0.1031  0.3423 -0.5683
 3094SOL    HW120741   3.890   0.078   4.671  2.8506 -0.3577  0.0250
 3094SOL    HW220742   3.941   4.665   4.724 -1.0172 -1.0819 -0.7286
 3095SOL     OW20743   3.480   1.646   7.710 -0.1122 -0.3977  0.3845
 3095SOL    HW120744   3.385   1.647   7.719 -0.2392  0.1713 -1.0448
 3095SOL    HW220745   3.482   1.664   7.616 -0.6703 -1.5730  0.1502
 3096SOL     OW20746   4.385   0.781   1.662  0.0703 -0.0375  0.1286
 3096SOL    HW120747   4.305   0.805   1.709 -1.5246 -0.4210 -2.3604
 3096SOL    HW220748   4.348   0.731   1.590  0.3483 -1.6287  1.1059
 3097SOL     OW20749   3.398   2.762   4.425 -0.6801 -0.8152 -0.2877
 3097SOL    HW120750   3.399   2.723   4.513 -1.6464 -1.2817 -0.4782
 3097SOL    HW220751   3.339   2.706   4.374  0.0693 -0.6916 -1.2811
 3098SOL     OW20752   0.923   3.621  10.357  1.1351 -0.2182  0.0735
 3098SOL    HW120753   0.991   3.576  10.306 -1.4144  0.8822 -4.3523
 3098SOL    HW220754   0.956   3.626  10.446 -0.0156  0.6152  0.4460
 3099SOL     OW20755   3.166   0.472   1.428 -0.4919  0.2916  0.5666
 3099SOL    HW120756   3.244   0.513   1.391 -0.9961  0.2360 -0.5587
 3099SOL    HW220757   3.129   0.428   1.351  0.6529 -0.8067  0.6457
 3100SOL     OW20758   2.962   0.557   3.366  0.5843  0.3049 -0.5817
 3100SOL    HW120759   2.936   0.465   3.369 -0.6949  0.6557 -0.7658
 3100SOL    HW220760   3.051   0.552   3.334  0.2746 -2.2299 -1.0227
 3101SOL     OW20761   2.752   3.324   0.328 -0.2140 -0.0831  0.3105
 3101SOL    HW120762   2.671   3.275   0.343 -0.9694  1.2384  0.5971
 3101SOL    HW220763   2.755   3.384   0.402 -1.7244  0.0188  0.2893
 3102SOL     OW20764   4.171   0.343   3.656 -0.3077  0.4685  0.0758
 3102SOL    HW120765   4.212   0.264   3.621 -0.3103 -0.2847  1.8099
 3102SOL    HW220766   4.080   0.321   3.634  0.1468 -1.6309  0.3240
 3103SOL     OW20767   2.889   4.095   6.361 -0.5843  0.1914  0.0816
 3103SOL    HW120768   2.959   4.161   6.357 -0.9280  0.6874  1.8703
 3103SOL    HW220769   2.826   4.132   6.423 -1.7053  1.8273 -2.0398
 3104SOL     OW20770   0.492   2.733   9.013  0.1627  0.5194  0.3618
 3104SOL    HW120771   0.417   2.767   9.061 -0.4554  0.5881 -0.6590
 3104SOL    HW220772   0.464   2.650   8.975 -2.7347  1.2006  1.0574
 3105SOL     OW20773   0.690   2.400   3.820 -0.4168  0.8235 -0.0118
 3105SOL    HW120774   0.663   2.492   3.814  0.5537  1.1257  0.3075
 3105SOL    HW220775   0.727   2.400   3.732  0.1994 -2.0819  0.2502
 3106SOL     OW20776   1.943   3.035   2.222 -0.6328 -0.2110 -0.2838
 3106SOL    HW120777   2.028   2.992   2.220 -0.9894 -0.8017 -3.6829
 3106SOL    HW220778   1.963   3.123   2.254  1.4798 -1.0537  0.7272
 3107SOL     OW20779   0.148   1.155   6.702 -0.5160 -0.0949 -0.3359
 3107SOL    HW120780   0.222   1.094   6.699 -1.3048 -1.0197 -1.0669
 3107SOL    HW220781   0.106   1.120   6.623 -1.3067 -1.7742  0.8172
 3108SOL     OW20782   4.046   1.058  17.371 -0.7363 -0.2253 -0.4084
 3108SOL    HW120783   3.961   1.072  17.331 -0.2882  2.7729 -0.2992
 3108SOL    HW220784   4.043   0.963  17.373 -3.4824 -0.1198  0.6494
 3109SOL     OW20785   2.218   0.301   8.767  0.7364  0.0871  0.0147
 3109SOL    HW120786   2.172   0.255   8.836 -0.9244  2.0118  0.1780
 3109SOL    HW220787   2.228   0.391   8.797  0.5672  0.7562 -1.9437
 3110SOL     OW20788   2.541   3.403   2.534 -0.1513  0.5241  0.2793
 3110SOL    HW120789   2.565   3.346   2.461  0.1951  0.1690  0.6665
 3110SOL    HW220790   2.555   3.484   2.484 -0.9158 -0.0668 -0.8907
 3111SOL     OW20791   4.331   2.860   7.507  0.1777 -0.1291 -0.4046
 3111SOL    HW120792   4.369   2.940   7.543  0.6923 -0.5716  0.0299
 3111SOL    HW220793   4.400   2.796   7.521 -0.8742 -1.1221  0.2488
 3112SOL     OW20794   0.619   0.829  11.202 -0.0027 -0.0047  0.1427
 3112SOL    HW120795   0.641   0.801  11.291 -2.2665  1.7135  1.2216
 3112SOL    HW220796   0.573   0.753  11.169 -1.0991 -0.0593  1.7827
 3113SOL     OW20797   2.675   0.592   9.144 -0.3407 -0.1204  0.0544
 3113SOL    HW120798   2.685   0.508   9.101  1.1489 -0.5781  1.2800
 3113SOL    HW220799   2.698   0.653   9.074  2.4936 -0.2058  0.9076
 3114SOL     OW20800   1.613   3.185   9.252  0.5009  0.7414 -0.2948
 3114SOL    HW120801   1.660   3.125   9.310 -1.0961  1.2058  1.4994
 3114SOL    HW220802   1.663   3.263   9.277 -0.6560  0.9320  1.4775
 3115SOL     OW20803   1.127   1.065   7.545  0.1198  0.0545  0.3358
 3115SOL    HW120804   1.109   1.002   7.615  1.0023 -0.9591 -0.3415
 3115SOL    HW220805   1.151   1.145   7.593 -1.2629  0.5728  0.1404
 3116SOL     OW20806   2.637   3.788   5.038  0.7227  0.4690  0.3134
 3116SOL    HW120807   2.657   3.696   5.055 -1.1886  0.5299  2.9000
 3116SOL    HW220808   2.622   3.785   4.944  0.8000 -0.4525  0.3348
 3117SOL     OW20809   4.596   3.635  13.910 -0.2932 -0.2153 -0.1262
 3117SOL    HW120810   4.664   3.678  13.963  0.0264 -0.2690 -0.4940
 3117SOL    HW220811   4.646   3.555  13.892  0.8062  0.3494  0.4074
 3118SOL     OW20812   1.490   4.609   1.875  0.5375 -0.1486 -0.1472
 3118SOL    HW120813   1.395   4.613   1.873  0.4931 -1.0562  0.1558
 3118SOL    HW220814   1.505   4.674   1.807 -0.8149 -0.2029 -0.4873
 3119SOL     OW20815   1.214   4.118   2.560 -0.3330  0.0545  0.3218
 3119SOL    HW120816   1.268   4.121   2.639 -1.0487  2.8586  0.6922
 3119SOL    HW220817   1.254   4.050   2.506 -0.2139  0.3122  0.0772
 3120SOL     OW20818   2.946   1.082   2.531  0.6265  0.2074 -0.8977
 3120SOL    HW120819   3.003   1.116   2.462  1.2990  0.5808 -0.1670
 3120SOL    HW220820   2.987   1.115   2.611 -0.3184  2.0956 -1.1986
 3121SOL     OW20821   2.159   4.078   6.662 -0.3799  0.0301  0.5233
 3121SOL    HW120822   2.110   4.098   6.742 -0.9274 -2.3855  0.7742
 3121SOL    HW220823   2.234   4.135   6.683 -1.4615  0.7929  2.3399
 3122SOL     OW20824   0.542   0.188   5.437  0.0329 -0.4113  0.1912
 3122SOL    HW120825   0.567   0.175   5.345  1.6488 -0.9345  0.6999
 3122SOL    HW220826   0.598   0.260   5.465 -0.3693 -0.5261  1.2925
 3123SOL     OW20827   2.989   0.891   1.995 -0.7499 -0.0581  0.0337
 3123SOL    HW120828   3.040   0.833   2.053 -1.2216  0.4756  0.9925
 3123SOL    HW220829   3.053   0.921   1.931 -1.6992  0.1235 -0.8275
 3124SOL     OW20830   3.614   1.608  13.211  0.6308 -0.0296  0.1827
 3124SOL    HW120831   3.543   1.584  13.152  0.4815  3.2410 -0.9494
 3124SOL    HW220832   3.599   1.700  13.230  2.1838  0.0305  1.1061
 3125SOL     OW20833   1.438   2.366   6.317 -0.5186 -0.1800  0.1035
 3125SOL    HW120834   1.391   2.308   6.258  1.4753 -0.8924 -0.8042
 3125SOL    HW220835   1.383   2.403   6.386  0.1754  1.6013 -0.2951
 3126SOL     OW20836   0.828   2.088  12.437  0.0656  0.6193  0.3575
 3126SOL    HW120837   0.742   2.128  12.424 -0.0493  0.4336  0.5455
 3126SOL    HW220838   0.800   1.997  12.443  1.9293  0.1620  1.9802
 3127SOL     OW20839   2.931   4.058   2.784  0.3420 -0.3811  0.4287
 3127SOL    HW120840   2.971   3.972   2.795 -0.1599 -0.9030 -1.7666
 3127SOL    HW220841   2.959   4.100   2.702  0.8413 -0.9488  0.3119
 3128SOL     OW20842   4.045   3.200   7.427 -0.2520 -0.2994 -0.3047
 3128SOL    HW120843   4.133   3.220   7.458 -1.2140  1.1605  1.5132
 3128SOL    HW220844   4.066   3.146   7.351  0.2294 -1.9482  1.0166
 3129SOL     OW20845   3.832   2.895   1.989  0.1434  0.2499 -0.0248
 3129SOL    HW120846   3.768   2.844   2.040 -0.3720 -0.0798 -1.0091
 3129SOL    HW220847   3.873   2.943   2.061  2.5687  1.6671 -2.3359
 3130SOL     OW20848   0.361   1.496   2.219  0.1920 -0.4283  0.2378
 3130SOL    HW120849   0.328   1.457   2.139 -0.7227 -2.4440  1.5909
 3130SOL    HW220850   0.401   1.428   2.274  0.3576  0.4033  1.1632
 3131SOL     OW20851   2.925   1.690   2.753 -0.0236  0.0731 -0.2567
 3131SOL    HW120852   2.858   1.676   2.820  0.0094  1.3728  0.0574
 3131SOL    HW220853   2.999   1.641   2.789 -0.0314 -0.1257 -0.5092
 3132SOL     OW20854   4.516   3.336   4.278  0.2683  0.2853  0.1121
 3132SOL    HW120855   4.584   3.278   4.311  0.1021  0.1641  0.2446
 3132SOL    HW220856   4.491   3.360   4.368 -2.4746  2.7743 -1.3106
 3133SOL     OW20857   1.277   1.963   1.780  0.1225  0.0478 -0.4725
 3133SOL    HW120858   1.263   2.015   1.860 -0.0326 -0.8182  0.0676
 3133SOL    HW220859   1.312   1.882   1.818 -2.2176 -1.2709 -1.1120
 3134SOL     OW20860   2.826   3.979   4.201 -0.2978 -0.1354 -0.3212
 3134SOL    HW120861   2.848   4.051   4.142  0.4793 -0.1712 -0.0855
 3134SOL    HW220862   2.745   4.001   4.246 -0.1028  2.1507 -1.0980
 3135SOL     OW20863   3.498   3.527   3.606 -0.2263 -0.0181  0.4145
 3135SOL    HW120864   3.545   3.606   3.634  1.0899 -0.9005  0.6418
 3135SOL    HW220865   3.456   3.557   3.525  1.3610  0.6411 -0.1524
 3136SOL     OW20866   2.188   1.788   4.036  0.3756  0.4086  0.7438
 3136SOL    HW120867   2.265   1.740   4.066 -1.5632 -1.0068  3.4947
 3136SOL    HW220868   2.128   1.764   4.107 -1.5841  0.6316 -0.8391
 3137SOL     OW20869   2.958   2.592   4.707  0.2172  0.8004  0.1968
 3137SOL    HW120870   3.052   2.608   4.697  0.7761 -1.3303  2.0883
 3137SOL    HW220871   2.946   2.512   4.758 -2.4093 -0.8105 -2.9787
 3138SOL     OW20872   0.542   3.514   4.875  0.3241  0.0908 -0.1338
 3138SOL    HW120873   0.541   3.510   4.971  1.2595 -1.1849 -0.1900
 3138SOL    HW220874   0.616   3.574   4.862 -0.5754  1.7027  1.9659
 3139SOL     OW20875   1.251   1.262   9.303 -0.1911 -0.9576 -0.3353
 3139SOL    HW120876   1.252   1.357   9.295  1.1030 -1.1574 -2.5992
 3139SOL    HW220877   1.165   1.249   9.343 -1.2786 -1.4600 -2.8873
 3140SOL     OW20878   3.130   1.790   1.433  0.1758 -0.3558 -0.3144
 3140SOL    HW120879   3.090   1.724   1.490  2.8990 -1.1266  0.7089
 3140SOL    HW220880   3.054   1.820   1.382  1.3459  0.1851 -1.7410
 3141SOL     OW20881   2.272   2.220   0.174  0.0029  0.1250  0.0952
 3141SOL    HW120882   2.192   2.217   0.225 -0.3137 -0.9044 -0.4759
 3141SOL    HW220883   2.259   2.147   0.113  0.9252  0.6566 -0.7555
 3142SOL     OW20884   4.538   1.682   5.425 -0.0214  0.1225  0.1667
 3142SOL    HW120885   4.607   1.681   5.359  1.5821  0.3633  1.8266
 3142SOL    HW220886   4.480   1.749   5.390 -0.1595  0.3613  0.8573
 3143SOL     OW20887   2.186   4.523  17.655  0.6758  0.0828  0.0439
 3143SOL    HW120888   2.190   4.486  17.567 -1.7044 -0.2000  0.0607
 3143SOL    HW220889   2.182   4.440   0.011 -0.0704 -0.1657 -0.4584
 3144SOL     OW20890   1.617   3.887   4.763  0.1142 -0.0398 -0.2296
 3144SOL    HW120891   1.572   3.814   4.807 -0.9867  0.9190  0.2349
 3144SOL    HW220892   1.711   3.880   4.775 -0.0481  0.3545  1.3604
 3145SOL     OW20893   4.051   4.371   4.388  0.2089 -0.4909  0.3513
 3145SOL    HW120894   4.103   4.452   4.394 -1.0009  0.4180 -1.2278
 3145SOL    HW220895   4.123   4.309   4.378 -0.7060 -1.2332 -1.7128
 3146SOL     OW20896   4.035   4.014   3.262 -0.1089 -0.5850  0.5985
 3146SOL    HW120897   4.069   4.104   3.268  0.9233 -0.7862 -2.7177
 3146SOL    HW220898   4.112   3.961   3.278  0.5890 -0.8988 -3.8100
 3147SOL     OW20899   1.346   0.026   8.033 -0.2146 -0.0330  0.8623
 3147SOL    HW120900   1.297   0.030   8.115 -2.0285 -0.5693 -0.2171
 3147SOL    HW220901   1.365   4.655   8.029  0.6552  0.1230  1.1335
 3148SOL     OW20902   3.229   0.330   0.617  0.2515  0.0820  0.3177
 3148SOL    HW120903   3.215   0.413   0.662  0.2963  0.8178 -1.0342
 3148SOL    HW220904   3.210   0.269   0.689 -1.0677 -0.5847 -0.5974
 3149SOL     OW20905   1.305   2.636   0.641 -0.1355  0.0618 -0.0587
 3149SOL    HW120906   1.320   2.633   0.736  0.3299 -2.1535 -0.1986
 3149SOL    HW220907   1.236   2.570   0.630 -0.3810  0.2173  0.5441
 3150SOL     OW20908   0.033   0.602   9.195  0.2630 -0.2568  0.6018
 3150SOL    HW120909   0.104   0.610   9.259  0.9673 -0.9218 -0.0873
 3150SOL    HW220910   0.052   0.676   9.137  0.7438  1.0602  2.4326
 3151SOL     OW20911   4.000   2.389   5.682  0.2924 -0.0921  0.2731
 3151SOL    HW120912   4.060   2.399   5.609  3.0421 -2.1440  2.2370
 3151SOL    HW220913   3.917   2.390   5.634 -0.4180  1.3191  1.5160
 3152SOL     OW20914   4.025   0.401   7.315 -0.2462 -0.7267  0.2335
 3152SOL    HW120915   3.954   0.452   7.353  1.1471  2.0137 -0.8717
 3152SOL    HW220916   4.064   0.454   7.246 -0.8868  0.7535  1.0135
 3153SOL     OW20917   1.677   2.283   9.103  0.2642 -0.0285 -0.2118
 3153SOL    HW120918   1.682   2.254   9.194 -0.5297 -0.0731 -0.1775
 3153SOL    HW220919   1.669   2.198   9.061  0.8979 -0.3149  0.2569
 3154SOL     OW20920   2.958   1.595   7.225 -0.2406  0.2648 -1.0635
 3154SOL    HW120921   2.991   1.558   7.307 -0.3626  0.9178 -0.7244
 3154SOL    HW220922   2.866   1.581   7.245  0.2446 -0.3134  0.7960
 3155SOL     OW20923   3.185   0.321   2.687 -0.2169  0.3886 -0.1239
 3155SOL    HW120924   3.149   0.404   2.718 -2.0936  0.1502 -1.6796
 3155SOL    HW220925   3.138   0.262   2.744  0.0911  0.4514  0.1928
 3156SOL     OW20926   2.901   2.190  10.044  0.3447  0.7669  0.0429
 3156SOL    HW120927   2.936   2.230   9.964  1.6295 -1.0556 -0.3197
 3156SOL    HW220928   2.932   2.100  10.033  0.0636  0.8045 -1.0233
 3157SOL     OW20929   1.541   3.189   3.029  0.1560  0.2641 -0.1671
 3157SOL    HW120930   1.489   3.116   3.064  0.7323  0.4918  1.1924
 3157SOL    HW220931   1.504   3.203   2.942  0.7560 -1.5804 -0.7252
 3158SOL     OW20932   0.241   3.014   8.969 -0.1862  0.2087  0.2512
 3158SOL    HW120933   0.302   3.073   8.926 -1.0151 -0.0381 -1.2643
 3158SOL    HW220934   0.269   2.928   8.936 -0.5527  0.3386 -0.3965
 3159SOL     OW20935   3.872   2.778   4.498 -0.0160 -0.6229  0.4082
 3159SOL    HW120936   3.798   2.817   4.452  0.6834  0.6502  0.3635
 3159SOL    HW220937   3.876   2.837   4.574  0.2205  0.7103 -0.6424
 3160SOL     OW20938   1.763   3.286   3.349  0.5258  0.1375 -0.0214
 3160SOL    HW120939   1.833   3.351   3.352  1.1629 -0.5013 -1.1932
 3160SOL    HW220940   1.791   3.243   3.430 -0.8322  0.2704  0.5344
 3161SOL     OW20941   0.103   2.487   2.821 -0.4463  0.4262 -0.5746
 3161SOL    HW120942   0.167   2.430   2.864  1.5639  0.4798 -3.4695
 3161SOL    HW220943   0.039   2.420   2.798  1.5447 -1.2921 -1.1673
 3162SOL     OW20944   4.328   1.152   9.486 -0.7181 -0.4213  0.8893
 3162SOL    HW120945   4.395   1.140   9.419 -1.2285 -0.8120  0.4546
 3162SOL    HW220946   4.250   1.173   9.434 -0.1775 -1.9052 -0.5126
 3163SOL     OW20947   4.084   4.218   0.353  0.3049 -0.5904 -0.0834
 3163SOL    HW120948   4.137   4.281   0.304  0.2589 -0.0735  0.5296
 3163SOL    HW220949   4.097   4.148   0.289  2.4438  0.7367 -1.1146
 3164SOL     OW20950   0.180   3.136   4.974  0.0447  0.2851  0.2917
 3164SOL    HW120951   0.232   3.170   5.047  0.5987  1.4061 -0.6162
 3164SOL    HW220952   0.243   3.086   4.922 -0.7638 -0.5409  0.1071
 3165SOL     OW20953   0.506   3.769   0.783 -0.2450  0.3711  0.0426
 3165SOL    HW120954   0.477   3.860   0.782  0.1209  0.4693 -1.8638
 3165SOL    HW220955   0.538   3.763   0.693  1.1113 -0.2536  0.5604
 3166SOL     OW20956   4.269   3.220  11.585 -1.1321 -0.5009  0.0597
 3166SOL    HW120957   4.294   3.185  11.499  0.0214  1.1650 -0.2837
 3166SOL    HW220958   4.197   3.161  11.610 -0.7934 -0.2251  1.6648
 3167SOL     OW20959   1.745   3.813   6.902  0.1061  0.2349 -0.7878
 3167SOL    HW120960   1.653   3.810   6.876  0.2281  1.0164 -1.3281
 3167SOL    HW220961   1.746   3.769   6.987  0.3650  3.9102  1.1269
 3168SOL     OW20962   3.381   1.646   9.006 -0.0197  0.0849 -0.0231
 3168SOL    HW120963   3.466   1.623   8.967 -1.0451  1.3678 -3.0110
 3168SOL    HW220964   3.348   1.557   9.018 -1.4422  0.6408  0.1053
 3169SOL     OW20965   2.662   1.271   4.774 -0.4107 -0.3210 -0.2578
 3169SOL    HW120966   2.626   1.324   4.845  1.2678 -1.2580  1.2925
 3169SOL    HW220967   2.706   1.204   4.825  0.4692 -2.2269 -3.5437
 3170SOL     OW20968   4.023   2.503   4.752  0.0956  0.1802  0.0399
 3170SOL    HW120969   4.061   2.490   4.665  0.2943  2.7625 -0.2429
 3170SOL    HW220970   4.091   2.500   4.819 -0.6262 -0.8009  0.7472
 3171SOL     OW20971   3.610   1.834   4.632  0.5548 -0.4384 -0.2029
 3171SOL    HW120972   3.538   1.887   4.598  0.8272  0.6927  0.9642
 3171SOL    HW220973   3.667   1.898   4.674  1.5425 -0.1294 -2.0339
 3172SOL     OW20974   2.641   3.050   3.484 -0.3294 -0.6348  0.3611
 3172SOL    HW120975   2.716   3.006   3.443 -0.8371  2.3365 -3.7145
 3172SOL    HW220976   2.581   2.976   3.495 -0.3338 -0.4765  1.4161
 3173SOL     OW20977   2.295   4.484   7.723  0.1300 -0.1232 -0.2456
 3173SOL    HW120978   2.384   4.461   7.749 -1.1329 -0.9652  3.4122
 3173SOL    HW220979   2.301   4.470   7.629 -0.3582  1.3919 -0.5004
 3174SOL     OW20980   3.973   0.045   9.022 -0.0490 -0.1775  0.0793
 3174SOL    HW120981   4.003   0.136   9.025 -0.9659  0.1853 -1.9815
 3174SOL    HW220982   3.957   0.033   8.929 -2.6061 -0.5829  0.5687
 3175SOL     OW20983   1.004   3.746  15.602  0.0855 -0.0299  0.1525
 3175SOL    HW120984   0.963   3.774  15.520  0.6805  0.9113  0.1755
 3175SOL    HW220985   0.933   3.725  15.662  0.7406  2.3850  1.7717
 3176SOL     OW20986   4.256   1.098   7.254  0.4650 -0.1393  0.2433
 3176SOL    HW120987   4.201   1.070   7.181 -1.0308 -0.2888  1.4351
 3176SOL    HW220988   4.207   1.176   7.281 -0.6773 -0.9632  0.5645
 3177SOL     OW20989   3.556   0.522   5.629 -0.3129  0.1839  0.3822
 3177SOL    HW120990   3.582   0.450   5.685  0.7051  0.4801  0.2987
 3177SOL    HW220991   3.499   0.571   5.689  0.2681  0.5792  0.6093
 3178SOL     OW20992   4.633   0.622   6.284 -0.5396  0.2352  0.4035
 3178SOL    HW120993   4.584   0.542   6.262 -1.2037  0.9640 -0.7687
 3178SOL    HW220994   4.561   0.681   6.307 -1.9342 -0.9388 -0.9715
 3179SOL     OW20995   3.292   0.883  10.242  0.3024 -1.2011 -0.1218
 3179SOL    HW120996   3.199   0.902  10.234  0.7357  0.8807 -0.3438
 3179SOL    HW220997   3.319   0.926  10.160  1.1977  1.4648  1.5816
 3180SOL     OW20998   2.650   1.029   3.719  0.2117  0.1083 -0.4346
 3180SOL    HW120999   2.595   1.084   3.774 -1.5904 -1.8545 -0.2685
 3180SOL    HW221000   2.643   0.952   3.775  2.8782  0.3375  0.1916
 3181SOL     OW21001   0.463   2.608   0.972 -0.1957  0.7575  0.5425
 3181SOL    HW121002   0.406   2.683   0.958 -2.4683 -0.9493  0.7496
 3181SOL    HW221003   0.403   2.539   0.999  0.4068  1.0713  2.7241
 3182SOL     OW21004   1.554   1.818   8.437  0.4788  0.0781 -0.1598
 3182SOL    HW121005   1.586   1.881   8.502 -0.4335  0.4658 -0.0914
 3182SOL    HW221006   1.533   1.739   8.485 -1.8278  2.1079  2.1569
 3183SOL     OW21007   0.203   3.944  11.513 -0.4943  0.4344 -0.2922
 3183SOL    HW121008   0.179   3.926  11.422 -2.7874 -0.4324  0.4941
 3183SOL    HW221009   0.199   4.040  11.513  0.6663  0.4741 -0.3758
 3184SOL     OW21010   0.657   4.376   6.479  0.0940  0.5850  1.0145
 3184SOL    HW121011   0.749   4.395   6.463 -0.0570 -0.3593 -0.9095
 3184SOL    HW221012   0.614   4.459   6.456  0.3394  1.0098  2.0975
 3185SOL     OW21013   2.052   3.958   5.468 -0.2293 -0.1913  0.1380
 3185SOL    HW121014   2.066   3.937   5.560  0.5146  0.5618  0.1983
 3185SOL    HW221015   2.142   3.975   5.440  0.0570 -0.8833  0.6353
 3186SOL     OW21016   4.579   1.708   6.392 -0.4265  0.4627 -0.3362
 3186SOL    HW121017   4.508   1.769   6.375  0.5699  2.0026  0.9749
 3186SOL    HW221018   4.650   1.765   6.423  2.0583 -3.2782  0.8414
 3187SOL     OW21019   3.116   3.152   2.109  0.1278  0.4435 -0.4268
 3187SOL    HW121020   3.095   3.064   2.142  0.7278  0.3683 -0.2365
 3187SOL    HW221021   3.211   3.144   2.117  0.1538  0.5659 -0.6371
 3188SOL     OW21022   1.190   1.007   8.960 -0.1003 -0.1916 -0.1414
 3188SOL    HW121023   1.123   1.004   8.892  0.0119  1.3723 -0.3254
 3188SOL    HW221024   1.150   0.946   9.022  0.9395 -0.6407  0.0898
 3189SOL     OW21025   4.107   0.299  13.580  0.1891  0.2758  0.8423
 3189SOL    HW121026   4.098   0.352  13.660 -2.6959  0.1733  0.5606
 3189SOL    HW221027   4.065   0.217  13.603 -3.5744  2.0114  0.1856
 3190SOL     OW21028   0.935   2.161   1.725 -0.1733 -0.1929  0.7113
 3190SOL    HW121029   1.016   2.185   1.680 -0.4930 -0.1286  0.1690
 3190SOL    HW221030   0.953   2.068   1.738 -1.6697 -0.6715 -0.5288
 3191SOL     OW21031   2.147   1.332   2.150  0.0123  0.3301  0.5050
 3191SOL    HW121032   2.196   1.262   2.193  0.0279  1.0082  1.5879
 3191SOL    HW221033   2.214   1.380   2.101 -2.3536  2.9923 -0.1004
 3192SOL     OW21034   1.158   0.953   2.279  0.2313  0.5419 -0.0066
 3192SOL    HW121035   1.171   1.044   2.253  0.7166  0.4492 -0.0895
 3192SOL    HW221036   1.246   0.924   2.305 -0.4968 -1.9280 -0.3024
 3193SOL     OW21037   3.598   3.982   6.002  0.0090  0.1742 -0.6219
 3193SOL    HW121038   3.654   3.904   6.008 -0.9831 -0.3819  1.4773
 3193SOL    HW221039   3.666   4.041   6.036 -2.2321  0.5515  3.2197
 3194SOL     OW21040   2.540   1.394  15.459 -0.3456  0.0652 -0.5400
 3194SOL    HW121041   2.629   1.417  15.430 -1.0279  1.6107 -1.4230
 3194SOL    HW221042   2.550   1.380  15.553 -2.2452 -0.7518 -0.4710
 3195SOL     OW21043   1.109   2.042   6.074  0.1222  0.6674 -1.0860
 3195SOL    HW121044   1.042   1.999   6.020 -0.2184 -1.9114  1.3689
 3195SOL    HW221045   1.183   2.011   6.021 -0.5055 -2.2108 -0.3035
 3196SOL     OW21046   4.349   3.715  14.595 -0.1698  0.2407  0.2535
 3196SOL    HW121047   4.289   3.687  14.665 -0.1180 -1.4067 -0.3738
 3196SOL    HW221048   4.310   3.800  14.575  0.9756  1.0183  1.3310
 3197SOL     OW21049   2.861   0.526   8.596  0.0517  0.3234  0.0304
 3197SOL    HW121050   2.911   0.456   8.554 -3.2828 -2.0367  0.0490
 3197SOL    HW221051   2.775   0.497   8.567 -0.2672  0.0909  1.2184
 3198SOL     OW21052   3.765   1.572   4.322  0.2252  0.5983 -0.2565
 3198SOL    HW121053   3.830   1.615   4.379  0.1078  0.2847  0.1166
 3198SOL    HW221054   3.822   1.509   4.279 -1.9723 -0.1148 -2.1014
 3199SOL     OW21055   4.302   2.411  12.007  0.2256  0.8778 -0.0450
 3199SOL    HW121056   4.253   2.354  12.065  0.5403  1.8112  1.1179
 3199SOL    HW221057   4.392   2.386  12.030 -0.0195  0.6305  0.6333
 3200SOL     OW21058   2.201   4.641   3.693 -0.1378 -0.4373 -0.0300
 3200SOL    HW121059   2.132   4.577   3.672 -2.0863  0.5838  3.1753
 3200SOL    HW221060   2.259   4.644   3.618  0.9680  0.4979  0.8589
 3201SOL     OW21061   0.779   1.975   3.927 -0.0875  0.2035 -0.9265
 3201SOL    HW121062   0.689   1.956   3.954  0.2734 -1.0385 -0.5793
 3201SOL    HW221063   0.780   2.070   3.929 -1.5598  0.1312  3.7942
 3202SOL     OW21064   3.399   0.226   0.425  0.4814 -0.0693 -0.1099
 3202SOL    HW121065   3.414   0.158   0.490 -0.7123  0.1524  0.3974
 3202SOL    HW221066   3.338   0.282   0.473  0.8614  0.1880  0.0784
 3203SOL     OW21067   0.478   0.677   2.769 -0.7894  0.1405 -0.4993
 3203SOL    HW121068   0.395   0.710   2.804 -0.7246 -1.2546  0.9328
 3203SOL    HW221069   0.463   0.583   2.779 -1.3907  0.1352 -1.3857
 3204SOL     OW21070   1.104   4.626  12.582  0.0145  0.8886  0.0874
 3204SOL    HW121071   1.040   4.625  12.653  1.1769 -0.5410  1.1099
 3204SOL    HW221072   1.125   4.719  12.576  0.4665  0.6937 -1.3091
 3205SOL     OW21073   0.388   3.102   2.963  0.4144  0.0173  0.2500
 3205SOL    HW121074   0.421   3.055   3.040 -0.4124  1.9232  1.8021
 3205SOL    HW221075   0.316   3.156   2.997  1.1371  0.6190  0.8322
 3206SOL     OW21076   2.615   3.345   5.323 -0.8775  0.3555 -0.3979
 3206SOL    HW121077   2.592   3.423   5.374  0.4803  1.5659 -1.6391
 3206SOL    HW221078   2.595   3.273   5.383 -0.1828  1.2059  0.8558
 3207SOL     OW21079   3.696   4.709  11.305 -0.5111 -0.2401 -0.1863
 3207SOL    HW121080   3.735   4.684  11.389 -0.0705 -0.1851 -0.3701
 3207SOL    HW221081   3.733   0.071  11.280 -0.0858  0.0210  1.3467
 3208SOL     OW21082   0.768   0.544   3.646 -0.5744  0.0906  0.6408
 3208SOL    HW121083   0.700   0.477   3.651 -0.0926 -0.6232 -2.5323
 3208SOL    HW221084   0.793   0.545   3.739 -1.5910 -0.0943  0.9152
 3209SOL     OW21085   1.053   2.859   0.493  0.5843  0.3499  0.1394
 3209SOL    HW121086   1.120   2.867   0.425 -0.2393 -0.8496 -0.8267
 3209SOL    HW221087   0.994   2.800   0.447 -0.5139  1.4829  0.0935
 3210SOL     OW21088   4.358   3.696   0.927 -0.3205  0.1222  0.1033
 3210SOL    HW121089   4.289   3.723   0.866 -0.6754 -1.7845 -0.3400
 3210SOL    HW221090   4.340   3.602   0.933  0.7977 -0.1117 -0.2840
 3211SOL     OW21091   1.383   0.562   4.292  0.7410  0.0607  0.4683
 3211SOL    HW121092   1.463   0.578   4.341  0.5402 -2.2514  1.5393
 3211SOL    HW221093   1.370   0.470   4.315 -0.6453  0.1721  0.1295
 3212SOL     OW21094   0.955   1.880   1.764 -0.4092  0.4867  0.1773
 3212SOL    HW121095   0.876   1.828   1.774 -0.6483  1.3391  2.6412
 3212SOL    HW221096   1.006   1.835   1.696 -0.0369 -1.5491  1.8167
 3213SOL     OW21097   1.379   0.324  14.275 -0.2453 -1.1972  0.0398
 3213SOL    HW121098   1.366   0.281  14.190  1.4385  0.2723 -0.9583
 3213SOL    HW221099   1.397   0.414  14.248 -1.8050 -0.8761  0.0978
 3214SOL     OW21100   1.501   1.685  11.017 -0.2967 -0.0909  0.0681
 3214SOL    HW121101   1.506   1.749  10.945  2.6144 -0.9792 -0.4946
 3214SOL    HW221102   1.443   1.736  11.074 -0.1258 -0.7926  0.8788
 3215SOL     OW21103   2.750   3.088   4.517  0.2821  0.0022  0.1652
 3215SOL    HW121104   2.838   3.090   4.554 -0.2125 -0.9455  1.4032
 3215SOL    HW221105   2.713   3.053   4.598 -1.1701 -0.1878 -0.5795
 3216SOL     OW21106   2.640   4.638   6.504  0.2694  0.3407  0.1053
 3216SOL    HW121107   2.684   4.618   6.421 -2.4203  2.1530 -1.7565
 3216SOL    HW221108   2.547   4.624   6.485  0.3648 -0.7494  0.4493
 3217SOL     OW21109   1.395   1.500   5.033 -0.7216  0.4156 -0.0724
 3217SOL    HW121110   1.476   1.520   4.986  0.5733  3.0136  3.2636
 3217SOL    HW221111   1.342   1.550   4.971 -1.3783  0.3953  0.4681
 3218SOL     OW21112   2.647   0.120   2.193 -0.6259 -0.0834  0.2462
 3218SOL    HW121113   2.582   0.089   2.130  0.8775 -1.4728 -0.6330
 3218SOL    HW221114   2.708   0.046   2.194 -1.8413 -1.0958  0.0505
 3219SOL     OW21115   4.387   3.331   5.097  0.2762  0.1881 -0.1080
 3219SOL    HW121116   4.433   3.400   5.144  1.6654 -2.9790  3.1497
 3219SOL    HW221117   4.299   3.368   5.097  0.2220  0.0589 -0.0319
 3220SOL     OW21118   2.091   0.506  15.534  0.5982  0.1146 -0.0344
 3220SOL    HW121119   2.169   0.540  15.489  1.4532 -0.3671  1.0862
 3220SOL    HW221120   2.017   0.534  15.480 -0.5605 -0.7320  1.1094
 3221SOL     OW21121   2.683   3.826   3.078  0.1983  0.5918 -1.0606
 3221SOL    HW121122   2.706   3.808   2.986 -2.5613  0.2884 -1.6775
 3221SOL    HW221123   2.670   3.745   3.127  0.4338  1.1442 -0.0855
 3222SOL     OW21124   2.639   1.085  16.899  0.1174 -0.7103 -0.1316
 3222SOL    HW121125   2.556   1.132  16.886  1.6286  2.9418  3.6974
 3222SOL    HW221126   2.701   1.122  16.836  0.6312  3.0397  2.5881
 3223SOL     OW21127   4.430   1.545  15.296 -0.2881  0.3992  0.2165
 3223SOL    HW121128   4.438   1.619  15.355  1.0582 -0.1119  0.6647
 3223SOL    HW221129   4.410   1.588  15.212 -1.3564  1.7829  1.1854
 3224SOL     OW21130   0.546   4.159   4.241  0.2823  0.2957 -0.2823
 3224SOL    HW121131   0.576   4.230   4.297 -1.2082 -0.1695  1.1112
 3224SOL    HW221132   0.632   4.129   4.211 -0.4328  1.0718 -3.1307
 3225SOL     OW21133   0.321   4.251   5.838 -0.0192  0.4131 -0.1929
 3225SOL    HW121134   0.391   4.284   5.781  0.0442  1.0197  0.2358
 3225SOL    HW221135   0.257   4.224   5.772 -0.1467  2.0143 -0.7119
 3226SOL     OW21136   1.162   3.273   8.120 -0.4316  0.3356 -0.1384
 3226SOL    HW121137   1.083   3.316   8.087  0.0944 -1.6830 -4.0361
 3226SOL    HW221138   1.192   3.210   8.054  0.9038 -0.3839  1.1451
 3227SOL     OW21139   2.538   2.087   1.042 -0.1488  0.2374 -0.1896
 3227SOL    HW121140   2.569   2.067   1.131 -2.1244  1.1477  0.7036
 3227SOL    HW221141   2.481   2.164   1.052 -0.6178 -0.0428 -0.6529
 3228SOL     OW21142   1.651   0.640   0.897  0.3382 -0.0969  0.2186
 3228SOL    HW121143   1.708   0.710   0.929  1.2686 -0.2630 -1.0670
 3228SOL    HW221144   1.669   0.562   0.949 -0.7649  1.1283  2.4088
 3229SOL     OW21145   3.081   4.427  17.248 -0.7214 -0.0664 -0.3498
 3229SOL    HW121146   3.138   4.503  17.261  0.3837 -0.7929 -0.9769
 3229SOL    HW221147   3.048   4.445  17.160  1.2827 -0.2010 -1.1224
 3230SOL     OW21148   3.443   4.622  13.081  0.0223 -0.4344 -0.5391
 3230SOL    HW121149   3.427   4.537  13.039 -2.8952  0.7919 -1.9114
 3230SOL    HW221150   3.448   4.674  13.000 -1.8254 -1.4491 -1.3205
 3231SOL     OW21151   1.343   3.966   6.225  0.4048  1.0119  0.6787
 3231SOL    HW121152   1.293   3.885   6.240  2.4552 -0.4617 -0.4266
 3231SOL    HW221153   1.411   3.936   6.165  1.6768  0.2625  2.4739
 3232SOL     OW21154   2.664   1.245   0.426 -0.3174 -0.1717  1.2847
 3232SOL    HW121155   2.572   1.233   0.404  0.5031  0.2175 -2.2549
 3232SOL    HW221156   2.661   1.339   0.409  0.1538  0.2966  3.6826
 3233SOL     OW21157   4.412   2.113   6.576  0.2598  0.2072  0.0876
 3233SOL    HW121158   4.386   2.091   6.665  0.8781  1.0271  0.4670
 3233SOL    HW221159   4.394   2.207   6.570  0.1463  0.2805  1.8231
 3234SOL     OW21160   3.926   2.350   7.461  0.4923 -0.1747 -0.1012
 3234SOL    HW121161   4.001   2.299   7.493  1.7697  2.1948  0.6785
 3234SOL    HW221162   3.895   2.379   7.547 -0.9923 -0.9639 -0.3857
 3235SOL     OW21163   1.587   0.147  12.356 -0.0918  0.2433  0.3686
 3235SOL    HW121164   1.528   0.170  12.428  2.7057 -2.9999  3.7333
 3235SOL    HW221165   1.542   0.190  12.283  0.8621 -3.4323 -2.4183
 3236SOL     OW21166   3.479   1.055  11.271  0.0906  0.0883 -0.0092
 3236SOL    HW121167   3.391   1.085  11.296  0.2005 -0.8581  1.5191
 3236SOL    HW221168   3.506   1.129  11.216 -3.5813 -0.2856 -2.3551
 3237SOL     OW21169   3.262   4.656   2.868  0.6282  0.7647  0.4855
 3237SOL    HW121170   3.212   4.656   2.950  1.6695 -0.9833  1.1246
 3237SOL    HW221171   3.333   4.595   2.888  2.0366  2.1124 -0.4046
 3238SOL     OW21172   3.136   4.225   3.232 -0.1619  0.1824 -0.7877
 3238SOL    HW121173   3.178   4.167   3.295 -0.4530 -0.4293 -1.1560
 3238SOL    HW221174   3.200   4.219   3.160 -0.4258 -2.3706 -0.8313
 3239SOL     OW21175   1.969   3.958   5.944  0.2709  0.5933  0.1571
 3239SOL    HW121176   1.886   3.999   5.921  0.9568  1.8991  0.0107
 3239SOL    HW221177   2.014   3.968   5.860  1.4460 -1.1697  0.5769
 3240SOL     OW21178   1.668   2.799  13.603 -0.2541  0.4171 -0.4940
 3240SOL    HW121179   1.634   2.747  13.676  1.4344  1.0161  0.7075
 3240SOL    HW221180   1.739   2.742  13.574  0.8317  1.5848 -0.0782
 3241SOL     OW21181   3.315   2.273   4.414 -0.1249  0.0910 -0.2958
 3241SOL    HW121182   3.402   2.248   4.445 -0.5873 -0.7893  0.2823
 3241SOL    HW221183   3.325   2.268   4.318 -0.8292  1.6481 -0.4517
 3242SOL     OW21184   3.010   3.295   3.817  0.3437 -0.4834  0.0227
 3242SOL    HW121185   2.945   3.246   3.767 -2.6004  2.4756  0.9634
 3242SOL    HW221186   3.088   3.239   3.812  1.1689  0.5640  1.0691
 3243SOL     OW21187   4.352   2.544   6.311  0.3530  0.7234  0.2448
 3243SOL    HW121188   4.318   2.501   6.390 -1.2968 -0.1919 -0.9421
 3243SOL    HW221189   4.278   2.571   6.257 -0.4283  1.1168  1.5170
 3244SOL     OW21190   0.001   0.178   4.072  0.4131 -0.0640  0.3600
 3244SOL    HW121191   0.011   0.205   3.981  0.3344  1.5483  0.8265
 3244SOL    HW221192   0.040   0.091   4.069  1.0630  0.3126 -2.1215
 3245SOL     OW21193   2.865   3.598   5.272 -0.2012 -0.6927  0.5677
 3245SOL    HW121194   2.944   3.650   5.286 -1.7578  1.4333  1.4122
 3245SOL    HW221195   2.834   3.637   5.190  0.7983 -0.8092  0.1445
 3246SOL     OW21196   1.778   0.398   1.870  0.0082 -0.0210  0.1146
 3246SOL    HW121197   1.820   0.459   1.931 -1.2709  1.2408 -0.2571
 3246SOL    HW221198   1.693   0.441   1.857 -0.7438 -1.0211  1.7531
 3247SOL     OW21199   4.420   0.259  15.216  0.1424 -0.5635 -0.2013
 3247SOL    HW121200   4.439   0.211  15.135  2.2085 -1.5021  0.8428
 3247SOL    HW221201   4.327   0.283  15.210 -0.2234 -1.2906  2.6877
 3248SOL     OW21202   1.240   1.141  14.540 -0.1208 -0.7356 -0.1486
 3248SOL    HW121203   1.274   1.173  14.624  0.3192  1.2579 -1.0893
 3248SOL    HW221204   1.314   1.085  14.516 -0.3835 -1.4304  0.6741
 3249SOL     OW21205   1.593   4.327   2.283  0.1024 -0.0458 -0.1044
 3249SOL    HW121206   1.533   4.253   2.276 -1.8599  1.3325  2.3221
 3249SOL    HW221207   1.641   4.327   2.200  0.0139  1.1604 -0.1561
 3250SOL     OW21208   3.015   0.338   5.901  0.1646  0.4922 -0.3637
 3250SOL    HW121209   3.059   0.280   5.963 -2.2530  1.6330  2.3464
 3250SOL    HW221210   3.042   0.297   5.818 -0.7530 -0.3520 -0.2549
 3251SOL     OW21211   2.846   1.592  14.912  0.1892 -0.3931  0.9289
 3251SOL    HW121212   2.920   1.556  14.863 -1.3171 -1.2595 -0.7097
 3251SOL    HW221213   2.869   1.685  14.904 -0.1053 -0.4276 -0.3275
 3252SOL     OW21214   4.675   0.871  15.300 -0.1911  0.5677 -0.3892
 3252SOL    HW121215   4.625   0.947  15.269 -0.6344 -0.0014 -1.0709
 3252SOL    HW221216   4.672   0.823  15.217  0.7568  0.3027 -0.2722
 3253SOL     OW21217   3.674   2.707   3.169 -0.3996  0.4663 -0.6178
 3253SOL    HW121218   3.627   2.730   3.249  0.1196 -1.9529  0.3914
 3253SOL    HW221219   3.766   2.719   3.194 -0.5003 -0.9363  0.4683
 3254SOL     OW21220   3.902   3.494   7.497 -0.2039  0.6220  0.7699
 3254SOL    HW121221   3.852   3.544   7.561  0.3655 -0.0911  1.7793
 3254SOL    HW221222   3.981   3.479   7.548 -0.0517  1.1295  0.6812
 3255SOL     OW21223   1.925   0.174   3.674 -0.1642  0.7506  0.5056
 3255SOL    HW121224   1.949   0.141   3.587 -1.0840  2.9890 -0.6110
 3255SOL    HW221225   1.881   0.094   3.702 -1.0710  1.3291  0.7327
 3256SOL     OW21226   0.586   0.573  11.045 -0.2208  0.0978 -0.3873
 3256SOL    HW121227   0.680   0.563  11.061 -0.0294 -1.0838 -2.2138
 3256SOL    HW221228   0.547   0.509  11.105  0.3155 -0.9712 -1.1810
 3257SOL     OW21229   3.679   2.621   7.128 -0.2250  0.1079  0.0855
 3257SOL    HW121230   3.673   2.631   7.223  0.0168  0.2419  0.0847
 3257SOL    HW221231   3.584   2.616   7.114 -0.2409 -2.1816  1.0663
 3258SOL     OW21232   1.453   1.365  17.201 -0.4814 -0.0075 -0.2008
 3258SOL    HW121233   1.372   1.400  17.237 -0.1776 -2.1610  2.5648
 3258SOL    HW221234   1.435   1.391  17.111  0.7690 -1.1164 -0.7701
 3259SOL     OW21235   1.809   3.454   6.506 -0.0826 -0.0310 -0.0201
 3259SOL    HW121236   1.773   3.407   6.581  0.1128 -1.0408 -0.5692
 3259SOL    HW221237   1.791   3.547   6.523 -0.3530 -0.3867  1.6200
 3260SOL     OW21238   3.105   0.725   0.958 -0.0674 -0.6412 -0.2944
 3260SOL    HW121239   3.047   0.654   0.933 -0.6230  0.3600 -1.9002
 3260SOL    HW221240   3.100   0.773   0.874 -0.6731 -1.8687 -0.9517
 3261SOL     OW21241   0.076   2.790   5.195 -0.9650  1.0118  0.2819
 3261SOL    HW121242   0.161   2.810   5.156  0.2425  0.6266  2.7596
 3261SOL    HW221243   0.027   2.857   5.147 -1.2183  1.1046  0.6717
 3262SOL     OW21244   2.746   2.946   4.271  0.0398  0.3136 -0.3319
 3262SOL    HW121245   2.762   2.987   4.357 -0.7465 -1.0280  0.4515
 3262SOL    HW221246   2.785   2.861   4.289 -3.2247 -1.7132 -2.7696
 3263SOL     OW21247   0.184   3.019   7.248  0.1214 -0.4583  0.2321
 3263SOL    HW121248   0.246   3.067   7.303  0.0090  0.3300 -0.3249
 3263SOL    HW221249   0.096   3.047   7.272  0.9379  0.4550  2.1724
 3264SOL     OW21250   0.048   1.553   7.263  0.0706  0.5569 -0.1463
 3264SOL    HW121251   4.711   1.501   7.209 -0.1446 -0.2509  0.8627
 3264SOL    HW221252   0.114   1.493   7.297 -0.0075  1.3124  1.3721
 3265SOL     OW21253   4.407   0.780  12.793 -0.1381 -0.0251 -0.3730
 3265SOL    HW121254   4.457   0.818  12.865  1.2074 -1.6899 -0.4364
 3265SOL    HW221255   4.485   0.750  12.746  0.5508 -1.0436  1.4504
 3266SOL     OW21256   1.403   2.426   7.849  0.0289 -0.3881  0.5377
 3266SOL    HW121257   1.351   2.463   7.920 -1.1818  0.2640 -0.6784
 3266SOL    HW221258   1.390   2.497   7.786  0.1446 -0.4972  0.3882
 3267SOL     OW21259   3.261   0.080   1.164  0.8905  0.6419 -0.3886
 3267SOL    HW121260   3.337   0.057   1.217  0.5684 -0.7155 -0.5123
 3267SOL    HW221261   3.302   0.119   1.087  1.2494 -0.1501 -0.5952
 3268SOL     OW21262   2.807   2.610   0.086  0.2976  0.2010  0.1985
 3268SOL    HW121263   2.843   2.695   0.063  1.4440 -0.4589 -0.4606
 3268SOL    HW221264   2.879   2.593   0.147  0.1870  0.8481  0.5070
 3269SOL     OW21265   1.130   2.005   5.677 -0.4498 -1.0272 -0.3603
 3269SOL    HW121266   1.064   1.992   5.745 -1.4904  1.1586 -0.9612
 3269SOL    HW221267   1.212   1.992   5.724 -1.4627 -1.3954  1.2997
 3270SOL     OW21268   4.672   4.616   7.140  0.5093 -0.2752 -0.1173
 3270SOL    HW121269   4.666   4.635   7.046  0.9577 -0.7881 -0.2478
 3270SOL    HW221270   4.594   4.655   7.180  0.5828 -0.2209 -0.0287
 3271SOL     OW21271   3.697   0.957   3.577 -0.0649 -0.2070 -0.0732
 3271SOL    HW121272   3.654   0.901   3.512 -0.3858 -1.1107  0.9091
 3271SOL    HW221273   3.764   0.892   3.597  0.0779 -0.4735 -1.3965
 3272SOL     OW21274   2.594   4.301   2.451  0.2459 -0.7725 -0.5920
 3272SOL    HW121275   2.602   4.257   2.367  2.9290  0.2289 -0.8497
 3272SOL    HW221276   2.652   4.377   2.442 -1.3354  0.6494  1.0442
 3273SOL     OW21277   0.940   4.480   2.456  0.1111 -0.8041  0.1290
 3273SOL    HW121278   1.011   4.465   2.394  0.1521 -3.2640  0.7364
 3273SOL    HW221279   0.866   4.438   2.411  0.0513 -1.1094  0.5029
 3274SOL     OW21280   2.344   3.278   8.099  0.1861 -0.2696 -0.0204
 3274SOL    HW121281   2.431   3.241   8.084  0.5350 -0.2423  2.0046
 3274SOL    HW221282   2.351   3.328   8.181  1.9502 -0.3023 -0.1551
 3275SOL     OW21283   1.501   4.092   8.031 -0.5387  0.6267  0.4965
 3275SOL    HW121284   1.421   4.084   7.979  0.7173 -0.5869 -1.2527
 3275SOL    HW221285   1.525   4.001   8.048 -1.2016 -0.0034 -1.8615
 3276SOL     OW21286   4.610   2.971  16.184 -0.3380  0.2017 -0.1644
 3276SOL    HW121287   4.528   3.008  16.217 -0.7300 -2.4910  1.9223
 3276SOL    HW221288   4.675   2.978  16.253 -0.7716  0.2461  0.2393
 3277SOL     OW21289   1.431   1.530   1.765  0.5809 -0.0887  0.6009
 3277SOL    HW121290   1.404   1.614   1.802 -0.3600 -0.5183  0.8797
 3277SOL    HW221291   1.516   1.524   1.809  1.2700  1.3662 -0.5495
 3278SOL     OW21292   3.012   0.614   5.853  0.5541  0.0608  0.0180
 3278SOL    HW121293   2.963   0.639   5.931  3.0758 -0.6504  1.8069
 3278SOL    HW221294   3.027   0.521   5.867 -1.9409 -0.2440  0.5915
 3279SOL     OW21295   4.038   1.408  17.482  0.4623  0.2156  0.1267
 3279SOL    HW121296   3.974   1.453  17.539 -0.0893 -0.8359  0.3436
 3279SOL    HW221297   4.074   1.336  17.533 -0.4167 -0.4847 -0.2414
 3280SOL     OW21298   0.165   0.132   9.540 -0.2537 -0.1478  0.2537
 3280SOL    HW121299   0.215   0.201   9.583  2.0374 -1.8254  0.2912
 3280SOL    HW221300   0.087   0.185   9.522  0.7415  0.5847 -1.8150
 3281SOL     OW21301   3.071   1.195   9.968  0.7108 -0.6121  0.3567
 3281SOL    HW121302   3.001   1.228   9.913  0.4425 -0.1051  1.0146
 3281SOL    HW221303   3.143   1.221   9.910 -1.1402 -0.2801 -1.7682
 3282SOL     OW21304   0.543   2.183  13.299 -0.0906 -0.4780 -0.0012
 3282SOL    HW121305   0.468   2.159  13.245  0.5546 -3.4103  0.3919
 3282SOL    HW221306   0.624   2.157  13.255 -0.2236 -0.0902 -0.4646
 3283SOL     OW21307   1.597   0.595   8.842 -0.5094  0.0861  0.3795
 3283SOL    HW121308   1.682   0.560   8.815 -1.1483 -0.7732 -0.5451
 3283SOL    HW221309   1.607   0.689   8.849  1.4551 -0.2363  1.8947
 3284SOL     OW21310   3.427   0.208   0.871 -0.2215  0.2863  0.2593
 3284SOL    HW121311   3.472   0.124   0.884  1.7535  1.1403 -0.9855
 3284SOL    HW221312   3.488   0.274   0.906 -1.0326  1.4319 -0.5087
 3285SOL     OW21313   0.581   2.728   5.247 -0.4442  0.0111 -0.2545
 3285SOL    HW121314   0.581   2.795   5.316  3.0242  0.7933 -0.9971
 3285SOL    HW221315   0.663   2.753   5.203  0.6514 -1.7946  0.7639
 3286SOL     OW21316   1.195   0.998   6.036 -0.5262  0.5496  0.7148
 3286SOL    HW121317   1.126   1.052   5.997 -0.1871 -1.6629 -2.9172
 3286SOL    HW221318   1.140   0.937   6.085  1.1852 -0.0755  1.8719
 3287SOL     OW21319   0.083   4.242   9.563 -0.5161  0.3301  0.7055
 3287SOL    HW121320   4.715   4.249   9.594 -0.6813  2.6161 -0.2513
 3287SOL    HW221321   0.061   4.196   9.483  0.2811 -0.8177  1.1448
 3288SOL     OW21322   0.623   2.938  11.286  0.4066 -0.5701  0.1684
 3288SOL    HW121323   0.581   3.017  11.321  0.8296 -0.6308  0.8223
 3288SOL    HW221324   0.709   2.957  11.322  0.2682 -3.5412  2.0794
 3289SOL     OW21325   4.073   0.724  12.686  0.5084  0.2021  0.3674
 3289SOL    HW121326   4.110   0.636  12.696  1.6046  0.5525 -0.5996
 3289SOL    HW221327   4.107   0.746  12.600  2.6433  0.2523  1.2178
 3290SOL     OW21328   4.475   3.417  17.447  0.3188  0.5400 -0.0752
 3290SOL    HW121329   4.525   3.499  17.447  1.7304 -0.3261 -2.8406
 3290SOL    HW221330   4.393   3.450  17.485 -1.0826 -0.2365 -2.4210
 3291SOL     OW21331   1.411   4.305   7.106 -0.2872 -0.1505  0.4253
 3291SOL    HW121332   1.330   4.281   7.150 -0.7462 -1.8795 -1.3608
 3291SOL    HW221333   1.450   4.219   7.093 -0.9348 -0.5619  1.2387
 3292SOL     OW21334   0.397   1.503   8.648 -0.1105 -0.6744 -0.6799
 3292SOL    HW121335   0.463   1.571   8.633 -0.6825 -0.0886 -0.5076
 3292SOL    HW221336   0.440   1.423   8.617  0.0393 -1.4766  1.5617
 3293SOL     OW21337   2.468   3.697   5.920  0.6338  0.2315 -0.1710
 3293SOL    HW121338   2.517   3.620   5.890  0.0800 -0.1408 -0.1095
 3293SOL    HW221339   2.393   3.652   5.959  0.3086 -0.3642 -1.4832
 3294SOL     OW21340   1.499   0.582  11.380 -0.0239  0.2323 -0.4110
 3294SOL    HW121341   1.466   0.640  11.448  1.8284 -2.5440  2.8509
 3294SOL    HW221342   1.573   0.545  11.427 -1.2470 -0.3547  1.0642
 3295SOL     OW21343   1.342   2.065  16.007  0.3417 -0.3565  0.4500
 3295SOL    HW121344   1.312   2.063  16.098 -2.1300 -0.8025 -0.3845
 3295SOL    HW221345   1.289   1.994  15.973  0.6002 -0.3115 -0.0372
 3296SOL     OW21346   0.217   1.477   3.497  0.7363  0.3094  0.4427
 3296SOL    HW121347   0.196   1.505   3.408  1.2428  1.7058  0.7603
 3296SOL    HW221348   0.297   1.427   3.485 -1.5632 -3.1439 -0.3504
 3297SOL     OW21349   1.718   0.505   3.949  0.1749  0.0598 -0.3623
 3297SOL    HW121350   1.721   0.545   4.036  0.4550 -1.8452  0.4930
 3297SOL    HW221351   1.787   0.439   3.954 -0.1363 -0.2028  0.4640
 3298SOL     OW21352   3.145   1.669   0.054  0.7651  0.0417  0.4802
 3298SOL    HW121353   3.215   1.665   0.120  0.7178  4.2512  0.7789
 3298SOL    HW221354   3.174   1.744   0.002  0.0801  0.9183  1.3619
 3299SOL     OW21355   0.530   2.184   4.315 -0.3242 -0.4409 -0.3123
 3299SOL    HW121356   0.587   2.261   4.309 -0.2103 -0.3660  1.6672
 3299SOL    HW221357   0.507   2.183   4.222  2.7170 -0.5217 -1.0738
 3300SOL     OW21358   1.681   2.396  15.881  0.5090 -0.3075  0.1494
 3300SOL    HW121359   1.677   2.445  15.799  0.0087 -0.2610  0.2003
 3300SOL    HW221360   1.773   2.372  15.897  0.6753  1.2338  1.4673
 3301SOL     OW21361   0.927   3.476  11.435 -0.2227 -0.6617  0.4238
 3301SOL    HW121362   0.966   3.549  11.388  1.5444 -0.8557  1.5723
 3301SOL    HW221363   0.893   3.526  11.509 -2.0519 -1.5859  0.2072
 3302SOL     OW21364   2.985   0.195   8.872  0.5923 -0.0799 -0.0076
 3302SOL    HW121365   2.895   0.195   8.839  0.4050 -2.4695  0.5229
 3302SOL    HW221366   3.013   0.107   8.847 -0.0630 -0.7850  1.6960
 3303SOL     OW21367   1.149   0.632  11.960  0.5701 -0.0489  0.6782
 3303SOL    HW121368   1.177   0.543  11.980 -1.9600 -1.2429 -1.0404
 3303SOL    HW221369   1.181   0.680  12.036 -1.2878  1.4032  0.5460
 3304SOL     OW21370   4.549   4.696   2.491  0.7993  0.6407  0.2610
 3304SOL    HW121371   4.473   0.003   2.440  1.4643 -0.3750 -1.3023
 3304SOL    HW221372   4.580   4.624   2.437  0.8551 -0.2784  1.5078
 3305SOL     OW21373   4.122   2.558  14.013 -0.1474 -0.0291  0.7020
 3305SOL    HW121374   4.141   2.634  13.958 -2.1563 -0.3342 -0.4049
 3305SOL    HW221375   4.136   2.596  14.099 -0.6238 -1.3505  1.3667
 3306SOL     OW21376   4.353   4.460  12.764 -0.1998 -0.2486 -0.0205
 3306SOL    HW121377   4.360   4.499  12.677 -0.0838 -2.2605 -0.9016
 3306SOL    HW221378   4.447   4.453  12.778  0.2811 -0.0656 -3.1023
 3307SOL     OW21379   0.464   4.397   8.847  0.5014 -0.1761 -0.1620
 3307SOL    HW121380   0.548   4.365   8.813  0.0671 -2.1998  0.6242
 3307SOL    HW221381   0.493   4.440   8.928 -1.0211  2.4125 -0.9930
 3308SOL     OW21382   4.570   4.188   1.752 -0.8670 -0.0627  0.3094
 3308SOL    HW121383   4.518   4.267   1.763 -4.2424 -2.5695  2.3793
 3308SOL    HW221384   4.512   4.114   1.770 -0.6365 -0.2814  0.1660
 3309SOL     OW21385   3.222   4.713   4.212  0.0661 -0.0690 -0.0029
 3309SOL    HW121386   3.140   4.685   4.252 -0.5959 -1.9617 -2.6221
 3309SOL    HW221387   3.210   0.077   4.173 -1.6883 -0.6751 -0.7841
 3310SOL     OW21388   4.161   3.359   8.420  0.5278 -0.3277 -0.1036
 3310SOL    HW121389   4.213   3.398   8.349  0.7445 -0.1884  0.1283
 3310SOL    HW221390   4.113   3.291   8.373 -0.3871  1.5661 -1.9244
 3311SOL     OW21391   2.336   0.425   2.573 -0.8187 -0.0315  0.6067
 3311SOL    HW121392   2.417   0.475   2.562 -1.4736  0.7334 -0.6022
 3311SOL    HW221393   2.266   0.483   2.544  1.9687  2.3003 -1.4415
 3312SOL     OW21394   1.248   0.209   2.557 -0.1027 -0.4961 -0.3247
 3312SOL    HW121395   1.231   0.154   2.480 -0.6035 -1.6875  0.6448
 3312SOL    HW221396   1.215   0.159   2.631  0.1164  2.5436  1.8051
 3313SOL     OW21397   4.120   2.920   2.609 -0.4171  0.2040 -0.3314
 3313SOL    HW121398   4.073   2.846   2.570  0.7118 -0.5228 -0.3425
 3313SOL    HW221399   4.052   2.969   2.654  0.2941  0.1202  0.8196
 3314SOL     OW21400   4.374   1.533   8.954  0.0321  0.7808  0.1180
 3314SOL    HW121401   4.375   1.495   9.041  0.6482  2.3299  0.7922
 3314SOL    HW221402   4.331   1.617   8.970 -0.7238  0.6153 -1.0665
 3315SOL     OW21403   0.557   0.180   5.806  0.4656  0.1786  0.3207
 3315SOL    HW121404   0.472   0.223   5.814  1.3557  1.7759  1.0940
 3315SOL    HW221405   0.599   0.202   5.889  1.4234  1.0098 -0.3881
 3316SOL     OW21406   0.350   2.881   5.949 -0.2223  0.3704 -0.3800
 3316SOL    HW121407   0.296   2.926   5.884 -0.2604  1.7447  0.6031
 3316SOL    HW221408   0.413   2.951   5.968  0.5719 -0.3999 -0.1813
 3317SOL     OW21409   1.488   2.048   4.678  0.4710  0.2755  0.1855
 3317SOL    HW121410   1.529   2.132   4.699  1.4898 -0.1041 -0.3366
 3317SOL    HW221411   1.484   2.059   4.583  0.6523 -1.7860 -0.0471
 3318SOL     OW21412   2.764   0.590   3.182  0.0821 -0.0534  0.6409
 3318SOL    HW121413   2.813   0.615   3.104 -0.7520 -1.1014 -0.2127
 3318SOL    HW221414   2.832   0.580   3.249  1.0343 -0.7264 -0.4198
 3319SOL     OW21415   3.175   0.261  15.754  0.1452 -0.1792  0.2408
 3319SOL    HW121416   3.216   0.347  15.767 -1.3401  0.2815  1.9369
 3319SOL    HW221417   3.228   0.209  15.815 -0.1472 -0.8379 -0.0733
 3320SOL     OW21418   3.042   0.230   7.260  0.5075  0.6021 -0.3023
 3320SOL    HW121419   2.982   0.301   7.237  1.3545  2.2409  2.5590
 3320SOL    HW221420   3.102   0.236   7.186 -0.4209  1.9473 -0.9505
 3321SOL     OW21421   2.150   3.501   1.937 -0.4719 -0.1117  0.0207
 3321SOL    HW121422   2.214   3.470   2.001  0.4552  2.7986  0.4905
 3321SOL    HW221423   2.076   3.444   1.959  0.0668 -0.8953 -0.1962
 3322SOL     OW21424   1.887   0.349   2.235 -0.1331 -0.2618  0.2589
 3322SOL    HW121425   1.854   0.331   2.323  0.4063 -1.2068  0.2653
 3322SOL    HW221426   1.827   0.420   2.212 -1.1745 -0.5747  1.9945
 3323SOL     OW21427   1.037   3.599  10.866  0.2242 -0.4024  0.2888
 3323SOL    HW121428   1.058   3.685  10.902 -0.4906  0.2804 -0.9429
 3323SOL    HW221429   0.955   3.585  10.913 -0.3020  2.2589  0.1709
 3324SOL     OW21430   2.640   0.653  15.217  0.0997 -0.2241 -0.0144
 3324SOL    HW121431   2.708   0.692  15.161  0.6933  1.1963  1.6967
 3324SOL    HW221432   2.581   0.626  15.147  0.6520  2.2007 -1.4569
 3325SOL     OW21433   4.417   0.995   5.189  0.5035  0.3399 -0.6294
 3325SOL    HW121434   4.363   1.022   5.114 -1.1827  0.1935  0.5285
 3325SOL    HW221435   4.412   0.900   5.184  0.5190  0.3119 -0.0710
 3326SOL     OW21436   2.610   2.288  17.585  0.0321  0.0689 -0.1361
 3326SOL    HW121437   2.619   2.381  17.606  0.1683  0.4196 -1.7986
 3326SOL    HW221438   2.574   2.257  17.669  0.0493  0.3323 -0.0299
 3327SOL     OW21439   4.695   0.935   6.214 -0.1724  0.4742  0.2347
 3327SOL    HW121440   4.623   0.873   6.202  1.9161 -2.0115  0.6466
 3327SOL    HW221441   0.043   0.891   6.167 -1.3455  1.7917 -2.8305
 3328SOL     OW21442   4.547   2.904   8.505 -0.2296  0.2561 -0.2448
 3328SOL    HW121443   4.548   2.938   8.594 -0.9799  0.8683 -0.4648
 3328SOL    HW221444   4.576   2.816   8.526  1.2736  1.0551  1.0263
 3329SOL     OW21445   0.323   3.685  14.170 -0.3624 -0.0038  0.0621
 3329SOL    HW121446   0.366   3.706  14.253 -0.2855 -2.4369  0.6364
 3329SOL    HW221447   0.381   3.730  14.109 -1.8964  1.8563 -0.0326
 3330SOL     OW21448   2.384   3.866   6.167  0.0223 -0.1998  0.5413
 3330SOL    HW121449   2.374   3.818   6.249  1.4207 -1.3650  0.0417
 3330SOL    HW221450   2.449   3.817   6.116 -0.5851 -0.9257  0.4779
 3331SOL     OW21451   0.324   2.191   6.965  0.0255  0.4858  0.4318
 3331SOL    HW121452   0.242   2.190   7.015  0.0606  2.6309  0.5043
 3331SOL    HW221453   0.305   2.111   6.915 -0.5317  1.1289 -0.3704
 3332SOL     OW21454   4.626   3.914   7.150 -0.1509  0.1246 -0.1582
 3332SOL    HW121455   4.561   3.968   7.195  0.4802  0.1194  0.7704
 3332SOL    HW221456   4.577   3.869   7.081 -1.6437  2.2516 -0.4715
 3333SOL     OW21457   2.649   0.373   5.861  0.0579 -0.0519 -0.3371
 3333SOL    HW121458   2.661   0.397   5.769  1.7359 -1.6008 -0.5184
 3333SOL    HW221459   2.555   0.386   5.870 -0.0758  1.0188 -3.1374
 3334SOL     OW21460   0.495   1.646   7.801 -0.2916 -0.1075  0.0765
 3334SOL    HW121461   0.432   1.628   7.731  0.0190 -0.6376 -0.0631
 3334SOL    HW221462   0.565   1.672   7.740 -0.4117 -0.4134 -0.1941
 3335SOL     OW21463   4.197   0.072   7.236  0.5852 -0.1771 -0.0279
 3335SOL    HW121464   4.240   0.144   7.189 -2.5628  1.7716  0.1090
 3335SOL    HW221465   4.264   0.066   7.303  0.9646 -0.1101 -0.4005
 3336SOL     OW21466   2.065   2.303   1.627 -0.4782  0.8758 -0.4039
 3336SOL    HW121467   1.980   2.343   1.645 -0.0956  0.6690  1.7489
 3336SOL    HW221468   2.123   2.379   1.630 -0.1309  0.5224  1.6025
 3337SOL     OW21469   2.182   1.566   8.658 -0.1699  0.4486 -0.1790
 3337SOL    HW121470   2.101   1.617   8.664  0.7877  2.1366 -1.9683
 3337SOL    HW221471   2.152   1.510   8.586 -2.2316  1.1688  0.1144
 3338SOL     OW21472   0.515   2.332   1.359 -0.3703 -0.7748 -0.6079
 3338SOL    HW121473   0.556   2.293   1.282  0.8533  0.3100 -0.5149
 3338SOL    HW221474   0.594   2.359   1.406  1.1699 -4.2228 -1.2303
 3339SOL     OW21475   0.898   0.212   5.678 -0.7403 -0.7426 -0.5423
 3339SOL    HW121476   0.992   0.220   5.693 -0.8339 -2.1627  0.8530
 3339SOL    HW221477   0.869   0.251   5.761 -0.6711 -1.6709 -0.0846
 3340SOL     OW21478   3.910   3.342   1.166 -0.5619  0.2039  0.0268
 3340SOL    HW121479   3.943   3.349   1.255 -0.6716 -2.9410  0.3112
 3340SOL    HW221480   3.950   3.417   1.122  0.8450  0.7259  2.1939
 3341SOL     OW21481   0.579   0.334  11.246  0.1544  0.0552  0.2922
 3341SOL    HW121482   0.640   0.263  11.226 -1.5552 -1.1416 -0.6538
 3341SOL    HW221483   0.509   0.312  11.185 -0.6732  1.7894  0.6264
 3342SOL     OW21484   1.279   1.148   2.146 -0.3182 -0.3521 -0.2924
 3342SOL    HW121485   1.335   1.117   2.075  1.8871 -0.7927  1.6494
 3342SOL    HW221486   1.348   1.197   2.191  0.1214  0.5514 -1.9411
 3343SOL     OW21487   1.970   0.298   5.906  0.0863  0.1022  0.2850
 3343SOL    HW121488   2.044   0.283   5.849  0.6945 -0.8805  1.3270
 3343SOL    HW221489   1.904   0.248   5.858 -1.7124  0.0517  2.7882
 3344SOL     OW21490   2.767   3.504   7.156 -0.5285 -0.0151 -0.0298
 3344SOL    HW121491   2.829   3.570   7.126  1.1287 -1.9977 -0.9768
 3344SOL    HW221492   2.725   3.489   7.071 -1.3388 -1.0761  0.5499
 3345SOL     OW21493   1.358   0.249   1.192 -0.0520 -0.0871  0.6299
 3345SOL    HW121494   1.338   0.282   1.105  0.8375  0.0614  0.4785
 3345SOL    HW221495   1.398   0.324   1.237 -1.1011  0.3041  0.9026
 3346SOL     OW21496   0.150   0.143   1.866 -0.2803  0.0030 -0.1428
 3346SOL    HW121497   0.213   0.132   1.937 -1.0039 -2.8987  0.0545
 3346SOL    HW221498   0.071   0.134   1.920 -1.4084 -0.7249 -1.9313
 3347SOL     OW21499   1.657   0.811   6.942  0.1944  0.3503 -0.8743
 3347SOL    HW121500   1.717   0.737   6.950  1.0924  1.2433  0.6249
 3347SOL    HW221501   1.597   0.787   6.871 -1.0961 -1.8560  0.9311
 3348SOL     OW21502   4.469   3.717  13.478  0.4519 -0.3470 -0.0174
 3348SOL    HW121503   4.450   3.674  13.562 -1.5097  1.9865  0.6983
 3348SOL    HW221504   4.478   3.810  13.498 -1.0199  0.0270 -1.1815
 3349SOL     OW21505   1.845   4.631   3.781 -0.2520  0.2414  0.1025
 3349SOL    HW121506   1.872   4.601   3.868 -0.8939  0.7457  0.4823
 3349SOL    HW221507   1.910   4.592   3.724 -0.7785 -0.3281 -0.1130
 3350SOL     OW21508   3.024   4.270   6.638 -0.7369  0.1975  0.0712
 3350SOL    HW121509   3.022   4.366   6.648 -1.0354  0.0507  1.5249
 3350SOL    HW221510   3.032   4.246   6.546  0.7727 -0.1284  0.2893
 3351SOL     OW21511   1.891   1.188   5.458 -0.1354  0.2990 -0.0695
 3351SOL    HW121512   1.943   1.206   5.380  0.5850  1.4515  0.6765
 3351SOL    HW221513   1.940   1.225   5.531 -0.8083  2.0363 -0.4785
 3352SOL     OW21514   0.909   1.441   2.908  0.0087  0.3077 -0.0970
 3352SOL    HW121515   0.875   1.521   2.948 -2.0769 -0.9089  0.5734
 3352SOL    HW221516   0.868   1.371   2.959  1.4380 -0.2268  0.3189
 3353SOL     OW21517   2.802   1.120   5.305  0.1619  0.0721 -0.4823
 3353SOL    HW121518   2.732   1.169   5.263  0.7374  0.3889 -1.0605
 3353SOL    HW221519   2.824   1.175   5.380 -2.1852  0.4221 -0.0610
 3354SOL     OW21520   0.755   3.944  15.553  0.2516  0.5858  0.3064
 3354SOL    HW121521   0.682   4.004  15.566 -0.5582  0.1307 -2.2624
 3354SOL    HW221522   0.788   3.960  15.465  1.1840  0.3682  0.6136
 3355SOL     OW21523   3.428   3.782   2.473  0.0329  0.2869  0.2299
 3355SOL    HW121524   3.390   3.871   2.475  0.1815  0.3423  0.4700
 3355SOL    HW221525   3.416   3.753   2.563  2.2131  0.6776  0.6239
 3356SOL     OW21526   0.247   1.372   6.524  0.7469 -0.9724 -0.3340
 3356SOL    HW121527   0.298   1.302   6.566  0.3894 -0.9125  0.2026
 3356SOL    HW221528   0.197   1.411   6.596  1.4797 -1.8445  0.6485
 3357SOL     OW21529   4.485   1.699  10.434  0.2208 -0.2232  0.4396
 3357SOL    HW121530   4.530   1.619  10.461 -1.2709 -0.7793  1.2920
 3357SOL    HW221531   4.502   1.704  10.340 -0.9816 -0.7350  0.1797
 3358SOL     OW21532   2.951   4.255  13.488  0.6072  0.0796 -0.0117
 3358SOL    HW121533   2.952   4.292  13.400  3.8262 -0.7297 -0.3167
 3358SOL    HW221534   3.024   4.304  13.527  1.8415 -1.7072 -0.0508
 3359SOL     OW21535   1.477   3.292   8.606  0.4500 -0.1868 -0.5126
 3359SOL    HW121536   1.542   3.245   8.659 -1.9284 -2.1026  0.6788
 3359SOL    HW221537   1.531   3.348   8.550 -1.3840  1.6104 -0.4649
 3360SOL     OW21538   1.695   1.704  14.447 -0.1094  0.1767 -0.0899
 3360SOL    HW121539   1.683   1.727  14.539  1.0586  0.1422  0.0726
 3360SOL    HW221540   1.679   1.610  14.455  0.9382 -0.0474 -0.6572
 3361SOL     OW21541   1.888   1.004   0.517 -0.1506 -0.0280 -0.5070
 3361SOL    HW121542   1.943   0.956   0.579  2.8275  0.1628 -2.9861
 3361SOL    HW221543   1.800   0.987   0.550 -0.4685 -1.3526 -2.0165
 3362SOL     OW21544   4.602   1.359   5.948  0.0657 -0.1002  0.4273
 3362SOL    HW121545   4.532   1.418   5.975 -1.3218 -0.4721 -2.2420
 3362SOL    HW221546   4.680   1.393   5.991 -1.2452  3.7154 -0.2453
 3363SOL     OW21547   4.717   3.187   3.196  0.2546  0.1514  0.1032
 3363SOL    HW121548   0.047   3.113   3.226 -0.0317  0.5371  1.5550
 3363SOL    HW221549   4.654   3.148   3.135 -0.1076 -1.2047  1.3357
 3364SOL     OW21550   4.049   1.518   5.319  0.4884 -0.3996  0.5561
 3364SOL    HW121551   4.130   1.503   5.271 -0.4643 -0.9110 -0.8932
 3364SOL    HW221552   4.019   1.427   5.317 -1.4950  0.2601 -0.4545
 3365SOL     OW21553   1.363   3.896   2.759 -0.6479 -0.1800  0.3028
 3365SOL    HW121554   1.274   3.867   2.779  0.1690 -2.2153  0.9117
 3365SOL    HW221555   1.376   3.967   2.823 -0.6445  0.4471 -0.3951
 3366SOL     OW21556   0.276   2.134  17.021 -0.5035 -0.2242 -0.2581
 3366SOL    HW121557   0.272   2.230  17.028  0.5425 -0.1078 -1.2011
 3366SOL    HW221558   0.211   2.110  17.087 -0.4986 -1.1388 -0.5923
 3367SOL     OW21559   4.443   0.273  12.818  0.7306  0.0481  0.8686
 3367SOL    HW121560   4.389   0.200  12.850 -0.8936  0.4606 -0.8939
 3367SOL    HW221561   4.384   0.331  12.770  0.9177 -1.2742 -0.9453
 3368SOL     OW21562   3.224   1.540   4.354 -0.4356 -0.7312 -0.5159
 3368SOL    HW121563   3.208   1.450   4.384  2.1876 -0.1373  2.7109
 3368SOL    HW221564   3.196   1.578   4.437  2.0847  0.5361 -0.2184
 3369SOL     OW21565   0.184   1.974  15.439 -0.4265  0.2179 -0.1246
 3369SOL    HW121566   0.114   1.977  15.504 -0.0091 -2.1043  0.4399
 3369SOL    HW221567   0.156   2.035  15.372  0.6835 -0.7084 -1.4274
 3370SOL     OW21568   3.438   1.356  11.582 -0.2874  0.0497 -0.2661
 3370SOL    HW121569   3.524   1.358  11.540  0.5234 -0.8914  1.3402
 3370SOL    HW221570   3.427   1.261  11.579 -1.1687  0.0680  2.3088
 3371SOL     OW21571   4.133   3.816   7.048 -0.3872  0.2581 -0.1388
 3371SOL    HW121572   4.168   3.737   7.007 -0.3428 -0.2713  0.9038
 3371SOL    HW221573   4.173   3.877   6.986  1.5752  1.9653  2.7885
 3372SOL     OW21574   2.741   0.921   9.280 -0.1196  0.0938  0.3140
 3372SOL    HW121575   2.793   0.985   9.328 -0.8794 -0.4350  1.8447
 3372SOL    HW221576   2.813   0.873   9.238 -2.3803  0.2479 -3.7746
 3373SOL     OW21577   0.911   2.909  17.020 -0.2111  0.5160 -0.4611
 3373SOL    HW121578   0.959   2.936  16.942  0.8374  0.8504  0.2948
 3373SOL    HW221579   0.949   2.825  17.046 -2.5497 -0.7316 -1.0418
 3374SOL     OW21580   3.638   3.961   1.358 -0.0914  0.0977  0.1069
 3374SOL    HW121581   3.692   3.897   1.405 -1.4337 -1.4636 -0.4635
 3374SOL    HW221582   3.661   3.934   1.268  1.6078  0.5690  0.4071
 3375SOL     OW21583   1.193   1.039  17.434  0.1308 -0.0692  0.2410
 3375SOL    HW121584   1.248   1.059  17.510  0.3487  3.3064 -0.8495
 3375SOL    HW221585   1.110   1.012  17.473  1.7414 -1.5045  2.7350
 3376SOL     OW21586   0.868   4.635   1.443  0.6961  0.0524 -0.2603
 3376SOL    HW121587   0.775   4.657   1.434  0.2984 -0.7022  1.9374
 3376SOL    HW221588   0.894   4.646   1.352  0.2499  2.3397 -0.1022
 3377SOL     OW21589   1.568   2.298   4.745 -0.2045  0.3063  0.2396
 3377SOL    HW121590   1.572   2.375   4.689 -0.4280 -0.6017 -1.0473
 3377SOL    HW221591   1.655   2.307   4.783 -0.7950  0.0332  1.6345
 3378SOL     OW21592   2.845   0.436  11.811  0.4037 -0.5442  0.5453
 3378SOL    HW121593   2.898   0.432  11.890  0.3851  2.4714  0.7185
 3378SOL    HW221594   2.848   0.530  11.792  1.9971 -0.8312 -0.6371
 3379SOL     OW21595   4.669   0.497   3.339 -0.3052  0.3705  0.0291
 3379SOL    HW121596   4.607   0.563   3.308  1.1588  1.4656 -0.5285
 3379SOL    HW221597   4.657   0.438   3.265 -0.5273 -1.0556  1.1918
 3380SOL     OW21598   1.250   0.044   8.308  0.0659 -0.0657  0.3682
 3380SOL    HW121599   1.237   0.021   8.400 -0.5084 -0.8524  0.0950
 3380SOL    HW221600   1.183   0.111   8.298  0.3898  0.7786  3.6737
 3381SOL     OW21601   2.853   0.488   7.808 -0.3431 -0.2625 -0.3226
 3381SOL    HW121602   2.935   0.526   7.777 -0.6159  0.5755 -0.0417
 3381SOL    HW221603   2.852   0.524   7.897 -2.6021 -1.1528 -0.0071
 3382SOL     OW21604   0.717   2.403   6.574 -0.0530 -0.2623  0.0958
 3382SOL    HW121605   0.791   2.429   6.519 -0.1221  0.7397  0.4730
 3382SOL    HW221606   0.761   2.431   6.654 -3.0338  1.3745  1.1890
 3383SOL     OW21607   4.378   0.300   7.161  0.0720 -0.0163 -0.2132
 3383SOL    HW121608   4.330   0.321   7.080 -1.2246 -0.5285  0.4218
 3383SOL    HW221609   4.433   0.379   7.163 -0.6161  0.4845 -0.7327
 3384SOL     OW21610   2.899   0.337   8.187  0.4707  0.8466  0.3780
 3384SOL    HW121611   2.925   0.348   8.096  0.9311  2.7155  0.7272
 3384SOL    HW221612   2.919   0.418   8.234 -0.5311  1.0384  0.4930
 3385SOL     OW21613   1.179   2.805   1.783 -0.5435  0.1715 -0.1449
 3385SOL    HW121614   1.105   2.838   1.834 -0.2442 -0.6781  0.8320
 3385SOL    HW221615   1.225   2.885   1.760  0.0674 -0.2710 -0.4807
 3386SOL     OW21616   1.276   1.993   3.084 -0.0278 -0.2558 -0.1041
 3386SOL    HW121617   1.370   1.982   3.091  0.2149  3.4942  2.4354
 3386SOL    HW221618   1.247   1.961   3.169  2.4658  0.9595  1.1943
 3387SOL     OW21619   3.715   3.342   2.446 -0.3075 -0.7168  0.5572
 3387SOL    HW121620   3.746   3.338   2.537  3.1741 -0.6995 -0.6450
 3387SOL    HW221621   3.684   3.432   2.437 -1.1801 -0.6160  4.5388
 3388SOL     OW21622   1.064   1.287  15.531 -0.1625  0.9573  0.1712
 3388SOL    HW121623   1.013   1.239  15.466  2.3808  0.2562 -1.3107
 3388SOL    HW221624   1.098   1.210  15.577  0.0521  1.2533  0.5085
 3389SOL     OW21625   0.388   0.249   6.385 -0.2823  0.0487 -0.2230
 3389SOL    HW121626   0.357   0.191   6.316 -2.3696  2.2396 -1.1151
 3389SOL    HW221627   0.314   0.309   6.390  0.2067  0.5814  0.7977
 3390SOL     OW21628   3.518   0.163   9.857  0.6608 -0.1243 -0.0124
 3390SOL    HW121629   3.531   0.251   9.822 -3.1883 -0.0444 -1.2743
 3390SOL    HW221630   3.535   0.189   9.947 -0.6420  0.4035  0.0882
 3391SOL     OW21631   1.396   0.227   3.001  0.1480 -0.2123  0.0248
 3391SOL    HW121632   1.481   0.184   2.995 -0.6923 -1.6650 -1.6159
 3391SOL    HW221633   1.355   0.199   2.919 -0.2744 -0.3557  0.2819
 3392SOL     OW21634   4.101   2.342   2.971  0.1485  0.1264 -0.7881
 3392SOL    HW121635   4.071   2.330   3.061  0.9567  1.3002 -0.3644
 3392SOL    HW221636   4.178   2.285   2.970 -0.2060 -0.3493 -1.1710
 3393SOL     OW21637   2.262   2.103  12.215 -0.5312 -0.3803 -0.2812
 3393SOL    HW121638   2.188   2.135  12.163 -0.3465  1.6322  0.6765
 3393SOL    HW221639   2.308   2.048  12.152 -1.1365 -0.9909 -0.1978
 3394SOL     OW21640   2.756   4.087  12.451  0.5889 -0.0135  0.2683
 3394SOL    HW121641   2.763   4.151  12.380  0.3990 -1.6696 -1.2538
 3394SOL    HW221642   2.665   4.059  12.457 -0.7208  3.7874 -1.6666
 3395SOL     OW21643   2.947   4.235  10.632  0.3340  0.2654  0.0196
 3395SOL    HW121644   2.984   4.226  10.544  0.0782  2.3839 -0.3111
 3395SOL    HW221645   2.974   4.321  10.663 -0.3140 -0.0642  1.4807
 3396SOL     OW21646   3.174   0.118   5.010  1.0635  0.0254 -0.1753
 3396SOL    HW121647   3.207   0.094   5.096  0.0756  1.9751  0.7556
 3396SOL    HW221648   3.249   0.159   4.967 -0.7114 -0.2346 -3.5246
 3397SOL     OW21649   1.655   2.427   0.506  0.3868  0.3175  0.4347
 3397SOL    HW121650   1.702   2.506   0.478  1.3495  0.0498  1.2975
 3397SOL    HW221651   1.567   2.462   0.491 -0.8157 -2.0005  2.0840
 3398SOL     OW21652   4.513   2.660   4.480 -0.0389  0.0991  0.5262
 3398SOL    HW121653   4.546   2.742   4.442 -1.4238  0.2445 -0.3590
 3398SOL    HW221654   4.506   2.605   4.402 -1.4871  1.9553 -0.6349
 3399SOL     OW21655   0.418   3.535   4.432  0.2805 -0.4762 -0.5158
 3399SOL    HW121656   0.345   3.547   4.371 -0.5764  1.5988  0.9197
 3399SOL    HW221657   0.430   3.447   4.395 -1.3631 -0.5357 -0.9132
 3400SOL     OW21658   1.402   3.420   5.690 -0.1258 -0.7629 -0.1813
 3400SOL    HW121659   1.383   3.394   5.600  0.8257  1.1534 -0.9441
 3400SOL    HW221660   1.485   3.466   5.679 -1.7060  2.6339  1.9284
 3401SOL     OW21661   1.590   4.053   3.799 -0.2648  0.7008 -0.6464
 3401SOL    HW121662   1.639   4.115   3.852 -0.7368  2.1949 -1.9505
 3401SOL    HW221663   1.524   4.023   3.862  0.8392 -0.5140 -0.0811
 3402SOL     OW21664   2.498   2.708   7.851  0.1036 -0.1334 -0.3234
 3402SOL    HW121665   2.488   2.798   7.821 -1.1172 -0.1311  0.0858
 3402SOL    HW221666   2.590   2.684   7.857  0.2588  0.5598  0.0515
 3403SOL     OW21667   2.298   0.213   4.068 -0.0654 -0.2486  0.0797
 3403SOL    HW121668   2.382   0.180   4.036 -0.4901 -1.6807  0.4241
 3403SOL    HW221669   2.250   0.214   3.986 -0.3174  0.5067  0.2359
 3404SOL     OW21670   0.170   2.329   1.561 -0.0240 -0.3670  0.2667
 3404SOL    HW121671   0.179   2.418   1.525 -0.5441 -0.2842  0.3314
 3404SOL    HW221672   0.229   2.318   1.635 -0.8772  1.3394  1.2174
 3405SOL     OW21673   0.383   4.546   7.285  0.3500  0.4800  0.0001
 3405SOL    HW121674   0.343   4.628   7.255  0.4537  0.9991  1.3145
 3405SOL    HW221675   0.308   4.496   7.318 -2.2398  1.9404 -3.6280
 3406SOL     OW21676   4.391   0.454   4.539  0.2891 -0.2856 -0.5434
 3406SOL    HW121677   4.473   0.417   4.506 -0.3311 -0.7355 -1.6248
 3406SOL    HW221678   4.363   0.515   4.470  1.7092  0.7238 -0.2248
 3407SOL     OW21679   0.894   0.347   5.918  0.1898  0.1885  0.4260
 3407SOL    HW121680   0.892   0.440   5.895 -0.5696 -0.1342 -0.8102
 3407SOL    HW221681   0.984   0.334   5.946  0.3284  3.6366  1.6160
 3408SOL     OW21682   3.544   1.248   4.980 -0.3311  0.1891  0.0490
 3408SOL    HW121683   3.450   1.230   4.974 -0.0398 -1.6897  1.1123
 3408SOL    HW221684   3.575   1.159   4.963 -2.6188 -0.8310  1.1750
 3409SOL     OW21685   1.221   3.326  13.177  0.7373  0.2619 -0.0890
 3409SOL    HW121686   1.280   3.260  13.212 -1.3272 -2.0721 -1.0179
 3409SOL    HW221687   1.244   3.400  13.234  2.1076 -1.0348  1.0318
 3410SOL     OW21688   2.333   0.835   1.066  0.0118 -0.4055 -0.2748
 3410SOL    HW121689   2.252   0.805   1.107 -0.5521 -0.9791 -1.7869
 3410SOL    HW221690   2.401   0.794   1.119 -2.0139 -0.2424  2.4980
 3411SOL     OW21691   3.073   2.187   5.604 -0.6737  0.7714 -0.7981
 3411SOL    HW121692   3.041   2.258   5.659  1.0857  2.0875 -1.4639
 3411SOL    HW221693   3.015   2.115   5.628  2.1102  0.2272  4.3724
 3412SOL     OW21694   2.454   0.502  17.031 -0.0908 -0.1871  0.1521
 3412SOL    HW121695   2.545   0.478  17.045  0.0943 -0.0844 -0.8922
 3412SOL    HW221696   2.409   0.484  17.114  1.1358 -2.5730  0.3136
 3413SOL     OW21697   1.756   3.248  14.850 -0.6974 -0.2166  0.3817
 3413SOL    HW121698   1.742   3.161  14.887 -0.2269 -0.5841 -0.2954
 3413SOL    HW221699   1.820   3.292  14.907  1.7386  0.6123 -2.9800
 3414SOL     OW21700   2.222   1.026   6.615  0.3588 -0.1080 -0.3316
 3414SOL    HW121701   2.182   0.968   6.680 -2.0754  0.3007 -1.5080
 3414SOL    HW221702   2.272   1.083   6.674  1.2133 -0.1779 -0.9805
 3415SOL     OW21703   0.826   1.506   0.633 -0.0361 -0.6072  0.0840
 3415SOL    HW121704   0.755   1.448   0.607 -0.7056  0.3540 -0.1966
 3415SOL    HW221705   0.860   1.534   0.548  0.5875  0.3865  0.6620
 3416SOL     OW21706   1.757   3.731   6.567  0.8592 -0.3332 -0.8661
 3416SOL    HW121707   1.817   3.757   6.637  0.4683  3.4463 -1.9517
 3416SOL    HW221708   1.680   3.770   6.607  0.4665  0.0973 -2.0361
 3417SOL     OW21709   1.448   3.001  16.596 -0.0128  0.0031  0.3133
 3417SOL    HW121710   1.482   2.940  16.531 -1.5336 -0.6168  0.1176
 3417SOL    HW221711   1.481   2.958  16.676  0.5436 -0.8083 -0.3495
 3418SOL     OW21712   1.614   3.981   1.699 -0.1805 -0.0019 -0.4318
 3418SOL    HW121713   1.608   3.888   1.674 -0.0467 -0.0999 -0.1091
 3418SOL    HW221714   1.707   4.002   1.690  0.5320 -1.8619  2.5178
 3419SOL     OW21715   3.538   2.435   4.882  0.0736  0.0198 -0.1741
 3419SOL    HW121716   3.629   2.423   4.858  0.1560 -0.2150  0.2601
 3419SOL    HW221717   3.532   2.383   4.962  0.1474  0.7171  0.2873
 3420SOL     OW21718   2.167   3.741   5.762  0.2446  0.1436 -0.6891
 3420SOL    HW121719   2.148   3.835   5.760  0.8377  0.3148  1.8879
 3420SOL    HW221720   2.208   3.730   5.676 -1.1843  3.2227 -1.7713
 3421SOL     OW21721   4.265   2.831  15.803  0.3028  0.0240 -0.6420
 3421SOL    HW121722   4.219   2.761  15.850  2.4840 -0.3246  0.9809
 3421SOL    HW221723   4.359   2.815  15.818  0.5388  1.2352 -0.8996
 3422SOL     OW21724   4.148   2.910  16.112  0.6823 -0.2592 -0.9403
 3422SOL    HW121725   4.199   2.835  16.142 -0.2168  0.1732  1.6153
 3422SOL    HW221726   4.064   2.875  16.081  0.1076 -0.9503  1.4188
 3423SOL     OW21727   3.410   1.595  10.717 -0.2459 -0.2401 -0.2770
 3423SOL    HW121728   3.499   1.594  10.751 -0.4554  1.7364  0.3537
 3423SOL    HW221729   3.377   1.527  10.775 -1.0431  0.5672  0.2282
 3424SOL     OW21730   4.327   0.743   5.117 -0.1620 -0.3539  0.5562
 3424SOL    HW121731   4.267   0.712   5.048 -0.8105 -0.9207  1.3722
 3424SOL    HW221732   4.375   0.662   5.133 -0.8238 -0.8816 -0.1575
 3425SOL     OW21733   0.681   1.322   7.554  0.4331  0.4045  0.1443
 3425SOL    HW121734   0.585   1.323   7.554  0.4099 -1.3693  1.4494
 3425SOL    HW221735   0.703   1.248   7.611  0.1543  1.1030  1.1629
 3426SOL     OW21736   0.845   2.808   7.986 -0.4603  0.4714  0.1449
 3426SOL    HW121737   0.928   2.834   8.026 -0.3314  1.0803 -0.5113
 3426SOL    HW221738   0.875   2.740   7.925  1.3128 -0.4741  2.0856
 3427SOL     OW21739   3.297   1.838   3.702  0.5701  0.5588  0.0381
 3427SOL    HW121740   3.237   1.787   3.647 -0.3608  1.4851  0.1946
 3427SOL    HW221741   3.291   1.786   3.782  2.2457 -0.1141 -0.2841
 3428SOL     OW21742   2.139   0.888   6.946  0.1718  0.1952  0.0284
 3428SOL    HW121743   2.234   0.893   6.942  0.1420 -1.3708 -2.4864
 3428SOL    HW221744   2.127   0.801   6.909 -1.3061  0.7150 -0.7139
 3429SOL     OW21745   2.069   0.744   3.578 -0.5828 -0.2542 -0.2387
 3429SOL    HW121746   2.086   0.650   3.579  0.3651 -0.0597  1.5316
 3429SOL    HW221747   2.033   0.770   3.493  2.3273  1.0909 -1.0408
 3430SOL     OW21748   3.554   3.927   4.651 -0.4778  0.3448 -0.6573
 3430SOL    HW121749   3.587   4.006   4.608  0.2978  1.1433  1.3814
 3430SOL    HW221750   3.471   3.915   4.606 -0.4892 -0.5061 -0.4025
 3431SOL     OW21751   0.591   3.077  12.781  0.0769 -0.2648  0.2246
 3431SOL    HW121752   0.602   3.141  12.711 -0.0568 -0.6681 -0.1632
 3431SOL    HW221753   0.508   3.039  12.753 -0.2553  0.8064 -0.2495
 3432SOL     OW21754   0.150   3.783   9.776 -0.3019 -0.6308  0.7800
 3432SOL    HW121755   0.206   3.859   9.790  1.7103 -2.0365  0.5233
 3432SOL    HW221756   0.174   3.735   9.856 -0.4712  0.5635  1.5439
 3433SOL     OW21757   4.629   3.468   6.891  0.2572 -0.2304 -0.0200
 3433SOL    HW121758   4.618   3.403   6.960  1.3124  0.9934  1.3085
 3433SOL    HW221759   4.592   3.546   6.932  1.5022  1.3175 -1.8400
 3434SOL     OW21760   1.791   0.399   9.088  0.2383 -0.1678  0.5417
 3434SOL    HW121761   1.837   0.478   9.064 -2.0170  1.1973  0.6908
 3434SOL    HW221762   1.707   0.446   9.090  1.0408  1.1898  1.8917
 3435SOL     OW21763   2.679   0.693   1.578 -0.6107  0.2470 -0.1055
 3435SOL    HW121764   2.660   0.640   1.655  0.7416  1.0888  0.8073
 3435SOL    HW221765   2.729   0.760   1.625 -0.5433  0.5931 -0.6680
 3436SOL     OW21766   1.270   3.436   4.148  0.5290 -0.4819  0.7879
 3436SOL    HW121767   1.186   3.456   4.187  0.7868 -1.1840  1.6995
 3436SOL    HW221768   1.289   3.515   4.097 -1.7664 -2.2946 -2.8221
 3437SOL     OW21769   1.735   2.245   7.538 -0.0871 -0.0991 -0.0157
 3437SOL    HW121770   1.648   2.219   7.507  0.0332 -0.8441  0.2545
 3437SOL    HW221771   1.734   2.337   7.514  0.3065 -0.6467 -2.0639
 3438SOL     OW21772   2.794   4.630  12.296 -0.4934  0.6304  0.0923
 3438SOL    HW121773   2.816   4.538  12.284 -2.4143  0.4356 -2.0046
 3438SOL    HW221774   2.827   4.663  12.212 -3.6226  0.2856 -1.2711
 3439SOL     OW21775   0.755   2.660   8.850  0.4075  0.4400 -0.6123
 3439SOL    HW121776   0.729   2.607   8.926  1.1781 -0.8760 -1.2687
 3439SOL    HW221777   0.757   2.749   8.887  0.7572  0.6136 -1.0405
 3440SOL     OW21778   3.293   4.269   7.944 -0.3267  0.1874 -0.4037
 3440SOL    HW121779   3.327   4.199   7.889  1.2974  0.1043  0.7086
 3440SOL    HW221780   3.274   4.325   7.868 -0.7424  2.4397  1.3853
 3441SOL     OW21781   0.092   0.074   8.260 -0.0878  0.3420  0.2341
 3441SOL    HW121782   0.041   0.059   8.339 -0.9597  2.5770  0.0855
 3441SOL    HW221783   0.081   4.714   8.212  3.0212  0.5492 -0.8739
 3442SOL     OW21784   1.317   0.950  16.078 -0.1635  0.6595 -0.0343
 3442SOL    HW121785   1.364   0.955  16.161  1.0427  1.8256 -0.7802
 3442SOL    HW221786   1.299   0.856  16.072 -2.4376  1.1820 -1.2195
 3443SOL     OW21787   4.514   1.409   5.338 -0.3810 -0.5428 -0.9045
 3443SOL    HW121788   4.544   1.363   5.416 -1.0992  0.5691  0.0187
 3443SOL    HW221789   4.535   1.499   5.364 -1.1147 -0.0591 -1.9789
 3444SOL     OW21790   3.120   3.495   3.584  0.2664  0.7175 -0.0086
 3444SOL    HW121791   3.032   3.475   3.616  0.7302  0.4840  1.1278
 3444SOL    HW221792   3.147   3.407   3.558  3.9295  1.7257  0.4895
 3445SOL     OW21793   0.258   3.274   1.786 -0.2629 -0.0651 -0.4793
 3445SOL    HW121794   0.333   3.234   1.830 -1.9813 -0.6291  1.8985
 3445SOL    HW221795   0.183   3.218   1.807 -1.0373  1.0782 -0.2008
 3446SOL     OW21796   0.745   0.392   2.955 -0.4764  0.3932  0.0561
 3446SOL    HW121797   0.806   0.389   3.028 -0.9264  1.2513  0.4647
 3446SOL    HW221798   0.807   0.389   2.882 -0.2378 -0.1057  0.2835
 3447SOL     OW21799   3.231   3.180   1.861  0.6843  0.0352  0.6437
 3447SOL    HW121800   3.179   3.183   1.941 -0.9257 -3.4073 -0.2855
 3447SOL    HW221801   3.165   3.183   1.791  1.0723 -0.1347  0.2666
 3448SOL     OW21802   3.425   0.191   4.377  0.5816  0.5053 -0.2350
 3448SOL    HW121803   3.374   0.123   4.333 -0.2364 -0.0748  1.6276
 3448SOL    HW221804   3.406   0.266   4.320 -0.4889 -0.7584 -1.5405
 3449SOL     OW21805   0.573   4.063  10.293 -0.4082  0.1163  0.1041
 3449SOL    HW121806   0.566   3.989  10.354 -1.0084  1.2486  1.3999
 3449SOL    HW221807   0.526   4.029  10.217 -3.2356  0.5114  1.6583
 3450SOL     OW21808   3.285   3.802   4.245  1.1885 -0.0015 -0.0254
 3450SOL    HW121809   3.279   3.710   4.220 -1.1826 -0.1240  1.0119
 3450SOL    HW221810   3.209   3.845   4.207  1.0151  0.5251  0.9110
 3451SOL     OW21811   0.852   0.911   7.503  0.5286 -0.0601  0.1704
 3451SOL    HW121812   0.913   0.954   7.563 -0.6260  0.5344  0.9143
 3451SOL    HW221813   0.801   0.870   7.572  0.5023  1.6851  1.1928
 3452SOL     OW21814   4.515   3.887   3.237 -0.1441 -0.0211 -0.5735
 3452SOL    HW121815   4.446   3.931   3.287 -3.0343 -2.1810 -2.6801
 3452SOL    HW221816   4.467   3.859   3.160 -2.0745 -0.8094  0.9007
 3453SOL     OW21817   4.636   1.675   4.583  0.3016  0.2169  0.3960
 3453SOL    HW121818   4.652   1.733   4.509  0.7761  0.8583  1.0057
 3453SOL    HW221819   4.576   1.617   4.538 -0.7204  1.9501 -0.4484
 3454SOL     OW21820   3.915   4.311   8.138 -0.3185  0.0784  0.0100
 3454SOL    HW121821   3.838   4.255   8.133 -0.5346  0.5435 -1.9327
 3454SOL    HW221822   3.943   4.337   8.051  0.6014  2.6998  1.0899
 3455SOL     OW21823   4.083   0.267  13.902 -0.2706 -0.2277  0.2540
 3455SOL    HW121824   4.175   0.271  13.930 -0.3673  0.5521  0.4701
 3455SOL    HW221825   4.062   0.344  13.954  1.2365 -1.3542  2.5123
 3456SOL     OW21826   4.235   0.850   7.841 -0.1291 -0.4323  0.0244
 3456SOL    HW121827   4.196   0.892   7.917 -0.7424 -1.1807  0.1319
 3456SOL    HW221828   4.161   0.843   7.781  1.1895 -1.1655 -1.5267
 3457SOL     OW21829   0.688   4.076  13.570  0.4359 -0.1849  0.2314
 3457SOL    HW121830   0.744   4.135  13.520  0.4991  0.7745  1.4614
 3457SOL    HW221831   0.709   3.991  13.530  0.1468 -0.0498 -0.2084
 3458SOL     OW21832   3.311   1.431   8.764  0.0533 -0.0752  0.0600
 3458SOL    HW121833   3.315   1.525   8.745  1.8447 -0.2307 -0.3100
 3458SOL    HW221834   3.406   1.415   8.764  0.0660 -0.0029  0.0723
 3459SOL     OW21835   2.329   3.927   9.109  0.6211 -0.2154  0.2244
 3459SOL    HW121836   2.357   3.840   9.138 -3.2298 -1.6520 -0.3118
 3459SOL    HW221837   2.290   3.906   9.023  0.5350 -0.4426  0.3184
 3460SOL     OW21838   3.515   1.717   4.377 -0.4518 -0.4086 -0.5533
 3460SOL    HW121839   3.594   1.680   4.339  0.0038  0.6771 -0.6652
 3460SOL    HW221840   3.511   1.668   4.459 -0.0152  0.2258 -0.1524
 3461SOL     OW21841   3.280   0.170   7.917  0.3568  0.6601  0.1047
 3461SOL    HW121842   3.353   0.198   7.971  0.7155 -0.7120  0.3240
 3461SOL    HW221843   3.290   0.075   7.918  0.8559  0.7534  2.3955
 3462SOL     OW21844   3.173   4.082   3.987  0.1870 -0.0754  0.3421
 3462SOL    HW121845   3.078   4.084   3.984  0.2081  0.2711 -0.0315
 3462SOL    HW221846   3.197   4.157   3.932  0.3295  0.1799  0.7509
 3463SOL     OW21847   4.627   1.588  12.219  0.6312  0.6608 -0.2385
 3463SOL    HW121848   4.569   1.664  12.210  0.1664  0.2276 -0.9637
 3463SOL    HW221849   4.671   1.604  12.135  1.7665  1.0070  0.4191
 3464SOL     OW21850   4.341   0.264  13.976 -0.3158 -0.1635 -0.4117
 3464SOL    HW121851   4.352   0.187  14.031 -1.9066 -1.1463 -1.4989
 3464SOL    HW221852   4.431   0.289  13.954 -0.4701  1.0118  0.2278
 3465SOL     OW21853   4.015   4.054   9.624  0.4061 -0.6447  0.1180
 3465SOL    HW121854   4.075   3.980   9.635 -1.1915 -2.1210 -0.9666
 3465SOL    HW221855   4.048   4.080   9.538  0.4369  1.3087  0.7148
 3466SOL     OW21856   0.704   0.535   1.878 -0.9300  0.1271 -0.1733
 3466SOL    HW121857   0.609   0.542   1.867 -0.9576 -0.4495 -0.3102
 3466SOL    HW221858   0.720   0.585   1.958 -2.3909  0.1534  0.0954
 3467SOL     OW21859   3.495   0.623   7.938 -0.6510 -0.0306 -0.2443
 3467SOL    HW121860   3.515   0.595   7.849  0.2605  0.5790 -0.2291
 3467SOL    HW221861   3.403   0.649   7.928 -1.3363 -2.0242  0.8282
 3468SOL     OW21862   4.669   3.271   0.829 -0.3668 -0.0703 -0.0748
 3468SOL    HW121863   4.653   3.226   0.746  2.3004 -1.9276  0.3948
 3468SOL    HW221864   4.615   3.349   0.820 -2.0937 -1.1418  0.8392
 3469SOL     OW21865   1.645   3.964   7.534 -0.4190 -0.0057 -0.0522
 3469SOL    HW121866   1.607   4.045   7.500 -0.2064  0.4143  0.7113
 3469SOL    HW221867   1.564   3.926   7.571  0.6082  0.9649  3.1773
 3470SOL     OW21868   3.237   2.557  14.527 -0.3343 -0.0029  0.0360
 3470SOL    HW121869   3.180   2.627  14.494 -1.3500 -0.2639  1.2522
 3470SOL    HW221870   3.230   2.572  14.621 -2.2306  0.4462 -0.1779
 3471SOL     OW21871   0.435   2.956   8.237 -0.0140  0.1190  0.0292
 3471SOL    HW121872   0.505   2.890   8.229  1.4705  1.7849 -0.6396
 3471SOL    HW221873   0.457   2.988   8.324  2.1533  2.7954 -1.5338
 3472SOL     OW21874   2.763   0.354   4.321 -0.2980 -0.0364  0.2065
 3472SOL    HW121875   2.735   0.273   4.363 -0.8492  0.4544  0.7801
 3472SOL    HW221876   2.678   0.398   4.315 -0.7668 -1.2370 -1.8438
 3473SOL     OW21877   1.162   0.745   9.020 -0.2430 -0.2254 -0.4002
 3473SOL    HW121878   1.171   0.686   9.095  0.0550  1.5345  0.9423
 3473SOL    HW221879   1.108   0.684   8.969 -0.9776  0.5647 -0.5569
 3474SOL     OW21880   0.799   2.325   7.989 -0.1077 -0.1941  0.2490
 3474SOL    HW121881   0.733   2.256   7.978  0.2353 -0.6626  1.1315
 3474SOL    HW221882   0.774   2.401   7.938  0.8246 -0.2071 -0.2203
 3475SOL     OW21883   3.893   3.599   8.888 -0.0854  0.0628 -0.8840
 3475SOL    HW121884   3.982   3.629   8.873  0.2334 -0.2780  0.3122
 3475SOL    HW221885   3.870   3.674   8.944  2.9313 -0.2853  0.8415
 3476SOL     OW21886   0.321   0.951   5.603  0.2344  0.4878 -0.4748
 3476SOL    HW121887   0.240   0.938   5.653  1.9856  2.6473  2.9509
 3476SOL    HW221888   0.311   0.881   5.539  0.1327 -2.4405  2.7540
 3477SOL     OW21889   4.006   0.678   5.689 -0.4533 -0.3716 -0.4428
 3477SOL    HW121890   4.011   0.599   5.741  2.2912 -0.6753 -1.1779
 3477SOL    HW221891   3.927   0.663   5.637 -1.4837 -2.3885  1.7282
 3478SOL     OW21892   1.573   0.659   4.871 -0.5671  0.1110  0.2372
 3478SOL    HW121893   1.514   0.620   4.936 -2.8253 -0.5477 -2.2143
 3478SOL    HW221894   1.513   0.658   4.797 -1.8580  0.4973  1.2906
 3479SOL     OW21895   3.069   2.113   1.905 -0.2615 -0.1907  0.2787
 3479SOL    HW121896   3.153   2.101   1.861  0.4205  2.5079  0.8552
 3479SOL    HW221897   3.030   2.181   1.849  0.7328  0.9881  1.0123
 3480SOL     OW21898   2.361   2.737   5.876 -0.5129  0.3547 -0.2778
 3480SOL    HW121899   2.421   2.701   5.810  0.2404  0.2181  0.4849
 3480SOL    HW221900   2.429   2.778   5.929  2.7945 -1.5999 -2.9668
 3481SOL     OW21901   3.031   1.374   7.098 -0.3085  0.2577  0.0808
 3481SOL    HW121902   3.121   1.372   7.064 -0.1689 -0.9451  0.5269
 3481SOL    HW221903   3.038   1.453   7.151 -0.6946  0.3920 -0.0668
 3482SOL     OW21904   2.178   0.587   0.720  0.6647 -0.2440  0.2884
 3482SOL    HW121905   2.268   0.593   0.751  1.7311 -0.1025 -2.8139
 3482SOL    HW221906   2.154   0.494   0.730 -0.0709 -0.2384 -1.4345
 3483SOL     OW21907   0.412   3.405   7.991  0.0567  0.4473 -0.2670
 3483SOL    HW121908   0.464   3.378   8.067 -0.8856  0.2752  0.3091
 3483SOL    HW221909   0.339   3.345   8.005  0.6914 -0.3173 -0.1926
 3484SOL     OW21910   3.029   1.988  16.290 -0.1274 -0.2436 -0.0826
 3484SOL    HW121911   2.964   2.027  16.231 -0.6743 -0.0140  0.6703
 3484SOL    HW221912   3.039   2.063  16.350 -0.1281 -1.2913  1.2242
 3485SOL     OW21913   0.664   2.952  15.829  0.4350  0.6521 -0.1549
 3485SOL    HW121914   0.707   3.026  15.787 -0.1373 -0.3490 -2.5230
 3485SOL    HW221915   0.610   2.990  15.899  1.3105  0.9673  0.3373
 3486SOL     OW21916   3.753   0.375   4.744  0.3040  0.3560  0.4178
 3486SOL    HW121917   3.744   0.308   4.676  0.5588  1.0776 -0.3357
 3486SOL    HW221918   3.728   0.324   4.821 -0.9165 -1.3806 -1.1101
 3487SOL     OW21919   2.390   2.384   7.374 -0.3228  0.7066  0.0360
 3487SOL    HW121920   2.444   2.385   7.296 -0.7621 -2.9525 -0.2847
 3487SOL    HW221921   2.347   2.299   7.363 -0.2360  0.7715 -0.7989
 3488SOL     OW21922   3.364   1.477   5.950  0.0484 -0.1802  0.1215
 3488SOL    HW121923   3.441   1.452   5.899  0.8625 -1.6615  2.0918
 3488SOL    HW221924   3.315   1.527   5.884 -0.8602 -1.5909 -0.2818
 3489SOL     OW21925   1.653   3.652   3.826 -0.8411  0.1957 -0.2385
 3489SOL    HW121926   1.636   3.702   3.746 -4.3993 -2.7476 -1.3246
 3489SOL    HW221927   1.695   3.723   3.876  3.4088 -1.1634 -1.8809
 3490SOL     OW21928   1.395   4.706  10.980 -0.3645 -0.1457  0.2009
 3490SOL    HW121929   1.385   0.067  10.935  0.6406  0.7725  1.6916
 3490SOL    HW221930   1.349   4.657  10.911  0.6492  1.4010 -1.5691
 3491SOL     OW21931   3.323   2.157   5.814 -0.1087 -0.2507 -0.3152
 3491SOL    HW121932   3.228   2.155   5.802  0.0594  0.0512 -1.6055
 3491SOL    HW221933   3.328   2.159   5.910  3.7868  1.6102 -0.5346
 3492SOL     OW21934   4.085   1.533   7.536 -0.2721 -0.5378 -0.1662
 3492SOL    HW121935   4.009   1.582   7.504 -2.6599 -3.7835  0.6421
 3492SOL    HW221936   4.050   1.494   7.615 -0.2626 -1.7828 -0.7799
 3493SOL     OW21937   1.702   2.898   7.352 -0.2050  0.3586 -0.0739
 3493SOL    HW121938   1.749   2.850   7.284 -0.7893 -0.4835  0.1083
 3493SOL    HW221939   1.752   2.887   7.433 -0.8259 -3.2516 -0.2014
 3494SOL     OW21940   2.725   3.189  13.431 -0.3889  0.4451 -0.3858
 3494SOL    HW121941   2.693   3.238  13.356  1.4345  0.9292 -0.8448
 3494SOL    HW221942   2.739   3.101  13.396 -0.7582  0.2903 -0.1496
 3495SOL     OW21943   3.688   4.670   7.202 -0.0997 -0.2298  0.2915
 3495SOL    HW121944   3.706   0.022   7.144 -1.5666  0.3404  0.5504
 3495SOL    HW221945   3.714   4.716   7.282  0.0164 -0.3260  0.3076
 3496SOL     OW21946   0.846   3.349  14.643  0.5253 -0.3094 -0.1070
 3496SOL    HW121947   0.883   3.271  14.684 -0.3525 -0.2242  0.8383
 3496SOL    HW221948   0.926   3.382  14.601  2.3693 -1.4841  2.5346
 3497SOL     OW21949   1.704   2.581   4.297  0.6335  0.4222  0.0790
 3497SOL    HW121950   1.682   2.673   4.309 -1.6463  0.0401 -1.1766
 3497SOL    HW221951   1.620   2.543   4.274 -0.1852  2.1541  0.2118
 3498SOL     OW21952   2.208   0.691   2.800  0.1909 -0.0453 -0.2306
 3498SOL    HW121953   2.130   0.649   2.766 -0.2786  0.2596  0.4642
 3498SOL    HW221954   2.190   0.682   2.894  1.9536  0.2724  0.1358
 3499SOL     OW21955   2.500   1.165  10.919  0.8346 -0.0185  0.0494
 3499SOL    HW121956   2.535   1.178  11.007  1.3529 -1.4278  0.0455
 3499SOL    HW221957   2.573   1.126  10.871  1.8616  1.8791  0.0578
 3500SOL     OW21958   2.723   1.463  12.442  0.6984 -0.4339  0.6211
 3500SOL    HW121959   2.710   1.471  12.537  0.0041  0.5429  0.4365
 3500SOL    HW221960   2.645   1.512  12.415  0.2844 -1.8693 -0.7698
 3501SOL     OW21961   1.590   4.689  11.981  0.3453  0.0982  0.5229
 3501SOL    HW121962   1.635   4.694  12.066 -1.1400  0.9802  1.2676
 3501SOL    HW221963   1.525   4.625  12.010  0.7254 -0.7641 -0.5581
 3502SOL     OW21964   1.306   0.612  11.631 -0.0811 -0.3450  0.2294
 3502SOL    HW121965   1.221   0.650  11.653 -0.2838 -0.6308 -0.0651
 3502SOL    HW221966   1.358   0.690  11.611 -1.3225  0.5634  0.5587
 3503SOL     OW21967   0.313   0.213   3.572 -0.2737  0.4506  0.3161
 3503SOL    HW121968   0.358   0.296   3.555  1.2046 -0.4760 -0.3489
 3503SOL    HW221969   0.223   0.232   3.546 -0.1658 -1.4582 -1.4802
 3504SOL     OW21970   4.233   0.241   6.453  0.1463 -0.6241  0.3783
 3504SOL    HW121971   4.276   0.214   6.534  0.7809 -0.7202  0.0101
 3504SOL    HW221972   4.230   0.156   6.409 -1.7679 -0.6044  0.4727
 3505SOL     OW21973   3.225   2.810   5.046 -0.6198 -0.0320  0.2012
 3505SOL    HW121974   3.231   2.860   5.127  2.4587  1.2802 -0.8565
 3505SOL    HW221975   3.295   2.747   5.059  0.5742  1.0095 -1.1700
 3506SOL     OW21976   4.256   4.028   7.455 -0.0677  0.5347 -0.5176
 3506SOL    HW121977   4.193   4.032   7.383  1.9851  0.3495 -2.3338
 3506SOL    HW221978   4.336   4.019   7.403 -0.2795  0.0088 -0.7572
 3507SOL     OW21979   3.733   4.596   8.873  0.4319 -0.0172 -0.3355
 3507SOL    HW121980   3.696   4.684   8.870 -0.7065 -0.4055  2.4516
 3507SOL    HW221981   3.822   4.619   8.846  0.6521 -0.0070  0.4108
 3508SOL     OW21982   2.566   3.355  16.729 -0.1532  0.2915 -0.0363
 3508SOL    HW121983   2.503   3.332  16.661  1.1633  0.2724 -1.2278
 3508SOL    HW221984   2.644   3.362  16.674 -1.4957 -0.0897 -1.9981
 3509SOL     OW21985   2.717   3.918   6.016 -0.0155 -0.3435 -0.3894
 3509SOL    HW121986   2.708   3.850   5.949 -0.2334 -2.5081  1.7994
 3509SOL    HW221987   2.722   3.991   5.955  0.4492  0.3969  0.5315
 3510SOL     OW21988   2.915   0.702  11.910 -0.1148  1.0984 -0.1474
 3510SOL    HW121989   2.949   0.627  11.958 -0.9301  2.1960  2.1241
 3510SOL    HW221990   2.989   0.762  11.914  1.5338 -1.0478  1.1615
 3511SOL     OW21991   2.549   2.678  16.024  0.2195 -0.3646 -0.1632
 3511SOL    HW121992   2.466   2.726  16.018  0.3750 -0.0077  0.5226
 3511SOL    HW221993   2.584   2.717  16.104 -0.5271 -0.5249  0.2407
 3512SOL     OW21994   4.299   1.504   4.743 -0.0662  0.2964  0.3535
 3512SOL    HW121995   4.253   1.435   4.790  2.2134 -0.5557  1.3538
 3512SOL    HW221996   4.329   1.559   4.816  0.3760 -0.0971  0.4650
 3513SOL     OW21997   2.514   0.061   3.613  0.0606 -0.2080  0.3687
 3513SOL    HW121998   2.588   0.098   3.565 -1.0376  0.3913 -0.8760
 3513SOL    HW221999   2.549   4.695   3.624  0.4298 -0.2538 -1.1941
 3514SOL     OW22000   0.082   0.702   2.021 -0.5593 -0.3217 -0.1195
 3514SOL    HW122001   0.106   0.616   1.987  2.7902 -0.1951  1.8993
 3514SOL    HW222002   0.024   0.732   1.951 -3.7451  0.2016  2.7649
 3515SOL     OW22003   1.707   2.363  12.299  0.1771 -0.3827  0.3011
 3515SOL    HW122004   1.664   2.436  12.342 -1.0665  0.1678 -1.8648
 3515SOL    HW222005   1.634   2.302  12.290 -0.0818 -0.2506  1.6048
 3516SOL     OW22006   2.247   1.150   3.016  0.4774  0.7355  0.6371
 3516SOL    HW122007   2.221   1.088   2.948 -0.9010 -1.0011  2.7641
 3516SOL    HW222008   2.195   1.228   2.995 -0.7433 -0.3081 -0.2174
 3517SOL     OW22009   3.974   1.836   6.593  0.1386  0.4078 -0.2652
 3517SOL    HW122010   4.057   1.795   6.569 -0.0052 -0.9383  1.5666
 3517SOL    HW222011   3.951   1.886   6.514  2.6601 -0.9961 -1.8776
 3518SOL     OW22012   1.457   0.554  12.008  0.5645  0.4376  0.5699
 3518SOL    HW122013   1.516   0.522  11.939 -1.4880 -1.5921 -0.2309
 3518SOL    HW222014   1.393   0.483  12.001 -1.2048  2.0374  0.8111
 3519SOL     OW22015   4.452   0.813   6.340  0.0104  0.3639  0.4909
 3519SOL    HW122016   4.366   0.837   6.306 -0.9529 -1.3769  1.7066
 3519SOL    HW222017   4.465   0.894   6.390  1.8544  0.4886 -0.2153
 3520SOL     OW22018   3.346   2.217   7.195 -0.6338  0.0653  0.2090
 3520SOL    HW122019   3.317   2.296   7.150 -1.5753 -0.3245  0.1228
 3520SOL    HW222020   3.439   2.210   7.175 -1.3924 -2.7365 -2.2462
 3521SOL     OW22021   4.064   2.551   5.893  0.1736 -1.1394  0.2083
 3521SOL    HW122022   4.047   2.631   5.843  0.9014 -0.6424  0.7443
 3521SOL    HW222023   4.073   2.490   5.820  2.7952 -0.0991 -0.3714
 3522SOL     OW22024   0.045   2.134   5.577 -0.4552 -0.5528 -0.0849
 3522SOL    HW122025   0.054   2.053   5.626 -1.0278 -0.5896 -0.0501
 3522SOL    HW222026   4.673   2.124   5.565 -0.3916 -1.4894  0.2128
 3523SOL     OW22027   4.712   3.027   1.472  0.3154  0.9372 -0.1607
 3523SOL    HW122028   4.629   3.047   1.515 -0.0080  0.6487 -0.6646
 3523SOL    HW222029   4.701   2.946   1.423 -0.8989  0.5614  0.7425
 3524SOL     OW22030   1.874   0.026   3.300  0.3956  0.2041 -0.0491
 3524SOL    HW122031   1.937   0.090   3.332 -0.5095 -0.1034  2.3190
 3524SOL    HW222032   1.807   0.088   3.274  0.7586  0.1844 -1.0626
 3525SOL     OW22033   0.983   2.574   3.532  0.8040 -0.4505 -0.0028
 3525SOL    HW122034   1.071   2.538   3.522  0.4739 -1.1516 -0.3862
 3525SOL    HW222035   0.971   2.632   3.456  0.9843 -0.3850  0.0199
 3526SOL     OW22036   3.591   1.954   3.910 -0.8250 -0.2119 -0.5003
 3526SOL    HW122037   3.509   1.979   3.953 -1.3555 -2.4980 -0.2161
 3526SOL    HW222038   3.568   1.963   3.817  1.3733 -0.5785 -1.0768
 3527SOL     OW22039   2.138   4.649   0.909 -0.3909 -0.1657 -0.1579
 3527SOL    HW122040   2.101   4.638   0.997 -0.9882 -1.0507 -0.5153
 3527SOL    HW222041   2.092   0.001   0.868 -0.7275 -0.3849 -0.1801
 3528SOL     OW22042   0.103   2.469  10.133  0.5774  0.0354 -0.8387
 3528SOL    HW122043   0.130   2.383  10.103  1.0344 -0.0159 -0.2712
 3528SOL    HW222044   0.035   2.493  10.070  1.3000 -0.2449 -1.7301
 3529SOL     OW22045   4.582   3.267   1.742 -0.0751 -0.4161 -0.2626
 3529SOL    HW122046   4.659   3.217   1.765  0.1040  0.3172  0.7060
 3529SOL    HW222047   4.541   3.216   1.671  1.5234 -2.1050  0.0445
 3530SOL     OW22048   0.659   2.605   7.298  0.7788  0.3209 -0.2598
 3530SOL    HW122049   0.659   2.525   7.245  0.9442  0.6580 -0.7624
 3530SOL    HW222050   0.652   2.570   7.387  0.7965  3.3545  0.9265
 3531SOL     OW22051   2.989   2.287   3.149  0.2483  0.0251 -0.2376
 3531SOL    HW122052   2.966   2.248   3.065 -0.5110 -2.2085  1.0004
 3531SOL    HW222053   3.083   2.274   3.162 -0.0720 -1.3069  0.7499
 3532SOL     OW22054   2.245   1.145  14.790 -0.5898 -0.6478 -0.0315
 3532SOL    HW122055   2.301   1.111  14.720 -0.4079  1.0243 -0.7018
 3532SOL    HW222056   2.249   1.065  14.842  0.1435 -0.3417  0.3832
 3533SOL     OW22057   4.093   1.247   3.174 -0.5041 -0.0544 -0.1226
 3533SOL    HW122058   4.008   1.203   3.167 -0.9704  0.6239  1.3011
 3533SOL    HW222059   4.120   1.262   3.084  3.8535  0.2228  1.2270
 3534SOL     OW22060   2.716   4.290  13.603 -0.5232 -0.0555 -0.0022
 3534SOL    HW122061   2.799   4.275  13.557 -1.0606 -1.4840 -0.4978
 3534SOL    HW222062   2.741   4.323  13.689 -0.6607 -2.3557  0.9270
 3535SOL     OW22063   4.109   3.671  17.194  0.3543 -0.0201  0.1686
 3535SOL    HW122064   4.097   3.584  17.232 -1.8015  0.4692  0.6413
 3535SOL    HW222065   4.030   3.694  17.144  0.3696 -0.9175 -0.2880
 3536SOL     OW22066   2.877   0.777   2.973  0.7154 -0.0478 -0.4524
 3536SOL    HW122067   2.840   0.844   2.915 -1.0676  0.2080  1.0046
 3536SOL    HW222068   2.970   0.801   2.977  1.0085 -1.2997  0.2167
 3537SOL     OW22069   2.634   0.957   4.440  0.5804  0.0817  0.3168
 3537SOL    HW122070   2.589   1.018   4.382  0.0042 -0.7259 -0.0842
 3537SOL    HW222071   2.727   0.960   4.418  0.3439 -1.4394 -0.8726
 3538SOL     OW22072   2.914   3.915  12.636 -0.1618  0.0651 -0.3575
 3538SOL    HW122073   2.879   3.978  12.572 -0.4060  0.1289 -0.1621
 3538SOL    HW222074   2.966   3.974  12.690  1.4786 -0.4354 -1.3845
 3539SOL     OW22075   4.534   2.502   0.591  0.1951 -0.2110  0.0737
 3539SOL    HW122076   4.623   2.535   0.605 -0.1995  1.4973 -1.4755
 3539SOL    HW222077   4.535   2.479   0.498  0.9904 -2.6273  0.6582
 3540SOL     OW22078   2.379   3.934   4.304 -0.1646  0.2990  0.5797
 3540SOL    HW122079   2.468   3.903   4.324  0.6716  2.1293 -0.3102
 3540SOL    HW222080   2.385   3.925   4.209  0.5146  4.5580  0.2239
 3541SOL     OW22081   3.228   0.656   1.805 -0.0129  0.2273  0.5355
 3541SOL    HW122082   3.272   0.663   1.720 -1.9919  1.0100 -0.4320
 3541SOL    HW222083   3.298   0.674   1.869  0.0815 -1.0302  0.7779
 3542SOL     OW22084   1.780   2.191   8.435  0.0884  0.0468 -0.2251
 3542SOL    HW122085   1.875   2.197   8.426  0.2493 -0.9490  0.8256
 3542SOL    HW222086   1.756   2.277   8.469 -1.1989  0.5483 -2.4286
 3543SOL     OW22087   3.919   2.009   4.432  0.6454  0.3478  0.1847
 3543SOL    HW122088   3.964   1.935   4.390  0.0363 -0.4694  1.0034
 3543SOL    HW222089   3.924   1.987   4.525  0.0680 -0.1023  0.1050
 3544SOL     OW22090   1.228   4.590  13.344  0.1632 -0.6133  0.3938
 3544SOL    HW122091   1.288   4.664  13.340  1.9145 -2.0876 -0.3541
 3544SOL    HW222092   1.264   4.537  13.273  0.7728 -0.0529  0.2789
 3545SOL     OW22093   4.697   1.222  16.342 -0.7001 -0.3831  1.0315
 3545SOL    HW122094   0.053   1.173  16.367  0.2481  0.7966  0.3633
 3545SOL    HW222095   4.704   1.309  16.382  1.9811  1.1046 -2.7260
 3546SOL     OW22096   2.289   2.454   5.144 -0.2186 -0.9392 -0.2572
 3546SOL    HW122097   2.319   2.510   5.216 -1.9515  2.2473 -2.0190
 3546SOL    HW222098   2.196   2.474   5.132 -0.0119 -0.0578 -0.3490
 3547SOL     OW22099   3.894   0.908   4.469  0.1806 -0.3449 -0.1330
 3547SOL    HW122100   3.826   0.857   4.424  0.1142 -0.5770  0.2276
 3547SOL    HW222101   3.974   0.870   4.434 -1.0072 -3.2295  0.2314
 3548SOL     OW22102   4.039   4.659   7.660  0.0242 -0.1740  0.0841
 3548SOL    HW122103   4.089   4.652   7.742  0.0847 -3.3396 -0.2405
 3548SOL    HW222104   4.095   4.720   7.611 -3.1305  1.1663 -1.8333
 3549SOL     OW22105   2.480   0.808   2.758  0.0382 -0.2409  0.1059
 3549SOL    HW122106   2.417   0.770   2.819 -1.8379 -0.5417 -2.0149
 3549SOL    HW222107   2.431   0.788   2.677 -0.5342  0.1001  0.3706
 3550SOL     OW22108   3.911   0.704   5.098  0.0964 -0.0293  0.0783
 3550SOL    HW122109   3.999   0.700   5.059  0.6069 -1.4358  1.3521
 3550SOL    HW222110   3.852   0.684   5.026 -0.4666 -0.2397  0.5980
 3551SOL     OW22111   1.341   1.765  11.200 -0.2554  0.0256  0.4341
 3551SOL    HW122112   1.391   1.754  11.280 -0.1928 -1.4835  0.2024
 3551SOL    HW222113   1.290   1.844  11.215 -0.3554 -0.5994  3.2868
 3552SOL     OW22114   2.402   2.680   4.950 -0.1723 -0.2243 -0.6261
 3552SOL    HW122115   2.438   2.651   4.867  1.0549 -0.2737 -0.0774
 3552SOL    HW222116   2.398   2.598   4.999  0.6884  1.1678  1.8076
 3553SOL     OW22117   1.459   4.667   8.913 -0.1180  0.4797  0.6153
 3553SOL    HW122118   1.461   0.038   8.936  1.7581  0.4902  0.4487
 3553SOL    HW222119   1.550   4.661   8.882 -0.1204 -1.0434  0.9166
 3554SOL     OW22120   2.921   3.266  15.773 -0.3463 -0.6585 -0.5801
 3554SOL    HW122121   2.891   3.281  15.684  0.6990  0.0145 -0.8216
 3554SOL    HW222122   2.919   3.172  15.792  2.6941 -0.2667  1.7186
 3555SOL     OW22123   2.655   0.753  11.971  1.1177 -0.2525 -0.1707
 3555SOL    HW122124   2.616   0.666  11.986 -2.7826  1.1693 -2.0071
 3555SOL    HW222125   2.748   0.732  11.975  1.7651  2.3209 -1.8848
 3556SOL     OW22126   1.473   4.305   8.440  0.1495  0.3444 -0.2619
 3556SOL    HW122127   1.396   4.362   8.440  1.3263  1.9185  0.8848
 3556SOL    HW222128   1.532   4.379   8.451 -0.4669  0.5048  1.9290
 3557SOL     OW22129   3.541   2.639  14.813 -0.3233  0.2309  0.3639
 3557SOL    HW122130   3.533   2.631  14.908 -1.7223 -1.8987  0.0503
 3557SOL    HW222131   3.453   2.644  14.777  0.0279  0.3009 -0.4895
 3558SOL     OW22132   0.571   1.112   0.459 -0.1715  0.5664 -0.3236
 3558SOL    HW122133   0.536   1.084   0.543 -1.4144  0.3054 -0.9231
 3558SOL    HW222134   0.507   1.181   0.445  0.6881  1.8611  2.1174
 3559SOL     OW22135   1.119   3.363  14.866 -0.2217 -0.0945  0.0102
 3559SOL    HW122136   1.158   3.420  14.933 -0.0301 -0.3096  0.0794
 3559SOL    HW222137   1.074   3.297  14.919  0.5640  0.8752  1.9155
 3560SOL     OW22138   2.004   2.084  10.073  0.0937 -0.0953 -0.7457
 3560SOL    HW122139   1.939   2.111  10.138  2.6125 -0.2442  1.8493
 3560SOL    HW222140   2.079   2.091  10.132  0.3235 -0.8940 -0.9371
 3561SOL     OW22141   0.431   4.060   6.031  0.2367 -0.5038 -0.0132
 3561SOL    HW122142   0.407   4.148   6.001  1.1899  0.1670  1.1682
 3561SOL    HW222143   0.488   4.033   5.959 -1.4408 -0.4021 -1.3684
 3562SOL     OW22144   3.644   3.245  15.492  0.0501  0.2211  0.1250
 3562SOL    HW122145   3.580   3.271  15.558  0.8413 -0.7691  1.2914
 3562SOL    HW222146   3.683   3.169  15.536  0.8216  0.0700 -0.8067
 3563SOL     OW22147   0.298   0.884   8.659  0.0237 -0.2401  0.0933
 3563SOL    HW122148   0.216   0.911   8.619  0.2311 -1.8229 -1.3868
 3563SOL    HW222149   0.294   0.937   8.739  3.3974 -0.3726  0.3259
 3564SOL     OW22150   4.486   4.083  15.228 -0.0632  0.0836  0.2294
 3564SOL    HW122151   4.528   4.070  15.313  1.8243  0.7258 -0.6142
 3564SOL    HW222152   4.446   3.996  15.235  0.6253 -0.2234  0.3733
 3565SOL     OW22153   1.721   2.436   0.770  0.5798  0.7504  0.3554
 3565SOL    HW122154   1.704   2.436   0.676  0.6237 -1.6977  0.3451
 3565SOL    HW222155   1.712   2.342   0.788  2.0685  0.3084 -1.1784
 3566SOL     OW22156   4.424   0.261   6.015 -0.0735 -0.1118 -0.2052
 3566SOL    HW122157   4.343   0.210   6.016  0.2312 -0.6571 -1.6530
 3566SOL    HW222158   4.488   0.203   5.973  0.7947 -0.7239  2.0004
 3567SOL     OW22159   1.626   3.613  11.257 -0.0809  0.3175  0.4243
 3567SOL    HW122160   1.607   3.520  11.263  0.9706  0.1923  1.7929
 3567SOL    HW222161   1.626   3.632  11.163  2.1366 -2.6432 -0.1721
 3568SOL     OW22162   0.178   2.560   5.771 -0.4871  0.0648 -0.3043
 3568SOL    HW122163   0.206   2.474   5.804  2.5359  0.9218 -0.6872
 3568SOL    HW222164   0.105   2.526   5.719 -0.7370  0.2609 -0.0839
 3569SOL     OW22165   3.776   3.185   1.823 -0.2447  0.3579  0.5668
 3569SOL    HW122166   3.736   3.178   1.736  0.2034  1.2645  0.2944
 3569SOL    HW222167   3.859   3.138   1.812 -0.7797 -0.9181  2.1003
 3570SOL     OW22168   0.807   1.139   0.267 -0.1027  0.1735  0.1031
 3570SOL    HW122169   0.863   1.172   0.337 -0.4006 -0.6710  0.7367
 3570SOL    HW222170   0.723   1.120   0.309 -0.0107  1.4477  0.8983
 3571SOL     OW22171   3.813   3.171  10.084  0.5042  0.1246 -0.2156
 3571SOL    HW122172   3.819   3.095  10.143 -2.0446  0.1993  0.1201
 3571SOL    HW222173   3.898   3.213  10.099  0.4132  0.3279 -0.2735
 3572SOL     OW22174   1.258   4.105   6.918  0.1333 -0.1290 -0.1073
 3572SOL    HW122175   1.190   4.051   6.878  0.3074 -0.6742  0.3306
 3572SOL    HW222176   1.216   4.139   6.997 -0.4229 -0.5474 -0.2242
 3573SOL     OW22177   1.587   2.981   6.375  0.2686  0.0639  0.1781
 3573SOL    HW122178   1.514   2.923   6.353  0.7373  0.7083 -3.1862
 3573SOL    HW222179   1.617   2.997   6.285 -0.2616  0.0376 -0.0059
 3574SOL     OW22180   1.803   2.993  14.503  0.1622 -0.2211  0.9379
 3574SOL    HW122181   1.765   2.933  14.439 -1.3596  0.0767  1.5633
 3574SOL    HW222182   1.817   2.925  14.569  1.5006  0.2646  1.1554
 3575SOL     OW22183   0.724   1.118  16.224 -0.1398 -0.6872  0.6606
 3575SOL    HW122184   0.752   1.072  16.303 -0.2623 -1.3262  0.3333
 3575SOL    HW222185   0.631   1.095  16.221 -0.3768  0.4520 -0.8257
 3576SOL     OW22186   1.184   3.413   0.590 -0.2852  0.2419  0.2222
 3576SOL    HW122187   1.268   3.430   0.632  0.6311  0.1672 -1.5847
 3576SOL    HW222188   1.218   3.420   0.501 -1.3572 -0.2782 -0.2303
 3577SOL     OW22189   2.204   2.191   7.400  0.0391  0.3773 -0.0860
 3577SOL    HW122190   2.124   2.160   7.443 -0.0777  0.5794 -0.1531
 3577SOL    HW222191   2.198   2.150   7.314  1.0469 -0.3653  0.2016
 3578SOL     OW22192   2.565   4.604   8.911 -0.0183  0.1867 -0.0779
 3578SOL    HW122193   2.624   4.662   8.863 -1.1764  0.4780 -1.1270
 3578SOL    HW222194   2.580   4.526   8.858  0.3091  0.4009 -0.3009
 3579SOL     OW22195   3.460   4.242   5.947  0.0547  0.1356 -0.3020
 3579SOL    HW122196   3.375   4.208   5.916 -0.7420  0.3719  1.6319
 3579SOL    HW222197   3.511   4.163   5.930  0.1279  0.1548 -0.1627
 3580SOL     OW22198   0.932   1.223   4.112  0.3247  0.2554  0.7674
 3580SOL    HW122199   0.875   1.247   4.039 -0.7585  0.8923  1.8164
 3580SOL    HW222200   0.932   1.304   4.163  0.8725  0.3417  0.6282
 3581SOL     OW22201   1.988   3.224  13.051 -0.0782  0.2835  0.0806
 3581SOL    HW122202   2.043   3.265  12.984  2.0097  0.8300  2.1182
 3581SOL    HW222203   2.055   3.167  13.089  0.3723  0.1101 -0.9483
 3582SOL     OW22204   2.174   2.064   4.146  0.9329 -0.3662 -0.2939
 3582SOL    HW122205   2.158   1.975   4.114 -2.5303  0.1777 -0.0139
 3582SOL    HW222206   2.268   2.059   4.166  0.9325  1.9396  0.2715
 3583SOL     OW22207   4.158   3.257   3.861 -0.2638  0.3848  0.5179
 3583SOL    HW122208   4.190   3.172   3.891  1.4819  0.7586 -0.2298
 3583SOL    HW222209   4.236   3.296   3.822  0.4732 -2.4182 -0.8029
 3584SOL     OW22210   0.182   2.641   3.401 -0.2474 -0.1129 -0.1641
 3584SOL    HW122211   0.171   2.598   3.316 -1.1476 -0.2270  0.0188
 3584SOL    HW222212   0.094   2.656   3.435 -0.1705 -0.1393  0.0502
 3585SOL     OW22213   4.667   0.285   2.565  0.1260 -0.1033 -0.1780
 3585SOL    HW122214   4.642   0.281   2.473 -0.3800  0.6391 -0.0753
 3585SOL    HW222215   4.623   0.366   2.592  0.2785  0.4463 -1.5886
 3586SOL     OW22216   0.911   4.314   5.156  0.0466  0.5504 -0.2070
 3586SOL    HW122217   0.947   4.229   5.182  0.8577  0.9401 -0.0685
 3586SOL    HW222218   0.937   4.329   5.065  2.1504 -0.9965  0.1266
 3587SOL     OW22219   3.661   0.434   3.668  0.3960  0.2422 -0.1298
 3587SOL    HW122220   3.664   0.360   3.607 -1.8539 -0.2341  0.3485
 3587SOL    HW222221   3.588   0.488   3.638  0.5247  0.6636  0.3201
 3588SOL     OW22222   0.871   2.649   2.766  0.0481 -0.2623  0.1685
 3588SOL    HW122223   0.818   2.726   2.744 -0.5680  0.1441  3.0498
 3588SOL    HW222224   0.885   2.619   2.677  1.7899  0.5182  0.1601
 3589SOL     OW22225   2.960   1.495   7.789 -0.0872  0.0283 -0.2274
 3589SOL    HW122226   2.864   1.490   7.786 -0.0566 -0.2580 -0.8193
 3589SOL    HW222227   2.964   1.486   7.884  0.6527  2.5308 -0.0263
 3590SOL     OW22228   1.557   1.726   6.990 -0.0609 -0.7213  0.3220
 3590SOL    HW122229   1.652   1.714   6.991 -0.0668 -0.7993 -0.0669
 3590SOL    HW222230   1.537   1.684   6.907 -2.0769  0.0852  0.3922
 3591SOL     OW22231   0.794   1.579   0.109  0.0768 -0.2608 -0.4788
 3591SOL    HW122232   0.799   1.487   0.086  1.5099 -0.5468  0.9681
 3591SOL    HW222233   0.709   1.603   0.071  0.4243  1.8295  0.0266
 3592SOL     OW22234   0.437   0.329   4.266  0.0567  0.3124 -0.0135
 3592SOL    HW122235   0.420   0.385   4.190  0.8180 -0.4431 -0.7447
 3592SOL    HW222236   0.454   0.392   4.336  1.6809  1.2519 -1.2483
 3593SOL     OW22237   2.229   1.421  14.826 -0.0008  0.2477 -0.2613
 3593SOL    HW122238   2.225   1.326  14.828 -1.0171  0.2643 -1.4618
 3593SOL    HW222239   2.272   1.435  14.742 -1.0042  1.2497 -0.6089
 3594SOL     OW22240   3.830   1.065   7.754  0.4285 -1.2624  0.2405
 3594SOL    HW122241   3.856   1.073   7.846  0.0193 -1.1742  0.3505
 3594SOL    HW222242   3.737   1.044   7.768 -0.0529  0.9773  0.3687
 3595SOL     OW22243   3.772   0.793   8.026 -0.7920  0.1737 -0.4053
 3595SOL    HW122244   3.802   0.884   8.024 -0.4722  0.0648 -0.5762
 3595SOL    HW222245   3.809   0.781   8.113 -2.4201 -0.2624  0.2297
 3596SOL     OW22246   2.098   4.117   3.010  0.0906  0.5267 -0.3243
 3596SOL    HW122247   2.118   4.024   3.018  1.3211  0.7728 -0.6136
 3596SOL    HW222248   2.103   4.127   2.915 -2.7812  1.3741 -0.3850
 3597SOL     OW22249   0.935   4.049  16.583  0.9064  0.3505 -0.2944
 3597SOL    HW122250   0.962   4.140  16.568  2.8538 -0.5644 -2.2951
 3597SOL    HW222251   0.845   4.059  16.554  0.9198  0.1573 -0.3987
 3598SOL     OW22252   1.497   1.869   0.430 -0.2737 -0.1093 -0.0168
 3598SOL    HW122253   1.412   1.841   0.463  0.9211 -0.1783  2.9157
 3598SOL    HW222254   1.499   1.799   0.364  3.0032 -0.9717  0.9953
 3599SOL     OW22255   4.662   4.655   5.906 -0.1467 -0.3612 -0.3840
 3599SOL    HW122256   4.680   4.587   5.841  1.1072  0.6081 -1.0655
 3599SOL    HW222257   4.567   4.660   5.891 -0.0614  0.6325 -0.6335
 3600SOL     OW22258   4.176   1.703  10.288 -0.6480 -0.3875  0.3316
 3600SOL    HW122259   4.234   1.717  10.363  0.1928  2.2991 -0.8528
 3600SOL    HW222260   4.119   1.778  10.303 -2.0579 -1.9318  2.8974
 3601SOL     OW22261   3.266   0.077   9.559 -0.3503 -0.1272 -0.6368
 3601SOL    HW122262   3.279   0.081   9.464 -0.5852 -0.7523 -0.6989
 3601SOL    HW222263   3.297   4.710   9.574  2.1957  0.8158 -0.1929
 3602SOL     OW22264   2.207   2.014  15.090  0.2334 -0.1579  0.5974
 3602SOL    HW122265   2.224   2.082  15.025  1.2365  0.3769  1.4276
 3602SOL    HW222266   2.164   1.942  15.043  2.5843 -2.8087  2.4860
 3603SOL     OW22267   1.673   3.916  11.841  0.0871 -0.0465 -0.0623
 3603SOL    HW122268   1.581   3.942  11.839  0.1918  0.3450  0.0408
 3603SOL    HW222269   1.708   3.999  11.874 -1.4023  0.6766 -0.3136
 3604SOL     OW22270   3.016   0.660   6.698 -0.1152  0.1038  0.1426
 3604SOL    HW122271   3.092   0.689   6.748 -0.3501 -1.8205  1.5995
 3604SOL    HW222272   2.968   0.743   6.699 -1.9816 -0.9906  0.9131
 3605SOL     OW22273   4.631   3.654   4.803 -0.1211 -0.2181  0.2681
 3605SOL    HW122274   4.543   3.632   4.831 -0.1172 -0.4015  0.1319
 3605SOL    HW222275   4.677   3.570   4.803 -1.8471 -1.1472  1.2331
 3606SOL     OW22276   1.959   0.733   4.930 -0.1084 -0.1473 -0.6074
 3606SOL    HW122277   2.026   0.724   4.862 -0.0678  3.0635 -0.9788
 3606SOL    HW222278   1.926   0.646   4.952  0.0463 -0.4060 -1.3805
 3607SOL     OW22279   3.168   1.448  12.445 -0.3500  0.1431  0.0285
 3607SOL    HW122280   3.248   1.500  12.449 -0.2389  0.0968 -1.5375
 3607SOL    HW222281   3.207   1.367  12.412 -1.6625 -0.4712 -0.0026
 3608SOL     OW22282   4.518   1.291   0.417 -0.0692  0.2770 -0.0611
 3608SOL    HW122283   4.590   1.344   0.452 -1.3473  1.1236  1.2725
 3608SOL    HW222284   4.453   1.360   0.425 -0.5993  0.0448 -2.3510
 3609SOL     OW22285   0.261   3.826   0.100 -0.0389 -0.1011  0.2521
 3609SOL    HW122286   0.217   3.744   0.079 -1.9230  0.9152  0.2478
 3609SOL    HW222287   0.196   3.891   0.073  0.0819 -0.7972 -1.7449
 3610SOL     OW22288   2.198   3.137   6.373 -0.0155  0.0366 -0.0641
 3610SOL    HW122289   2.171   3.228   6.361  0.7891  0.3589  0.5390
 3610SOL    HW222290   2.189   3.126   6.467  1.1648 -0.6006 -0.0224
 3611SOL     OW22291   0.276   3.198   6.320  0.2502 -0.1344 -0.0944
 3611SOL    HW122292   0.338   3.270   6.331  0.1620  0.0058 -0.5231
 3611SOL    HW222293   0.227   3.200   6.402  1.4653 -1.6650  0.6725
 3612SOL     OW22294   0.902   4.403   5.749  0.2981  0.2866 -0.3978
 3612SOL    HW122295   0.846   4.334   5.713 -0.6685  2.1160 -2.3976
 3612SOL    HW222296   0.940   4.348   5.817 -1.6093 -0.6098 -0.0598
 3613SOL     OW22297   4.105   1.512   5.031 -0.0513  0.1744  0.6283
 3613SOL    HW122298   4.119   1.433   4.978 -0.1580  1.1588 -0.8567
 3613SOL    HW222299   4.177   1.498   5.093  1.9807  1.3214 -1.4591
 3614SOL     OW22300   2.635   3.150   7.481  0.6070  0.1564 -0.0469
 3614SOL    HW122301   2.709   3.210   7.475 -0.7828  1.9651  0.8895
 3614SOL    HW222302   2.645   3.114   7.569  1.0274  1.5010  0.4460
 3615SOL     OW22303   0.787   3.584  11.013 -0.0639 -0.3250 -0.4421
 3615SOL    HW122304   0.778   3.497  11.053  0.9190 -0.5775 -0.7653
 3615SOL    HW222305   0.730   3.571  10.937  0.4493  0.4710 -0.9567
 3616SOL     OW22306   0.905   1.691  12.920 -0.3246  0.4792  0.0187
 3616SOL    HW122307   0.991   1.680  12.878  0.5758 -0.0853  2.0197
 3616SOL    HW222308   0.916   1.771  12.971 -1.1764 -0.6682  1.9878
 3617SOL     OW22309   2.238   3.956   2.269 -0.5175 -0.0165 -0.2777
 3617SOL    HW122310   2.287   4.012   2.209  1.2602 -1.6378 -0.3573
 3617SOL    HW222311   2.150   3.954   2.232 -0.5914 -1.0246 -0.0466
 3618SOL     OW22312   0.359   0.428  16.873  0.2501 -0.4567 -0.0698
 3618SOL    HW122313   0.316   0.387  16.948 -2.0804 -3.2336 -2.9181
 3618SOL    HW222314   0.290   0.471  16.822 -1.3964 -2.5993  0.3152
 3619SOL     OW22315   2.609   3.723   4.788  0.2571 -0.0574  0.3936
 3619SOL    HW122316   2.654   3.788   4.733  0.9690 -1.2612 -0.4671
 3619SOL    HW222317   2.596   3.659   4.718 -0.3056  0.7097 -0.2044
 3620SOL     OW22318   0.968   2.430   6.040 -0.0620  0.4205  0.1497
 3620SOL    HW122319   0.937   2.505   6.091 -2.0101 -0.8032  0.7587
 3620SOL    HW222320   0.916   2.359   6.078 -0.7870 -0.1957 -2.0352
 3621SOL     OW22321   3.197   2.538   7.610 -0.4215  0.1716 -0.4824
 3621SOL    HW122322   3.151   2.591   7.675  1.0800 -0.1364  0.8425
 3621SOL    HW222323   3.248   2.609   7.571 -0.4287 -0.4626 -1.6215
 3622SOL     OW22324   3.349   3.138   2.229  0.0401  0.1230 -0.0413
 3622SOL    HW122325   3.429   3.134   2.280 -1.1017 -2.7493  1.5288
 3622SOL    HW222326   3.295   3.093   2.294  1.2044 -0.6366  0.3856
 3623SOL     OW22327   1.386   2.025  13.911  0.0633  0.1069 -0.2083
 3623SOL    HW122328   1.394   2.096  13.847  0.2190  0.2132 -0.0712
 3623SOL    HW222329   1.349   1.945  13.874 -0.6745 -0.7882  2.5338
 3624SOL     OW22330   3.050   2.888   2.175 -0.6773 -0.5562  0.1910
 3624SOL    HW122331   3.068   2.904   2.267 -2.4215 -2.0424  0.8007
 3624SOL    HW222332   2.954   2.883   2.174 -0.6807 -0.5386  0.4243
 3625SOL     OW22333   2.479   3.356   6.079  0.4535 -0.0125 -0.0906
 3625SOL    HW122334   2.499   3.307   6.159  0.0136  1.6718  1.0633
 3625SOL    HW222335   2.434   3.431   6.118  0.3919  0.5920 -1.3291
 3626SOL     OW22336   1.407   1.017  14.866 -0.3742 -0.1567  0.4393
 3626SOL    HW122337   1.487   1.036  14.915 -0.5286  1.6783 -0.0135
 3626SOL    HW222338   1.400   1.093  14.808  2.0835 -0.9406 -0.8930
 3627SOL     OW22339   0.574   1.702   8.633  0.2297  0.2476 -0.3171
 3627SOL    HW122340   0.523   1.781   8.616 -1.1090 -0.2828  1.2030
 3627SOL    HW222341   0.660   1.724   8.667 -0.6607  1.5452  1.1167
 3628SOL     OW22342   0.351   3.826   1.346 -0.4080 -0.4482 -0.1355
 3628SOL    HW122343   0.347   3.919   1.325 -1.3878 -0.3742  0.3785
 3628SOL    HW222344   0.442   3.812   1.318  0.7038  2.5113  2.0273
 3629SOL     OW22345   3.832   2.465   7.705  1.0407 -0.3699  0.1536
 3629SOL    HW122346   3.782   2.512   7.772 -1.6184 -1.7835 -0.8362
 3629SOL    HW222347   3.766   2.399   7.684  0.9126 -0.2002  0.0171
 3630SOL     OW22348   0.842   3.053   6.581 -0.1301  0.1964  0.1825
 3630SOL    HW122349   0.811   3.143   6.584 -1.1602 -0.1776  0.7374
 3630SOL    HW222350   0.808   3.044   6.492 -0.0259 -0.9479  0.2511
 3631SOL     OW22351   0.070   4.021   4.223  0.1510 -0.2743 -0.2136
 3631SOL    HW122352   0.038   3.933   4.243  1.0838 -0.0415  2.2778
 3631SOL    HW222353   0.162   3.999   4.235 -0.2060 -1.3584  0.5427
 3632SOL     OW22354   3.874   3.867  13.264 -0.0003  0.2482 -0.1180
 3632SOL    HW122355   3.871   3.845  13.357  2.8183 -3.8937 -1.0379
 3632SOL    HW222356   3.889   3.782  13.224 -1.6932  0.4104 -1.1161
 3633SOL     OW22357   1.471   1.542  16.741 -0.0838 -0.0887 -0.1455
 3633SOL    HW122358   1.521   1.469  16.704  0.5560 -0.2539  1.0079
 3633SOL    HW222359   1.409   1.567  16.674 -0.3066 -1.8638 -0.5929
 3634SOL     OW22360   3.132   2.766   9.713 -0.2194  0.1444 -0.1530
 3634SOL    HW122361   3.174   2.799   9.633  0.5035 -1.0824 -0.2749
 3634SOL    HW222362   3.110   2.849   9.756 -1.0758  0.1279 -0.5601
 3635SOL     OW22363   0.537   3.998   0.958  0.3101 -0.0825 -0.3605
 3635SOL    HW122364   0.590   4.033   1.030  1.0940  3.2949 -2.5883
 3635SOL    HW222365   0.543   4.074   0.900 -1.2544  1.2366  1.1881
 3636SOL     OW22366   1.629   4.597  12.670  0.0918 -0.2973  0.3045
 3636SOL    HW122367   1.572   4.573  12.596 -0.7405 -1.0651  1.2040
 3636SOL    HW222368   1.650   4.689  12.658  3.3568 -0.8061  2.2391
 3637SOL     OW22369   3.265   0.528   1.071  0.4172  0.3013  0.5195
 3637SOL    HW122370   3.334   0.585   1.104 -0.5062  1.8506 -0.2106
 3637SOL    HW222371   3.222   0.590   1.012 -3.1988 -2.1627  0.5993
 3638SOL     OW22372   3.613   0.737  14.581  0.0612  0.0599  0.0920
 3638SOL    HW122373   3.672   0.662  14.567 -2.6353 -2.2314  0.8881
 3638SOL    HW222374   3.659   0.809  14.539 -1.3776  0.7363 -0.3246
 3639SOL     OW22375   0.687   3.872   6.363  0.5547 -0.6404  0.4313
 3639SOL    HW122376   0.754   3.847   6.427  3.2385  1.0992 -1.6716
 3639SOL    HW222377   0.606   3.888   6.412  1.4258  0.2472  1.5830
 3640SOL     OW22378   0.808   1.234   3.102  0.1831  0.6040  0.1355
 3640SOL    HW122379   0.766   1.167   3.048 -1.3593  0.4998  1.4837
 3640SOL    HW222380   0.846   1.186   3.174 -1.1974 -0.1133  0.3855
 3641SOL     OW22381   1.454   4.601   2.143 -0.0924 -0.8430 -0.1043
 3641SOL    HW122382   1.490   4.620   2.056 -0.4328  2.4607  0.4906
 3641SOL    HW222383   1.402   4.524   2.118 -0.5283 -0.6521  0.2049
 3642SOL     OW22384   2.365   1.091   9.011 -0.3273 -0.3009  0.8497
 3642SOL    HW122385   2.376   1.118   9.103  2.4102  1.0825  0.1039
 3642SOL    HW222386   2.431   1.022   9.009  1.1420  1.2667 -3.4562
 3643SOL     OW22387   3.356   0.946   8.961 -0.1455  0.3158 -0.1676
 3643SOL    HW122388   3.315   1.032   8.964 -2.6902 -0.8458 -0.8736
 3643SOL    HW222389   3.423   0.966   9.026 -1.9721  0.4951  1.6509
 3644SOL     OW22390   3.911   3.128   2.399  0.3439 -0.1056  0.1551
 3644SOL    HW122391   3.994   3.156   2.437  0.7525 -0.7230 -0.2756
 3644SOL    HW222392   3.850   3.202   2.403 -1.0146 -1.2555  0.6516
 3645SOL     OW22393   1.405   4.439   4.136  0.0243 -0.2088 -0.4033
 3645SOL    HW122394   1.455   4.357   4.139  1.5208  0.7077 -0.7315
 3645SOL    HW222395   1.470   4.496   4.096  1.2520 -1.5873 -0.3480
 3646SOL     OW22396   2.456   2.664  13.859  0.1345  0.2998  0.0841
 3646SOL    HW122397   2.494   2.749  13.840  0.1425 -0.0146 -1.2835
 3646SOL    HW222398   2.495   2.623  13.783 -1.2303 -2.2796  0.7702
 3647SOL     OW22399   0.038   1.013   6.487  0.2098  0.0154 -0.0547
 3647SOL    HW122400   0.086   0.995   6.406 -1.2848 -0.5977 -0.7959
 3647SOL    HW222401   4.693   0.946   6.480 -0.2165  0.2683  1.5219
 3648SOL     OW22402   4.412   0.832   6.917 -0.8736 -0.1529 -0.5323
 3648SOL    HW122403   4.470   0.863   6.847 -1.4301 -1.5263 -1.6134
 3648SOL    HW222404   4.339   0.891   6.896 -1.9818 -1.9614 -1.7103
 3649SOL     OW22405   0.973   2.317   4.870  0.1419 -0.0175 -0.0995
 3649SOL    HW122406   1.027   2.394   4.887 -0.9096  0.6194  0.3506
 3649SOL    HW222407   1.043   2.256   4.847 -0.4328 -0.3352 -1.0169
 3650SOL     OW22408   0.372   2.464  16.732 -0.4525 -0.0439 -0.0225
 3650SOL    HW122409   0.293   2.427  16.692 -1.4577 -0.2659  2.1613
 3650SOL    HW222410   0.367   2.456  16.827  2.5296 -1.1698  0.0405
 3651SOL     OW22411   2.904   4.519  10.966 -0.1989 -0.0086 -0.7692
 3651SOL    HW122412   2.825   4.535  10.914 -1.2155  0.0901  0.8119
 3651SOL    HW222413   2.882   4.552  11.053  2.2173  0.2412 -0.2589
 3652SOL     OW22414   4.632   2.744   4.204 -0.5041  0.0834  0.4187
 3652SOL    HW122415   4.540   2.747   4.177 -0.3889 -0.9718 -0.0791
 3652SOL    HW222416   4.649   2.823   4.254 -1.3837 -0.2873  1.3032
 3653SOL     OW22417   2.435   2.906   5.102 -0.6371  0.0253 -0.6031
 3653SOL    HW122418   2.514   2.871   5.144 -0.4520 -0.9409 -1.7534
 3653SOL    HW222419   2.408   2.828   5.053  1.9422 -0.7553 -0.7723
 3654SOL     OW22420   1.591   0.092   2.516  0.5114 -0.4047  0.0715
 3654SOL    HW122421   1.619   0.032   2.447 -0.0331 -0.4983 -0.0665
 3654SOL    HW222422   1.498   0.103   2.495  0.2273 -2.3176  0.3487
 3655SOL     OW22423   1.774   0.623   4.216  0.2618  0.3341  0.6232
 3655SOL    HW122424   1.843   0.680   4.181 -0.8452  0.0542 -2.0095
 3655SOL    HW222425   1.756   0.670   4.297  0.4579  0.7593  0.4231
 3656SOL     OW22426   0.054   0.041  16.813  0.5877  0.0893 -0.0659
 3656SOL    HW122427   0.118   0.043  16.884 -0.0948  0.4843  0.5415
 3656SOL    HW222428   0.110   0.096  16.758  0.5229 -1.0668 -1.2788
 3657SOL     OW22429   1.168   0.297  17.335  0.1102  0.2963 -0.5771
 3657SOL    HW122430   1.240   0.327  17.390 -1.9730  2.9064  0.7286
 3657SOL    HW222431   1.178   0.352  17.258 -1.4618 -1.1114 -1.7958
 3658SOL     OW22432   3.014   3.833   2.909 -0.3109  0.1024 -0.1903
 3658SOL    HW122433   2.992   3.748   2.947 -0.6540  0.2465 -0.0742
 3658SOL    HW222434   2.991   3.888   2.984  0.7759 -1.8145  1.5792
 3659SOL     OW22435   2.588   4.282  10.132 -0.9288  0.6273  0.0466
 3659SOL    HW122436   2.650   4.244  10.069 -1.2875 -0.3566  0.2861
 3659SOL    HW222437   2.528   4.324  10.070 -0.7151 -1.2169 -1.4311
 3660SOL     OW22438   2.914   4.102  16.937 -0.7334  0.3276  0.1549
 3660SOL    HW122439   2.954   4.052  16.865 -0.7226 -0.3859  0.6488
 3660SOL    HW222440   2.982   4.085  17.002  0.0734 -0.8833 -0.9815
 3661SOL     OW22441   4.391   0.458   5.697 -0.0680 -0.0421 -0.1329
 3661SOL    HW122442   4.405   0.472   5.791  2.2685 -1.2167 -0.3189
 3661SOL    HW222443   4.362   0.546   5.671 -3.1597 -1.2308 -0.7008
 3662SOL     OW22444   2.717   3.719   2.807 -0.2972 -0.1149 -0.5576
 3662SOL    HW122445   2.762   3.675   2.736 -0.3424  0.4167 -0.9156
 3662SOL    HW222446   2.651   3.767   2.757  0.1427  1.9051  0.7948
 3663SOL     OW22447   4.027   3.934   2.973  0.3707 -0.9543  0.4176
 3663SOL    HW122448   4.014   3.977   3.058  1.3300  2.5382 -1.2398
 3663SOL    HW222449   4.113   3.959   2.941  0.1604  1.0932  1.4555
 3664SOL     OW22450   2.597   3.960   1.950 -0.4211  0.0200 -0.6879
 3664SOL    HW122451   2.502   3.949   1.948 -0.2913 -1.3176  0.4061
 3664SOL    HW222452   2.601   4.024   1.878  0.8417  0.6272 -0.0836
 3665SOL     OW22453   1.484   0.492   3.313 -0.1670  0.4762  0.1482
 3665SOL    HW122454   1.511   0.483   3.222  0.1137 -0.3586  0.3136
 3665SOL    HW222455   1.464   0.586   3.316  1.1699  0.7743 -0.1408
 3666SOL     OW22456   3.091   1.710   9.551 -0.3730  0.0088 -0.1428
 3666SOL    HW122457   3.084   1.617   9.533  0.2564 -0.1762  0.6024
 3666SOL    HW222458   3.004   1.739   9.579 -0.4285 -0.9811  0.6744
 3667SOL     OW22459   2.244   4.409   2.100  0.0625  0.3135 -0.1257
 3667SOL    HW122460   2.181   4.352   2.057 -1.1142  2.3927 -1.1507
 3667SOL    HW222461   2.208   4.416   2.189  1.0756 -1.3215  0.4334
 3668SOL     OW22462   2.480   0.865   9.620 -0.2368  0.5941  0.2738
 3668SOL    HW122463   2.544   0.937   9.619  0.4123  0.0119 -0.1288
 3668SOL    HW222464   2.403   0.922   9.618 -1.1693 -0.7229 -1.3490
 3669SOL     OW22465   1.680   3.218  10.276 -0.2911 -0.4680 -0.2469
 3669SOL    HW122466   1.728   3.191  10.354 -0.7156 -0.0466  0.1614
 3669SOL    HW222467   1.748   3.251  10.217  0.4199 -0.2968  0.6727
 3670SOL     OW22468   2.479   2.645   7.061  0.1416 -0.2527  0.1912
 3670SOL    HW122469   2.513   2.557   7.046 -1.5914 -0.5146 -2.1496
 3670SOL    HW222470   2.560   2.698   7.062 -0.3501  0.5574 -1.6548
 3671SOL     OW22471   4.508   2.657  15.862  0.5207  0.5219  0.0231
 3671SOL    HW122472   4.550   2.697  15.786  0.6881 -0.7525 -0.5447
 3671SOL    HW222473   4.575   2.673  15.929  1.7864 -2.0109 -0.6626
 3672SOL     OW22474   3.426   0.132  14.149  0.7018  0.1693 -0.5031
 3672SOL    HW122475   3.365   0.063  14.174  1.6887  0.2601  2.1343
 3672SOL    HW222476   3.450   0.104  14.061  2.1161  0.6793 -0.2780
 3673SOL     OW22477   1.521   2.908   4.575 -0.3143  0.2932 -0.6939
 3673SOL    HW122478   1.611   2.916   4.606  0.1074 -2.7304 -1.1223
 3673SOL    HW222479   1.487   2.986   4.619  0.2870 -0.7034  1.5026
 3674SOL     OW22480   1.725   1.703   4.657 -0.2285  0.0937  0.1079
 3674SOL    HW122481   1.784   1.766   4.698  0.5573 -1.5988  1.5880
 3674SOL    HW222482   1.648   1.727   4.709 -0.6048  1.8732 -1.2772
 3675SOL     OW22483   0.117   3.429   9.279  0.2577 -0.1564 -0.1262
 3675SOL    HW122484   0.135   3.345   9.235  0.4424 -1.2049  1.9794
 3675SOL    HW222485   0.161   3.413   9.363 -0.0766  0.4012  0.1514
 3676SOL     OW22486   1.152   0.095   8.542 -0.2988  0.5032 -0.3175
 3676SOL    HW122487   1.214   0.152   8.589  0.9964  0.2122 -1.6850
 3676SOL    HW222488   1.068   0.141   8.547  0.3580  1.5302  1.4012
 3677SOL     OW22489   4.614   1.144  10.969  0.6014 -0.7824  0.2467
 3677SOL    HW122490   4.653   1.230  10.978 -1.1655  0.0082  0.3927
 3677SOL    HW222491   4.544   1.153  11.034 -0.2110 -2.0161 -0.4460
 3678SOL     OW22492   2.672   1.585  11.931  0.5199  0.0808 -0.4106
 3678SOL    HW122493   2.731   1.566  12.004 -0.7538 -0.6016  0.4365
 3678SOL    HW222494   2.628   1.500  11.933  1.5659 -0.4711 -0.7048
 3679SOL     OW22495   3.407   4.192  13.136 -0.1939  0.0284  0.9678
 3679SOL    HW122496   3.357   4.119  13.173 -0.2922  0.2529  1.2827
 3679SOL    HW222497   3.444   4.235  13.213 -1.3489  1.1777  0.8933
 3680SOL     OW22498   2.688   0.225  12.073  0.1127 -0.3183 -0.0300
 3680SOL    HW122499   2.707   0.214  11.980 -0.7965  0.3636 -0.2909
 3680SOL    HW222500   2.780   0.232  12.099  0.2907  0.4545 -0.8848
 3681SOL     OW22501   4.269   4.173   8.303  0.2376  0.8640 -0.0355
 3681SOL    HW122502   4.310   4.190   8.388  1.3515  2.0581 -0.8026
 3681SOL    HW222503   4.304   4.248   8.254  1.2632  0.2301 -0.2755
 3682SOL     OW22504   4.611   3.487   5.975  0.9933  0.2438 -0.1479
 3682SOL    HW122505   4.676   3.463   6.041 -0.5106  0.8895  1.5977
 3682SOL    HW222506   4.659   3.555   5.928  0.9211  0.5859  0.2703
 3683SOL     OW22507   1.650   1.126  10.069 -0.6055 -0.4273 -0.1498
 3683SOL    HW122508   1.604   1.045  10.089 -1.6841  0.8989  2.8107
 3683SOL    HW222509   1.681   1.152  10.156  0.1979  2.1740 -1.2151
 3684SOL     OW22510   4.354   1.218   3.342  0.3367  0.1267 -0.4959
 3684SOL    HW122511   4.370   1.168   3.422  1.0188 -0.8820 -1.2646
 3684SOL    HW222512   4.267   1.185   3.320 -0.4388  1.6096  0.3780
 3685SOL     OW22513   4.360   1.373  16.714  0.3866  0.0866  0.0393
 3685SOL    HW122514   4.404   1.290  16.733 -2.6157 -1.8957 -1.7971
 3685SOL    HW222515   4.404   1.393  16.631  0.9641 -0.0275  0.3133
 3686SOL     OW22516   3.527   4.720  12.821 -0.3061  0.0509  0.2165
 3686SOL    HW122517   3.596   4.670  12.864  0.7348  1.6284  0.3832
 3686SOL    HW222518   3.572   0.037  12.746  0.7894  0.2318  0.9595
 3687SOL     OW22519   2.820   2.049   0.673  0.8937 -0.0759  0.4807
 3687SOL    HW122520   2.799   2.103   0.750  1.2638 -2.8405  2.4871
 3687SOL    HW222521   2.891   2.097   0.630  0.2753  0.0394 -0.4213
 3688SOL     OW22522   2.832   3.486   3.665  0.6084 -0.2374 -0.3442
 3688SOL    HW122523   2.761   3.503   3.726  0.6324  1.0588 -0.6927
 3688SOL    HW222524   2.822   3.391   3.660  0.1363 -0.1332 -1.2971
 3689SOL     OW22525   0.806   1.704  15.132 -0.7576  0.3498 -0.1577
 3689SOL    HW122526   0.814   1.612  15.109 -1.7965  0.0610  0.6501
 3689SOL    HW222527   0.858   1.741  15.061 -0.7420 -2.1017 -1.4197
 3690SOL     OW22528   2.322   3.552   2.801  0.4367 -0.2901 -0.2514
 3690SOL    HW122529   2.258   3.586   2.864  2.5086 -2.0294  2.7854
 3690SOL    HW222530   2.303   3.459   2.797  1.2444 -0.4039 -1.6919
 3691SOL     OW22531   0.309   0.964   8.960  0.1032  0.0290 -0.1367
 3691SOL    HW122532   0.334   1.020   9.033  1.2125  0.5954 -0.9463
 3691SOL    HW222533   0.387   0.908   8.955 -1.6965 -2.2459 -3.0227
 3692SOL     OW22534   1.681   0.470  17.291  0.1566 -0.3116 -0.1526
 3692SOL    HW122535   1.757   0.522  17.315 -0.8763  0.6522  0.9880
 3692SOL    HW222536   1.723   0.385  17.279  0.6063  0.0318 -1.0387
 3693SOL     OW22537   1.194   0.166   6.975 -0.0567 -0.1634  0.0774
 3693SOL    HW122538   1.129   0.173   6.905  0.1043 -1.1675 -0.1652
 3693SOL    HW222539   1.255   0.235   6.948 -0.6407  1.1582  2.1403
 3694SOL     OW22540   1.424   1.394   7.636  0.4368  0.0756  0.2172
 3694SOL    HW122541   1.434   1.483   7.604 -1.1418 -0.0777 -0.6853
 3694SOL    HW222542   1.340   1.364   7.603 -0.2376  1.5559  0.6156
 3695SOL     OW22543   1.460   1.851   8.185  0.0257  0.1025  0.2409
 3695SOL    HW122544   1.506   1.933   8.169  1.4276 -0.2369  2.4759
 3695SOL    HW222545   1.481   1.841   8.278  1.7856  0.5113 -0.1147
 3696SOL     OW22546   2.380   4.225   4.298  0.4902 -0.1930 -0.1305
 3696SOL    HW122547   2.345   4.149   4.251  1.2001  0.7537 -2.1822
 3696SOL    HW222548   2.440   4.186   4.362  0.2987 -0.3970 -0.0771
 3697SOL     OW22549   1.421   4.712  10.622  0.5333 -0.3511  0.4442
 3697SOL    HW122550   1.337   4.696  10.663 -0.2517  1.1182 -0.6154
 3697SOL    HW222551   1.404   0.074  10.580 -2.1327 -1.1492 -0.0747
 3698SOL     OW22552   1.122   1.231   0.713  0.1217 -0.4805  0.2636
 3698SOL    HW122553   1.173   1.288   0.771 -2.1055  0.0198  1.7164
 3698SOL    HW222554   1.099   1.162   0.775  0.6449  0.9145  2.0304
 3699SOL     OW22555   2.499   3.350   4.733  0.1144  0.0387 -0.0187
 3699SOL    HW122556   2.477   3.297   4.656  0.7918 -1.1328  0.6081
 3699SOL    HW222557   2.424   3.335   4.791  1.3632 -0.0019  1.5784
 3700SOL     OW22558   4.175   1.723  10.814 -0.3070  0.4209 -0.0917
 3700SOL    HW122559   4.248   1.663  10.831 -1.9070 -1.4915 -0.0393
 3700SOL    HW222560   4.114   1.700  10.885 -0.5597  0.0164 -0.4411
 3701SOL     OW22561   4.076   0.805   9.489  0.1876  0.3452  0.4405
 3701SOL    HW122562   4.154   0.752   9.506  0.3071  0.5923  0.6514
 3701SOL    HW222563   4.017   0.742   9.446  0.7408 -1.0534  1.7526
 3702SOL     OW22564   3.364   0.373   4.163 -0.2912 -0.3043  0.1503
 3702SOL    HW122565   3.452   0.358   4.128  0.2024  2.7771  0.1264
 3702SOL    HW222566   3.313   0.330   4.093  1.3879  0.5114 -1.5778
 3703SOL     OW22567   0.288   3.057   6.956  0.1390 -0.1394  0.0168
 3703SOL    HW122568   0.301   3.045   7.050  1.3839  1.6563  0.0637
 3703SOL    HW222569   0.217   2.995   6.939 -0.6312  0.6556  0.3066
 3704SOL     OW22570   0.208   0.017   4.766 -0.2452 -0.0899  0.1905
 3704SOL    HW122571   0.262   4.664   4.788  0.8273  0.4341 -0.6496
 3704SOL    HW222572   0.213   0.064   4.849  1.7494 -0.6258  0.3600
 3705SOL     OW22573   4.170   4.486   0.141 -0.0759  0.1843  0.2511
 3705SOL    HW122574   4.108   4.497   0.213 -0.9282 -1.7030 -0.2015
 3705SOL    HW222575   4.110   4.495   0.067  0.4760  1.2824 -0.0594
 3706SOL     OW22576   2.139   0.584   7.759  0.2515 -0.7261 -0.2923
 3706SOL    HW122577   2.146   0.659   7.699  0.6762  0.1255  0.8268
 3706SOL    HW222578   2.055   0.551   7.727  0.3216  0.4340 -1.7001
 3707SOL     OW22579   2.518   3.122  12.275 -0.3050  0.1129 -0.0332
 3707SOL    HW122580   2.457   3.068  12.226  0.4052 -1.5946  0.9740
 3707SOL    HW222581   2.604   3.119  12.233 -0.3469 -0.4235 -0.0774
 3708SOL     OW22582   2.273   4.315   6.762 -0.3386  0.2214  0.0643
 3708SOL    HW122583   2.237   4.334   6.849  1.6040  0.8338  0.7138
 3708SOL    HW222584   2.345   4.377   6.770  2.2012 -2.6099 -0.8840
 3709SOL     OW22585   0.668   2.482   7.542 -0.7240  0.3038 -0.1987
 3709SOL    HW122586   0.694   2.511   7.629 -1.5310  2.1147 -0.5640
 3709SOL    HW222587   0.580   2.446   7.555  0.5120 -1.9658  1.7983
 3710SOL     OW22588   0.956   0.907   4.644 -0.3505  0.0927  0.1396
 3710SOL    HW122589   0.938   0.830   4.698 -0.4399  0.7136  1.0004
 3710SOL    HW222590   0.999   0.864   4.570 -1.1800 -0.6687  0.0956
 3711SOL     OW22591   3.584   0.760   4.512 -0.3183 -0.1685  0.1340
 3711SOL    HW122592   3.592   0.666   4.525  0.1038 -0.0846  0.5063
 3711SOL    HW222593   3.627   0.758   4.426  0.5925  0.2642  0.5782
 3712SOL     OW22594   0.727   1.546   3.436  0.2304 -0.0495  0.1060
 3712SOL    HW122595   0.765   1.608   3.374 -0.4084  0.6258  0.3961
 3712SOL    HW222596   0.772   1.463   3.423  0.1713 -0.0317 -0.2004
 3713SOL     OW22597   0.081   1.402   4.596  0.4199 -0.2986 -0.2506
 3713SOL    HW122598   0.004   1.348   4.616 -0.6559  1.7392  1.2778
 3713SOL    HW222599   0.076   1.402   4.501  2.4373 -0.7990 -0.3452
 3714SOL     OW22600   0.289   3.708   6.093 -0.0114 -0.0190 -0.1423
 3714SOL    HW122601   0.286   3.614   6.113  0.4317 -0.1100 -0.5034
 3714SOL    HW222602   0.362   3.737   6.149 -0.9614  1.4006  0.3520
 3715SOL     OW22603   2.326   1.937   1.172 -0.2630  0.0273  0.2444
 3715SOL    HW122604   2.390   1.986   1.122 -0.8178  0.5135  0.0141
 3715SOL    HW222605   2.360   1.850   1.154 -1.7478 -0.6279  0.5588
 3716SOL     OW22606   2.305   1.696  16.312 -0.2675  0.2664 -0.1708
 3716SOL    HW122607   2.278   1.723  16.224  1.6139  1.8690 -0.2699
 3716SOL    HW222608   2.233   1.738  16.360  0.3261 -0.4245  1.3202
 3717SOL     OW22609   4.061   0.915   3.905  0.2191 -0.5113  0.0337
 3717SOL    HW122610   4.142   0.900   3.857  0.4100 -1.9797  0.8104
 3717SOL    HW222611   4.045   0.825   3.935  1.0465 -0.3829  0.8759
 3718SOL     OW22612   3.090   1.169  17.629 -0.3330  0.0379  0.2080
 3718SOL    HW122613   3.155   1.101  17.612  1.2130  1.4540  0.4626
 3718SOL    HW222614   3.009   1.120  17.644 -0.3612 -0.4385 -1.5176
 3719SOL     OW22615   2.786   0.650   2.348 -0.1688  0.2311 -0.0164
 3719SOL    HW122616   2.787   0.728   2.293 -0.2173  0.0943 -0.2127
 3719SOL    HW222617   2.722   0.590   2.309 -1.9892  1.6883  0.6989
 3720SOL     OW22618   0.836   2.359   9.754 -0.5939 -0.0397 -0.1007
 3720SOL    HW122619   0.822   2.365   9.659  1.5516  0.0901 -0.4249
 3720SOL    HW222620   0.743   2.345   9.770 -0.6743 -0.2873 -0.7644
 3721SOL     OW22621   1.534   0.997  14.091 -0.7354  0.0238  0.4852
 3721SOL    HW122622   1.600   1.005  14.160 -1.5237  0.3523  1.1859
 3721SOL    HW222623   1.585   0.969  14.015 -3.0328  0.0064 -1.0362
 3722SOL     OW22624   3.140   1.234   9.551 -0.4341 -0.0812  0.1190
 3722SOL    HW122625   3.222   1.238   9.502  0.3711 -1.7300  1.3224
 3722SOL    HW222626   3.145   1.146   9.589  2.4359 -0.5501 -1.3179
 3723SOL     OW22627   3.459   0.275   8.127  0.3518 -0.0567  0.0778
 3723SOL    HW122628   3.497   0.356   8.092  0.1178  0.6673  1.4908
 3723SOL    HW222629   3.540   0.236   8.162 -0.1059 -1.4777 -0.4624
 3724SOL     OW22630   3.269   4.576  13.299 -0.3786  0.4076 -0.1014
 3724SOL    HW122631   3.330   4.617  13.238 -1.2707 -0.9419 -1.8859
 3724SOL    HW222632   3.196   4.638  13.306 -0.6005  0.0527  0.6900
 3725SOL     OW22633   4.161   3.818  10.816  0.3323 -0.1523  0.0064
 3725SOL    HW122634   4.119   3.797  10.899  2.6245  0.8393  1.3959
 3725SOL    HW222635   4.180   3.912  10.827 -0.6831  0.1916 -1.1196
 3726SOL     OW22636   1.312   4.129   3.869 -0.4640  0.6826 -0.2096
 3726SOL    HW122637   1.244   4.192   3.844 -0.6739  1.1453  1.5460
 3726SOL    HW222638   1.385   4.190   3.880  0.4803 -0.5093  0.0603
 3727SOL     OW22639   3.643   0.390   9.762  0.3173  0.2969  0.0534
 3727SOL    HW122640   3.736   0.401   9.741 -0.2149  0.5782 -2.1543
 3727SOL    HW222641   3.603   0.431   9.685 -0.6504 -1.2585 -0.2599
 3728SOL     OW22642   0.539   0.305  13.125  0.4489  0.0521 -0.4400
 3728SOL    HW122643   0.445   0.313  13.136  0.8652  1.5766  2.0089
 3728SOL    HW222644   0.546   0.312  13.030 -0.0384  1.0483 -0.3972
 3729SOL     OW22645   1.624   3.066   1.748 -0.7197 -0.5408 -0.3926
 3729SOL    HW122646   1.645   2.973   1.739 -1.9284 -1.1516  2.9311
 3729SOL    HW222647   1.710   3.102   1.769 -0.3030  0.2690 -3.4875
 3730SOL     OW22648   2.178   1.580   0.478 -0.3044 -0.5421 -0.1017
 3730SOL    HW122649   2.164   1.612   0.389  0.7758  0.1212 -0.0401
 3730SOL    HW222650   2.092   1.603   0.514 -0.5630  0.6397 -1.4423
 3731SOL     OW22651   0.336   0.664   1.869  0.2363 -0.3573  0.1147
 3731SOL    HW122652   0.396   0.711   1.928 -0.1761  0.4105 -0.0705
 3731SOL    HW222653   0.365   0.573   1.866  0.8689 -0.1126 -1.2102
 3732SOL     OW22654   0.457   1.354   3.397 -0.1229  0.1108  0.0427
 3732SOL    HW122655   0.545   1.381   3.423  0.5068 -0.6657 -1.2952
 3732SOL    HW222656   0.443   1.413   3.322 -1.1318 -2.4801 -1.8151
 3733SOL     OW22657   0.010   3.154   0.026  0.2951 -0.2503  0.1735
 3733SOL    HW122658   4.678   3.079   0.047 -0.2653  0.3528  0.8740
 3733SOL    HW222659   0.030   3.195   0.110 -0.4681  0.1665  0.1523
 3734SOL     OW22660   3.021   3.729   9.346 -0.0027 -0.0891 -0.6994
 3734SOL    HW122661   2.945   3.775   9.312  0.3874  1.1141  0.0634
 3734SOL    HW222662   2.989   3.746   9.435  0.8505  1.9329 -0.7862
 3735SOL     OW22663   4.330   0.540  14.009 -0.1605  0.1374 -0.0742
 3735SOL    HW122664   4.346   0.447  13.993  0.5813  0.1479  0.5841
 3735SOL    HW222665   4.369   0.547  14.096  1.9307  0.1333 -0.9866
 3736SOL     OW22666   2.356   0.317   6.157  0.2144  0.4543  0.0667
 3736SOL    HW122667   2.366   0.409   6.183 -0.7706  0.9905 -1.4202
 3736SOL    HW222668   2.279   0.288   6.205  0.5405 -2.4717 -1.2159
 3737SOL     OW22669   4.002   3.742  10.597 -0.1268  0.1145 -0.1539
 3737SOL    HW122670   3.921   3.771  10.639 -0.3009 -1.1360  0.3693
 3737SOL    HW222671   4.057   3.749  10.675 -0.4189  1.8598 -0.1071
 3738SOL     OW22672   0.235   2.692   2.061 -0.2847  0.0282  0.1239
 3738SOL    HW122673   0.221   2.744   2.140 -1.5862  1.8718 -1.3125
 3738SOL    HW222674   0.168   2.623   2.063 -0.7539  0.4676 -0.6404
 3739SOL     OW22675   4.496   2.682  10.071 -0.8268  0.1424 -0.2123
 3739SOL    HW122676   4.527   2.666  10.160 -0.1422 -1.6368 -0.7807
 3739SOL    HW222677   4.546   2.624  10.015 -0.2223 -0.4195  0.9130
 3740SOL     OW22678   4.271   4.001   7.982 -0.8764 -0.2044 -0.3148
 3740SOL    HW122679   4.363   4.026   7.973 -0.5123 -2.3017 -2.2042
 3740SOL    HW222680   4.237   4.081   8.023  1.0266  0.6754 -0.4616
 3741SOL     OW22681   4.312   4.656  16.978  0.9097  0.4524  0.4201
 3741SOL    HW122682   4.285   0.025  16.987  1.2928  0.4797  1.2274
 3741SOL    HW222683   4.257   4.628  16.904  0.1465  1.8397  0.4602
 3742SOL     OW22684   0.144   0.018  11.559  0.3707 -0.4698  0.0714
 3742SOL    HW122685   0.126   0.101  11.605 -1.2443 -0.5212 -0.4644
 3742SOL    HW222686   0.053   4.717  11.542  1.3780 -3.6917 -0.8089
 3743SOL     OW22687   0.584   1.198   6.422 -0.2468  0.0588 -0.3631
 3743SOL    HW122688   0.523   1.180   6.350 -0.9056  1.8129 -0.2464
 3743SOL    HW222689   0.638   1.120   6.415  0.0762  0.2743 -0.2485
 3744SOL     OW22690   1.865   4.204   6.685  0.1777  0.3923  0.5808
 3744SOL    HW122691   1.859   4.182   6.592 -2.4354  0.9206  0.6430
 3744SOL    HW222692   1.901   4.292   6.688  0.8639  0.1234  0.3311
 3745SOL     OW22693   1.084   1.657  11.269  0.6812  0.3791 -0.4809
 3745SOL    HW122694   1.008   1.628  11.319  0.5511  0.1042 -0.8321
 3745SOL    HW222695   1.132   1.713  11.329  0.4497 -0.5206  0.5406
 3746SOL     OW22696   2.346   2.329   9.329 -0.4701  0.5040  0.3252
 3746SOL    HW122697   2.427   2.318   9.379 -1.5505  1.5650  2.2995
 3746SOL    HW222698   2.383   2.389   9.264 -1.2596  1.2847  0.5999
 3747SOL     OW22699   4.048   1.263   1.712  0.0847  0.0230 -0.1044
 3747SOL    HW122700   4.042   1.344   1.763 -0.2319  1.5269 -2.5193
 3747SOL    HW222701   3.977   1.264   1.648  0.2202  0.8930 -0.2461
 3748SOL     OW22702   2.731   3.675   3.525  0.2204  0.2342  0.5512
 3748SOL    HW122703   2.749   3.657   3.432 -1.0427  0.5714  0.2443
 3748SOL    HW222704   2.765   3.598   3.571 -1.1375  0.9679  2.7679
 3749SOL     OW22705   2.287   1.997  14.807  0.0197 -0.1644  0.3719
 3749SOL    HW122706   2.225   1.941  14.761  1.2140 -0.2731 -1.1004
 3749SOL    HW222707   2.363   1.941  14.794 -0.9757 -1.3183 -0.4597
 3750SOL     OW22708   2.083   3.504   0.168 -0.2719  0.2120 -0.7413
 3750SOL    HW122709   2.022   3.514   0.241  0.1749  1.4456 -0.5420
 3750SOL    HW222710   2.166   3.528   0.209  1.3104 -1.1903 -3.1402
 3751SOL     OW22711   4.036   0.738   2.455 -0.1305 -0.1894  0.3355
 3751SOL    HW122712   4.084   0.814   2.420 -1.9745  1.4963  1.4506
 3751SOL    HW222713   4.015   0.778   2.540 -1.1888  2.5078 -1.1715
 3752SOL     OW22714   2.499   0.584  13.792  0.4266 -0.1304 -0.1187
 3752SOL    HW122715   2.486   0.492  13.769  1.1711 -0.6997  1.7556
 3752SOL    HW222716   2.574   0.571  13.851 -1.9901 -0.0632  2.9475
 3753SOL     OW22717   0.902   1.495   5.566 -0.0613 -0.1218 -0.1436
 3753SOL    HW122718   0.809   1.516   5.564 -0.1443 -0.3008  1.5901
 3753SOL    HW222719   0.917   1.469   5.475  1.1199 -0.1470  0.0534
 3754SOL     OW22720   4.343   1.621   4.165  0.0533  0.3975 -0.2923
 3754SOL    HW122721   4.254   1.623   4.131 -1.3581  1.2110  3.3931
 3754SOL    HW222722   4.399   1.611   4.088  1.6394 -0.6050  0.9849
 3755SOL     OW22723   1.422   4.621  12.494 -0.0447  0.0889 -0.4402
 3755SOL    HW122724   1.396   4.553  12.432 -0.8078  0.7733 -0.8600
 3755SOL    HW222725   1.336   4.640  12.530 -0.0093  1.3688 -1.0395
 3756SOL     OW22726   0.603   3.389   3.417 -0.3757 -0.0057  0.1665
 3756SOL    HW122727   0.522   3.412   3.371 -1.4400  0.0401  2.0357
 3756SOL    HW222728   0.670   3.448   3.383 -2.5266  1.5493 -1.3822
 3757SOL     OW22729   2.666   0.890   5.126 -0.4563 -0.7357  0.0920
 3757SOL    HW122730   2.658   0.895   5.221 -0.7655  1.4446 -0.0547
 3757SOL    HW222731   2.599   0.954   5.102 -1.4252 -1.0545  1.9816
 3758SOL     OW22732   1.558   3.126  14.469  0.0069 -0.3822  0.7127
 3758SOL    HW122733   1.618   3.052  14.474  1.8899  1.0556 -0.6392
 3758SOL    HW222734   1.605   3.198  14.510  0.6793  0.2079 -1.0958
 3759SOL     OW22735   1.939   3.802   0.724  0.1591  0.2285  0.4523
 3759SOL    HW122736   1.870   3.744   0.756  1.3468 -1.1613  0.4795
 3759SOL    HW222737   1.889   3.858   0.664  0.6224  0.2625  0.0965
 3760SOL     OW22738   3.802   1.272   8.468 -0.1185  0.1680  0.5150
 3760SOL    HW122739   3.883   1.302   8.509 -0.1165  0.3821  0.3557
 3760SOL    HW222740   3.800   1.176   8.470 -1.8637  0.1292 -2.4174
 3761SOL     OW22741   0.304   0.215  11.822 -0.3902  0.1684 -0.4032
 3761SOL    HW122742   0.329   0.216  11.915 -1.3383 -3.8153 -0.1208
 3761SOL    HW222743   0.316   0.305  11.790  1.3023  0.4254  0.9453
 3762SOL     OW22744   1.883   2.987   3.042 -0.0918 -0.4328 -0.0817
 3762SOL    HW122745   1.936   2.910   3.020  0.1336 -0.0569 -0.8462
 3762SOL    HW222746   1.817   2.992   2.973  2.6693  2.0609 -2.5661
 3763SOL     OW22747   1.170   1.524  13.299  0.1364 -0.4238 -0.0067
 3763SOL    HW122748   1.184   1.552  13.389 -0.2049 -1.5159  0.3812
 3763SOL    HW222749   1.247   1.469  13.287  0.4926 -0.0354  0.5070
 3764SOL     OW22750   1.880   0.600  15.389  0.0588 -0.0710  0.2614
 3764SOL    HW122751   1.892   0.694  15.376 -1.3349  0.3795  2.2297
 3764SOL    HW222752   1.802   0.579  15.337  0.8439 -1.6296 -0.2950
 3765SOL     OW22753   4.077   4.553   5.701 -0.0407  0.5205 -0.0570
 3765SOL    HW122754   3.994   4.530   5.742 -0.6618  2.0234 -0.4651
 3765SOL    HW222755   4.132   4.537   5.778 -0.7632  2.8727  0.9440
 3766SOL     OW22756   1.969   3.435  13.974  0.3521 -0.3656  0.6748
 3766SOL    HW122757   1.928   3.519  13.950  1.8730  0.1987  0.0430
 3766SOL    HW222758   2.060   3.458  13.954  0.7191 -0.8321  1.8047
 3767SOL     OW22759   1.066   1.307   2.015 -0.1209 -0.1283  0.0515
 3767SOL    HW122760   1.092   1.256   1.939 -1.1708 -1.3527  0.5175
 3767SOL    HW222761   1.103   1.253   2.085  3.7552  1.1372 -1.0457
 3768SOL     OW22762   3.206   0.255  12.463  0.0570 -0.0960  0.1374
 3768SOL    HW122763   3.126   0.205  12.474  0.5733 -0.9088  0.1731
 3768SOL    HW222764   3.244   0.253  12.551  0.8532 -0.4215 -0.2126
 3769SOL     OW22765   3.215   3.937   7.654  0.3834  0.3006  0.2452
 3769SOL    HW122766   3.203   4.032   7.652 -0.7120  0.1191 -1.8005
 3769SOL    HW222767   3.191   3.913   7.564 -2.3519  1.8187  0.5673
 3770SOL     OW22768   0.998   1.784  15.290 -0.0554 -0.0003 -0.9633
 3770SOL    HW122769   1.067   1.720  15.272 -2.6412 -2.9032 -0.5940
 3770SOL    HW222770   0.927   1.757  15.232  1.4369 -1.7243 -1.9868
 3771SOL     OW22771   0.299   4.623   9.428 -0.3342 -0.5615 -0.2954
 3771SOL    HW122772   0.235   4.690   9.451  0.0096  0.4914 -2.3945
 3771SOL    HW222773   0.318   4.652   9.339  0.3663  1.2026  0.4331
 3772SOL     OW22774   1.441   2.036   2.779  0.1275  0.2304 -0.6934
 3772SOL    HW122775   1.523   2.061   2.821 -0.7873  0.0098  1.2369
 3772SOL    HW222776   1.395   2.120   2.783  2.2386  1.3226  1.2984
 3773SOL     OW22777   3.150   1.156   7.553 -0.2293 -0.3018  0.3900
 3773SOL    HW122778   3.096   1.093   7.505  1.3379  0.0889 -1.9208
 3773SOL    HW222779   3.234   1.109   7.557 -0.6218 -0.9346  1.2089
 3774SOL     OW22780   4.549   4.246   0.872  0.0909  0.6379  0.5123
 3774SOL    HW122781   4.560   4.222   0.964  2.7118  0.6931  0.2355
 3774SOL    HW222782   4.556   4.341   0.881  1.3846  0.4239  1.8255
 3775SOL     OW22783   0.909   4.067  11.242 -0.0057 -0.1305  0.6178
 3775SOL    HW122784   0.910   4.010  11.319  1.0089 -0.0210  0.6783
 3775SOL    HW222785   0.996   4.048  11.208 -0.3212 -1.3871  0.5369
 3776SOL     OW22786   2.734   4.007  15.141  0.1406 -0.0737 -0.0100
 3776SOL    HW122787   2.714   4.035  15.052  2.6667  1.0097 -0.2357
 3776SOL    HW222788   2.678   4.066  15.191 -1.2149 -0.0201 -1.6079
 3777SOL     OW22789   3.064   2.628  13.883  0.5989 -0.3256  0.1152
 3777SOL    HW122790   3.119   2.572  13.938 -3.0593 -2.3806  1.6980
 3777SOL    HW222791   3.003   2.670  13.944  1.2550 -2.5826  2.3348
 3778SOL     OW22792   3.094   4.263   6.354 -0.4416  0.1766  0.1167
 3778SOL    HW122793   3.135   4.342   6.319 -0.5459  0.2743  0.2121
 3778SOL    HW222794   3.166   4.205   6.330  0.5767  0.6353  2.0257
 3779SOL     OW22795   3.982   0.452   5.846  0.0948  0.2098 -0.0811
 3779SOL    HW122796   3.920   0.397   5.893 -1.2139 -0.2358 -2.3367
 3779SOL    HW222797   4.037   0.472   5.921 -1.2923  2.7881  0.2370
 3780SOL     OW22798   2.251   2.470  11.203 -0.2193 -0.3436  0.2959
 3780SOL    HW122799   2.301   2.454  11.123 -0.6616  2.6964 -0.6117
 3780SOL    HW222800   2.256   2.387  11.250  1.2758 -0.9561 -0.9551
 3781SOL     OW22801   1.488   1.895   7.239 -0.1920  0.4018 -0.0524
 3781SOL    HW122802   1.409   1.899   7.292 -0.6920 -1.1368 -0.7028
 3781SOL    HW222803   1.461   1.858   7.155  0.5870 -1.5930  0.5993
 3782SOL     OW22804   1.580   1.647  17.113 -0.0061 -0.2322 -0.0548
 3782SOL    HW122805   1.537   1.689  17.039 -1.8719 -1.2186  0.4840
 3782SOL    HW222806   1.618   1.567  17.075  1.8138  0.3983  0.4371
 3783SOL     OW22807   3.881   4.060   4.591  0.1889  1.2653  0.6397
 3783SOL    HW122808   3.932   4.007   4.530 -3.6542 -1.5825 -0.1328
 3783SOL    HW222809   3.808   4.084   4.534  0.5616 -0.4237 -0.5681
 3784SOL     OW22810   3.291   1.305   1.886 -0.1653  0.4601  0.1654
 3784SOL    HW122811   3.257   1.322   1.798 -0.0220  2.5610  0.5241
 3784SOL    HW222812   3.347   1.229   1.872 -0.7370 -0.4001  2.4820
 3785SOL     OW22813   1.059   1.178  11.156  0.3990  0.1153  0.3018
 3785SOL    HW122814   1.138   1.124  11.150  0.2531 -0.3121  2.1689
 3785SOL    HW222815   1.093   1.251  11.207 -0.9064 -1.2858  3.1758
 3786SOL     OW22816   1.056   2.936   1.276  0.3869 -0.0925  0.0085
 3786SOL    HW122817   1.006   2.925   1.195 -0.9172 -0.4177  0.8533
 3786SOL    HW222818   0.991   2.961   1.342 -0.5070 -1.2832 -0.4180
 3787SOL     OW22819   3.968   4.320   2.412  0.0528 -0.0065 -0.0603
 3787SOL    HW122820   3.907   4.384   2.450 -0.9354 -0.6041 -0.6585
 3787SOL    HW222821   3.894   4.275   2.371 -0.3667  1.4058 -0.8658
 3788SOL     OW22822   2.344   1.467   4.690  0.8317 -0.2579  0.0753
 3788SOL    HW122823   2.357   1.552   4.647  0.2728  1.5552  3.5217
 3788SOL    HW222824   2.254   1.474   4.720  0.5753 -0.7646 -0.5758
 3789SOL     OW22825   0.191   3.923   2.915 -0.5737 -0.1720  0.0816
 3789SOL    HW122826   0.148   3.873   2.985 -0.5884 -0.0516  0.1591
 3789SOL    HW222827   0.230   3.998   2.961 -1.2967  1.2051 -1.5680
 3790SOL     OW22828   3.941   1.985   8.613 -0.1003  0.1247 -0.1652
 3790SOL    HW122829   3.908   2.012   8.528 -2.3910 -0.5524  0.5156
 3790SOL    HW222830   4.002   2.057   8.631 -0.4883  0.4842 -0.2884
 3791SOL     OW22831   0.715   3.173   9.340 -0.2852 -0.5778 -0.7426
 3791SOL    HW122832   0.636   3.146   9.387  1.7353 -2.0383  1.8363
 3791SOL    HW222833   0.725   3.266   9.361 -0.1567 -0.3915 -1.6343
 3792SOL     OW22834   1.878   3.605  17.311 -0.1138 -0.2834 -0.0222
 3792SOL    HW122835   1.840   3.526  17.274  0.5030 -0.5362 -0.1113
 3792SOL    HW222836   1.842   3.673  17.254 -0.4313 -0.1509  0.3390
 3793SOL     OW22837   2.502   2.241   6.694  0.2595  0.3879 -0.1128
 3793SOL    HW122838   2.554   2.318   6.668 -1.4580  0.8823 -2.0683
 3793SOL    HW222839   2.507   2.170   6.631 -1.7866 -0.7177  0.9572
 3794SOL     OW22840   3.755   1.683   6.121  0.6212  0.3010 -0.4310
 3794SOL    HW122841   3.773   1.643   6.036  1.0010 -1.5436  0.5184
 3794SOL    HW222842   3.660   1.671   6.124  0.6265  0.6285  0.8549
 3795SOL     OW22843   1.316   0.688   4.680  0.5594 -0.4079 -0.0385
 3795SOL    HW122844   1.320   0.593   4.671 -1.2279 -0.3211 -1.5836
 3795SOL    HW222845   1.242   0.698   4.621 -0.1825  0.3868  1.0248
 3796SOL     OW22846   0.880   0.828   8.496  0.1698 -0.2133 -0.4773
 3796SOL    HW122847   0.952   0.833   8.558  0.2799  0.0526 -0.6275
 3796SOL    HW222848   0.828   0.754   8.529  0.3856 -1.1436 -2.1893
 3797SOL     OW22849   0.688   1.624   2.541  0.4217  0.1146 -0.1704
 3797SOL    HW122850   0.698   1.614   2.446 -0.9350 -1.1617 -0.1973
 3797SOL    HW222851   0.627   1.698   2.545 -3.1312 -2.8995  1.5315
 3798SOL     OW22852   0.746   0.003   2.517 -0.2004 -0.1288 -0.4305
 3798SOL    HW122853   0.690   0.033   2.588  3.1861 -0.9237  2.5633
 3798SOL    HW222854   0.715   4.635   2.514  0.3586 -0.3932  2.1922
 3799SOL     OW22855   2.576   3.145   5.484 -0.5820 -0.2553 -0.4095
 3799SOL    HW122856   2.560   3.119   5.574  0.0218  0.1989 -0.1763
 3799SOL    HW222857   2.671   3.137   5.484 -0.5503  0.1790  1.0238
 3800SOL     OW22858   4.152   1.398   6.855 -0.0350  0.1489  0.2546
 3800SOL    HW122859   4.093   1.472   6.842  1.3902  1.5837  1.8268
 3800SOL    HW222860   4.106   1.332   6.803  1.4589  0.6940 -1.7521
 3801SOL     OW22861   1.044   2.835   5.706  0.2805  0.4416  0.0023
 3801SOL    HW122862   1.039   2.904   5.772  0.8089 -1.9927  2.5788
 3801SOL    HW222863   0.954   2.803   5.700 -0.3657  1.5731  3.7215
 3802SOL     OW22864   4.593   3.740   5.678  0.4073  0.3234 -0.0772
 3802SOL    HW122865   4.593   3.835   5.679  2.6429  0.3276 -1.0860
 3802SOL    HW222866   4.500   3.718   5.689  0.2318 -0.2096 -2.5564
 3803SOL     OW22867   0.724   1.535   4.636 -0.1772 -0.2280 -0.1854
 3803SOL    HW122868   0.777   1.458   4.618  2.4097  1.1596  1.5637
 3803SOL    HW222869   0.778   1.575   4.704 -1.2836 -1.2774  1.3019
 3804SOL     OW22870   3.987   4.418   8.727  0.3227  0.4215  0.3518
 3804SOL    HW122871   3.941   4.397   8.645  0.3003  0.3446  0.3838
 3804SOL    HW222872   4.066   4.460   8.691 -0.1828  0.3128 -0.8869
 3805SOL     OW22873   4.423   0.835   8.458  0.5636  0.3177  0.2142
 3805SOL    HW122874   4.482   0.910   8.465  2.9723 -1.5400 -0.3244
 3805SOL    HW222875   4.368   0.839   8.536  0.4216  0.4442  0.1078
 3806SOL     OW22876   3.261   1.147  13.615 -0.4346 -0.0712  0.6330
 3806SOL    HW122877   3.237   1.211  13.549 -1.5830 -2.0713 -0.8961
 3806SOL    HW222878   3.179   1.104  13.641 -0.8309  1.4532  1.8850
 3807SOL     OW22879   2.972   0.094   4.121  0.4946  0.1242  0.1906
 3807SOL    HW122880   2.920   0.121   4.046 -2.7448 -0.6221  2.1573
 3807SOL    HW222881   2.929   0.018   4.160  3.0344 -1.4703 -0.0791
 3808SOL     OW22882   4.383   1.884   5.296 -0.3765  0.2926 -0.0515
 3808SOL    HW122883   4.406   1.898   5.204  0.3656 -1.3042 -0.1083
 3808SOL    HW222884   4.300   1.931   5.307  0.6406  1.5723  1.9662
 3809SOL     OW22885   2.376   1.497   3.238  0.1374  0.1440 -0.0659
 3809SOL    HW122886   2.442   1.518   3.172 -1.0655  0.8476 -1.0559
 3809SOL    HW222887   2.328   1.580   3.231 -0.8948 -0.4870 -0.3997
 3810SOL     OW22888   0.420   0.899  16.058  0.0841  0.0639  0.8024
 3810SOL    HW122889   0.434   0.945  15.976  1.7790 -1.7453  0.0879
 3810SOL    HW222890   0.503   0.853  16.071 -0.0716 -1.2468 -3.0125
 3811SOL     OW22891   0.542   2.667  14.946  0.1210 -0.0649  0.2919
 3811SOL    HW122892   0.523   2.697  15.034  1.2348  2.3098 -0.2870
 3811SOL    HW222893   0.457   2.631  14.920  0.3755 -1.6500  1.6984
 3812SOL     OW22894   1.212   0.353   8.317  0.1682  0.3179  0.1848
 3812SOL    HW122895   1.243   0.331   8.404  0.1513  0.9446  0.3447
 3812SOL    HW222896   1.119   0.367   8.334  0.3370  1.0067  0.5383
 3813SOL     OW22897   0.169   0.782   4.889 -0.4804  0.0284 -0.1159
 3813SOL    HW122898   0.159   0.799   4.795  3.7658  3.0552 -0.0152
 3813SOL    HW222899   0.081   0.802   4.921 -0.8883  1.5784 -2.1925
 3814SOL     OW22900   3.366   3.965   9.927  0.2038  0.4545  0.4050
 3814SOL    HW122901   3.323   4.046   9.951 -2.9431 -1.0617 -0.1006
 3814SOL    HW222902   3.423   3.964  10.004  0.4530 -0.5033  0.2166
 3815SOL     OW22903   2.192   1.264   0.256  0.3276 -0.7642 -0.2094
 3815SOL    HW122904   2.136   1.341   0.256  1.0576 -0.2312 -0.2339
 3815SOL    HW222905   2.141   1.194   0.214  1.0295 -1.1913 -0.3529
 3816SOL     OW22906   2.813   1.276   0.988 -0.2794 -0.2548 -0.1461
 3816SOL    HW122907   2.809   1.238   0.901 -2.6985 -1.6084  0.5699
 3816SOL    HW222908   2.862   1.206   1.030  1.6637 -0.0907 -2.1724
 3817SOL     OW22909   0.180   0.136   9.083 -0.0463  0.1336 -0.3820
 3817SOL    HW122910   0.216   0.221   9.058  1.0654 -0.2217  0.0047
 3817SOL    HW222911   0.089   0.161   9.103 -0.3361 -0.0003 -1.5282
 3818SOL     OW22912   2.346   3.286   2.703 -0.0452 -0.0832 -0.0645
 3818SOL    HW122913   2.413   3.327   2.648 -0.7689  0.5624 -0.4661
 3818SOL    HW222914   2.411   3.231   2.746  0.7874  0.2484 -0.8859
 3819SOL     OW22915   4.531   1.288  10.611  0.0485  0.1461  0.5087
 3819SOL    HW122916   4.551   1.357  10.674  0.2012  0.3806  0.2004
 3819SOL    HW222917   4.597   1.291  10.542 -1.4489 -1.5965 -1.0122
 3820SOL     OW22918   0.285   3.173   8.058  0.1118 -0.0105 -0.0301
 3820SOL    HW122919   0.363   3.119   8.071 -0.5462 -0.6166  1.3490
 3820SOL    HW222920   0.208   3.119   8.076  0.4551  0.3237  2.4221
 3821SOL     OW22921   0.647   0.399   2.174 -0.0442  0.3078  0.0180
 3821SOL    HW122922   0.618   0.420   2.263  0.6042  2.6957 -0.3326
 3821SOL    HW222923   0.717   0.464   2.167  0.7642 -0.6827 -1.1740
 3822SOL     OW22924   0.573   2.788   6.724 -0.3238  0.6440  0.4815
 3822SOL    HW122925   0.558   2.822   6.812  1.0291  0.9496  0.5837
 3822SOL    HW222926   0.545   2.866   6.675 -0.5243 -0.0861 -0.5768
 3823SOL     OW22927   0.022   3.601  10.696 -0.3803 -0.0056  0.0244
 3823SOL    HW122928   4.676   3.624  10.759 -0.8732 -1.2146 -0.0675
 3823SOL    HW222929   0.031   3.671  10.631 -1.7303 -1.7096 -2.0149
 3824SOL     OW22930   0.544   0.698   0.554 -0.1454  0.1304 -0.0059
 3824SOL    HW122931   0.528   0.720   0.462 -3.4565  0.0034  0.5529
 3824SOL    HW222932   0.633   0.663   0.547  0.5880  1.9612  0.1420
 3825SOL     OW22933   4.326   3.680   4.843  0.1788 -0.1844 -0.2080
 3825SOL    HW122934   4.256   3.638   4.794 -0.6277 -0.6729  1.3527
 3825SOL    HW222935   4.288   3.685   4.931  1.1152  1.5286  0.0881
 3826SOL     OW22936   3.420   3.767   5.913 -0.9755 -0.1679 -0.0651
 3826SOL    HW122937   3.432   3.858   5.939  2.0897 -0.1264 -1.6556
 3826SOL    HW222938   3.435   3.784   5.821  1.3231 -0.1656  0.3125
 3827SOL     OW22939   4.162   1.470  16.554 -0.5853 -0.2301  0.2341
 3827SOL    HW122940   4.210   1.440  16.631  0.1670  0.3620 -0.0097
 3827SOL    HW222941   4.177   1.406  16.484 -3.1878  0.9453 -1.3841
 3828SOL     OW22942   3.100   4.409   8.672  0.2249 -0.5194 -0.3060
 3828SOL    HW122943   3.129   4.331   8.718 -2.5760 -0.4908  1.4997
 3828SOL    HW222944   3.123   4.394   8.580  0.4619 -0.1021 -0.3164
 3829SOL     OW22945   4.074   3.147   6.462  0.2335 -1.2464  0.4158
 3829SOL    HW122946   4.041   3.200   6.535 -2.2885  0.4582 -1.9433
 3829SOL    HW222947   3.989   3.118   6.430  0.6233 -2.6783  0.6669
 3830SOL     OW22948   3.195   0.250   1.806  0.1522  0.0389 -0.2162
 3830SOL    HW122949   3.229   0.169   1.844  0.2341  0.2431  0.1499
 3830SOL    HW222950   3.225   0.311   1.874  0.6307 -1.1237  0.6150
 3831SOL     OW22951   0.820   0.641   8.225 -0.0618  0.7803 -0.3589
 3831SOL    HW122952   0.872   0.596   8.291 -0.2039  2.8218  1.1644
 3831SOL    HW222953   0.732   0.607   8.243  1.1594 -0.7404  2.7807
 3832SOL     OW22954   3.955   4.632   3.378  0.2003 -0.2418  0.0300
 3832SOL    HW122955   3.936   4.698   3.312 -0.3066  0.0971  0.5216
 3832SOL    HW222956   3.955   4.548   3.331  1.4635 -0.6587  0.7720
 3833SOL     OW22957   1.001   3.689   3.955  0.1396  0.0011 -0.3580
 3833SOL    HW122958   0.972   3.743   4.029  0.8986  1.5692 -1.2148
 3833SOL    HW222959   0.926   3.699   3.897 -0.2102 -0.1586  0.0606
 3834SOL     OW22960   1.903   3.366  13.336 -0.1876 -0.9532 -0.3370
 3834SOL    HW122961   1.896   3.297  13.271  0.2105 -0.5727 -0.7817
 3834SOL    HW222962   1.945   3.432  13.281  1.4726  0.3966  2.5356
 3835SOL     OW22963   2.818   2.970   6.884 -0.6361 -0.3312  0.2048
 3835SOL    HW122964   2.816   3.060   6.917 -0.5589  0.1003 -0.9788
 3835SOL    HW222965   2.812   2.985   6.790  0.2471  0.0518  0.2157
 3836SOL     OW22966   3.448   0.884   6.707 -0.5498  0.0721  0.0321
 3836SOL    HW122967   3.515   0.879   6.639  0.3541  0.4285  0.8898
 3836SOL    HW222968   3.413   0.968   6.677  0.2035  0.5572  0.5032
 3837SOL     OW22969   2.015   4.448   7.378  0.4027 -0.1811  0.4127
 3837SOL    HW122970   2.023   4.439   7.283  0.9819 -1.1465  0.5559
 3837SOL    HW222971   1.941   4.391   7.396  0.1739 -0.6402 -1.9810
 3838SOL     OW22972   1.762   1.525  16.732 -0.2979  0.1983 -0.8549
 3838SOL    HW122973   1.721   1.474  16.663  2.2238 -0.1451 -2.1148
 3838SOL    HW222974   1.727   1.612  16.711  1.1459  0.5060 -2.0261
 3839SOL     OW22975   4.408   1.178   2.357  0.3562 -0.3786  0.1243
 3839SOL    HW122976   4.446   1.176   2.445 -3.8311 -0.9200  1.9198
 3839SOL    HW222977   4.376   1.268   2.365 -2.0648 -1.4569  2.4403
 3840SOL     OW22978   1.714   4.273   1.771 -0.4954  0.1045  0.7069
 3840SOL    HW122979   1.789   4.216   1.757 -1.8049 -1.5245  0.4113
 3840SOL    HW222980   1.725   4.328   1.693  1.5229 -1.9021 -0.4141
 3841SOL     OW22981   0.209   4.212  11.534  0.3726 -0.2623  0.0785
 3841SOL    HW122982   0.242   4.277  11.596 -0.2772  0.7959 -0.6846
 3841SOL    HW222983   0.275   4.221  11.466  0.5897  3.0278  0.7053
 3842SOL     OW22984   0.904   3.388   5.388 -0.2327  0.5496 -0.3053
 3842SOL    HW122985   0.833   3.431   5.435 -1.6440 -0.8599 -1.1428
 3842SOL    HW222986   0.877   3.385   5.296  1.0290 -3.4420 -0.5616
 3843SOL     OW22987   2.292   1.707   5.804 -0.7424 -0.2627  0.4877
 3843SOL    HW122988   2.258   1.622   5.831 -2.4177 -0.2016 -1.4107
 3843SOL    HW222989   2.302   1.691   5.710 -1.6357  4.2050 -0.3737
 3844SOL     OW22990   0.287   3.823   6.696 -0.8513  0.6211 -0.3393
 3844SOL    HW122991   0.281   3.735   6.732 -2.6520  1.3059  1.0110
 3844SOL    HW222992   0.205   3.861   6.727 -0.6083  0.6009  0.3157
 3845SOL     OW22993   4.064   0.515   4.207  0.4872  0.2165  0.0237
 3845SOL    HW122994   4.006   0.440   4.223 -0.5153  0.6492 -1.5125
 3845SOL    HW222995   4.145   0.474   4.175  0.9632  1.2345 -0.0821
 3846SOL     OW22996   2.877   3.244   8.147 -0.2043  0.7703  0.0701
 3846SOL    HW122997   2.972   3.237   8.161 -0.1637  0.4158 -0.4018
 3846SOL    HW222998   2.877   3.212   8.057  1.5100 -1.4705  0.8351
 3847SOL     OW22999   4.153   1.798  15.881  0.7952  0.0049  0.3269
 3847SOL    HW123000   4.133   1.872  15.938 -0.3513  0.0247 -0.0902
 3847SOL    HW223001   4.241   1.819  15.851  1.4044 -1.5861  1.0111
 3848SOL     OW23002   2.430   4.600   9.169  0.0992  0.1433  0.2407
 3848SOL    HW123003   2.477   4.613   9.086 -1.5690  0.5886 -0.6228
 3848SOL    HW223004   2.452   4.510   9.194 -0.9204 -1.4246 -4.4262
 3849SOL     OW23005   2.695   2.829   9.744  0.4809 -0.6305  0.2071
 3849SOL    HW123006   2.748   2.900   9.707  0.3063  0.1620  1.4662
 3849SOL    HW223007   2.620   2.876   9.781  0.5660  0.7017 -1.3091
 3850SOL     OW23008   1.944   2.937   7.523  0.0058 -0.3624 -0.3209
 3850SOL    HW123009   2.004   2.989   7.577 -0.6520 -0.3998  0.4342
 3850SOL    HW223010   1.953   2.848   7.557  2.5537 -0.2549 -0.7363
 3851SOL     OW23011   4.137   0.456   6.342 -0.0628 -0.0978  0.1730
 3851SOL    HW123012   4.052   0.416   6.323  0.9407 -1.2414 -1.9926
 3851SOL    HW223013   4.169   0.372   6.377  3.4289  1.2514  0.2343
 3852SOL     OW23014   4.471   2.910   5.862 -0.6956  0.6269  0.1633
 3852SOL    HW123015   4.451   2.881   5.951 -1.3144 -2.0591 -0.8592
 3852SOL    HW223016   4.536   2.845   5.837 -0.9187 -0.3746  2.2116
 3853SOL     OW23017   1.445   3.384   0.715 -0.4290 -0.3601 -0.4007
 3853SOL    HW123018   1.524   3.332   0.726 -1.4557 -1.1152  3.1412
 3853SOL    HW223019   1.379   3.328   0.756 -1.7346  1.6179  0.2377
 3854SOL     OW23020   3.688   3.525   5.719 -0.2794  0.1809  0.0011
 3854SOL    HW123021   3.713   3.612   5.751  1.0322 -0.7055  1.3950
 3854SOL    HW223022   3.771   3.484   5.692 -1.1131 -1.8533  0.5519
 3855SOL     OW23023   4.633   2.628  17.573 -0.1416  0.1354  0.4024
 3855SOL    HW123024   4.617   2.611  17.666  0.0676 -1.5437  0.1389
 3855SOL    HW223025   0.006   2.620  17.567 -0.2735 -0.0087 -1.3942
 3856SOL     OW23026   3.548   2.504   7.590  0.2440  0.4265 -0.1677
 3856SOL    HW123027   3.581   2.418   7.615  0.8945  1.0359  1.0751
 3856SOL    HW223028   3.496   2.519   7.669  1.4703  0.3965  0.6481
 3857SOL     OW23029   4.221   4.114  16.381 -0.3183  0.5057 -1.0960
 3857SOL    HW123030   4.182   4.099  16.467  1.3954 -0.0149 -0.4020
 3857SOL    HW223031   4.188   4.202  16.366 -1.3329  0.4117  0.5599
 3858SOL     OW23032   3.025   4.412  17.654 -0.5430 -0.1592  0.0422
 3858SOL    HW123033   3.038   4.378   0.051 -0.4977  0.4138  0.2544
 3858SOL    HW223034   3.070   4.496  17.656 -0.8060 -0.0144 -0.1808
 3859SOL     OW23035   2.680   0.151  16.815 -0.6236 -0.3218 -0.7925
 3859SOL    HW123036   2.664   0.152  16.910 -0.0611 -0.2068 -0.6990
 3859SOL    HW223037   2.654   0.242  16.798  0.2872 -0.1131 -1.1052
 3860SOL     OW23038   0.956   4.114   2.415  0.9777  0.0264  0.5213
 3860SOL    HW123039   0.880   4.110   2.474  0.0827  2.5136 -0.4616
 3860SOL    HW223040   1.021   4.134   2.483  2.5488 -1.4896 -0.5582
 3861SOL     OW23041   3.466   3.352   8.782  0.1214 -0.0791  0.4413
 3861SOL    HW123042   3.538   3.338   8.844  1.3935  1.5208 -0.7113
 3861SOL    HW223043   3.465   3.447   8.784 -2.0001 -0.0597 -2.2361
 3862SOL     OW23044   2.325   1.384  15.290 -0.2267  0.4789  0.0352
 3862SOL    HW123045   2.298   1.294  15.309 -1.3915  0.8739  0.1949
 3862SOL    HW223046   2.389   1.385  15.361  0.7803 -0.5189 -0.8526
 3863SOL     OW23047   2.698   1.453   6.442 -0.2415 -0.3308  0.2638
 3863SOL    HW123048   2.702   1.366   6.483  2.0882 -0.8778 -1.1381
 3863SOL    HW223049   2.715   1.419   6.354  0.4487 -0.6614  0.5209
 3864SOL     OW23050   2.117   1.856   6.446  0.0463 -0.4236  0.3154
 3864SOL    HW123051   2.097   1.930   6.503 -1.4873  0.1638 -1.0013
 3864SOL    HW223052   2.152   1.907   6.373 -0.9554 -0.4148 -0.1571
 3865SOL     OW23053   0.816   0.006   6.962  0.7277  0.3669  0.1027
 3865SOL    HW123054   0.729   0.011   7.002  0.0091 -2.4472 -1.1336
 3865SOL    HW223055   0.841   4.637   6.965  0.0930  0.1509 -0.9267
 3866SOL     OW23056   0.978   0.943   8.232  0.2532  0.2339 -0.5232
 3866SOL    HW123057   0.933   0.887   8.294 -0.9993 -0.1126 -1.7284
 3866SOL    HW223058   1.063   0.945   8.275  0.0104 -0.7262 -0.0091
 3867SOL     OW23059   0.767   0.450  14.635  0.0336 -0.0621  0.0014
 3867SOL    HW123060   0.795   0.480  14.549  0.9403  1.3861  0.7929
 3867SOL    HW223061   0.672   0.450  14.629 -0.0150 -0.6449  0.8338
 3868SOL     OW23062   1.637   4.548  13.948 -0.1613 -0.2923  0.3091
 3868SOL    HW123063   1.693   4.596  13.886 -1.0724  0.6032  0.1907
 3868SOL    HW223064   1.696   4.475  13.969  0.7998  0.8905  1.7364
 3869SOL     OW23065   0.221   4.560   5.682 -0.2832  0.7534  0.1579
 3869SOL    HW123066   0.177   4.636   5.644 -0.7626  0.1617 -0.4880
 3869SOL    HW223067   0.301   4.557   5.630 -0.2267  1.2640  0.2258
 3870SOL     OW23068   3.015   4.673   6.326  0.4695  0.0488 -0.1067
 3870SOL    HW123069   2.935   4.624   6.305  1.6805 -2.5457  1.2696
 3870SOL    HW223070   3.012   4.669   6.422  0.5723  0.7168 -0.0799
 3871SOL     OW23071   2.617   4.631  14.469 -0.6152 -0.1165 -0.4519
 3871SOL    HW123072   2.710   4.631  14.491 -0.3470 -0.6351 -1.5387
 3871SOL    HW223073   2.609   4.704  14.407 -0.1398 -0.3904 -0.8318
 3872SOL     OW23074   2.580   2.387  11.761  0.0429 -0.5162  0.2395
 3872SOL    HW123075   2.599   2.321  11.694  1.3512 -0.6500  0.7384
 3872SOL    HW223076   2.495   2.351  11.789  0.9360 -0.5158  2.9575
 3873SOL     OW23077   0.649   1.057  17.580  0.0052 -0.2036 -0.0290
 3873SOL    HW123078   0.738   1.092  17.569  0.0314 -0.9821 -2.1372
 3873SOL    HW223079   0.608   1.133  17.623 -0.9119 -0.3287 -0.6909
 3874SOL     OW23080   0.028   4.018   2.044 -0.0243  0.8918 -0.6662
 3874SOL    HW123081   4.666   4.060   2.029  0.8207  2.7959 -0.0991
 3874SOL    HW223082   0.019   3.986   2.134 -2.3062  3.2202 -0.0884
 3875SOL     OW23083   0.382   4.083  11.021  0.1829 -0.1291  0.8145
 3875SOL    HW123084   0.347   4.036  10.945  0.1475  2.3086 -0.6514
 3875SOL    HW223085   0.319   4.152  11.039  0.7158  0.8688 -1.2661
 3876SOL     OW23086   3.447   3.810   4.002 -0.0005  0.1651 -0.1155
 3876SOL    HW123087   3.495   3.729   3.988  0.5824  0.6191 -0.7118
 3876SOL    HW223088   3.424   3.807   4.095 -0.7956  2.5062 -0.2266
 3877SOL     OW23089   4.534   0.466  12.397  0.3611 -0.1820  0.1224
 3877SOL    HW123090   4.608   0.491  12.453  0.2451  0.9516 -0.2293
 3877SOL    HW223091   4.525   0.554  12.360 -0.8725  0.6324  2.3466
 3878SOL     OW23092   2.049   3.113  10.359 -0.3728 -0.0309 -1.0657
 3878SOL    HW123093   2.105   3.088  10.433  1.5129 -1.6235 -3.0421
 3878SOL    HW223094   1.973   3.146  10.408  0.1623  1.0321 -0.9383
 3879SOL     OW23095   1.521   0.500   5.540  0.1733 -0.2284 -0.4779
 3879SOL    HW123096   1.508   0.547   5.622  0.4211  0.4915 -0.8454
 3879SOL    HW223097   1.460   0.428   5.556  0.6862 -0.9304 -1.6039
 3880SOL     OW23098   3.480   2.503   7.856  0.0726  0.1601 -0.3762
 3880SOL    HW123099   3.419   2.576   7.863 -0.4333 -0.0804 -2.2069
 3880SOL    HW223100   3.434   2.443   7.915 -0.1675 -0.8079 -1.5347
 3881SOL     OW23101   0.603   0.812   8.679  0.2104 -0.1372  0.1551
 3881SOL    HW123102   0.562   0.889   8.639  0.4155  1.3363  2.8220
 3881SOL    HW223103   0.604   0.833   8.772 -1.7506  2.2617 -0.3796
 3882SOL     OW23104   3.412   3.893  15.579  0.2568 -0.6203  0.2718
 3882SOL    HW123105   3.407   3.812  15.527 -1.9032 -0.8318  0.8089
 3882SOL    HW223106   3.399   3.956  15.509 -1.0249 -0.8632  0.2897
 3883SOL     OW23107   0.329   2.042  13.162 -0.5777  0.0241 -0.5206
 3883SOL    HW123108   0.240   2.006  13.160 -1.8269  3.0554  0.9570
 3883SOL    HW223109   0.381   1.962  13.168  1.0454  1.2179  1.0723
 3884SOL     OW23110   4.493   3.079   5.199 -0.0072  0.0405 -0.3754
 3884SOL    HW123111   4.510   3.164   5.157  0.4619 -0.1726 -0.6172
 3884SOL    HW223112   4.537   3.022   5.137 -0.8271 -1.2829  0.2683
 3885SOL     OW23113   1.526   3.793   6.712  0.6572  0.0194 -0.1769
 3885SOL    HW123114   1.536   3.698   6.701  1.1860 -0.1928  2.1651
 3885SOL    HW223115   1.455   3.804   6.649  0.5548  1.4587  0.2048
 3886SOL     OW23116   1.088   3.444   3.024  0.6094 -0.0064  1.0291
 3886SOL    HW123117   1.016   3.452   3.086  1.6657 -0.0680  2.2577
 3886SOL    HW223118   1.092   3.348   3.016  0.3808  0.1212 -0.7759
 3887SOL     OW23119   1.149   2.944   6.817 -0.5254  0.0507 -0.6849
 3887SOL    HW123120   1.239   2.943   6.850 -0.4855  0.3982 -0.7844
 3887SOL    HW223121   1.169   2.986   6.733  1.8990 -1.4738 -0.8728
 3888SOL     OW23122   2.214   2.506  11.986 -0.2145  1.0285  0.3724
 3888SOL    HW123123   2.219   2.576  12.052 -2.5409  1.2769  0.2549
 3888SOL    HW223124   2.237   2.432  12.042  1.4884 -0.4330 -2.2593
 3889SOL     OW23125   3.810   3.834   5.159 -0.2586  0.2642 -0.0721
 3889SOL    HW123126   3.841   3.800   5.075 -0.6560  0.6030 -0.3573
 3889SOL    HW223127   3.714   3.830   5.150 -0.2263  1.9951 -1.1023
 3890SOL     OW23128   0.153   0.503   8.042 -0.8532 -0.1587 -0.3237
 3890SOL    HW123129   0.107   0.422   8.064 -0.5650  0.5037  2.7979
 3890SOL    HW223130   0.090   0.567   8.073 -2.6890 -2.1578  0.0365
 3891SOL     OW23131   1.452   1.798   5.124  0.6547 -0.0790  0.1689
 3891SOL    HW123132   1.455   1.709   5.089  1.0874  0.4059 -1.0061
 3891SOL    HW223133   1.432   1.847   5.044 -1.4095 -0.3105  0.5354
 3892SOL     OW23134   2.446   1.986   8.810 -0.1451 -0.3270 -0.1860
 3892SOL    HW123135   2.464   2.034   8.729 -1.7720 -0.4049 -0.6012
 3892SOL    HW223136   2.350   1.985   8.809 -0.1495  0.4419 -0.3242
 3893SOL     OW23137   1.035   4.516   0.119  0.2122 -0.9222 -0.0932
 3893SOL    HW123138   1.097   4.588   0.113 -1.7226  0.5469 -2.7912
 3893SOL    HW223139   1.030   4.492   0.026  0.2432  0.2009 -0.3860
 3894SOL     OW23140   4.602   0.481   5.138 -0.1027 -0.1648 -0.5064
 3894SOL    HW123141   4.674   0.430   5.175 -1.3676 -0.1548  1.9055
 3894SOL    HW223142   4.550   0.494   5.217  0.2314 -4.2099  0.3619
 3895SOL     OW23143   4.187   3.464   7.191  0.0865 -0.2800 -0.0178
 3895SOL    HW123144   4.098   3.441   7.218 -0.0286  0.5280  0.3097
 3895SOL    HW223145   4.185   3.452   7.096 -1.4599  0.1551 -0.0428
 3896SOL     OW23146   4.554   3.996  13.995 -0.8642 -0.0652 -0.5959
 3896SOL    HW123147   4.487   3.997  14.063  1.4488 -0.5385  1.7004
 3896SOL    HW223148   4.549   4.080  13.950  0.2939  1.0093  1.2669
 3897SOL     OW23149   1.620   0.162   8.563  0.0458 -0.0631 -1.1622
 3897SOL    HW123150   1.619   0.066   8.560  3.8171 -0.1032 -0.8041
 3897SOL    HW223151   1.667   0.169   8.646  0.3304 -0.4976 -1.2874
 3898SOL     OW23152   2.146   1.401   7.047  0.1966 -0.4339 -0.0043
 3898SOL    HW123153   2.214   1.404   6.979 -0.3632  0.0284 -0.5550
 3898SOL    HW223154   2.091   1.337   7.002  1.0138 -1.0758 -0.0996
 3899SOL     OW23155   1.060   1.769  13.198  0.1126  0.5712 -0.0847
 3899SOL    HW123156   1.094   1.806  13.279 -0.4577  1.0575 -0.0655
 3899SOL    HW223157   1.099   1.681  13.203 -4.1380 -1.2962  0.3224
 3900SOL     OW23158   2.429   2.693  15.220 -0.2299 -0.3086 -0.0326
 3900SOL    HW123159   2.456   2.635  15.148 -0.1551  0.7793 -0.8777
 3900SOL    HW223160   2.488   2.765  15.198  1.0780 -1.4690 -0.3252
 3901SOL     OW23161   3.797   0.345  13.262 -0.0078 -0.1789 -0.2307
 3901SOL    HW123162   3.743   0.408  13.215 -1.9893  0.1409  2.4958
 3901SOL    HW223163   3.817   0.388  13.345 -2.7627 -0.7162  0.7137
 3902SOL     OW23164   2.534   4.620  15.860  0.0644 -0.5199  0.0211
 3902SOL    HW123165   2.564   4.702  15.898  1.4511 -0.7131 -0.6696
 3902SOL    HW223166   2.564   4.642  15.772  0.4673  1.6770  0.7186
 3903SOL     OW23167   0.812   2.922  12.858  0.2454  0.2093 -0.0480
 3903SOL    HW123168   0.802   2.925  12.953 -1.6825  3.4946 -0.3732
 3903SOL    HW223169   0.737   2.978  12.837 -1.4833 -2.1412 -0.0802
 3904SOL     OW23170   4.666   2.385  13.222 -0.1030 -0.3061  0.2115
 3904SOL    HW123171   4.574   2.386  13.193  0.2592 -1.5343 -0.9478
 3904SOL    HW223172   4.671   2.296  13.258 -1.0747 -0.5511 -0.2560
 3905SOL     OW23173   1.860   2.950  13.858 -0.0659 -0.8240 -0.1240
 3905SOL    HW123174   1.873   3.044  13.869 -0.8483 -0.5768 -1.2418
 3905SOL    HW223175   1.767   2.946  13.833  0.0544 -2.0556 -0.4022
 3906SOL     OW23176   1.618   1.573   7.433  0.1186 -0.2581 -0.0645
 3906SOL    HW123177   1.543   1.563   7.373  0.2426  0.2153 -0.2924
 3906SOL    HW223178   1.676   1.506   7.396 -1.7271 -0.5618 -2.4767
 3907SOL     OW23179   1.076   3.511   8.476 -0.6383 -0.3474  0.2442
 3907SOL    HW123180   1.121   3.437   8.516 -1.1831  0.2163  1.8765
 3907SOL    HW223181   1.101   3.503   8.384 -0.0127  1.3119  0.2760
 3908SOL     OW23182   2.882   0.260  12.675  0.0528 -0.2550  0.4321
 3908SOL    HW123183   2.819   0.332  12.665  0.1701 -0.3291 -0.8345
 3908SOL    HW223184   2.860   0.197  12.606  1.9212  0.6101 -0.9356
 3909SOL     OW23185   1.772   2.422  17.602  0.1738  0.3848  0.3078
 3909SOL    HW123186   1.830   2.443  17.528 -2.7993  1.8894 -1.6055
 3909SOL    HW223187   1.831   2.404  17.675  1.0416 -1.1387 -0.7495
 3910SOL     OW23188   0.956   1.142  14.743 -0.7898 -0.5338 -0.1755
 3910SOL    HW123189   0.962   1.049  14.720  0.2336 -0.0682 -1.8264
 3910SOL    HW223190   0.966   1.182  14.656  1.3554  1.8387  1.1973
 3911SOL     OW23191   4.442   4.123   7.261  0.5826 -0.1111  0.0046
 3911SOL    HW123192   4.404   4.208   7.282 -0.3660 -0.3997 -0.5097
 3911SOL    HW223193   4.496   4.160   7.192 -0.1243 -0.2296 -0.6157
 3912SOL     OW23194   0.156   4.332  16.071  0.2337  0.1343  0.3349
 3912SOL    HW123195   0.207   4.412  16.086  0.4210  0.1280 -0.2574
 3912SOL    HW223196   0.186   4.293  16.153  0.5728 -0.8010 -0.2362
 3913SOL     OW23197   1.311   3.186   7.293  0.2209 -0.1548  0.3957
 3913SOL    HW123198   1.244   3.180   7.226  0.2542 -0.1049  0.3582
 3913SOL    HW223199   1.355   3.106   7.262  1.2979  1.1854 -1.5312
 3914SOL     OW23200   4.676   2.012   6.766  0.2314  0.3291 -0.1471
 3914SOL    HW123201   4.610   2.038   6.830 -0.4298 -0.4302 -0.5142
 3914SOL    HW223202   4.668   1.916   6.762 -2.0699  0.5311 -0.0894
 3915SOL     OW23203   2.031   4.285  12.978  0.3357 -0.1120 -0.3530
 3915SOL    HW123204   1.970   4.353  13.003 -0.1651 -1.1958  1.3557
 3915SOL    HW223205   2.004   4.208  13.028  3.0546 -2.0967 -1.9211
 3916SOL     OW23206   0.789   0.466   6.280 -0.2283 -0.2399  0.0237
 3916SOL    HW123207   0.857   0.404   6.254 -0.2702 -1.3548  2.6020
 3916SOL    HW223208   0.830   0.553   6.272  1.3028 -1.1165 -1.5747
 3917SOL     OW23209   0.463   1.696   5.688  0.4227 -0.2528  0.0102
 3917SOL    HW123210   0.482   1.606   5.664  1.0720  0.4361 -2.0244
 3917SOL    HW223211   0.499   1.742   5.613 -0.3870 -0.1148 -0.2996
 3918SOL     OW23212   1.020   1.911  10.075  0.4330 -0.0762  0.3203
 3918SOL    HW123213   0.944   1.859  10.101 -0.2686  1.0280  0.4943
 3918SOL    HW223214   1.052   1.861  10.000  0.8421  1.3254 -0.4468
 3919SOL     OW23215   3.170   1.053   7.087  0.6781  0.0843 -0.2749
 3919SOL    HW123216   3.191   1.146   7.094 -0.1596  0.1650  1.1872
 3919SOL    HW223217   3.256   1.022   7.058  0.5406 -2.0783  1.6360
 3920SOL     OW23218   4.677   0.950  12.757  0.0373 -0.2310 -0.0977
 3920SOL    HW123219   0.008   0.907  12.690 -0.1518  1.1056 -1.0954
 3920SOL    HW223220   4.690   1.039  12.725  0.5078 -0.4696 -0.5640
 3921SOL     OW23221   3.926   0.956   9.895 -0.1328  0.2280  0.3846
 3921SOL    HW123222   3.952   0.865   9.885  3.1414  1.1216  0.8168
 3921SOL    HW223223   4.009   0.998   9.919  0.5286 -0.7989 -0.1419
 3922SOL     OW23224   0.018   0.474  11.202 -0.3847  0.1390 -0.0703
 3922SOL    HW123225   4.665   0.463  11.143 -1.1803 -0.8251  1.1296
 3922SOL    HW223226   0.083   0.516  11.146  0.4712  0.4644  1.1579
 3923SOL     OW23227   2.999   3.079   3.034  0.4057  0.3742  0.3279
 3923SOL    HW123228   2.990   3.168   3.069  0.4839  2.0592 -3.9172
 3923SOL    HW223229   3.020   3.026   3.111  0.8846  1.6397  1.0571
 3924SOL     OW23230   1.528   4.492   6.938 -0.0858  0.0526 -0.0713
 3924SOL    HW123231   1.469   4.437   6.989 -0.5638  2.5741  2.0767
 3924SOL    HW223232   1.598   4.427   6.948 -0.6997 -1.0195 -2.6722
 3925SOL     OW23233   1.752   2.892  11.284 -0.4308 -0.5191 -0.0802
 3925SOL    HW123234   1.731   2.810  11.239  0.7666 -1.2852  0.7505
 3925SOL    HW223235   1.835   2.921  11.246 -0.8031 -0.0217 -0.5199
 3926SOL     OW23236   0.664   0.363   4.056 -0.5664  0.2125  0.1901
 3926SOL    HW123237   0.658   0.276   4.095  0.1392  1.0397  2.1274
 3926SOL    HW223238   0.571   0.386   4.055 -0.6734 -0.3182 -2.1029
 3927SOL     OW23239   1.421   0.918   6.164  0.3152  0.8198  0.4573
 3927SOL    HW123240   1.336   0.955   6.138  0.6600  0.8053 -0.6768
 3927SOL    HW223241   1.475   0.949   6.091 -0.4748  1.3264  0.0836
 3928SOL     OW23242   1.204   0.751  11.211 -0.1092 -0.2283 -0.2049
 3928SOL    HW123243   1.266   0.694  11.165 -2.3289 -2.2605 -0.6785
 3928SOL    HW223244   1.230   0.840  11.185 -0.4863  0.4628  1.8003
 3929SOL     OW23245   2.350   3.252   4.070 -0.0725 -0.5547 -0.2171
 3929SOL    HW123246   2.431   3.243   4.020 -0.9617 -2.6480 -1.2770
 3929SOL    HW223247   2.374   3.297   4.150  1.3841 -0.9487 -0.4402
 3930SOL     OW23248   3.224   3.230  15.502  0.3235 -0.0912  0.1717
 3930SOL    HW123249   3.167   3.305  15.520 -1.1412 -1.5066  1.4914
 3930SOL    HW223250   3.184   3.197  15.421 -0.4377 -0.7221  0.8041
 3931SOL     OW23251   0.726   4.291  13.760 -0.7922 -0.5649  0.0957
 3931SOL    HW123252   0.810   4.332  13.782  0.9306 -2.9200 -1.9340
 3931SOL    HW223253   0.763   4.213  13.717 -1.8485  0.1655 -2.1668
 3932SOL     OW23254   2.519   2.598  15.635 -0.5899 -0.6146  0.2055
 3932SOL    HW123255   2.441   2.607  15.581 -1.3918 -1.0697  1.2985
 3932SOL    HW223256   2.485   2.654  15.705 -1.2049 -1.2635  0.4275
 3933SOL     OW23257   3.322   0.692   3.259 -0.0732 -0.0085  0.5875
 3933SOL    HW123258   3.334   0.711   3.166 -1.1077  1.3137  0.7322
 3933SOL    HW223259   3.247   0.747   3.282 -1.0569 -0.9160 -0.4730
 3934SOL     OW23260   4.543   4.177   1.154  0.1246 -0.0250  0.3463
 3934SOL    HW123261   4.627   4.150   1.189  0.0592 -0.7799 -0.0859
 3934SOL    HW223262   4.551   4.267   1.186  0.9111  0.3099 -0.7887
 3935SOL     OW23263   3.161   2.579   3.570  0.0980  0.3175 -0.5281
 3935SOL    HW123264   3.148   2.485   3.558 -0.8204  0.3737 -0.0169
 3935SOL    HW223265   3.256   2.583   3.583  0.0226 -2.1379  0.7807
 3936SOL     OW23266   2.029   2.053   6.630  0.0159 -1.0065 -0.3527
 3936SOL    HW123267   2.095   2.108   6.672 -0.5196 -1.5464  1.2125
 3936SOL    HW223268   1.978   2.125   6.593 -0.7195 -0.7722  1.0909
 3937SOL     OW23269   4.111   2.639   9.705  0.3042 -0.4513 -0.2440
 3937SOL    HW123270   4.162   2.594   9.774 -0.3963 -1.5474 -0.4380
 3937SOL    HW223271   4.184   2.688   9.668 -0.6210  2.4464  1.7509
 3938SOL     OW23272   0.744   1.993   9.855 -0.2438 -0.1106 -0.3999
 3938SOL    HW123273   0.780   1.912   9.892  0.0727 -0.0981 -0.6797
 3938SOL    HW223274   0.804   1.998   9.780  0.0785  0.9126 -0.0635
 3939SOL     OW23275   2.593   1.630   0.610 -0.3702  0.4398 -0.0205
 3939SOL    HW123276   2.588   1.547   0.657 -0.9828  0.8479  0.6267
 3939SOL    HW223277   2.643   1.597   0.535  1.9291  0.6061  1.4811
 3940SOL     OW23278   2.195   3.873   6.907  0.1831 -0.7571 -0.1383
 3940SOL    HW123279   2.115   3.923   6.892  0.8105  0.0918 -0.6108
 3940SOL    HW223280   2.161   3.792   6.868 -1.4467 -0.3043  0.3196
 3941SOL     OW23281   2.265   1.135   5.732  0.3220 -0.1210 -0.0436
 3941SOL    HW123282   2.259   1.041   5.750  2.3767 -0.5958 -1.8563
 3941SOL    HW223283   2.243   1.134   5.639  0.1838  1.7158 -0.0412
 3942SOL     OW23284   1.585   2.608  12.420  0.1239  0.0365  0.1539
 3942SOL    HW123285   1.498   2.606  12.459 -1.3939  1.1780 -3.1329
 3942SOL    HW223286   1.625   2.685  12.460 -1.2543  0.6341  0.3966
 3943SOL     OW23287   2.577   1.033   8.425 -0.0599  0.4125 -0.7622
 3943SOL    HW123288   2.504   0.981   8.458  0.4903  0.0111 -0.1732
 3943SOL    HW223289   2.639   0.962   8.407 -0.9358 -0.5499 -0.0178
 3944SOL     OW23290   2.727   2.752   9.398  0.0736 -0.0912  0.1859
 3944SOL    HW123291   2.645   2.711   9.428 -1.0664 -0.0025 -2.8662
 3944SOL    HW223292   2.783   2.732   9.474 -1.8894 -1.0006  1.4100
 3945SOL     OW23293   1.292   0.002   6.680 -0.2443 -0.0047 -0.2399
 3945SOL    HW123294   1.329   4.681   6.604  0.2993 -0.6975  0.4163
 3945SOL    HW223295   1.242   4.660   6.730  0.5136 -0.0344  0.4739
 3946SOL     OW23296   1.508   0.159   1.382 -0.1644  0.4614 -0.5361
 3946SOL    HW123297   1.454   0.185   1.307 -1.1511 -0.8984 -0.2992
 3946SOL    HW223298   1.492   0.064   1.386 -1.3781  0.7383  0.8253
 3947SOL     OW23299   0.410   0.474   4.048 -0.1217 -0.1180 -0.4378
 3947SOL    HW123300   0.383   0.455   3.958  1.1179  4.3754 -1.7310
 3947SOL    HW223301   0.344   0.536   4.078  1.1235  0.6274  0.7580
 3948SOL     OW23302   0.917   3.912  11.492  0.3436 -0.6197 -0.6116
 3948SOL    HW123303   0.976   3.952  11.555 -0.4134 -1.0653  0.3775
 3948SOL    HW223304   0.976   3.844  11.459  0.4650 -0.4135 -0.8197
 3949SOL     OW23305   3.300   4.465   1.384 -0.3917 -0.1328  0.3100
 3949SOL    HW123306   3.356   4.395   1.417 -1.9525 -1.8378 -0.6443
 3949SOL    HW223307   3.221   4.412   1.369  0.1702 -1.2114  1.2004
 3950SOL     OW23308   3.517   1.120   8.036  0.3221 -0.5647 -0.1091
 3950SOL    HW123309   3.577   1.195   8.032  1.1992 -1.1602  2.0750
 3950SOL    HW223310   3.470   1.135   8.118  1.2749  1.2018  0.1250
 3951SOL     OW23311   0.857   3.713   5.814 -0.6895 -0.0183  0.4709
 3951SOL    HW123312   0.894   3.732   5.728  1.5762  0.1114  1.4791
 3951SOL    HW223313   0.883   3.623   5.837 -0.6963 -0.2206 -0.3085
 3952SOL     OW23314   3.238   2.433   5.413  0.7830 -0.0802  0.2351
 3952SOL    HW123315   3.227   2.441   5.319  1.4410 -0.4149  0.1273
 3952SOL    HW223316   3.197   2.516   5.436  0.6634  0.0965 -0.6455
 3953SOL     OW23317   2.616   0.927   5.641 -0.1638 -0.0340 -0.5691
 3953SOL    HW123318   2.542   0.932   5.581  0.7433  0.3177 -1.6512
 3953SOL    HW223319   2.577   0.960   5.722 -0.4419 -1.2432 -0.1988
 3954SOL     OW23320   0.350   2.480  10.415 -0.0540 -0.1074  0.3615
 3954SOL    HW123321   0.282   2.529  10.369 -1.4864 -1.2888  1.2235
 3954SOL    HW223322   0.300   2.424  10.474  0.6397  0.1742  1.2105
 3955SOL     OW23323   4.304   1.811   8.974 -0.5803 -0.8362 -0.3694
 3955SOL    HW123324   4.344   1.857   9.048 -0.1037 -0.5024 -0.8343
 3955SOL    HW223325   4.296   1.881   8.910 -0.5221 -1.7171 -1.3308
 3956SOL     OW23326   4.555   4.215   3.173  0.2707  0.4347 -0.3101
 3956SOL    HW123327   4.595   4.266   3.243  0.4267  0.6857 -0.5788
 3956SOL    HW223328   4.509   4.149   3.225 -2.3593  1.5223 -1.2636
 3957SOL     OW23329   0.253   2.447   6.302  0.3170  0.1408  0.8062
 3957SOL    HW123330   0.224   2.515   6.362  0.6035  1.6814 -0.7977
 3957SOL    HW223331   0.310   2.497   6.243  1.6307  0.2596  2.1743
 3958SOL     OW23332   1.154   3.773   9.148 -0.1975 -0.6278  0.6270
 3958SOL    HW123333   1.096   3.848   9.164  0.1348 -0.4478  1.0116
 3958SOL    HW223334   1.237   3.821   9.155  0.9203 -2.5140  0.2944
 3959SOL     OW23335   2.903   4.403   4.514 -0.2256  0.0527 -0.1648
 3959SOL    HW123336   2.898   4.482   4.568 -1.8219  1.0263 -1.7371
 3959SOL    HW223337   2.963   4.353   4.570 -0.6049  0.5500  0.6924
 3960SOL     OW23338   1.384   4.441   3.259 -0.6311  0.2390  0.1495
 3960SOL    HW123339   1.382   4.520   3.312  1.8663  0.7509 -0.5135
 3960SOL    HW223340   1.461   4.450   3.204 -0.1682  0.0347  0.7539
 3961SOL     OW23341   2.177   0.874   5.998  0.4710 -0.1925  0.5270
 3961SOL    HW123342   2.088   0.876   5.962 -0.5571 -1.5466  2.9640
 3961SOL    HW223343   2.151   0.874   6.090 -2.5026 -1.5892 -0.3212
 3962SOL     OW23344   0.936   2.999  10.781  0.4394 -0.3666 -0.0389
 3962SOL    HW123345   0.880   2.927  10.810  1.2592 -1.3443 -0.8800
 3962SOL    HW223346   0.907   3.060  10.848 -2.3149 -2.8143  0.9679
 3963SOL     OW23347   1.544   3.252   7.494 -0.3977 -0.1982 -0.5820
 3963SOL    HW123348   1.583   3.274   7.578 -1.1457  0.1299 -0.3242
 3963SOL    HW223349   1.597   3.179   7.462 -0.5749 -1.6494  2.4260
 3964SOL     OW23350   2.943   2.172  16.506  0.0396 -0.0281 -0.1268
 3964SOL    HW123351   2.913   2.262  16.519  0.3923  0.1271 -0.3846
 3964SOL    HW223352   2.939   2.143  16.597 -0.5611  2.7483  0.7252
 3965SOL     OW23353   3.816   4.450   0.752 -0.0593  0.5430 -0.2608
 3965SOL    HW123354   3.899   4.422   0.713 -0.9424 -0.9386 -1.0447
 3965SOL    HW223355   3.777   4.494   0.676 -1.3965  2.2880  1.4256
 3966SOL     OW23356   2.473   3.507  10.142  0.0560 -0.0837 -0.4100
 3966SOL    HW123357   2.466   3.427  10.090  0.6177 -0.4442  0.0706
 3966SOL    HW223358   2.391   3.526  10.188  1.0436 -0.9779  1.7398
 3967SOL     OW23359   3.171   2.423  16.443  0.0874 -0.0464  0.8197
 3967SOL    HW123360   3.232   2.481  16.396 -0.1854  0.5874  1.2496
 3967SOL    HW223361   3.180   2.343  16.390 -0.9105  2.0221 -2.4890
 3968SOL     OW23362   3.154   4.116  17.064 -0.8275  0.7512  0.4737
 3968SOL    HW123363   3.244   4.119  17.031 -1.4313  1.3848 -1.0751
 3968SOL    HW223364   3.149   4.203  17.104  0.3211  1.2304 -0.4391
 3969SOL     OW23365   0.175   1.315   5.109  0.0605  0.1637 -0.4159
 3969SOL    HW123366   0.082   1.291   5.113 -0.5516  2.1037 -2.5889
 3969SOL    HW223367   0.207   1.261   5.180 -0.6196  1.1414  0.6314
 3970SOL     OW23368   4.519   3.796   8.874 -0.3200  0.3594 -0.1658
 3970SOL    HW123369   4.575   3.818   8.800 -3.2728 -0.7600 -2.6905
 3970SOL    HW223370   4.462   3.724   8.847 -1.2213  0.2413  2.0431
 3971SOL     OW23371   3.826   2.815   6.466 -0.1431 -0.5264 -0.3729
 3971SOL    HW123372   3.733   2.797   6.448 -0.5266  0.2804  0.8331
 3971SOL    HW223373   3.827   2.901   6.424 -2.4728  0.0429  0.7491
 3972SOL     OW23374   3.474   2.957  14.717  0.6650  0.2910 -0.0902
 3972SOL    HW123375   3.543   2.994  14.773 -0.5009  0.4134  1.2855
 3972SOL    HW223376   3.519   2.893  14.662 -1.2429  0.0383 -1.3688
 3973SOL     OW23377   3.854   0.794   7.408  0.3241 -0.3336  0.6362
 3973SOL    HW123378   3.831   0.790   7.316  0.6182 -0.9755  0.5889
 3973SOL    HW223379   3.945   0.820   7.393  0.1115  0.5835  0.9729
 3974SOL     OW23380   1.597   2.556  12.029 -0.4468 -0.6097  0.0950
 3974SOL    HW123381   1.538   2.533  11.956 -0.4230  0.4845 -0.2690
 3974SOL    HW223382   1.570   2.491  12.094 -1.1853 -0.6073 -0.2065
 3975SOL     OW23383   0.584   1.109  12.702  0.0315 -0.5359  0.6160
 3975SOL    HW123384   0.591   1.024  12.660 -0.9446  0.9498 -2.5581
 3975SOL    HW223385   0.616   1.156  12.625 -1.5093 -1.3916 -0.5483
 3976SOL     OW23386   0.470   3.515  15.792  0.2988  0.0213  0.1033
 3976SOL    HW123387   0.510   3.468  15.865  2.8675  2.3865  0.1964
 3976SOL    HW223388   0.489   3.449  15.726  1.6012  0.0285  0.4617
 3977SOL     OW23389   4.252   2.870   0.020 -0.2875 -0.3061  0.4468
 3977SOL    HW123390   4.297   2.920   0.089  1.8958 -2.5823  0.6735
 3977SOL    HW223391   4.242   2.943  17.650  1.1383 -2.0189 -1.7984
 3978SOL     OW23392   1.412   4.569   7.643 -0.2679 -0.6867 -0.2335
 3978SOL    HW123393   1.382   4.635   7.706  0.9426 -0.7082  0.3600
 3978SOL    HW223394   1.444   4.502   7.704 -0.8746 -1.0717 -0.3361
 3979SOL     OW23395   3.057   3.032  15.635 -0.4854 -0.1801 -0.3909
 3979SOL    HW123396   2.996   3.032  15.561 -0.0265  0.1248 -0.7711
 3979SOL    HW223397   3.137   3.074  15.602  0.7485 -1.9756  0.3345
 3980SOL     OW23398   4.421   2.599   8.270 -0.0504 -0.0992 -0.3804
 3980SOL    HW123399   4.413   2.694   8.278  0.5808 -0.0366 -0.5286
 3980SOL    HW223400   4.446   2.570   8.357  0.4432  0.5585 -0.3077
 3981SOL     OW23401   1.966   4.068  10.332 -0.5659  0.2196  0.2977
 3981SOL    HW123402   2.024   4.133  10.293 -0.7137  0.4986  0.5478
 3981SOL    HW223403   2.027   4.030  10.396  0.9740 -1.0454 -1.9220
 3982SOL     OW23404   3.467   4.008   4.926 -0.2400  1.0829 -0.2055
 3982SOL    HW123405   3.460   4.102   4.907 -0.4927  1.3600  1.2265
 3982SOL    HW223406   3.520   3.986   4.850 -3.5623 -0.4565 -2.0302
 3983SOL     OW23407   0.092   4.138   6.597 -0.3632 -0.8421 -0.3370
 3983SOL    HW123408   0.170   4.168   6.550  1.0887 -1.6510  1.5609
 3983SOL    HW223409   0.081   4.217   6.651  1.4632 -0.5389 -0.4095
 3984SOL     OW23410   2.282   3.533   2.327  0.8395  0.6593 -0.4203
 3984SOL    HW123411   2.199   3.578   2.310  1.2493  1.4125 -0.4181
 3984SOL    HW223412   2.265   3.473   2.400 -0.7529  2.1065  0.3988
 3985SOL     OW23413   4.712   4.270   4.884  0.7873 -0.1343 -0.3692
 3985SOL    HW123414   0.062   4.246   4.942  0.1532  1.1627  0.9479
 3985SOL    HW223415   4.644   4.216   4.925 -0.1923  1.8323  0.5627
 3986SOL     OW23416   4.352   2.074   5.984 -0.0713  0.1778 -0.3083
 3986SOL    HW123417   4.362   2.143   5.918 -0.9656 -0.8424 -1.5058
 3986SOL    HW223418   4.383   2.120   6.062  2.0453 -0.7010 -0.6446
 3987SOL     OW23419   3.390   0.910   7.014  0.6523 -0.2218 -0.3206
 3987SOL    HW123420   3.470   0.910   6.961 -0.1085  2.2963 -1.4741
 3987SOL    HW223421   3.335   0.857   6.956 -0.2837  1.8373 -1.3068
 3988SOL     OW23422   0.087   0.120   6.572 -0.1096  0.4309  0.5976
 3988SOL    HW123423   0.081   0.030   6.604 -1.5767  0.5108  0.5584
 3988SOL    HW223424   0.163   0.151   6.620 -1.0305  0.1273  2.2520
 3989SOL     OW23425   2.779   2.311   3.898 -0.2649 -0.2459 -0.0806
 3989SOL    HW123426   2.807   2.256   3.825 -0.9398  2.1227 -2.1230
 3989SOL    HW223427   2.802   2.259   3.975 -1.6432 -0.6150  0.0776
 3990SOL     OW23428   1.787   0.908  13.932 -0.4847  0.1539  0.1777
 3990SOL    HW123429   1.825   0.901  14.020  0.7623  2.2837 -0.1837
 3990SOL    HW223430   1.870   0.920  13.886 -1.0340  0.7075 -0.6585
 3991SOL     OW23431   0.312   4.483   6.179 -0.1747  0.4048 -0.2616
 3991SOL    HW123432   0.274   4.395   6.172 -0.5800  0.6621 -1.3403
 3991SOL    HW223433   0.303   4.511   6.088  1.7484 -2.3204 -1.2795
 3992SOL     OW23434   3.004   2.375   2.759  0.5568  0.4902  0.2708
 3992SOL    HW123435   3.074   2.322   2.721  1.3137  0.4770  1.6901
 3992SOL    HW223436   2.993   2.312   2.830  0.4917  0.6611  0.4133
 3993SOL     OW23437   0.576   0.202   8.422 -0.2582  0.2209 -0.0318
 3993SOL    HW123438   0.633   0.232   8.351  1.0505  0.8568  1.2816
 3993SOL    HW223439   0.491   0.200   8.379  0.3038  1.6696 -1.2085
 3994SOL     OW23440   3.417   4.702   1.903 -0.3985 -0.5025 -0.4108
 3994SOL    HW123441   3.329   4.669   1.885 -0.1959 -0.2144 -1.9156
 3994SOL    HW223442   3.456   4.679   1.818 -0.4363 -1.3838 -0.1892
 3995SOL     OW23443   2.612   3.656  15.127 -0.1430 -0.6305 -0.2709
 3995SOL    HW123444   2.650   3.635  15.042  0.6376  2.0543 -0.5942
 3995SOL    HW223445   2.691   3.705  15.152  0.6308 -2.5114  1.0598
 3996SOL     OW23446   2.756   0.861   8.877  0.3078 -0.2438  0.0947
 3996SOL    HW123447   2.810   0.920   8.825 -0.3695 -0.9443 -1.4111
 3996SOL    HW223448   2.793   0.774   8.865  0.2599 -0.1733 -0.5888
 3997SOL     OW23449   3.775   4.019   5.629 -0.0492  0.1535 -0.0190
 3997SOL    HW123450   3.793   4.091   5.690  1.3766 -1.3143  1.3222
 3997SOL    HW223451   3.835   4.045   5.559  0.7910 -2.2821 -0.2106
 3998SOL     OW23452   0.036   4.627   3.770  0.0775  0.2220 -0.4849
 3998SOL    HW123453   4.691   4.605   3.706 -1.4197  3.6997 -0.1006
 3998SOL    HW223454   0.110   4.605   3.714 -0.8126 -1.4811 -1.0050
 3999SOL     OW23455   0.371   3.647   9.376 -0.2372  0.5019 -0.0760
 3999SOL    HW123456   0.386   3.736   9.410 -1.8243  0.6987  0.1481
 3999SOL    HW223457   0.330   3.608   9.454  0.6264  0.5986  0.4266
 4000SOL     OW23458   4.646   2.707  16.089  0.2659  0.3143  0.4095
 4000SOL    HW123459   4.603   2.788  16.115 -1.7242 -0.9205  0.9789
 4000SOL    HW223460   4.646   2.654  16.170 -0.3617  0.9367  0.8114
 4001SOL     OW23461   0.750   1.030   2.045 -0.1636 -0.2845  0.3145
 4001SOL    HW123462   0.803   0.952   2.027 -1.2764 -0.9617 -0.0226
 4001SOL    HW223463   0.812   1.065   2.109 -1.2694  0.6551  0.8765
 4002SOL     OW23464   0.131   3.236   6.548 -0.1277 -0.0136  0.1486
 4002SOL    HW123465   0.043   3.273   6.546 -0.5913 -0.9979  1.6631
 4002SOL    HW223466   0.159   3.268   6.634 -0.8088 -1.0982  0.7750
 4003SOL     OW23467   1.351   1.305   1.215  0.9535 -0.5234 -0.5184
 4003SOL    HW123468   1.380   1.214   1.213  1.5031 -0.3988  1.1283
 4003SOL    HW223469   1.427   1.341   1.169 -0.4932  2.9876 -0.1379
 4004SOL     OW23470   1.238   3.689   5.188 -0.2316 -0.0798 -0.1576
 4004SOL    HW123471   1.192   3.699   5.105  1.0694  1.3027 -0.6992
 4004SOL    HW223472   1.168   3.666   5.249  0.7680 -1.0747  0.6272
 4005SOL     OW23473   1.389   3.444   5.180 -0.4763  0.1837 -0.0936
 4005SOL    HW123474   1.467   3.465   5.128  0.8518  1.1207  2.2699
 4005SOL    HW223475   1.339   3.525   5.170 -1.1144 -0.0789  1.1003
 4006SOL     OW23476   2.479   1.239   7.325  0.4835  0.3619  0.2047
 4006SOL    HW123477   2.430   1.294   7.387  0.5135 -0.0552  0.5989
 4006SOL    HW223478   2.436   1.158   7.352 -0.8996  1.3911  1.1750
 4007SOL     OW23479   2.882   0.846  15.338  0.1212  0.0698  0.7921
 4007SOL    HW123480   2.799   0.860  15.293  0.1757 -2.1548  0.0046
 4007SOL    HW223481   2.868   0.754  15.362 -1.6877  0.0574 -0.3404
 4008SOL     OW23482   0.559   2.722  10.230 -0.0364  0.3933  0.2912
 4008SOL    HW123483   0.609   2.803  10.236 -1.4767  1.4552 -2.2582
 4008SOL    HW223484   0.474   2.751  10.196 -0.7953 -0.6799  1.2593
 4009SOL     OW23485   2.427   4.132   6.107 -0.0882 -1.0947  0.4079
 4009SOL    HW123486   2.483   4.057   6.128 -1.7517 -1.5114  3.2990
 4009SOL    HW223487   2.348   4.124   6.159 -1.6352  0.2869 -1.7043
 4010SOL     OW23488   0.167   1.697   5.560 -0.2492 -0.0651 -0.1188
 4010SOL    HW123489   0.152   1.618   5.610 -2.0776 -0.2516 -0.9740
 4010SOL    HW223490   0.165   1.763   5.629 -0.6921 -0.7196  0.4862
 4011SOL     OW23491   0.719   1.770   0.289 -0.3339  0.3329 -0.2954
 4011SOL    HW123492   0.671   1.821   0.224 -1.0532 -1.5027 -1.1966
 4011SOL    HW223493   0.723   1.683   0.250 -1.7647 -0.1314  0.6004
 4012SOL     OW23494   2.338   0.274  13.317 -0.1493  0.0418 -0.5122
 4012SOL    HW123495   2.257   0.250  13.360 -0.1751  2.6812  0.9422
 4012SOL    HW223496   2.325   0.241  13.228  0.3383 -0.0570 -0.5475
 4013SOL     OW23497   1.213   1.688  11.732 -0.0899  0.2553 -0.4189
 4013SOL    HW123498   1.208   1.704  11.826 -0.1333 -1.5772 -0.1055
 4013SOL    HW223499   1.218   1.592  11.733 -2.6941  0.1273 -1.3246
 4014SOL     OW23500   2.179   4.446   1.666  0.1761 -0.1215 -0.0606
 4014SOL    HW123501   2.099   4.403   1.639  0.3434 -0.0382 -0.7011
 4014SOL    HW223502   2.151   4.527   1.709 -2.3394 -1.0984  0.1255
 4015SOL     OW23503   2.979   0.555   1.807  0.2822 -0.0056 -0.6046
 4015SOL    HW123504   2.996   0.620   1.739 -3.4497  1.5274 -0.0901
 4015SOL    HW223505   3.064   0.546   1.851  0.1727  0.7578 -0.2292
 4016SOL     OW23506   2.507   4.692  15.589 -0.0705  0.8556 -0.0996
 4016SOL    HW123507   2.428   4.712  15.639 -0.0541 -0.5195  0.4768
 4016SOL    HW223508   2.476   4.649  15.510  1.3998 -1.2461  0.4551
 4017SOL     OW23509   3.734   0.909  13.130 -0.5096  0.0864 -0.2855
 4017SOL    HW123510   3.693   0.978  13.182  2.5558  1.8516 -0.2083
 4017SOL    HW223511   3.715   0.834  13.187 -1.1166  0.4807  0.0287
 4018SOL     OW23512   3.504   1.776  10.517  0.3933 -0.0525 -0.1897
 4018SOL    HW123513   3.528   1.705  10.458 -0.4012 -1.6905  1.4699
 4018SOL    HW223514   3.490   1.724  10.596  0.6640 -2.0610 -1.4611
 4019SOL     OW23515   4.238   3.495   2.095 -0.1463 -0.1704  0.0815
 4019SOL    HW123516   4.262   3.588   2.093  0.4500 -0.3077  0.6059
 4019SOL    HW223517   4.298   3.465   2.027 -0.1946  0.0070 -0.0397
 4020SOL     OW23518   4.060   2.506   8.636  0.2044 -0.5330  0.5070
 4020SOL    HW123519   3.987   2.464   8.592  0.4716  1.1525 -1.5196
 4020SOL    HW223520   4.052   2.464   8.722  1.3925 -0.7049  0.5399
 4021SOL     OW23521   2.082   3.820  12.930 -0.3739  0.4345 -0.0151
 4021SOL    HW123522   2.131   3.741  12.908 -0.0703  0.3258  1.0234
 4021SOL    HW223523   2.125   3.886  12.875  1.3255  0.4443  1.3002
 4022SOL     OW23524   1.376   2.220  17.207 -0.4026 -0.0990  0.3432
 4022SOL    HW123525   1.388   2.249  17.298 -1.1020 -0.9924  0.7238
 4022SOL    HW223526   1.287   2.253  17.197 -1.2292 -1.6876  2.3614
 4023SOL     OW23527   4.035   2.238  13.803  0.3479  0.2526  0.2427
 4023SOL    HW123528   3.974   2.262  13.733 -0.3530  0.7165  1.0067
 4023SOL    HW223529   4.049   2.144  13.799  0.3943  0.2069  1.2880
 4024SOL     OW23530   4.096   4.054  14.028  0.2055 -0.1781 -0.2678
 4024SOL    HW123531   4.078   4.082  14.118  2.5792 -1.5226  0.6186
 4024SOL    HW223532   4.006   4.032  14.003  0.5018  1.4394 -2.7199
 4025SOL     OW23533   1.032   0.578   7.495  0.2163  0.0551 -0.4818
 4025SOL    HW123534   1.073   0.607   7.414 -0.6930 -0.6229 -1.1803
 4025SOL    HW223535   1.092   0.615   7.560  0.7075  2.6048 -2.3989
 4026SOL     OW23536   3.460   4.591   6.721  0.2015  0.1552 -0.2752
 4026SOL    HW123537   3.388   4.643   6.757 -0.9466 -0.3130 -1.8818
 4026SOL    HW223538   3.428   4.504   6.742  1.3378 -0.0722  0.5140
 4027SOL     OW23539   0.402   1.290   7.818 -0.7133 -0.5164  0.5040
 4027SOL    HW123540   0.348   1.212   7.800  1.7953 -1.9335 -0.8893
 4027SOL    HW223541   0.463   1.288   7.744 -1.3852 -1.1274 -0.0390
 4028SOL     OW23542   3.886   1.887   2.371 -0.3892 -0.7175  0.8773
 4028SOL    HW123543   3.866   1.980   2.382  0.5249 -0.6212  1.7916
 4028SOL    HW223544   3.809   1.855   2.417 -0.1946 -0.2010  1.5612
 4029SOL     OW23545   4.106   2.432   7.761 -0.2437 -0.2426 -0.1732
 4029SOL    HW123546   4.087   2.444   7.854  0.8133 -0.2744  0.0536
 4029SOL    HW223547   4.033   2.485   7.729  0.1036  0.9203  0.9250
 4030SOL     OW23548   2.990   0.594   8.307 -0.2644  0.2967  0.1333
 4030SOL    HW123549   3.020   0.599   8.398 -0.2795  0.6420  0.1193
 4030SOL    HW223550   3.078   0.590   8.272 -0.7399 -2.5351 -0.7530
 4031SOL     OW23551   0.333   0.678   9.633  0.4821 -0.7231  0.7840
 4031SOL    HW123552   0.301   0.690   9.722  0.6617  0.9768  0.6019
 4031SOL    HW223553   0.397   0.748   9.620  1.7304 -1.9332  0.4070
 4032SOL     OW23554   3.538   4.051   9.184  0.5071  0.4444 -0.1088
 4032SOL    HW123555   3.520   4.092   9.269  0.6153 -1.2251  0.7339
 4032SOL    HW223556   3.547   3.959   9.208  0.7703  0.0941 -1.5533
 4033SOL     OW23557   3.894   3.810   9.286  0.0769  0.3042 -0.2904
 4033SOL    HW123558   3.961   3.742   9.284 -0.6560 -0.4533  1.4840
 4033SOL    HW223559   3.957   3.879   9.306  0.7723 -0.7936  1.2446
 4034SOL     OW23560   3.561   2.712   6.281  0.3081  0.7541 -0.1811
 4034SOL    HW123561   3.484   2.659   6.301 -1.2911  3.1196 -0.0612
 4034SOL    HW223562   3.622   2.649   6.242  0.1459  0.5253 -0.0658
 4035SOL     OW23563   1.733   2.897   3.903 -0.5525 -0.2018 -0.1141
 4035SOL    HW123564   1.721   2.990   3.883  0.9296  0.5851  2.7458
 4035SOL    HW223565   1.827   2.895   3.919 -0.3793 -2.4724 -1.4018
 4036SOL     OW23566   3.031   0.956   6.635  0.0245  0.5129 -0.5570
 4036SOL    HW123567   3.004   0.923   6.550  0.4238 -0.2784 -0.3742
 4036SOL    HW223568   3.069   1.040   6.607  0.8615  0.2785 -0.1236
 4037SOL     OW23569   3.229   4.505   1.831 -0.4633  0.8219  0.0005
 4037SOL    HW123570   3.278   4.508   1.749  0.5109 -1.6372  0.5007
 4037SOL    HW223571   3.140   4.522   1.799  0.2079  0.0570 -2.2836
 4038SOL     OW23572   4.486   4.370  12.445 -0.2507  0.4100  0.6974
 4038SOL    HW123573   4.445   4.432  12.505  1.5035  0.6033  1.6964
 4038SOL    HW223574   4.421   4.305  12.419  0.9746 -0.5813  0.1042
 4039SOL     OW23575   2.348   1.996  11.954  0.3335 -0.1087  0.0189
 4039SOL    HW123576   2.279   1.931  11.943 -1.9985  2.1320  1.5430
 4039SOL    HW223577   2.421   1.938  11.932  0.3879  0.2785 -0.8327
 4040SOL     OW23578   3.312   1.687  12.432 -0.9354  0.3409 -0.0124
 4040SOL    HW123579   3.383   1.714  12.374  1.1438 -1.2842  1.7895
 4040SOL    HW223580   3.239   1.710  12.374  0.9992  0.8540 -2.2295
 4041SOL     OW23581   3.239   4.606  15.355 -0.2508 -0.2523  0.1501
 4041SOL    HW123582   3.170   4.623  15.418  1.0519 -0.1254  1.5358
 4041SOL    HW223583   3.211   4.662  15.283 -0.8182  1.4182  1.6767
 4042SOL     OW23584   0.836   3.248   1.062  0.0811  0.3330  0.3469
 4042SOL    HW123585   0.794   3.190   0.999 -0.0662 -1.0750  1.7518
 4042SOL    HW223586   0.762   3.297   1.099  1.1930  2.4215 -0.1751
 4043SOL     OW23587   1.224   2.206   7.439  0.5362  0.5786  0.8171
 4043SOL    HW123588   1.195   2.271   7.503  0.0713  0.7835  0.3922
 4043SOL    HW223589   1.145   2.152   7.443  1.1342 -0.4779 -1.7098
 4044SOL     OW23590   1.138   1.296   8.126  0.2186 -0.1765  0.0618
 4044SOL    HW123591   1.048   1.329   8.134  0.6039  1.3989 -2.1614
 4044SOL    HW223592   1.181   1.313   8.210 -1.9467 -2.4113  1.6506
 4045SOL     OW23593   0.831   4.412  10.362 -0.0918  0.3153  0.1475
 4045SOL    HW123594   0.850   4.360  10.440  1.0523  0.7977  0.1949
 4045SOL    HW223595   0.737   4.407  10.379 -0.4575  0.3995 -1.9315
 4046SOL     OW23596   2.536   2.055   5.624  0.0549  0.1943 -0.0349
 4046SOL    HW123597   2.483   2.125   5.585  0.7115  0.2999 -0.7195
 4046SOL    HW223598   2.553   2.096   5.709 -1.2119  0.3490  0.1545
 4047SOL     OW23599   4.274   2.149   2.833 -0.1343  0.1524  0.2510
 4047SOL    HW123600   4.281   2.095   2.753  0.3079 -1.4657  1.3825
 4047SOL    HW223601   4.241   2.079   2.889 -0.5313  1.1399  1.2500
 4048SOL     OW23602   1.082   0.882   5.033  0.5627  0.0652  0.0800
 4048SOL    HW123603   1.037   0.798   5.021 -3.0207  2.3169 -2.1317
 4048SOL    HW223604   1.084   0.887   5.129 -0.1400 -0.3950  0.1164
 4049SOL     OW23605   4.252   2.239   5.196  0.1265 -0.4540 -0.0729
 4049SOL    HW123606   4.184   2.173   5.208  0.1416 -0.6592 -1.1139
 4049SOL    HW223607   4.326   2.178   5.192  0.0237 -0.5576 -0.3756
 4050SOL     OW23608   2.802   4.311   1.555  0.3162 -0.4142 -0.2313
 4050SOL    HW123609   2.836   4.357   1.478  1.7534 -0.0958  0.6044
 4050SOL    HW223610   2.789   4.383   1.617 -0.9210 -2.0884  1.4393
 4051SOL     OW23611   1.968   0.626   4.501  0.2145 -0.3065 -0.0186
 4051SOL    HW123612   1.897   0.690   4.501 -0.5947 -1.2025 -0.2654
 4051SOL    HW223613   1.958   0.590   4.589 -0.4037  0.3511  0.1835
 4052SOL     OW23614   0.005   3.779  14.749 -0.7100  0.1042 -0.0496
 4052SOL    HW123615   4.654   3.840  14.750 -1.5673 -0.9253  1.2713
 4052SOL    HW223616   4.699   3.716  14.683  1.2186 -0.2009 -0.5948
 4053SOL     OW23617   1.428   2.524   0.376  0.0860 -0.1866  0.1035
 4053SOL    HW123618   1.443   2.538   0.283  3.9530 -2.7119  0.3327
 4053SOL    HW223619   1.406   2.613   0.404  1.0557 -0.5776  2.1335
 4054SOL     OW23620   0.030   1.449   8.897 -0.1426 -0.1016  0.0160
 4054SOL    HW123621   0.007   1.401   8.977  1.2365 -2.1491 -0.8226
 4054SOL    HW223622   4.692   1.523   8.896 -0.4890 -0.3969 -1.4427
 4055SOL     OW23623   0.824   3.160   2.089 -0.7274  0.1887  0.1610
 4055SOL    HW123624   0.838   3.247   2.126  0.4863  0.4789 -0.9888
 4055SOL    HW223625   0.908   3.124   2.061  0.0717  1.4714  0.9162
 4056SOL     OW23626   1.305   1.703   4.619  0.0365 -0.4191 -0.2850
 4056SOL    HW123627   1.352   1.671   4.542 -0.1275 -0.8320 -0.2148
 4056SOL    HW223628   1.277   1.781   4.571 -0.4029  1.2639  2.6887
 4057SOL     OW23629   3.215   1.959   0.207 -0.0756 -0.3996 -0.0576
 4057SOL    HW123630   3.248   1.928   0.123  0.6407 -1.5927  0.6600
 4057SOL    HW223631   3.127   1.974   0.173 -0.2487  2.9700  1.8828
 4058SOL     OW23632   0.508   4.249   9.219  0.3099 -0.1805  0.2925
 4058SOL    HW123633   0.436   4.262   9.281  0.7538  3.6562 -0.0141
 4058SOL    HW223634   0.577   4.224   9.281  0.1050  1.5738  1.2037
 4059SOL     OW23635   3.411   2.216   4.769 -0.1435 -0.3094  0.1779
 4059SOL    HW123636   3.363   2.268   4.833  0.6918 -0.9908  1.3412
 4059SOL    HW223637   3.490   2.265   4.745 -0.6493  1.0031  1.2151
 4060SOL     OW23638   1.757   1.810   1.676 -0.1165 -0.2993  0.3464
 4060SOL    HW123639   1.828   1.821   1.739  0.5404  0.9083 -0.6056
 4060SOL    HW223640   1.745   1.715   1.680  1.2673 -0.4991 -0.3045
 4061SOL     OW23641   1.632   2.065   0.324  0.1717 -0.0034 -0.4080
 4061SOL    HW123642   1.555   2.109   0.289  0.1912  1.1849  0.9832
 4061SOL    HW223643   1.592   1.996   0.376  2.0538  0.2678  1.4043
 4062SOL     OW23644   2.857   0.368  16.616 -0.5464 -0.6703  0.1056
 4062SOL    HW123645   2.775   0.377  16.664 -1.0023  0.6486 -0.9433
 4062SOL    HW223646   2.855   0.419  16.536  0.5096  0.2438  0.6537
 4063SOL     OW23647   1.441   1.339   4.537  0.7089  0.0031  0.3802
 4063SOL    HW123648   1.443   1.272   4.468 -0.2302 -0.4290  0.7644
 4063SOL    HW223649   1.461   1.415   4.482 -2.6768  0.1869 -0.5980
 4064SOL     OW23650   1.681   1.536   8.432  0.2190 -0.2253 -0.2488
 4064SOL    HW123651   1.605   1.555   8.377 -0.6775 -1.2120  0.6622
 4064SOL    HW223652   1.743   1.535   8.360 -2.1837  1.1967 -2.3461
 4065SOL     OW23653   3.534   1.757   5.891  0.1122 -0.3713  1.0315
 4065SOL    HW123654   3.523   1.741   5.985 -1.0506 -0.6773  0.8362
 4065SOL    HW223655   3.515   1.673   5.850  1.3956 -0.3992  0.4897
 4066SOL     OW23656   3.017   3.223   5.645 -0.2338 -0.3286  0.2812
 4066SOL    HW123657   2.974   3.271   5.715 -1.3202 -2.1922  0.8766
 4066SOL    HW223658   3.085   3.166   5.681 -0.7657  1.0283  3.4406
 4067SOL     OW23659   3.865   0.269   7.683  0.4671 -0.1041 -0.5036
 4067SOL    HW123660   3.832   0.338   7.741  0.4936  0.0129 -0.6289
 4067SOL    HW223661   3.891   0.204   7.749 -2.0162 -1.3137 -0.7264
 4068SOL     OW23662   4.531   3.734  17.040  0.5656 -0.2420  0.1526
 4068SOL    HW123663   4.468   3.708  16.972  0.8378  2.3607 -1.0828
 4068SOL    HW223664   4.597   3.787  16.995  1.2107 -0.4246  0.8947
 4069SOL     OW23665   3.960   2.803   7.605  0.0882  0.2502 -0.3905
 4069SOL    HW123666   4.020   2.874   7.630  0.3728 -0.3899  0.7449
 4069SOL    HW223667   4.020   2.738   7.570  0.7677  2.8138 -3.9673
 4070SOL     OW23668   4.295   2.153   7.975  0.3955 -0.1328 -0.2062
 4070SOL    HW123669   4.313   2.201   8.056  0.1931  2.4690 -1.6879
 4070SOL    HW223670   4.327   2.224   7.919  0.8759  0.8515  1.3035
 4071SOL     OW23671   4.636   4.487   9.477  0.3443 -0.2848 -0.8410
 4071SOL    HW123672   4.718   4.440   9.496  0.3515 -0.7969 -2.1387
 4071SOL    HW223673   4.584   4.419   9.519  1.1410  0.5766  1.5576
 4072SOL     OW23674   2.150   3.581  12.746  0.8074 -0.1939  0.0098
 4072SOL    HW123675   2.154   3.486  12.735  0.2020 -0.5725  3.0544
 4072SOL    HW223676   2.241   3.607  12.759  0.3976  0.1804  2.0775
 4073SOL     OW23677   0.325   1.163   5.270 -0.1224  0.8978  0.1170
 4073SOL    HW123678   0.339   1.083   5.219  0.1768  0.8614  0.2562
 4073SOL    HW223679   0.404   1.160   5.323  0.2280  0.3132 -0.4358
 4074SOL     OW23680   0.254   2.004   8.158  0.3947 -0.3251 -0.1898
 4074SOL    HW123681   0.287   1.935   8.100 -0.7005  0.7220 -2.0536
 4074SOL    HW223682   0.169   1.971   8.184  0.7581 -0.5556  0.6893
 4075SOL     OW23683   0.235   3.947  15.682  0.2877  0.0657 -0.3013
 4075SOL    HW123684   0.206   3.989  15.763  1.5500  0.6647 -0.1661
 4075SOL    HW223685   0.243   3.854  15.702  1.6741  0.2593  0.0074
 4076SOL     OW23686   0.227   1.141   8.786  0.0064  0.2731 -0.3358
 4076SOL    HW123687   0.319   1.141   8.758  0.7193 -0.2529  2.0245
 4076SOL    HW223688   0.231   1.078   8.858 -0.2301 -0.0220 -0.5825
 4077SOL     OW23689   2.607   3.237   7.075  0.4079  0.1255  0.1714
 4077SOL    HW123690   2.635   3.146   7.078  1.0081  0.3800  1.8563
 4077SOL    HW223691   2.557   3.244   7.156 -2.7068  0.3140 -1.7261
 4078SOL     OW23692   1.984   3.509  16.372 -0.3135  0.1209 -0.0614
 4078SOL    HW123693   2.071   3.474  16.357  0.4764  1.8836  0.4466
 4078SOL    HW223694   1.960   3.461  16.452 -0.4529 -0.5666 -0.5142
 4079SOL     OW23695   2.524   1.638   5.332  0.7810 -0.3564  0.2242
 4079SOL    HW123696   2.581   1.649   5.408 -0.8766  0.8813  1.2775
 4079SOL    HW223697   2.586   1.657   5.261  0.2734  0.1897 -0.0765
 4080SOL     OW23698   1.347   2.875   4.933 -0.1590  0.0728  0.1306
 4080SOL    HW123699   1.271   2.910   4.980  0.2481  1.2459 -0.0971
 4080SOL    HW223700   1.299   2.840   4.857 -1.5062  0.4609  0.7966
 4081SOL     OW23701   4.007   2.979  13.828 -0.1514 -0.3266  0.4372
 4081SOL    HW123702   4.051   3.064  13.835  1.0257 -1.0771  1.8198
 4081SOL    HW223703   3.920   3.020  13.822 -0.1507 -0.4274 -0.3326
 4082SOL     OW23704   0.103   4.513   1.928 -0.3150 -0.0714 -0.0196
 4082SOL    HW123705   0.041   4.547   1.993 -0.6736 -2.6072  0.9499
 4082SOL    HW223706   0.189   4.527   1.969  0.2128  0.8595 -1.4616
 4083SOL     OW23707   3.134   1.585   2.892 -0.1720 -0.2667 -0.0314
 4083SOL    HW123708   3.104   1.503   2.931 -1.6505  1.0243  1.6088
 4083SOL    HW223709   3.215   1.592   2.942 -0.4119  1.6524  0.1129
 4084SOL     OW23710   4.676   4.261   3.618 -0.1463 -0.1038 -0.0388
 4084SOL    HW123711   0.028   4.213   3.583  2.2911  3.2082  0.6291
 4084SOL    HW223712   4.678   4.222   3.706 -1.2510 -0.5419 -0.2045
 4085SOL     OW23713   1.551   0.938  12.554 -0.1924  0.1087 -0.0493
 4085SOL    HW123714   1.640   0.931  12.589 -1.1709  0.5720  2.5472
 4085SOL    HW223715   1.521   0.847  12.563  0.5270  0.1623  3.0017
 4086SOL     OW23716   4.162   3.249   1.706  0.1306  0.2161 -0.2958
 4086SOL    HW123717   4.110   3.171   1.724  2.0663 -0.9846  0.0781
 4086SOL    HW223718   4.245   3.205   1.688  0.7672  0.5202  1.8452
 4087SOL     OW23719   4.608   3.727  14.496 -0.0262  0.1659  0.4690
 4087SOL    HW123720   4.608   3.698  14.404  0.7264 -0.8082  0.7687
 4087SOL    HW223721   4.514   3.723  14.515  0.1935 -2.3339  1.1461
 4088SOL     OW23722   1.018   3.600   6.159  0.3243  0.1116  0.1343
 4088SOL    HW123723   1.050   3.510   6.172 -0.4630 -0.3274 -1.0193
 4088SOL    HW223724   0.929   3.573   6.137 -0.1280  1.3412  0.5005
 4089SOL     OW23725   1.152   1.416   0.966  0.4156 -0.5871  0.2253
 4089SOL    HW123726   1.228   1.398   0.912 -1.4952 -2.8441 -1.7156
 4089SOL    HW223727   1.122   1.487   0.910 -1.5828 -2.1895 -0.7742
 4090SOL     OW23728   1.333   2.416  17.400 -0.4604  0.1764 -0.4334
 4090SOL    HW123729   1.407   2.435  17.458  0.0690 -1.0411 -0.7062
 4090SOL    HW223730   1.326   2.496  17.348  0.3133  0.1436 -0.5909
 4091SOL     OW23731   3.433   0.422   6.191 -0.0624 -0.4606 -0.1545
 4091SOL    HW123732   3.512   0.474   6.209 -1.4853  1.7897 -0.4120
 4091SOL    HW223733   3.389   0.412   6.276  0.7618  2.6696  0.6247
 4092SOL     OW23734   2.040   2.938   0.891 -0.5049 -0.2489 -0.3693
 4092SOL    HW123735   2.009   2.848   0.877 -2.5288  0.7697 -2.4575
 4092SOL    HW223736   1.957   2.983   0.872 -1.2883 -1.4917  0.0766
 4093SOL     OW23737   0.191   0.532   2.433  0.2946 -0.5758  0.3932
 4093SOL    HW123738   0.215   0.484   2.354  0.2641 -0.1465  0.1187
 4093SOL    HW223739   0.231   0.617   2.415 -0.0327 -1.2426 -3.4063
 4094SOL     OW23740   0.654   4.350   5.179  0.6981 -0.2985 -0.4425
 4094SOL    HW123741   0.746   4.337   5.156  0.8142  1.0499 -0.7138
 4094SOL    HW223742   0.661   4.365   5.273  1.3176 -1.6749 -0.2705
 4095SOL     OW23743   3.276   3.449   7.986 -0.5540 -0.1311 -0.1308
 4095SOL    HW123744   3.317   3.518   8.038 -0.5484 -0.4145  0.2412
 4095SOL    HW223745   3.316   3.459   7.900  0.1658 -1.9387 -0.0001
 4096SOL     OW23746   3.101   3.733   7.767  0.0166 -0.7845 -0.1165
 4096SOL    HW123747   3.147   3.750   7.849 -0.4333 -1.7637  0.3460
 4096SOL    HW223748   3.144   3.799   7.713 -0.3829  0.0285  0.5604
 4097SOL     OW23749   0.264   2.347   3.433  0.2492  0.0384 -0.8567
 4097SOL    HW123750   0.263   2.368   3.526 -2.1523  0.1297 -0.9045
 4097SOL    HW223751   0.285   2.430   3.391 -1.6286  0.2477 -1.4051
 4098SOL     OW23752   0.602   1.174   4.631  0.2976  0.7699  0.7852
 4098SOL    HW123753   0.520   1.222   4.640  0.5972  1.1525  1.4232
 4098SOL    HW223754   0.559   1.088   4.626  1.3696  0.1749  1.8908
 4099SOL     OW23755   0.101   3.955  14.554  0.3732 -0.1553  0.3826
 4099SOL    HW123756   0.092   3.880  14.612 -2.2532 -0.2458 -0.1492
 4099SOL    HW223757   0.029   3.947  14.492  0.0292 -0.2986  0.7996
 4100SOL     OW23758   1.096   2.959   2.305 -0.1659  0.1462 -0.1663
 4100SOL    HW123759   1.125   2.868   2.305 -0.1475  0.1531 -0.4438
 4100SOL    HW223760   1.111   2.979   2.213 -0.1957  1.7971  0.1759
 4101SOL     OW23761   0.211   4.425   8.749 -0.3380  0.2427  0.6857
 4101SOL    HW123762   0.305   4.411   8.767  0.1076  3.0681  0.5223
 4101SOL    HW223763   0.194   4.513   8.781 -3.4536 -0.2469  0.3200
 4102SOL     OW23764   1.801   4.239   7.427  0.5073  0.0997  0.3445
 4102SOL    HW123765   1.729   4.292   7.461 -0.1712 -0.3789 -0.3398
 4102SOL    HW223766   1.757   4.194   7.354  4.2237  0.2221 -1.9933
 4103SOL     OW23767   4.350   0.102  12.244 -0.0336  0.5787 -0.0333
 4103SOL    HW123768   4.323   0.012  12.255  0.3079  0.4889  0.0738
 4103SOL    HW223769   4.374   0.127  12.333  0.8270 -1.3994  0.2683
 4104SOL     OW23770   3.193   0.772   8.059  0.1706 -0.0563 -0.1416
 4104SOL    HW123771   3.221   0.861   8.036  2.7756 -1.1894 -1.3410
 4104SOL    HW223772   3.166   0.802   8.145 -1.4354  0.3859 -0.8013
 4105SOL     OW23773   0.414   2.611   3.625  0.1781  0.1850 -0.2114
 4105SOL    HW123774   0.328   2.636   3.593  0.5392 -0.4688 -1.6655
 4105SOL    HW223775   0.403   2.519   3.649 -2.3476  0.4215 -0.4743
 4106SOL     OW23776   3.672   1.087   4.551  0.0170  0.0164 -0.5363
 4106SOL    HW123777   3.604   1.049   4.607  0.3980  0.2948  0.1099
 4106SOL    HW223778   3.735   1.016   4.541 -2.4252 -2.2115 -0.2544
 4107SOL     OW23779   1.770   1.774   3.841 -0.3039 -0.4955  0.6940
 4107SOL    HW123780   1.781   1.826   3.921 -0.8428 -0.0681  0.4869
 4107SOL    HW223781   1.678   1.748   3.847 -0.4239 -0.3826 -0.6421
 4108SOL     OW23782   2.099   1.449   3.433 -0.4736  0.5344 -0.1455
 4108SOL    HW123783   2.163   1.495   3.486  3.1899  0.4350 -4.4461
 4108SOL    HW223784   2.151   1.374   3.405 -0.3853  0.5676 -0.0712
 4109SOL     OW23785   4.205   3.974   6.839 -0.3088 -0.3218 -0.3545
 4109SOL    HW123786   4.169   3.967   6.751 -2.7170  0.2739  0.5723
 4109SOL    HW223787   4.145   4.033   6.884  2.4806  2.3438 -0.1140
 4110SOL     OW23788   3.085   1.335  16.304 -0.2618 -0.4220 -0.0882
 4110SOL    HW123789   3.150   1.402  16.281 -0.2940 -0.3930 -0.0958
 4110SOL    HW223790   3.122   1.261  16.255 -3.1967 -1.8395 -0.1402
 4111SOL     OW23791   0.235   2.786   1.810 -0.0072  0.4886  0.1799
 4111SOL    HW123792   0.229   2.735   1.891 -0.0992 -0.4580 -0.4204
 4111SOL    HW223793   0.140   2.796   1.797 -0.5345 -0.8983  2.9683
 4112SOL     OW23794   1.731   0.071   5.084 -0.1415 -1.0022 -0.1270
 4112SOL    HW123795   1.684   4.711   5.096 -0.3565 -0.8826 -0.1433
 4112SOL    HW223796   1.810   0.053   5.135  0.0289 -0.8397 -0.3330
 4113SOL     OW23797   1.804   0.059   6.965 -0.2908  0.0697 -0.2851
 4113SOL    HW123798   1.862   4.714   7.001 -0.1019  0.1861 -0.3680
 4113SOL    HW223799   1.746   0.079   7.038 -0.8553  1.9442 -1.2653
 4114SOL     OW23800   1.107   0.903  17.197 -1.0511 -0.0638 -0.0847
 4114SOL    HW123801   1.123   0.932  17.287  1.2049  1.2051 -0.8646
 4114SOL    HW223802   1.142   0.977  17.147 -0.9693  0.1040  0.2177
 4115SOL     OW23803   1.020   0.358  10.463 -0.1243  0.3451 -0.0066
 4115SOL    HW123804   0.933   0.337  10.499  0.0825 -0.3749  0.0801
 4115SOL    HW223805   1.017   0.450  10.438  2.4850  0.2694 -0.5829
 4116SOL     OW23806   4.007   1.495   9.219  0.9271 -0.2368  0.7326
 4116SOL    HW123807   4.013   1.404   9.192  2.1100  0.7975 -2.4691
 4116SOL    HW223808   4.091   1.507   9.262 -0.2278  0.9374  2.6777
 4117SOL     OW23809   2.839   2.076   6.683 -0.2833 -0.0268  0.1310
 4117SOL    HW123810   2.842   2.060   6.589  0.2905  0.5462  0.0528
 4117SOL    HW223811   2.812   1.987   6.708 -0.3798  0.1130  0.5241
 4118SOL     OW23812   4.513   2.940   6.602  0.1951  0.4631 -0.0287
 4118SOL    HW123813   4.427   2.981   6.612 -0.5171 -0.5396 -2.0424
 4118SOL    HW223814   4.545   2.999   6.670 -0.0282  1.4101 -0.7467
 4119SOL     OW23815   3.449   1.521   9.787  0.0318 -0.6646 -0.0937
 4119SOL    HW123816   3.479   1.470   9.712  3.4684 -1.5845  1.9319
 4119SOL    HW223817   3.530   1.568   9.806 -1.1238  0.8306  1.1585
 4120SOL     OW23818   0.931   1.536   9.530  0.3806 -0.3204 -0.0669
 4120SOL    HW123819   0.945   1.449   9.494 -1.8641 -1.2761  1.3579
 4120SOL    HW223820   0.936   1.588   9.449  1.1989 -2.1178 -1.1685
 4121SOL     OW23821   0.783   2.776   5.656  0.5204  0.4672  0.4786
 4121SOL    HW123822   0.774   2.731   5.740 -1.8805 -0.4019 -0.2548
 4121SOL    HW223823   0.763   2.700   5.602 -1.6327  2.2491 -1.2311
 4122SOL     OW23824   1.439   0.391   9.168 -0.1323 -0.6422 -0.2211
 4122SOL    HW123825   1.347   0.416   9.175  0.0287  0.1896 -1.2280
 4122SOL    HW223826   1.478   0.476   9.187 -0.0950 -0.4623 -1.1365
 4123SOL     OW23827   1.471   2.326   5.273  0.2606 -0.5965 -0.8940
 4123SOL    HW123828   1.489   2.232   5.280  0.7365 -0.3905  0.6231
 4123SOL    HW223829   1.378   2.322   5.297  0.3785  1.0461 -0.1952
 4124SOL     OW23830   1.211   3.282   8.562  0.2869  0.3771  0.6411
 4124SOL    HW123831   1.304   3.300   8.554  0.8387 -1.6897  2.3977
 4124SOL    HW223832   1.211   3.229   8.642  1.9318 -2.5133 -1.2487
 4125SOL     OW23833   3.754   1.938  15.115  0.3389  0.1070  0.4138
 4125SOL    HW123834   3.776   1.909  15.026 -1.0950 -0.2254  0.1683
 4125SOL    HW223835   3.838   1.960  15.154  0.1337  0.4870  0.6430
 4126SOL     OW23836   4.443   4.383   2.280  0.7707  0.0410 -0.1585
 4126SOL    HW123837   4.525   4.424   2.308  0.0094  0.4178  1.5210
 4126SOL    HW223838   4.383   4.451   2.308  0.0924 -0.5922 -0.0809
 4127SOL     OW23839   1.226   2.367   8.300  0.1720  0.6178  0.3341
 4127SOL    HW123840   1.313   2.403   8.318  1.3880 -2.1826  0.1111
 4127SOL    HW223841   1.178   2.428   8.355  0.9249  1.8107 -0.3438
 4128SOL     OW23842   1.253   2.882   1.455  0.8704  0.2656 -0.0012
 4128SOL    HW123843   1.196   2.903   1.381 -1.8105 -3.7779  0.9320
 4128SOL    HW223844   1.198   2.916   1.526  0.1902 -0.3950 -0.2132
 4129SOL     OW23845   3.484   0.287   2.110 -0.2644  0.1757  0.7189
 4129SOL    HW123846   3.400   0.321   2.140 -0.1005  0.9096  0.3440
 4129SOL    HW223847   3.548   0.349   2.146  0.5206 -0.1270 -0.1558
 4130SOL     OW23848   3.270   4.092   5.772 -0.5136 -0.4471 -0.4120
 4130SOL    HW123849   3.207   4.145   5.723  1.4828  1.8629 -0.4544
 4130SOL    HW223850   3.306   4.063   5.688  0.1645  2.7037 -1.2304
 4131SOL     OW23851   0.407   4.021   1.813  0.1530  0.0248 -0.1256
 4131SOL    HW123852   0.321   3.978   1.816  0.1138  0.2394  2.0369
 4131SOL    HW223853   0.449   3.935   1.810  1.7800  0.8614 -1.1378
 4132SOL     OW23854   2.811   3.160   0.108 -0.2857 -0.0374 -0.1432
 4132SOL    HW123855   2.905   3.162   0.094  0.1443 -0.0024  2.7340
 4132SOL    HW223856   2.805   3.208   0.191 -0.9043  0.0077 -0.2094
 4133SOL     OW23857   4.559   3.347   7.874  0.2307  0.0151 -0.1039
 4133SOL    HW123858   4.488   3.288   7.900  0.8882 -1.9531 -2.7829
 4133SOL    HW223859   4.615   3.348   7.951 -0.1043 -2.2927  0.1519
 4134SOL     OW23860   1.391   2.028   3.500 -0.6425  0.1248  0.3175
 4134SOL    HW123861   1.392   2.078   3.582 -1.4126  2.2138 -0.9203
 4134SOL    HW223862   1.468   2.060   3.452 -0.8078 -1.6871 -1.1336
 4135SOL     OW23863   3.944   1.355   4.251  0.6731 -0.0366  1.2464
 4135SOL    HW123864   3.991   1.275   4.227 -0.3296 -0.0879 -0.5513
 4135SOL    HW223865   3.960   1.339   4.344  2.0461 -1.9946  0.6704
 4136SOL     OW23866   3.695   1.981   5.863  0.0663  0.4863  0.2299
 4136SOL    HW123867   3.643   1.902   5.852 -1.7380  1.9341 -1.7178
 4136SOL    HW223868   3.722   1.972   5.954  1.4344 -1.6928 -0.4092
 4137SOL     OW23869   0.400   0.874   3.147 -0.0237 -0.7928  0.1666
 4137SOL    HW123870   0.420   0.946   3.207  0.8362  0.1124 -1.2146
 4137SOL    HW223871   0.487   0.847   3.118  0.3443 -0.4704  0.9625
 4138SOL     OW23872   2.547   0.228   1.302  0.1261  0.5149  0.6852
 4138SOL    HW123873   2.511   0.266   1.382  0.4513  0.2624  0.9470
 4138SOL    HW223874   2.637   0.257   1.312  0.8822 -1.1919 -1.3227
 4139SOL     OW23875   4.069   3.157   5.870  0.2874  1.2646  0.1226
 4139SOL    HW123876   3.979   3.127   5.878  0.5836 -0.2043 -1.9307
 4139SOL    HW223877   4.104   3.128   5.954 -1.6707  0.2085  0.5490
 4140SOL     OW23878   0.014   4.423  17.343  0.0512  0.1777 -0.2285
 4140SOL    HW123879   4.695   4.431  17.428 -1.9896  0.3553 -1.2348
 4140SOL    HW223880   0.080   4.360  17.372 -1.0211  0.4299  2.7543
 4141SOL     OW23881   2.522   0.673   1.187  0.1095  0.5259  0.2909
 4141SOL    HW123882   2.454   0.639   1.245 -1.0762 -1.8471 -2.4376
 4141SOL    HW223883   2.596   0.654   1.244 -0.0779  0.4710  0.5143
 4142SOL     OW23884   3.761   1.232   9.177 -0.1655 -0.2661 -0.2038
 4142SOL    HW123885   3.850   1.256   9.152  0.6680 -1.7902  1.2779
 4142SOL    HW223886   3.775   1.194   9.264 -1.3750  0.0721  0.1418
 4143SOL     OW23887   2.023   2.148   4.370 -0.0309  0.1554 -0.6065
 4143SOL    HW123888   2.065   2.128   4.286  0.6497 -0.2465 -0.1718
 4143SOL    HW223889   2.047   2.238   4.391  0.7721 -0.3491  0.6713
 4144SOL     OW23890   0.518   3.984   6.775 -0.1997  0.2117 -0.3373
 4144SOL    HW123891   0.509   3.951   6.864  3.7343  0.0966  0.0045
 4144SOL    HW223892   0.465   3.924   6.723  2.1415 -2.0904 -0.0429
 4145SOL     OW23893   1.607   2.838   2.089  0.6019  0.7427  0.0692
 4145SOL    HW123894   1.681   2.879   2.045  2.2358 -1.2739  0.9246
 4145SOL    HW223895   1.565   2.805   2.010 -0.1489 -0.8429  1.1301
 4146SOL     OW23896   1.757   0.191   5.771  0.3262  0.5200  0.2369
 4146SOL    HW123897   1.707   0.216   5.849 -0.8037  0.2974 -0.4166
 4146SOL    HW223898   1.697   0.127   5.733 -0.4356  0.8596  0.8687
 4147SOL     OW23899   1.248   3.448  15.917  0.2121  0.3957 -0.0744
 4147SOL    HW123900   1.260   3.513  15.987  2.5635  1.3721 -1.4214
 4147SOL    HW223901   1.157   3.459  15.888 -0.6258  1.9624  3.0965
 4148SOL     OW23902   3.081   0.041  12.606  0.4754 -0.1353  0.8031
 4148SOL    HW123903   3.127   0.103  12.663 -1.0817 -0.6854  2.6429
 4148SOL    HW223904   3.158   4.710  12.590 -1.1785 -2.2828  0.0100
 4149SOL     OW23905   4.142   2.104  17.028 -0.0499  0.2120  0.1087
 4149SOL    HW123906   4.222   2.099  16.976  0.7001  2.0486  1.0912
 4149SOL    HW223907   4.151   2.017  17.069  3.4760 -1.8210 -4.9177
 4150SOL     OW23908   3.563   3.187   5.356 -0.2953 -0.3919  0.2589
 4150SOL    HW123909   3.512   3.267   5.344 -0.1707 -0.3035  0.3250
 4150SOL    HW223910   3.558   3.140   5.273 -0.6891 -0.3986  0.2855
 4151SOL     OW23911   0.300   3.744  11.674  0.1420  0.0359 -0.2125
 4151SOL    HW123912   0.259   3.805  11.613 -0.9464 -0.1653  0.3291
 4151SOL    HW223913   0.369   3.795  11.717 -0.9963 -0.2274  1.9236
 4152SOL     OW23914   2.622   2.203   5.106 -0.0876  0.1428  0.3479
 4152SOL    HW123915   2.582   2.271   5.053  2.3204  1.2060 -0.0815
 4152SOL    HW223916   2.599   2.122   5.059 -0.2339 -0.1586  0.9277
 4153SOL     OW23917   3.459   0.411  14.248  0.1539  0.1653  0.0280
 4153SOL    HW123918   3.461   0.380  14.338 -1.5655  0.7394  0.2676
 4153SOL    HW223919   3.453   0.325  14.205  1.0858 -0.0036  0.2390
 4154SOL     OW23920   0.827   3.120   1.364  0.8956  0.3014 -0.2259
 4154SOL    HW123921   0.786   3.160   1.441 -1.4423 -2.8324  0.1610
 4154SOL    HW223922   0.766   3.142   1.294 -0.8267  1.4968  1.6384
 4155SOL     OW23923   4.495   0.279   4.999  0.4346  0.1563 -0.4617
 4155SOL    HW123924   4.460   0.323   4.922  0.5519 -2.2435 -1.9034
 4155SOL    HW223925   4.538   0.353   5.041  0.4224  0.0702 -0.2952
 4156SOL     OW23926   1.929   2.923   8.205  0.2082  0.0187 -0.2641
 4156SOL    HW123927   1.868   2.979   8.159  0.8865 -0.3695 -1.6438
 4156SOL    HW223928   1.871   2.856   8.240  1.7536 -1.1771  0.0300
 4157SOL     OW23929   3.940   4.424  16.507 -0.2766  0.3148 -0.4419
 4157SOL    HW123930   3.990   4.447  16.429 -1.6677  2.3362 -0.7391
 4157SOL    HW223931   3.983   4.355  16.558 -2.0580 -1.9498 -2.0007
 4158SOL     OW23932   0.649   0.057   9.269 -0.2372  0.0867  0.3251
 4158SOL    HW123933   0.597   0.069   9.349  0.2244  0.3689  0.5799
 4158SOL    HW223934   0.667   0.148   9.248 -1.5867  0.6055  1.4765
 4159SOL     OW23935   0.965   0.088   2.400 -0.4195  0.2104  0.5767
 4159SOL    HW123936   1.010   0.004   2.406 -1.4962 -0.4117  0.0328
 4159SOL    HW223937   0.880   0.078   2.444 -0.1232  1.2502  1.4110
 4160SOL     OW23938   0.639   1.771   7.583 -0.1989  0.3239  0.2266
 4160SOL    HW123939   0.733   1.783   7.596  0.3104 -0.1460 -3.1301
 4160SOL    HW223940   0.634   1.727   7.499  0.3608 -1.3051  1.0583
 4161SOL     OW23941   3.154   1.562  14.335  0.1630 -0.6817  0.0562
 4161SOL    HW123942   3.197   1.583  14.418  0.3854  2.0713 -0.7399
 4161SOL    HW223943   3.133   1.470  14.351 -0.9714 -0.8025 -2.2102
 4162SOL     OW23944   0.942   1.805   7.643  0.1158 -0.0625  0.6022
 4162SOL    HW123945   0.966   1.755   7.566 -0.3377 -1.8651  1.6272
 4162SOL    HW223946   0.936   1.742   7.715 -1.1462  0.0176  0.5734
 4163SOL     OW23947   2.605   3.721   7.224 -0.0100 -0.3137 -0.1688
 4163SOL    HW123948   2.665   3.646   7.217  0.5523  0.1501 -0.2741
 4163SOL    HW223949   2.572   3.722   7.313  0.0152 -0.8334 -0.1490
 4164SOL     OW23950   1.493   4.484  12.116  0.5050  0.6631 -0.2376
 4164SOL    HW123951   1.449   4.408  12.153  1.7851 -0.2555 -0.6065
 4164SOL    HW223952   1.576   4.478  12.163  0.4380  0.9873 -0.0777
 4165SOL     OW23953   2.329   0.725  17.304  0.3180 -0.2255 -0.1868
 4165SOL    HW123954   2.310   0.639  17.265 -0.7363  1.0663 -2.5133
 4165SOL    HW223955   2.286   0.783  17.242  1.5288 -1.5773 -2.2803
 4166SOL     OW23956   3.009   3.896   6.515  0.2080 -0.2246  0.3917
 4166SOL    HW123957   3.004   3.892   6.610  1.9549  0.1458  0.5024
 4166SOL    HW223958   2.948   3.969   6.499  0.0280 -0.3740  0.3939
 4167SOL     OW23959   1.136   2.056   3.819 -0.8948  0.4102  0.0184
 4167SOL    HW123960   1.086   2.072   3.739 -0.7009  2.1312  0.2437
 4167SOL    HW223961   1.138   1.960   3.813 -0.9181  0.3910  0.3156
 4168SOL     OW23962   4.118   3.630   9.253 -0.2757  0.1246 -0.2486
 4168SOL    HW123963   4.191   3.680   9.290 -2.4000  2.9510  0.1504
 4168SOL    HW223964   4.125   3.546   9.298 -0.3703 -0.4403 -1.2897
 4169SOL     OW23965   1.004   1.264  14.500 -0.2486  0.0955  0.5933
 4169SOL    HW123966   1.009   1.321  14.423 -0.5656 -0.4112  0.1996
 4169SOL    HW223967   1.088   1.219  14.496 -0.4688 -0.2409 -0.3221
 4170SOL     OW23968   2.082   4.298  11.221  0.3270  0.0147 -0.7858
 4170SOL    HW123969   2.044   4.255  11.298 -0.8701  1.7192 -0.4330
 4170SOL    HW223970   2.047   4.387  11.229 -0.4694 -0.3427 -0.1504
 4171SOL     OW23971   1.359   4.069   8.638  0.1518 -0.4895  0.3597
 4171SOL    HW123972   1.341   4.161   8.619  1.8123  0.2197  2.2384
 4171SOL    HW223973   1.439   4.052   8.589 -0.8402  0.1586 -1.4840
 4172SOL     OW23974   1.709   1.056   3.145  0.3454 -0.0269  0.0740
 4172SOL    HW123975   1.799   1.087   3.142  0.4635 -0.4585 -0.9617
 4172SOL    HW223976   1.670   1.113   3.211 -0.2330  0.8253 -1.0109
 4173SOL     OW23977   0.915   3.529   8.791 -0.3635 -0.1134 -0.4230
 4173SOL    HW123978   0.999   3.574   8.802 -1.0245  0.8784  0.5654
 4173SOL    HW223979   0.862   3.598   8.830  3.3567  1.5319  1.6926
 4174SOL     OW23980   2.891   0.992   4.284 -0.3867 -0.0211  0.1150
 4174SOL    HW123981   2.955   0.962   4.219  1.1751  0.0011  1.6214
 4174SOL    HW223982   2.881   1.085   4.265  1.7944  0.1439 -0.2676
 4175SOL     OW23983   0.179   1.710   3.617  0.2865 -0.9630 -0.2198
 4175SOL    HW123984   0.186   1.629   3.566  0.0648 -0.5019 -0.9796
 4175SOL    HW223985   0.231   1.766   3.558 -1.0804  1.1634  0.6143
 4176SOL     OW23986   2.029   2.253   5.287  0.8446 -0.0961  0.1539
 4176SOL    HW123987   2.014   2.259   5.381  0.3892 -2.5530  0.2523
 4176SOL    HW223988   2.016   2.344   5.262  1.8342 -0.1672 -0.6170
 4177SOL     OW23989   1.198   1.743   2.687 -0.2239 -0.2279 -0.3608
 4177SOL    HW123990   1.216   1.677   2.754  0.7646 -0.7678 -1.1542
 4177SOL    HW223991   1.142   1.695   2.626  0.0642 -1.4063  0.3001
 4178SOL     OW23992   1.621   2.810   6.902 -0.5355  0.1083  0.2813
 4178SOL    HW123993   1.643   2.779   6.813 -0.1083  0.1878  0.3578
 4178SOL    HW223994   1.699   2.864   6.914 -0.9957  1.0558 -0.9959
 4179SOL     OW23995   2.774   2.150   1.618 -0.4380 -0.7897 -0.1420
 4179SOL    HW123996   2.783   2.212   1.546  1.7432 -1.2742 -0.2821
 4179SOL    HW223997   2.714   2.200   1.672 -1.4561 -1.6607 -0.4607
 4180SOL     OW23998   3.043   1.831   7.162 -0.1486 -0.1545  0.6989
 4180SOL    HW123999   2.998   1.864   7.240 -1.3609  1.1276 -0.5404
 4180SOL    HW224000   3.030   1.737   7.177  2.7250 -0.5305  0.8942
 4181SOL     OW24001   4.495   0.835   2.974  0.2167 -0.2788  0.7067
 4181SOL    HW124002   4.586   0.821   2.950  0.3212 -0.8717  1.4633
 4181SOL    HW224003   4.484   0.920   2.931  0.9394 -1.3833 -1.6944
 4182SOL     OW24004   0.898   4.384   7.408  0.2582  0.1637  0.3918
 4182SOL    HW124005   0.965   4.393   7.341  0.2712  0.4667  0.4468
 4182SOL    HW224006   0.935   4.454   7.462 -0.1057  0.4900  0.2174
 4183SOL     OW24007   3.584   2.959   5.814 -0.2481 -0.0631 -0.0555
 4183SOL    HW124008   3.499   2.917   5.826 -1.3572  1.9244 -1.1468
 4183SOL    HW224009   3.591   2.955   5.719 -1.0930 -1.2465 -0.0713
 4184SOL     OW24010   1.188   0.034   9.398  0.2921  0.7129  0.0147
 4184SOL    HW124011   1.253   0.103   9.406 -0.1852  0.8101  2.9835
 4184SOL    HW224012   1.210   4.695   9.468  0.0250  0.4699 -0.1102
 4185SOL     OW24013   0.719   2.404   4.323 -0.3456 -0.3930  0.4842
 4185SOL    HW124014   0.744   2.496   4.329  1.2182 -0.7143 -0.7841
 4185SOL    HW224015   0.741   2.385   4.232 -0.0548  2.0622  0.0503
 4186SOL     OW24016   3.475   2.995  17.518  0.0038 -0.8061  0.0042
 4186SOL    HW124017   3.535   2.922  17.504  1.1198 -0.1997  1.6382
 4186SOL    HW224018   3.438   3.022  17.433 -1.1696 -2.0778  0.1127
 4187SOL     OW24019   3.082   0.282  15.511 -0.4100 -0.0172 -0.3763
 4187SOL    HW124020   3.162   0.331  15.490  0.4649 -1.1441  0.3075
 4187SOL    HW224021   3.110   0.251  15.597 -0.5522  0.5013 -0.1456
 4188SOL     OW24022   3.481   3.077  12.528  0.0298  0.0503  0.5499
 4188SOL    HW124023   3.554   3.139  12.519 -0.4525  0.4981 -0.2483
 4188SOL    HW224024   3.522   2.995  12.500  2.8129  3.1576 -4.5871
 4189SOL     OW24025   2.402   3.382   4.300  0.5852 -0.3534 -0.3097
 4189SOL    HW124026   2.335   3.346   4.358  0.3915  2.1924  1.0277
 4189SOL    HW224027   2.480   3.370   4.355  1.1995  2.5691 -0.5652
 4190SOL     OW24028   3.018   0.072   1.295  0.2012 -0.1742  0.3497
 4190SOL    HW124029   2.948   0.055   1.231  1.1401  1.4090 -1.0805
 4190SOL    HW224030   3.084   0.117   1.243 -2.1316  1.8167 -0.8966
 4191SOL     OW24031   2.031   3.854   3.194 -0.7747  0.4926  0.2101
 4191SOL    HW124032   1.977   3.792   3.244 -0.9954  0.5634  0.0581
 4191SOL    HW224033   2.106   3.835   3.251  0.8569  0.4665 -1.9275
 4192SOL     OW24034   0.273   1.454  11.019 -0.2938 -0.4571  0.0018
 4192SOL    HW124035   0.335   1.512  11.063  0.7028 -2.7142  1.5651
 4192SOL    HW224036   0.339   1.405  10.970 -0.3356  0.2013 -0.7141
 4193SOL     OW24037   3.724   3.740   6.106 -0.4195  0.4154  0.0565
 4193SOL    HW124038   3.802   3.709   6.059 -0.3891  2.2292 -1.0587
 4193SOL    HW224039   3.670   3.664   6.087  0.4777  0.2811 -1.9276
 4194SOL     OW24040   2.333   3.436   5.644  0.5419  0.0489 -0.1800
 4194SOL    HW124041   2.423   3.461   5.623  0.3115  0.4384 -0.7007
 4194SOL    HW224042   2.286   3.483   5.575  1.3637  0.1527 -0.6672
 4195SOL     OW24043   2.137   0.465   9.123  0.1216 -0.1069  0.4009
 4195SOL    HW124044   2.083   0.531   9.167  1.6381 -0.2878  2.5207
 4195SOL    HW224045   2.225   0.486   9.151 -0.5963 -0.2923  2.7649
 4196SOL     OW24046   0.761   2.676   5.910 -0.0615  0.4070 -0.4390
 4196SOL    HW124047   0.832   2.680   5.974  0.0660 -2.2896 -0.4151
 4196SOL    HW224048   0.703   2.623   5.965 -0.1240  0.5020 -0.4117
 4197SOL     OW24049   3.987   1.860   1.689  0.1346 -0.5436 -0.5164
 4197SOL    HW124050   3.915   1.867   1.626  0.0417  1.3761 -0.2030
 4197SOL    HW224051   3.954   1.916   1.760  1.2133  0.1083 -0.5305
 4198SOL     OW24052   1.217   0.660   2.547  0.3932 -0.2267 -0.2917
 4198SOL    HW124053   1.132   0.652   2.503 -0.8227 -1.5056  2.2235
 4198SOL    HW224054   1.274   0.692   2.478 -0.6406 -2.6877 -2.2648
 4199SOL     OW24055   1.708   0.907   5.233 -0.0594 -0.2362  0.3691
 4199SOL    HW124056   1.632   0.964   5.224  0.6183  0.6156 -0.0152
 4199SOL    HW224057   1.696   0.884   5.325  1.3358 -1.3109  0.2768
 4200SOL     OW24058   1.641   3.664  14.748 -0.3124 -0.1830 -0.2051
 4200SOL    HW124059   1.592   3.657  14.666 -0.5666  2.5628 -0.2954
 4200SOL    HW224060   1.726   3.633  14.717  0.4444  0.5786  1.1123
 4201SOL     OW24061   1.337   1.782   5.368  0.2411 -0.8792  0.3167
 4201SOL    HW124062   1.383   1.805   5.287 -2.2559 -0.5829 -1.0004
 4201SOL    HW224063   1.299   1.699   5.340 -0.7320  0.3157 -1.8570
 4202SOL     OW24064   0.327   1.870   8.833  0.5869  0.7456  0.7765
 4202SOL    HW124065   0.276   1.866   8.752  1.5629  1.2538  0.1424
 4202SOL    HW224066   0.314   1.777   8.851 -0.2751  0.9264  1.0780
 4203SOL     OW24067   2.330   3.593   8.229 -0.2127  0.5382  0.3655
 4203SOL    HW124068   2.350   3.555   8.315 -0.4088  2.2458  1.1829
 4203SOL    HW224069   2.292   3.679   8.251 -0.9059  0.3638 -0.1551
 4204SOL     OW24070   4.140   2.348  14.315 -0.0974  0.3187 -0.5913
 4204SOL    HW124071   4.116   2.422  14.370  2.0953 -1.1513  2.3333
 4204SOL    HW224072   4.208   2.389  14.261  0.7333 -0.7220 -0.3512
 4205SOL     OW24073   1.090   0.507  12.324  0.3474  0.0409  0.4274
 4205SOL    HW124074   1.109   0.590  12.280  0.7082  0.1526  0.7843
 4205SOL    HW224075   1.033   0.540  12.393  0.2354 -0.9584  0.8132
 4206SOL     OW24076   2.599   1.821   0.265  0.4031 -0.6784 -0.2296
 4206SOL    HW124077   2.571   1.896   0.317  0.2015 -0.3417 -0.8303
 4206SOL    HW224078   2.555   1.742   0.296  0.8353 -1.5012 -1.7373
 4207SOL     OW24079   2.621   3.609   8.926  0.2307 -0.1894  0.2446
 4207SOL    HW124080   2.655   3.537   8.874 -0.9576  2.6900 -4.4836
 4207SOL    HW224081   2.642   3.690   8.879 -0.9272 -0.5309 -0.8539
 4208SOL     OW24082   3.338   2.948  12.189 -0.5127  0.1851 -0.1138
 4208SOL    HW124083   3.274   2.916  12.125  0.9276 -0.9619 -0.9770
 4208SOL    HW224084   3.394   2.871  12.196  0.7697  1.0742 -0.5308
 4209SOL     OW24085   3.151   1.158   4.177 -0.0573  0.1976 -0.2961
 4209SOL    HW124086   3.074   1.206   4.208  0.5580  0.7829  0.3193
 4209SOL    HW224087   3.165   1.186   4.086 -1.6299 -2.7318 -1.4295
 4210SOL     OW24088   0.876   1.754   5.297  0.2388 -0.1871  0.1091
 4210SOL    HW124089   0.915   1.668   5.311 -0.8198 -0.9330 -1.5401
 4210SOL    HW224090   0.940   1.813   5.338  0.8364 -0.5098 -0.3647
 4211SOL     OW24091   1.730   3.727   4.149 -0.2562 -0.0065  0.1638
 4211SOL    HW124092   1.745   3.708   4.242 -0.0028  0.4624  0.2223
 4211SOL    HW224093   1.816   3.713   4.108 -1.0729  1.0006 -1.8738
 4212SOL     OW24094   4.300   1.014   8.946  0.0590 -0.1857  0.4013
 4212SOL    HW124095   4.311   1.108   8.964  0.4607 -0.2225  0.3559
 4212SOL    HW224096   4.320   0.980   9.034  0.5940  1.1875  0.8255
 4213SOL     OW24097   3.582   4.294   5.070  0.8745 -0.2441 -0.0156
 4213SOL    HW124098   3.670   4.257   5.062  1.6678  1.8666 -1.2253
 4213SOL    HW224099   3.549   4.289   4.981 -0.5332  0.1713  0.4801
 4214SOL     OW24100   2.489   4.550   1.871  0.1434 -0.0562 -0.0143
 4214SOL    HW124101   2.497   4.562   1.966  0.6934 -0.2559 -0.0393
 4214SOL    HW224102   2.393   4.544   1.876  0.2798 -1.9169  0.3333
 4215SOL     OW24103   1.391   2.081  11.958 -0.1233  0.0997 -0.0913
 4215SOL    HW124104   1.432   2.018  12.017 -2.1994  1.1871  2.5217
 4215SOL    HW224105   1.297   2.083  11.977  0.1147  0.1298  1.1241
 4216SOL     OW24106   0.450   1.703   3.506  0.1075  0.3947 -0.5453
 4216SOL    HW124107   0.532   1.748   3.486  0.5445 -0.4287 -0.6080
 4216SOL    HW224108   0.422   1.664   3.423  1.9141 -1.8807 -0.0686
 4217SOL     OW24109   3.877   1.357   7.754  0.2527  0.3308 -0.9030
 4217SOL    HW124110   3.860   1.263   7.762 -1.7240  0.6598 -1.2119
 4217SOL    HW224111   3.794   1.385   7.716 -0.9426 -3.1761 -0.9068
 4218SOL     OW24112   3.049   3.219  12.544 -0.2439  0.4334 -0.9540
 4218SOL    HW124113   3.109   3.155  12.508 -0.6471 -0.3598 -0.2047
 4218SOL    HW224114   3.069   3.201  12.635  0.7493  2.6161 -0.7401
 4219SOL     OW24115   3.243   1.223   3.321 -0.1477  0.0828  0.1748
 4219SOL    HW124116   3.328   1.221   3.363  1.1467  2.2446 -2.3364
 4219SOL    HW224117   3.275   1.199   3.234  1.5190  2.3902  0.1498
 4220SOL     OW24118   1.189   3.413   7.379 -0.0566 -0.2478 -0.4135
 4220SOL    HW124119   1.253   3.342   7.370  0.3453 -0.1428  1.5773
 4220SOL    HW224120   1.234   3.483   7.333  0.1620 -0.1487 -0.0486
 4221SOL     OW24121   2.039   2.173   5.027 -0.2341 -0.1664  0.5944
 4221SOL    HW124122   2.035   2.190   5.121  0.2448  0.8794  0.4252
 4221SOL    HW224123   2.128   2.146   5.005 -0.4853 -0.6944  0.2117
 4222SOL     OW24124   2.061   2.920   8.841 -0.5147 -0.3216  0.4114
 4222SOL    HW124125   2.153   2.893   8.847 -0.3002  0.5985  1.2985
 4222SOL    HW224126   2.063   2.977   8.764  0.6408  1.0969  1.4757
 4223SOL     OW24127   0.216   2.781   2.330 -0.1473 -0.0587 -0.5209
 4223SOL    HW124128   0.188   2.869   2.356 -1.5109 -0.9747  1.1179
 4223SOL    HW224129   0.292   2.776   2.389 -0.1167  1.3767 -0.4165
 4224SOL     OW24130   2.472   4.602  14.715 -0.0219  0.3820  0.6307
 4224SOL    HW124131   2.454   4.693  14.736  1.8120  1.1187 -0.9609
 4224SOL    HW224132   2.502   4.607  14.624  0.8158  0.8766  0.9401
 4225SOL     OW24133   0.329   2.518   1.466 -0.4014  0.2231 -0.0025
 4225SOL    HW124134   0.399   2.467   1.426 -1.2901 -2.0697  1.3809
 4225SOL    HW224135   0.369   2.540   1.551  0.8595  3.5634 -1.4714
 4226SOL     OW24136   2.168   4.391  13.498 -0.3298 -0.0214  0.5953
 4226SOL    HW124137   2.164   4.400  13.594 -1.5189  0.6122  0.4926
 4226SOL    HW224138   2.201   4.302  13.491  2.8754  1.1426  1.2154
 4227SOL     OW24139   1.532   2.234  11.754 -0.3468 -0.3278  0.0431
 4227SOL    HW124140   1.471   2.216  11.683  0.0144 -0.9637 -0.1033
 4227SOL    HW224141   1.486   2.213  11.836 -0.9947  1.0179  0.0246
 4228SOL     OW24142   0.855   0.569   2.136 -0.2785  0.7818 -0.3859
 4228SOL    HW124143   0.919   0.587   2.204  1.3721 -2.6708 -0.9838
 4228SOL    HW224144   0.885   0.483   2.106 -0.3107  0.0212  1.7557
 4229SOL     OW24145   4.026   3.569  15.264 -0.1557  0.3066  0.1527
 4229SOL    HW124146   3.951   3.512  15.278  1.5276 -2.0748 -0.6703
 4229SOL    HW224147   4.058   3.587  15.353  1.7331  0.2617 -0.5119
 4230SOL     OW24148   0.281   2.773   0.818 -0.4245 -0.3961 -0.0419
 4230SOL    HW124149   0.205   2.826   0.794 -0.0635  0.4132  0.6210
 4230SOL    HW224150   0.300   2.721   0.740 -1.6239  1.3131 -1.4869
 4231SOL     OW24151   1.424   3.646   3.232  0.0768 -0.4499  0.0765
 4231SOL    HW124152   1.427   3.553   3.209  1.4567  0.0237 -1.6567
 4231SOL    HW224153   1.389   3.642   3.321  1.5895  1.0822  0.7387
 4232SOL     OW24154   3.245   0.946   8.708  0.1065  0.3357  0.1319
 4232SOL    HW124155   3.303   0.877   8.676 -0.7931 -2.0133  3.5487
 4232SOL    HW224156   3.294   0.990   8.777 -1.0786  0.9635  0.5805
 4233SOL     OW24157   4.071   0.736   6.916  1.3019 -0.3198  0.1091
 4233SOL    HW124158   4.105   0.686   6.842 -0.8090 -1.2665 -0.2223
 4233SOL    HW224159   4.103   0.687   6.991 -1.1917  0.2171  1.5458
 4234SOL     OW24160   0.904   2.940   9.183 -0.0493 -0.0082 -0.1454
 4234SOL    HW124161   0.980   2.983   9.144  0.6735 -1.1955 -0.0614
 4234SOL    HW224162   0.913   2.972   9.272 -0.6386 -0.1314 -0.0421
 4235SOL     OW24163   3.845   4.492   4.994  0.0347  0.3117  0.3916
 4235SOL    HW124164   3.931   4.512   4.957 -0.3481  0.1265 -0.5977
 4235SOL    HW224165   3.859   4.400   5.015 -1.7101  0.6601  3.2144
 4236SOL     OW24166   1.703   4.269   3.279 -0.2138  0.3494  0.3165
 4236SOL    HW124167   1.760   4.202   3.242 -0.6227  0.1724  0.0026
 4236SOL    HW224168   1.739   4.343   3.230  0.8233 -0.4356 -0.0945
 4237SOL     OW24169   0.636   0.726  16.092 -0.2486  0.1876  0.2982
 4237SOL    HW124170   0.622   0.711  16.186  1.7667  0.5911  0.6802
 4237SOL    HW224171   0.710   0.667  16.075  2.4912  3.0810  2.0813
 4238SOL     OW24172   2.217   3.081  14.535 -0.2778 -0.3105 -0.5621
 4238SOL    HW124173   2.248   2.993  14.555  2.8404  1.1845  1.0879
 4238SOL    HW224174   2.289   3.139  14.558 -0.9589 -0.0334  0.8912
 4239SOL     OW24175   2.255   2.100  12.511  0.3280 -0.8331 -0.0036
 4239SOL    HW124176   2.280   2.129  12.423 -0.5585 -0.1192 -0.0274
 4239SOL    HW224177   2.161   2.119  12.503  0.8695  1.8277  0.0436
 4240SOL     OW24178   1.322   4.063   5.609  0.4693 -0.7966 -0.1298
 4240SOL    HW124179   1.235   4.082   5.575  1.5056  0.5350 -2.0753
 4240SOL    HW224180   1.365   4.048   5.525 -0.3120 -0.2987 -0.6272
 4241SOL     OW24181   4.121   1.322   0.039  0.2341  0.0676  0.2608
 4241SOL    HW124182   4.052   1.353   0.098  1.2318  0.8240  1.0318
 4241SOL    HW224183   4.191   1.294   0.099 -0.3438 -0.4532  0.6838
 4242SOL     OW24184   3.969   0.955   5.767 -0.4318 -0.1368  0.3910
 4242SOL    HW124185   3.977   0.865   5.737  0.5605  0.8225 -2.2974
 4242SOL    HW224186   3.927   0.997   5.692 -0.3780  0.9264  0.9501
 4243SOL     OW24187   1.238   2.521   3.767 -0.0826 -0.8653 -0.2963
 4243SOL    HW124188   1.328   2.492   3.757  0.2644 -0.4696  1.7312
 4243SOL    HW224189   1.190   2.472   3.700 -1.4767 -0.2154  0.2335
 4244SOL     OW24190   1.488   4.654  11.247  0.7548  0.3023  0.6705
 4244SOL    HW124191   1.547   4.579  11.240  1.3886  0.7611  1.0489
 4244SOL    HW224192   1.442   4.650  11.163  0.6063 -0.4701  0.7867
 4245SOL     OW24193   1.755   0.261   4.488 -0.2842  0.1954  0.1595
 4245SOL    HW124194   1.816   0.193   4.515  0.0980  1.6143  2.8197
 4245SOL    HW224195   1.751   0.258   4.392  1.8885  0.8926  0.0401
 4246SOL     OW24196   2.662   3.375   2.064  0.2169 -0.0532  0.0880
 4246SOL    HW124197   2.719   3.422   2.125  0.0408  0.7451 -0.3521
 4246SOL    HW224198   2.722   3.345   1.996  0.5246  0.0995  0.2928
 4247SOL     OW24199   3.734   2.537   7.944  0.2973 -0.2510 -0.4128
 4247SOL    HW124200   3.726   2.564   8.036  0.9825  2.1758 -1.0845
 4247SOL    HW224201   3.640   2.529   7.931  0.2830 -0.0288 -0.4351
 4248SOL     OW24202   4.206   0.725   5.364 -0.1591 -1.0280 -0.3020
 4248SOL    HW124203   4.288   0.705   5.409 -0.4020  2.5735  1.7855
 4248SOL    HW224204   4.237   0.739   5.275  0.4200 -1.9950 -0.2567
 4249SOL     OW24205   3.910   3.921   2.533 -0.5724 -0.4323 -0.0144
 4249SOL    HW124206   3.908   3.988   2.602 -0.2544  1.1399 -1.5222
 4249SOL    HW224207   3.996   3.944   2.497 -1.3040  0.3654 -1.2603
 4250SOL     OW24208   0.572   0.928   5.685 -0.3065 -0.0559 -0.3078
 4250SOL    HW124209   0.581   0.847   5.736  0.5894 -0.5254 -1.2114
 4250SOL    HW224210   0.477   0.935   5.674 -0.0734  2.7272 -0.5640
 4251SOL     OW24211   0.198   4.063  15.968  0.5449  0.1349 -0.5646
 4251SOL    HW124212   0.154   4.148  15.966 -0.4201 -0.3445  0.2692
 4251SOL    HW224213   0.279   4.090  16.010 -0.2537  1.1257  0.3483
 4252SOL     OW24214   2.104   3.243   0.697  0.9005 -0.4391 -0.1735
 4252SOL    HW124215   2.191   3.208   0.676  0.1819  0.3153 -4.3872
 4252SOL    HW224216   2.104   3.238   0.793 -0.3548 -1.7532 -0.2470
 4253SOL     OW24217   3.002   2.507   6.982  0.5608  0.1684 -0.0214
 4253SOL    HW124218   2.943   2.432   6.972  0.8042  0.1235 -1.0691
 4253SOL    HW224219   2.972   2.569   6.916 -2.1530 -3.1395 -1.9229
 4254SOL     OW24220   0.383   1.266   8.253  0.4479  0.6333 -0.1088
 4254SOL    HW124221   0.411   1.186   8.209 -0.8490  0.3869 -0.5035
 4254SOL    HW224222   0.356   1.234   8.339 -0.4282  2.7174  0.4078
 4255SOL     OW24223   0.270   4.037   6.253  0.1019  0.5275  0.1484
 4255SOL    HW124224   0.313   4.038   6.168  0.8143  1.1720  0.5135
 4255SOL    HW224225   0.330   4.090   6.306  0.4350  0.7136 -0.4205
 4256SOL     OW24226   1.416   3.700   5.514 -0.1350 -0.1340 -0.2785
 4256SOL    HW124227   1.438   3.609   5.492  0.8857  0.1563 -0.4635
 4256SOL    HW224228   1.322   3.699   5.531 -0.1324 -2.8967 -0.3861
 4257SOL     OW24229   4.413   1.947   2.307 -0.0375  0.3323  0.4989
 4257SOL    HW124230   4.347   1.900   2.358 -0.5729  0.3021 -0.2271
 4257SOL    HW224231   4.477   1.876   2.307 -1.4741 -0.9674  3.8523
 4258SOL     OW24232   2.952   4.309   0.516 -0.4858  0.4218 -0.1216
 4258SOL    HW124233   2.962   4.403   0.531 -0.8034  0.4608 -0.1628
 4258SOL    HW224234   2.937   4.284   0.607 -0.6081  2.0063  0.2939
 4259SOL     OW24235   4.664   0.540   8.771 -0.9277  0.1046 -0.2610
 4259SOL    HW124236   0.028   0.506   8.794  0.5744  2.0939 -2.9541
 4259SOL    HW224237   4.630   0.551   8.860  1.6210  0.3908  0.6845
 4260SOL     OW24238   2.443   4.644   3.010  0.0623 -0.0001 -0.7691
 4260SOL    HW124239   2.507   4.689   2.954 -2.3818  4.4145 -0.0695
 4260SOL    HW224240   2.476   4.556   3.025  1.5551  0.6901  0.0036
 4261SOL     OW24241   0.354   0.955   5.081  0.4385  0.4402 -0.1958
 4261SOL    HW124242   0.261   0.969   5.097  0.3624 -0.8583  0.5390
 4261SOL    HW224243   0.365   0.976   4.988 -1.7812  2.0440 -0.1128
 4262SOL     OW24244   0.999   2.100   3.271  0.6177 -0.3818  0.0387
 4262SOL    HW124245   1.054   2.026   3.298  2.3176  0.0437 -2.2186
 4262SOL    HW224246   1.037   2.122   3.186 -0.1169 -1.8381 -0.6501
 4263SOL     OW24247   2.506   2.925  12.439  0.7416  0.1906 -0.4703
 4263SOL    HW124248   2.595   2.902  12.465  0.4094  0.1909  0.6722
 4263SOL    HW224249   2.513   3.005  12.388  0.7882  0.3972 -0.1339
 4264SOL     OW24250   1.892   3.439   8.847  0.1119 -0.3530 -0.5908
 4264SOL    HW124251   1.967   3.389   8.879 -0.5795 -0.5582  0.7219
 4264SOL    HW224252   1.932   3.500   8.786  1.5984  0.9199  1.6591
 4265SOL     OW24253   1.831   3.656   9.240  0.6316 -0.3419  0.0017
 4265SOL    HW124254   1.862   3.636   9.151 -0.1012  0.3531 -0.4130
 4265SOL    HW224255   1.806   3.747   9.221  0.9052  0.1891  2.2389
 4266SOL     OW24256   3.042   3.835   5.347 -0.6234 -0.7574 -0.2750
 4266SOL    HW124257   3.092   3.909   5.312 -0.3429 -1.1240 -0.6480
 4266SOL    HW224258   2.957   3.859   5.309 -0.2700  0.6924 -0.1374
 4267SOL     OW24259   4.123   2.209   7.572 -0.8478 -0.2389 -0.5911
 4267SOL    HW124260   4.110   2.259   7.652 -0.3169 -1.9557  0.5653
 4267SOL    HW224261   4.182   2.268   7.526  0.8437 -1.4275  0.0711
 4268SOL     OW24262   2.575   0.553   6.116  0.4520 -0.4944 -0.0295
 4268SOL    HW124263   2.591   0.586   6.027 -1.7535 -0.8423 -0.5488
 4268SOL    HW224264   2.480   0.541   6.125  0.2844  1.9508  1.5513
 4269SOL     OW24265   0.043   0.019  15.934 -0.2844  0.0668 -0.1516
 4269SOL    HW124266   0.055   4.712  15.843  1.3331 -1.0987  0.4358
 4269SOL    HW224267   4.674   4.712  15.933 -0.3673  0.2495  2.2381
 4270SOL     OW24268   3.701   0.684   5.951 -0.1712  0.1607 -0.1508
 4270SOL    HW124269   3.703   0.720   5.862  1.7795 -1.4162 -0.7616
 4270SOL    HW224270   3.714   0.591   5.931 -2.0780 -0.4906  1.6669
 4271SOL     OW24271   2.576   2.334   9.641  0.3909 -0.0782 -0.0402
 4271SOL    HW124272   2.588   2.307   9.550 -0.5157 -1.2644  0.1914
 4271SOL    HW224273   2.660   2.320   9.686 -0.8426  2.1810  2.9799
 4272SOL     OW24274   3.858   1.639   7.469 -0.3822  0.3339 -0.1690
 4272SOL    HW124275   3.774   1.646   7.424  0.5812 -0.8519 -2.1454
 4272SOL    HW224276   3.834   1.666   7.558  2.2636  0.4132  0.5214
 4273SOL     OW24277   2.006   2.116   0.654 -0.0559  0.1301 -0.4742
 4273SOL    HW124278   1.918   2.117   0.617  1.0335 -0.9091 -3.1383
 4273SOL    HW224279   1.976   2.065   0.728 -0.7591  1.1429 -0.0615
 4274SOL     OW24280   0.016   0.025   8.579 -0.4078 -0.4870  0.3106
 4274SOL    HW124281   0.023   4.652   8.582  1.5663 -0.2649  2.4152
 4274SOL    HW224282   0.090   0.050   8.634  1.4317  1.9504 -3.3250
 4275SOL     OW24283   1.211   0.130   0.906  0.2737  0.1791 -0.1729
 4275SOL    HW124284   1.208   0.103   0.998 -0.5393  1.4376  0.1762
 4275SOL    HW224285   1.252   0.216   0.915 -1.8299  1.3023 -1.1655
 4276SOL     OW24286   4.191   1.293   3.833  0.2278 -0.5485  0.1328
 4276SOL    HW124287   4.263   1.231   3.845 -0.3742 -1.2372  0.1953
 4276SOL    HW224288   4.148   1.255   3.910  0.2865  0.7954  0.8286
 4277SOL     OW24289   3.092   2.042   5.012 -0.3298  0.5534  1.1082
 4277SOL    HW124290   3.096   1.998   5.097 -1.4720 -2.3496 -0.3103
 4277SOL    HW224291   3.069   1.967   4.956 -1.6909  1.4484  0.4738
 4278SOL     OW24292   2.948   0.867   9.108  0.4813 -0.0440 -0.2297
 4278SOL    HW124293   2.924   0.936   9.047  0.0817 -0.2511 -0.3079
 4278SOL    HW224294   2.991   0.808   9.045  0.9355  0.3715 -0.3064
 4279SOL     OW24295   3.397   0.694  13.118 -0.3050 -0.2364 -0.1860
 4279SOL    HW124296   3.445   0.627  13.166  0.2938  0.8367  0.7312
 4279SOL    HW224297   3.384   0.756  13.191  3.4362  1.1307 -0.6899
 4280SOL     OW24298   3.569   0.204   0.209  0.4439 -0.1131 -0.2462
 4280SOL    HW124299   3.504   0.204   0.279  1.1807  0.2261  0.4383
 4280SOL    HW224300   3.595   0.112   0.202  0.5652 -0.0232 -0.9713
 4281SOL     OW24301   2.072   4.408   8.939  0.2810 -0.2209 -0.1168
 4281SOL    HW124302   2.061   4.397   9.034  3.0149 -1.9452  0.0120
 4281SOL    HW224303   2.056   4.502   8.942  1.3877 -0.0481  0.4105
 4282SOL     OW24304   0.027   1.268   7.876 -0.1986  0.7832 -0.7781
 4282SOL    HW124305   0.025   1.356   7.838  1.1798  1.7803  1.4627
 4282SOL    HW224306   0.050   1.296   7.964  1.4449 -0.1352 -0.9057
 4283SOL     OW24307   4.445   2.499   4.227 -0.1747 -0.3679 -0.4033
 4283SOL    HW124308   4.435   2.420   4.174 -0.9722  1.6801 -3.2941
 4283SOL    HW224309   4.394   2.566   4.180 -0.1084 -1.0670 -1.4685
 4284SOL     OW24310   0.357   1.254   0.026  0.3443 -0.4259 -0.2745
 4284SOL    HW124311   0.308   1.336   0.034 -0.6384 -1.1236  0.9978
 4284SOL    HW224312   0.434   1.282  17.669 -1.5849  1.0064 -2.4943
 4285SOL     OW24313   3.199   3.552   6.584  0.0247  0.3395  0.4330
 4285SOL    HW124314   3.234   3.610   6.652  1.4537 -0.4003  0.3146
 4285SOL    HW224315   3.192   3.603   6.504 -1.2818 -0.4632  0.0419
 4286SOL     OW24316   4.154   0.953   2.340 -0.4885  0.6519  0.2716
 4286SOL    HW124317   4.224   1.006   2.379 -0.2646  1.9141 -1.8089
 4286SOL    HW224318   4.075   1.008   2.342 -0.3076  0.9203  0.0652
 4287SOL     OW24319   0.723   2.289   6.945  0.7987 -0.6723 -0.2033
 4287SOL    HW124320   0.776   2.215   6.974  2.6765  1.2745  1.2791
 4287SOL    HW224321   0.785   2.352   6.908 -0.1884 -1.1276 -2.6513
 4288SOL     OW24322   2.165   3.779   8.656  0.4664  0.1188 -0.2886
 4288SOL    HW124323   2.150   3.718   8.729 -2.1404  1.1236 -0.0029
 4288SOL    HW224324   2.080   3.773   8.613  0.6312 -0.0103 -0.5998
 4289SOL     OW24325   0.629   3.662  11.817  0.0960  0.7306  0.1285
 4289SOL    HW124326   0.550   3.678  11.868  0.5776  1.2643  0.7038
 4289SOL    HW224327   0.672   3.746  11.834 -1.5163  1.4988  0.4084
 4290SOL     OW24328   2.180   1.151   3.617 -0.3265 -0.2131  0.3548
 4290SOL    HW124329   2.117   1.211   3.656  1.1568 -1.2695  4.2879
 4290SOL    HW224330   2.236   1.210   3.566  0.4037  0.7598  2.3116
 4291SOL     OW24331   1.042   0.446   1.791  0.1776  0.4986  0.2192
 4291SOL    HW124332   1.071   0.522   1.741  0.0666 -0.5212 -1.3898
 4291SOL    HW224333   0.948   0.453   1.778  0.1492  1.9926  1.2187
 4292SOL     OW24334   2.680   2.998   4.795 -0.6172  0.4795 -0.0615
 4292SOL    HW124335   2.710   2.916   4.834 -1.5911 -0.3361 -1.0466
 4292SOL    HW224336   2.682   3.061   4.867  0.0297 -0.0859  0.4213
 4293SOL     OW24337   3.130   0.755   6.321  0.2903  0.1480  0.1600
 4293SOL    HW124338   3.217   0.781   6.349  0.6512  0.4081 -1.2261
 4293SOL    HW224339   3.118   0.665   6.353 -0.8803  0.6394  1.1006
 4294SOL     OW24340   2.617   2.305   5.385  0.3425 -0.1186  0.0074
 4294SOL    HW124341   2.712   2.307   5.376  0.4503  1.2433  1.4422
 4294SOL    HW224342   2.607   2.250   5.307 -0.3230 -0.8142  0.5773
 4295SOL     OW24343   4.405   3.204   9.267  0.2968  0.3275  0.1127
 4295SOL    HW124344   4.375   3.293   9.284  1.5201  1.0996 -1.7719
 4295SOL    HW224345   4.482   3.214   9.324  1.1243 -1.6083 -0.6935
 4296SOL     OW24346   0.189   2.916   4.443  0.3381  0.8629  0.0358
 4296SOL    HW124347   0.229   2.874   4.367 -0.8596  1.3460 -0.8617
 4296SOL    HW224348   0.153   2.845   4.496 -0.3675  0.2737 -1.2245
 4297SOL     OW24349   0.568   3.279  15.672 -0.0967 -0.1833 -0.1247
 4297SOL    HW124350   0.536   3.208  15.617 -3.9427  2.5522 -1.4312
 4297SOL    HW224351   0.641   3.237  15.717  0.0642  0.8285  0.5759
 4298SOL     OW24352   0.078   3.972   3.630 -0.2488  0.1068  0.8777
 4298SOL    HW124353   0.165   4.010   3.645  1.3366 -2.2580 -2.2763
 4298SOL    HW224354   0.101   3.905   3.567  0.0924 -0.1664  1.2925
 4299SOL     OW24355   0.086   2.877   6.918 -0.6946 -0.0970  0.2489
 4299SOL    HW124356   0.073   2.838   7.004  0.3899 -1.0188 -0.0028
 4299SOL    HW224357   0.071   2.801   6.863 -1.7675  0.9816 -0.9430
 4300SOL     OW24358   4.159   3.961   2.424 -0.3300 -0.2866 -0.6022
 4300SOL    HW124359   4.213   4.018   2.478  0.9850 -0.7043 -1.4486
 4300SOL    HW224360   4.191   3.987   2.337  0.7261  1.4561  0.3130
 4301SOL     OW24361   0.875   0.437  10.190  0.1448 -0.2435  0.8420
 4301SOL    HW124362   0.912   0.349  10.198 -0.6751 -0.6441  0.2665
 4301SOL    HW224363   0.915   0.495  10.255 -0.7142  0.7921  0.4542
 4302SOL     OW24364   3.643   3.342   0.498 -0.6175 -0.0486  0.1323
 4302SOL    HW124365   3.587   3.388   0.437  0.6238  0.4920 -0.6066
 4302SOL    HW224366   3.708   3.412   0.490 -0.5723  0.2537  3.0373
 4303SOL     OW24367   3.841   1.128  16.740  0.1073 -0.7682 -0.1357
 4303SOL    HW124368   3.774   1.100  16.802 -0.1736  1.8245  0.7442
 4303SOL    HW224369   3.896   1.050  16.738 -1.1555 -1.6362 -1.3501
 4304SOL     OW24370   1.876   1.936   8.848 -0.1234 -0.1974  0.2566
 4304SOL    HW124371   1.945   1.998   8.871 -1.4900  1.7336 -0.9055
 4304SOL    HW224372   1.846   1.910   8.935  1.5891  0.4577  1.0389
 4305SOL     OW24373   2.954   0.177  15.300  0.5778 -0.5178  0.3125
 4305SOL    HW124374   2.998   0.205  15.380 -0.8480 -0.6370  1.1454
 4305SOL    HW224375   2.865   0.187  15.334 -0.0905  2.3216 -2.3658
 4306SOL     OW24376   2.801   1.836  12.284 -0.1870 -0.1953 -0.4293
 4306SOL    HW124377   2.785   1.902  12.217  0.7008 -2.9349 -3.3673
 4306SOL    HW224378   2.751   1.762  12.250 -1.5958  0.4567  0.2612
 4307SOL     OW24379   1.260   1.746   6.980 -0.4359 -0.2588 -0.6055
 4307SOL    HW124380   1.348   1.712   6.967  0.9331  2.4866  1.3979
 4307SOL    HW224381   1.237   1.705   7.063  3.5023  0.3982  0.8225
 4308SOL     OW24382   3.519   2.980   5.153  0.5169  0.6612  0.1527
 4308SOL    HW124383   3.566   2.898   5.169  1.3634  1.2882  0.8853
 4308SOL    HW224384   3.541   2.987   5.060 -1.6244  2.2608 -0.2339
 4309SOL     OW24385   1.304   2.277   8.844  0.5741  0.0441  0.0690
 4309SOL    HW124386   1.321   2.285   8.938 -1.7864  1.0612  0.4042
 4309SOL    HW224387   1.344   2.192   8.827  1.0696  0.5914 -1.5061
 4310SOL     OW24388   2.625   1.706  13.064  0.2325  0.4304 -0.5528
 4310SOL    HW124389   2.554   1.709  13.129  1.2062  1.5569  0.4768
 4310SOL    HW224390   2.590   1.654  12.992  0.2536 -1.3744  0.7243
 4311SOL     OW24391   2.752   3.574  15.704  0.4715  0.7024 -0.0247
 4311SOL    HW124392   2.668   3.616  15.683  1.4916  1.6159 -2.2449
 4311SOL    HW224393   2.781   3.541  15.620  1.1760  1.1803  0.0328
 4312SOL     OW24394   4.578   1.544   8.072  0.2116  0.1983  0.8925
 4312SOL    HW124395   4.493   1.549   8.027  0.2748  1.1171  0.8648
 4312SOL    HW224396   4.570   1.459   8.115 -0.0515 -0.8767 -1.2784
 4313SOL     OW24397   0.502   0.773   6.975 -0.3880  0.6914  0.5838
 4313SOL    HW124398   0.489   0.866   6.993 -1.1134  0.2029  2.6472
 4313SOL    HW224399   0.454   0.760   6.894  0.1998  0.8790  0.2027
 4314SOL     OW24400   2.516   4.354   7.768 -0.4101  0.0199  0.6192
 4314SOL    HW124401   2.547   4.415   7.836 -0.1288  0.4780  0.0755
 4314SOL    HW224402   2.529   4.268   7.807 -1.7915 -0.3516  0.2470
 4315SOL     OW24403   2.904   1.425  14.534 -0.2520 -0.1132  0.1151
 4315SOL    HW124404   2.974   1.376  14.491 -1.0141 -1.1558  0.0619
 4315SOL    HW224405   2.953   1.439  14.615  0.3981 -1.7858 -0.0042
 4316SOL     OW24406   3.911   2.745   2.849 -0.5285 -0.6520  0.0627
 4316SOL    HW124407   3.831   2.789   2.819 -0.7050 -0.6575  0.5300
 4316SOL    HW224408   3.964   2.726   2.772  1.6784  1.5673  1.0343
 4317SOL     OW24409   0.018   2.135   7.778  0.8111  0.4754 -0.0214
 4317SOL    HW124410   0.021   2.041   7.761  0.8229  0.2222  1.3983
 4317SOL    HW224411   4.652   2.159   7.751  1.1961 -0.9431 -2.5339
 4318SOL     OW24412   3.136   4.144   9.204  0.4169  0.3297 -0.2322
 4318SOL    HW124413   3.080   4.175   9.275  0.1280 -0.2882 -0.1906
 4318SOL    HW224414   3.207   4.208   9.213  1.1271 -0.8994  2.7407
 4319SOL     OW24415   0.189   0.031  15.129  0.2796  0.5907 -0.0437
 4319SOL    HW124416   0.121   4.697  15.166  0.3060  1.4232  1.2913
 4319SOL    HW224417   0.206   4.719  15.041  1.2266 -0.5233  0.5690
 4320SOL     OW24418   2.350   2.209   1.577 -0.5298 -0.1586  0.2217
 4320SOL    HW124419   2.316   2.125   1.547  0.0031  0.4355 -2.0267
 4320SOL    HW224420   2.411   2.235   1.508 -0.3476  1.0471  0.8429
 4321SOL     OW24421   0.049   3.272  10.435  0.1112 -0.9182  0.5288
 4321SOL    HW124422   0.133   3.304  10.468 -0.0174  1.0265 -0.9695
 4321SOL    HW224423   0.079   3.197  10.384 -2.3017 -0.6763 -1.2262
 4322SOL     OW24424   2.545   0.840   6.481 -0.0442 -0.3323 -0.7664
 4322SOL    HW124425   2.597   0.826   6.561 -0.8276  1.5723  0.0734
 4322SOL    HW224426   2.592   0.782   6.421 -0.2585 -0.8504 -0.4344
 4323SOL     OW24427   3.289   3.740   8.513  0.3410 -0.3231 -0.8067
 4323SOL    HW124428   3.294   3.836   8.518 -0.4137 -0.1600 -3.1101
 4323SOL    HW224429   3.195   3.733   8.529  1.1398 -2.0801  3.1031
 4324SOL     OW24430   1.478   4.625   5.899  0.0130 -0.3325 -0.2232
 4324SOL    HW124431   1.503   4.609   5.808  1.5234 -1.3881  0.3729
 4324SOL    HW224432   1.561   4.603   5.942 -0.4403 -0.3026  0.6734
 4325SOL     OW24433   4.167   2.316   0.838 -0.1568 -0.1986 -0.0774
 4325SOL    HW124434   4.098   2.350   0.894  1.6070  1.5360  1.0303
 4325SOL    HW224435   4.132   2.235   0.800 -0.4327  0.4015 -1.1107
 4326SOL     OW24436   0.699   4.116   1.103 -0.6202  0.7607  0.0875
 4326SOL    HW124437   0.750   4.162   1.169 -0.3464  1.0218 -0.2998
 4326SOL    HW224438   0.771   4.123   1.040  0.3742  1.2986  1.2793
 4327SOL     OW24439   2.682   1.339   6.194  0.9220 -0.0464 -0.2167
 4327SOL    HW124440   2.686   1.243   6.194 -2.3136 -0.1663 -1.6980
 4327SOL    HW224441   2.590   1.354   6.173  1.0393  0.7141 -0.1830
 4328SOL     OW24442   3.921   1.007   8.464  0.1881 -0.1750 -0.5101
 4328SOL    HW124443   3.921   0.956   8.545  0.0504  0.3365 -0.1879
 4328SOL    HW224444   3.997   1.062   8.482 -1.0957  1.9366 -1.6468
 4329SOL     OW24445   0.559   0.877   1.564 -0.2511 -0.6973  0.5626
 4329SOL    HW124446   0.594   0.904   1.649  0.0762  0.2391  0.1302
 4329SOL    HW224447   0.465   0.896   1.566 -0.2409 -0.6298  0.3671
 4330SOL     OW24448   2.214   2.510   6.765  0.6487  0.1933  0.0724
 4330SOL    HW124449   2.221   2.545   6.854 -0.3168  0.7450 -0.0635
 4330SOL    HW224450   2.230   2.593   6.719  2.5204  0.7989  1.7753
 4331SOL     OW24451   4.692   4.232   2.641  0.2371 -0.1873 -0.4895
 4331SOL    HW124452   4.699   4.137   2.627 -0.5822 -0.2752 -0.2983
 4331SOL    HW224453   0.029   4.255   2.569 -1.0875  0.3142 -1.4010
 4332SOL     OW24454   4.702   3.132  13.398 -0.4791  0.2990  0.0687
 4332SOL    HW124455   0.031   3.190  13.454  0.2815 -0.3615  0.0405
 4332SOL    HW224456   0.041   3.059  13.398  0.3125  0.9592 -2.2041
 4333SOL     OW24457   0.175   3.144   9.200 -0.0492  0.5806 -0.4950
 4333SOL    HW124458   0.165   3.080   9.271  1.4715 -0.7834 -1.4812
 4333SOL    HW224459   0.205   3.084   9.131 -0.6344  0.1988 -0.4174
 4334SOL     OW24460   2.247   0.911  16.022  0.3083  0.2144  0.2697
 4334SOL    HW124461   2.205   0.901  16.108  3.4651 -1.9738  1.5702
 4334SOL    HW224462   2.249   0.818  15.998  0.5863  0.2263  0.2471
 4335SOL     OW24463   2.825   4.343  13.072 -0.3328 -0.3968  0.2422
 4335SOL    HW124464   2.831   4.391  13.155  1.0839  2.0537 -1.2796
 4335SOL    HW224465   2.885   4.399  13.024  1.2502 -2.4295 -0.1849
 4336SOL     OW24466   3.048   4.322   4.720 -0.2300  0.0317  0.0225
 4336SOL    HW124467   3.082   4.366   4.798 -2.2451 -0.5478  1.2448
 4336SOL    HW224468   3.129   4.291   4.681 -0.9540 -0.1982 -1.2808
 4337SOL     OW24469   0.732   3.468   2.956  0.2084  0.8216  0.6009
 4337SOL    HW124470   0.777   3.431   2.880  2.0238  0.2919  1.9183
 4337SOL    HW224471   0.777   3.428   3.031  0.5553  1.8195  0.9121
 4338SOL     OW24472   4.184   3.504   6.636 -0.3952  0.5277 -1.0642
 4338SOL    HW124473   4.096   3.470   6.621 -0.4748  0.4020 -0.2934
 4338SOL    HW224474   4.232   3.441   6.581 -1.0651 -0.3281 -0.6730
 4339SOL     OW24475   3.863   3.484  10.053 -0.7315  0.0071  0.2788
 4339SOL    HW124476   3.947   3.474  10.097  0.4723 -0.8395 -2.2107
 4339SOL    HW224477   3.815   3.416  10.101 -0.7302  0.0332  0.3169
 4340SOL     OW24478   0.576   0.403   7.428  0.4787  0.3802  0.0040
 4340SOL    HW124479   0.595   0.418   7.521  0.8899  0.9035 -0.1622
 4340SOL    HW224480   0.664   0.411   7.392  1.9549  0.5770  3.6431
 4341SOL     OW24481   1.701   2.722   2.901  0.0148  0.0036  0.1114
 4341SOL    HW124482   1.730   2.796   2.848  1.5033 -0.9033 -0.3398
 4341SOL    HW224483   1.666   2.663   2.835  0.3557  0.8117 -0.7948
 4342SOL     OW24484   2.736   0.432  13.373  0.0548  0.7286 -0.0304
 4342SOL    HW124485   2.707   0.478  13.294  0.0069 -4.1023 -2.8254
 4342SOL    HW224486   2.758   0.506  13.429  1.8748 -0.1172  0.3569
 4343SOL     OW24487   2.742   3.711   8.567  0.2100 -0.0111  0.3099
 4343SOL    HW124488   2.756   3.769   8.641  0.5767 -2.1552  1.8990
 4343SOL    HW224489   2.830   3.707   8.529 -0.1104  2.0667 -0.6628
 4344SOL     OW24490   4.089   3.587   9.613  0.5974 -0.5730 -0.4619
 4344SOL    HW124491   4.008   3.535   9.614 -0.0736  0.4603 -0.8780
 4344SOL    HW224492   4.142   3.536   9.674 -0.1028 -0.9474 -0.1558
 4345SOL     OW24493   3.898   0.821   1.536 -0.1790  0.0559  0.3575
 4345SOL    HW124494   3.853   0.886   1.590  0.0998  1.5901 -1.2642
 4345SOL    HW224495   3.953   0.882   1.487  0.0992 -0.0956  0.4855
 4346SOL     OW24496   3.934   3.653   5.980  0.4133  0.4212  0.0870
 4346SOL    HW124497   3.977   3.570   5.959  0.0863  0.4439 -0.6794
 4346SOL    HW224498   3.938   3.705   5.900  1.3903 -2.2829 -1.6075
 4347SOL     OW24499   0.039   3.147   8.562 -0.0602  0.4700 -0.8065
 4347SOL    HW124500   4.716   3.116   8.483  1.1603 -0.0728 -1.3037
 4347SOL    HW224501   4.689   3.189   8.608 -2.2351 -3.1261 -0.9214
 4348SOL     OW24502   3.929   2.318   6.292  0.6793  0.3981  0.2749
 4348SOL    HW124503   3.974   2.311   6.207  2.9359  0.6317  1.4385
 4348SOL    HW224504   3.846   2.274   6.276 -1.2780  3.5079  1.7923
 4349SOL     OW24505   1.739   0.974  10.873  0.1010 -0.1004  0.6256
 4349SOL    HW124506   1.665   0.918  10.898  1.4890 -2.2264  0.0421
 4349SOL    HW224507   1.696   1.058  10.886  1.5215 -0.0290  4.9215
 4350SOL     OW24508   3.831   0.515   7.465 -0.0407  0.2797  0.1414
 4350SOL    HW124509   3.829   0.610   7.471 -1.6934  0.2067  0.8255
 4350SOL    HW224510   3.845   0.490   7.557 -0.4502  0.3441  0.2215
 4351SOL     OW24511   0.603   0.362   4.817 -0.0066  0.0503 -0.3374
 4351SOL    HW124512   0.531   0.405   4.770 -0.9523 -3.1802 -1.8105
 4351SOL    HW224513   0.553   0.300   4.870  0.4340  0.8038  0.9853
 4352SOL     OW24514   2.390   2.109   8.527 -0.1995 -0.3605  0.1562
 4352SOL    HW124515   2.327   2.123   8.597  0.0748  0.3642  0.2526
 4352SOL    HW224516   2.354   2.036   8.476 -0.2655  1.8599 -2.9831
 4353SOL     OW24517   1.764   0.026   2.709  0.0141 -0.2424 -0.2641
 4353SOL    HW124518   1.834   0.083   2.679 -0.8516  1.2600  0.6043
 4353SOL    HW224519   1.708   0.028   2.631  0.6799 -1.4238 -0.7808
 4354SOL     OW24520   1.320   3.513   4.881 -0.1893  0.0293  0.5968
 4354SOL    HW124521   1.236   3.556   4.898 -1.1863 -0.8980 -1.8307
 4354SOL    HW224522   1.331   3.519   4.786  0.8029 -1.1885  0.6442
 4355SOL     OW24523   2.883   0.593   8.877 -0.4359  0.4435 -0.1056
 4355SOL    HW124524   2.887   0.549   8.792  1.3078 -2.4402  1.4795
 4355SOL    HW224525   2.978   0.610   8.879 -0.5452  0.9110  1.0821
 4356SOL     OW24526   2.570   4.377  13.023 -0.1522 -0.7068  0.1686
 4356SOL    HW124527   2.665   4.372  13.039 -0.0098  1.3542 -0.0693
 4356SOL    HW224528   2.572   4.427  12.942 -2.0015 -1.9638 -0.6393
 4357SOL     OW24529   2.840   0.513   0.508 -0.0025 -0.0595 -0.4056
 4357SOL    HW124530   2.875   0.440   0.458 -1.2592  0.7507 -2.4712
 4357SOL    HW224531   2.750   0.481   0.500  0.0286 -0.2470 -0.0254
 4358SOL     OW24532   4.514   3.137   6.208  0.0323  0.7721  0.4457
 4358SOL    HW124533   4.528   3.195   6.283  2.9452  1.5768 -0.7159
 4358SOL    HW224534   4.516   3.054   6.255 -0.1720  1.4918  1.7255
 4359SOL     OW24535   3.894   2.146   0.492 -0.0228 -0.0160  0.0563
 4359SOL    HW124536   3.814   2.098   0.470 -0.2455  1.7015 -2.8785
 4359SOL    HW224537   3.870   2.231   0.454  1.0578  0.1892 -0.1789
 4360SOL     OW24538   1.541   2.371  14.978  0.4387  0.2878 -0.3398
 4360SOL    HW124539   1.489   2.426  15.037  1.6585  1.6700 -0.5581
 4360SOL    HW224540   1.615   2.339  15.030 -0.1897 -0.3254  0.1809
 4361SOL     OW24541   1.930   1.301  17.552 -0.1030  0.1120 -0.1331
 4361SOL    HW124542   1.926   1.393  17.576 -0.2770  0.3917 -1.2276
 4361SOL    HW224543   1.894   1.260  17.631  0.0184 -0.2264 -0.2514
 4362SOL     OW24544   4.085   3.318  12.207  0.2973  0.1271 -0.2077
 4362SOL    HW124545   4.079   3.409  12.178 -2.1374 -0.3045 -1.0177
 4362SOL    HW224546   4.066   3.275  12.124 -1.8821 -0.3779  0.5482
 4363SOL     OW24547   1.787   1.575  11.316  0.1210  0.3271 -0.0861
 4363SOL    HW124548   1.743   1.636  11.376 -0.4100 -0.0376 -0.1066
 4363SOL    HW224549   1.765   1.602  11.227 -0.7068 -1.1783 -0.3379
 4364SOL     OW24550   2.430   2.581   9.184 -0.1951  0.0476  0.3097
 4364SOL    HW124551   2.405   2.668   9.153 -0.3420  0.6063  1.9972
 4364SOL    HW224552   2.438   2.600   9.277  1.0911  0.1248  0.1930
 4365SOL     OW24553   1.743   2.946   5.637 -0.0715  0.0359 -0.3204
 4365SOL    HW124554   1.794   2.904   5.568  0.5086 -1.3030  0.9228
 4365SOL    HW224555   1.818   2.986   5.681  0.3939 -1.1284 -0.0479
 4366SOL     OW24556   4.122   2.771   7.056 -0.2251  0.2621 -0.2721
 4366SOL    HW124557   4.186   2.836   7.027  1.9779 -1.1082  1.4995
 4366SOL    HW224558   4.064   2.824   7.111  1.6896 -0.5608  2.5555
 4367SOL     OW24559   2.899   4.504   3.049 -0.4346 -0.1479 -0.1353
 4367SOL    HW124560   2.824   4.453   3.082  0.9355 -1.7335  0.5066
 4367SOL    HW224561   2.934   4.444   2.984 -1.5187  0.4591 -1.2963
 4368SOL     OW24562   0.419   1.503   6.086 -0.3798  0.2123 -0.3439
 4368SOL    HW124563   0.382   1.518   6.173  0.7823  2.7521 -0.3017
 4368SOL    HW224564   0.413   1.595   6.060 -0.1797  0.4024  0.2870
 4369SOL     OW24565   2.371   2.041   2.611 -0.3434  0.2016 -0.7870
 4369SOL    HW124566   2.418   1.959   2.597 -2.4390 -1.0713 -0.3473
 4369SOL    HW224567   2.388   2.101   2.539  0.8904  1.8434  0.8592
 4370SOL     OW24568   1.897   1.454   5.612  0.1489  0.2478 -0.3536
 4370SOL    HW124569   1.982   1.463   5.656 -0.8299  0.4887  1.4694
 4370SOL    HW224570   1.842   1.522   5.649 -1.1118 -1.6225  1.2343
 4371SOL     OW24571   2.936   3.956   5.633  0.2697  0.0337  0.0335
 4371SOL    HW124572   2.904   3.866   5.643 -1.6418  0.6368 -0.7546
 4371SOL    HW224573   3.025   3.942   5.600 -0.0703  0.2550 -0.9921
 4372SOL     OW24574   3.376   1.014  17.398  0.5294 -0.4948 -0.2332
 4372SOL    HW124575   3.467   1.039  17.384  0.4801 -0.3324 -0.2684
 4372SOL    HW224576   3.360   0.955  17.324  0.6794 -1.5281  0.5667
 4373SOL     OW24577   4.451   0.364  12.150 -0.4024  0.7878  0.6717
 4373SOL    HW124578   4.461   0.397  12.240  2.5735 -0.0774  0.6458
 4373SOL    HW224579   4.416   0.276  12.164 -1.7705  1.3052  0.5718
 4374SOL     OW24580   1.208   0.141   5.659 -0.2408 -0.0772  0.3340
 4374SOL    HW124581   1.232   0.086   5.733 -1.6324  1.0051  1.5928
 4374SOL    HW224582   1.272   0.121   5.590 -1.6853 -0.2705 -0.9700
 4375SOL     OW24583   3.520   4.466   6.133 -0.0304  0.1821 -0.2414
 4375SOL    HW124584   3.482   4.402   6.072 -1.3257  0.4836  0.2502
 4375SOL    HW224585   3.459   4.539   6.122 -0.6326 -0.0061  1.9817
 4376SOL     OW24586   2.121   4.249  10.215  0.2734  0.4081  0.1925
 4376SOL    HW124587   2.114   4.336  10.253 -2.2435  0.3809 -0.1557
 4376SOL    HW224588   2.175   4.260  10.137 -0.4524 -0.8762 -0.4973
 4377SOL     OW24589   2.397   3.101   6.815  0.2507  0.0616 -0.2541
 4377SOL    HW124590   2.451   3.164   6.862  2.7955 -1.5104 -1.0560
 4377SOL    HW224591   2.385   3.034   6.883  2.3930 -2.6755 -2.5761
 4378SOL     OW24592   2.484   4.569  13.635 -0.2888  0.2116 -0.2737
 4378SOL    HW124593   2.401   4.614  13.650  1.0416  2.5092  0.1635
 4378SOL    HW224594   2.500   4.544  13.726 -0.9797  2.4676  0.4563
 4379SOL     OW24595   4.386   4.239   3.889 -0.1244 -0.5083  0.0311
 4379SOL    HW124596   4.323   4.194   3.833 -0.2578 -0.1590 -0.0972
 4379SOL    HW224597   4.468   4.197   3.864  1.3121  2.9574 -1.0765
 4380SOL     OW24598   4.448   4.297   7.926 -0.2974  0.2026 -0.3233
 4380SOL    HW124599   4.525   4.272   7.978 -1.1730 -1.2364  0.2898
 4380SOL    HW224600   4.396   4.362   7.974 -0.3147 -0.3685  0.4350
 4381SOL     OW24601   4.358   2.368   7.838  0.3093 -0.7674 -0.2408
 4381SOL    HW124602   4.393   2.447   7.878 -2.2176  0.3151 -0.2356
 4381SOL    HW224603   4.272   2.400   7.813  1.9046  2.5480 -1.4934
 4382SOL     OW24604   2.770   4.455   7.338  0.5126  0.1073  0.0673
 4382SOL    HW124605   2.744   4.529   7.392 -0.8261  0.8754 -1.6244
 4382SOL    HW224606   2.706   4.387   7.361 -0.4325  0.9187 -0.1458
 4383SOL     OW24607   1.140   1.205  13.280 -0.2788  0.0014 -0.1727
 4383SOL    HW124608   1.136   1.221  13.374 -1.4118  2.1929 -0.5990
 4383SOL    HW224609   1.222   1.157  13.269  0.7072  1.5992  0.1813
 4384SOL     OW24610   1.314   0.533   6.047 -0.0278  0.5126  0.1904
 4384SOL    HW124611   1.344   0.497   6.131 -0.0313 -0.4280 -0.2170
 4384SOL    HW224612   1.258   0.458   6.024  0.2718 -0.0903  1.3976
 4385SOL     OW24613   4.532   0.324   7.481 -0.1465 -0.3643 -0.2365
 4385SOL    HW124614   4.572   0.406   7.510 -1.4139  1.1739 -2.7361
 4385SOL    HW224615   4.586   0.311   7.403 -0.0144 -0.0497 -0.2003
 4386SOL     OW24616   1.729   4.198   5.080 -0.1525 -0.1766  0.1798
 4386SOL    HW124617   1.763   4.195   4.990 -2.4536 -0.1130 -0.6935
 4386SOL    HW224618   1.799   4.153   5.126 -1.8772 -1.4527  1.5558
 4387SOL     OW24619   3.093   4.422   1.191 -0.7272 -0.5845  0.4603
 4387SOL    HW124620   3.042   4.371   1.128 -1.4978 -1.9779  2.2175
 4387SOL    HW224621   3.026   4.440   1.257 -1.3623 -1.5538  0.0771
 4388SOL     OW24622   1.300   1.799   3.769  0.3262 -0.2372 -0.6159
 4388SOL    HW124623   1.333   1.757   3.689 -2.8027 -1.0878 -1.4526
 4388SOL    HW224624   1.379   1.793   3.822 -0.7014  0.1460  0.9476
 4389SOL     OW24625   1.727   3.958   2.242  0.2267  0.6883 -1.2238
 4389SOL    HW124626   1.656   4.003   2.289 -0.2085  0.5896 -1.7922
 4389SOL    HW224627   1.759   3.902   2.313 -0.6073  0.3919 -1.0835
 4390SOL     OW24628   0.712   4.077  10.980 -0.4445 -0.3508 -0.7610
 4390SOL    HW124629   0.804   4.103  10.984 -0.5244 -0.0991 -0.6144
 4390SOL    HW224630   0.715   3.995  11.029 -0.3172 -0.2550 -0.6085
 4391SOL     OW24631   1.426   1.551   8.279  0.1933 -0.9579 -0.5878
 4391SOL    HW124632   1.426   1.631   8.226 -1.3876 -0.2341  0.5174
 4391SOL    HW224633   1.345   1.556   8.331 -0.2309  1.6176 -1.5219
 4392SOL     OW24634   1.496   4.124   4.295  0.0437  0.1743 -0.2751
 4392SOL    HW124635   1.536   4.045   4.332  1.9423  0.6794 -1.2826
 4392SOL    HW224636   1.435   4.091   4.229  0.3824 -0.9916 -0.0046
 4393SOL     OW24637   2.684   0.978   2.795  0.4703  0.9657 -0.1602
 4393SOL    HW124638   2.611   0.922   2.772  0.1588  0.9663  0.8012
 4393SOL    HW224639   2.746   0.928   2.742  0.4319 -0.8219  1.5031
 4394SOL     OW24640   0.129   1.157   6.046 -0.6938 -0.5799 -0.0111
 4394SOL    HW124641   0.189   1.088   6.072 -0.3001  0.1426  0.9995
 4394SOL    HW224642   0.080   1.167   6.128  2.2256 -2.6206  1.9613
 4395SOL     OW24643   0.997   2.309   9.303 -0.3478  0.2915  0.1964
 4395SOL    HW124644   1.032   2.398   9.306 -0.0627  0.2609 -1.7931
 4395SOL    HW224645   0.928   2.310   9.369  1.7303 -1.2238  2.3751
 4396SOL     OW24646   2.004   2.131   1.840  0.0183 -0.4595 -0.5757
 4396SOL    HW124647   2.062   2.175   1.777  1.8402 -1.5054  0.3574
 4396SOL    HW224648   2.020   2.037   1.832 -0.9522 -0.6488 -0.2900
 4397SOL     OW24649   4.326   1.348   8.595  0.0400  0.2635 -0.7516
 4397SOL    HW124650   4.374   1.311   8.669  0.2387 -0.7605 -1.4021
 4397SOL    HW224651   4.389   1.370   8.527 -0.3933 -0.2415 -1.3121
 4398SOL     OW24652   1.901   1.051   2.793 -0.3838  0.1086  0.2957
 4398SOL    HW124653   1.864   1.057   2.705 -0.4702  1.9852  0.4426
 4398SOL    HW224654   1.830   1.095   2.840  1.0249  0.9714  1.6427
 4399SOL     OW24655   1.878   2.049   2.497  0.1596  0.5869  0.6131
 4399SOL    HW124656   1.873   2.119   2.432  0.6401 -0.9425 -1.0886
 4399SOL    HW224657   1.831   1.975   2.459 -0.5702  1.5334 -0.3111
 4400SOL     OW24658   1.288   3.841  16.182 -0.1506  0.6402  0.4578
 4400SOL    HW124659   1.311   3.749  16.182 -0.2819  0.6007 -0.5751
 4400SOL    HW224660   1.255   3.864  16.094 -0.1972 -0.3467  0.2228
 4401SOL     OW24661   0.659   1.880   4.861 -0.0596  0.4791  0.2608
 4401SOL    HW124662   0.697   1.966   4.880 -0.0495  0.1718  1.6455
 4401SOL    HW224663   0.573   1.894   4.900 -0.3096 -1.6536  0.4473
 4402SOL     OW24664   2.023   0.409  13.902 -0.2367  0.8627 -0.5490
 4402SOL    HW124665   2.047   0.490  13.858 -1.1055  0.8279 -1.0833
 4402SOL    HW224666   1.931   0.432  13.916 -0.1910  0.1029  0.9445
 4403SOL     OW24667   2.750   2.918   3.231  0.0218 -0.8103 -0.5155
 4403SOL    HW124668   2.666   2.958   3.211  0.3166  1.2535  2.3615
 4403SOL    HW224669   2.800   2.925   3.150  1.0200  2.3851  0.3946
 4404SOL     OW24670   4.668   3.310   7.433  0.7047 -0.1675 -0.3970
 4404SOL    HW124671   4.682   3.350   7.518  0.6266 -0.2033 -0.3674
 4404SOL    HW224672   0.035   3.315   7.399  1.4356 -1.4819  1.3709
 4405SOL     OW24673   2.579   3.218   3.958 -0.0155 -0.1202  0.3126
 4405SOL    HW124674   2.661   3.193   4.002  0.6611 -2.2984 -2.1728
 4405SOL    HW224675   2.579   3.149   3.891 -1.8788  0.4723 -0.2837
 4406SOL     OW24676   3.561   4.049   3.850 -0.2520  0.5019 -0.5443
 4406SOL    HW124677   3.530   3.967   3.888 -1.1300  0.1794 -1.9331
 4406SOL    HW224678   3.655   4.042   3.860 -0.7628 -2.4310  2.0371
 4407SOL     OW24679   4.692   0.475  12.108 -0.7025  0.0988 -0.0453
 4407SOL    HW124680   4.681   0.512  12.020 -0.2479  1.8597  0.6288
 4407SOL    HW224681   4.612   0.429  12.134  0.2158 -1.7786 -0.5866
 4408SOL     OW24682   1.293   2.401   1.554 -0.5998 -0.0028  0.1536
 4408SOL    HW124683   1.237   2.325   1.569 -1.1953  0.1870 -1.1189
 4408SOL    HW224684   1.248   2.443   1.480 -0.5639 -0.9693 -0.4238
 4409SOL     OW24685   4.335   0.532   6.511  0.4814 -0.3293  0.8331
 4409SOL    HW124686   4.254   0.498   6.472  0.5864 -0.2628  0.5540
 4409SOL    HW224687   4.373   0.559   6.427 -3.7358 -1.8279 -1.6156
 4410SOL     OW24688   2.489   3.049   9.788 -0.1816 -0.3387  0.2695
 4410SOL    HW124689   2.504   3.083   9.700 -0.2222  1.6847  1.0515
 4410SOL    HW224690   2.395   3.065   9.793  0.0368  0.5651  1.7406
 4411SOL     OW24691   2.200   1.129   5.449 -0.5798  0.2848 -0.5949
 4411SOL    HW124692   2.282   1.160   5.409  0.0236  0.9941  1.1900
 4411SOL    HW224693   2.151   1.130   5.367  0.5530 -0.3431 -1.2810
 4412SOL     OW24694   2.195   3.650   7.736 -0.1682  0.2021 -0.7282
 4412SOL    HW124695   2.248   3.632   7.813 -2.6817  0.6334  1.1033
 4412SOL    HW224696   2.261   3.645   7.667  1.0594 -0.1780  0.4964
 4413SOL     OW24697   2.635   2.347   9.361 -0.1925  0.4408 -0.0514
 4413SOL    HW124698   2.679   2.295   9.294 -0.4542 -1.3707  1.1844
 4413SOL    HW224699   2.708   2.404   9.385 -0.6843  0.3517  1.6453
 4414SOL     OW24700   4.147   0.407   2.663 -0.4438 -0.3928  0.0972
 4414SOL    HW124701   4.128   0.316   2.639 -0.3485 -0.1278 -0.9833
 4414SOL    HW224702   4.234   0.423   2.626 -0.4154  1.4607  0.9741
 4415SOL     OW24703   3.018   4.125  11.544  0.4269 -1.1508  0.1396
 4415SOL    HW124704   2.952   4.093  11.482  0.4581  0.0519 -0.5129
 4415SOL    HW224705   3.053   4.205  11.506  0.9462 -2.1072 -1.3713
 4416SOL     OW24706   0.751   3.647   4.197  0.2943  0.1950 -0.0652
 4416SOL    HW124707   0.689   3.657   4.269 -1.4951 -0.5116 -1.5134
 4416SOL    HW224708   0.702   3.594   4.134 -0.1511 -1.2641  1.4912
 4417SOL     OW24709   3.900   1.359   7.015  0.2731 -0.0368 -0.0109
 4417SOL    HW124710   3.951   1.287   6.976 -0.3213 -0.7371  0.5052
 4417SOL    HW224711   3.947   1.436   6.984 -1.6424  2.0591  2.3136
 4418SOL     OW24712   2.339   2.634   8.608  0.4458 -0.1018 -0.2741
 4418SOL    HW124713   2.430   2.660   8.601  0.4338 -0.1996 -0.7558
 4418SOL    HW224714   2.345   2.548   8.567  0.1116  0.2004 -0.9469
 4419SOL     OW24715   2.752   3.423   4.841 -0.1597 -0.3338 -0.3876
 4419SOL    HW124716   2.725   3.461   4.925  0.7663 -2.6353  0.9359
 4419SOL    HW224717   2.674   3.391   4.796 -0.4500 -0.6314  0.3304
 4420SOL     OW24718   2.864   1.067  16.443  0.6401  0.3974  0.1283
 4420SOL    HW124719   2.951   1.085  16.479 -0.4548  3.3497  1.2677
 4420SOL    HW224720   2.882   1.046  16.351 -2.6043 -2.8110  0.2013
 4421SOL     OW24721   1.797   3.520   2.608 -0.2761 -0.1605 -0.1640
 4421SOL    HW124722   1.776   3.569   2.528 -0.9005  3.0137  1.9438
 4421SOL    HW224723   1.826   3.595   2.660  0.5843 -1.9346  1.9153
 4422SOL     OW24724   4.063   3.611   2.749  0.4657  0.2645 -0.1115
 4422SOL    HW124725   4.002   3.608   2.675  0.1765 -0.0959  0.1466
 4422SOL    HW224726   4.071   3.518   2.772  0.7652  0.3478  0.1326
 4423SOL     OW24727   3.375   3.807  12.900 -0.0592  0.6302  0.1598
 4423SOL    HW124728   3.296   3.774  12.943  1.2304 -3.1187 -0.3870
 4423SOL    HW224729   3.408   3.734  12.848 -1.0182  1.7488 -2.0627
 4424SOL     OW24730   1.370   2.654   4.052 -0.6553  0.0457  0.3560
 4424SOL    HW124731   1.460   2.629   4.031 -0.4725  0.6066  0.5018
 4424SOL    HW224732   1.332   2.615   3.973  0.4830 -0.3431 -0.0016
 4425SOL     OW24733   2.527   4.330   9.267  0.5087 -0.4900  0.2602
 4425SOL    HW124734   2.593   4.321   9.199 -0.4156 -0.9140 -0.5740
 4425SOL    HW224735   2.504   4.240   9.289 -0.5596 -0.4457 -0.6838
 4426SOL     OW24736   4.599   2.894   3.692 -0.1715  0.5672  0.9063
 4426SOL    HW124737   4.634   2.896   3.781  2.3211 -2.2281  0.0237
 4426SOL    HW224738   4.531   2.828   3.703 -2.5993  2.7565 -1.2354
 4427SOL     OW24739   4.560   3.242  10.277 -0.4084  0.7788  0.2949
 4427SOL    HW124740   4.560   3.157  10.321  0.7837  0.0294 -1.1721
 4427SOL    HW224741   4.626   3.284  10.333  2.5450 -1.6587 -1.3655
 4428SOL     OW24742   3.867   3.845   3.930  0.0803 -0.8533  0.5518
 4428SOL    HW124743   3.917   3.770   3.896  0.5740 -0.4436  0.3844
 4428SOL    HW224744   3.931   3.915   3.939 -0.7576  0.1429 -1.3271
 4429SOL     OW24745   2.339   2.242  16.887 -0.1788  0.6079 -0.1085
 4429SOL    HW124746   2.385   2.203  16.961 -1.7018 -0.6601  0.1648
 4429SOL    HW224747   2.256   2.195  16.895 -0.0558  0.6134  1.1463
 4430SOL     OW24748   2.967   3.864   4.659 -0.4276 -0.2066  0.7245
 4430SOL    HW124749   2.976   3.839   4.566 -0.3391  3.0705 -0.1357
 4430SOL    HW224750   3.027   3.804   4.703 -0.1303 -0.1452  0.4053
 4431SOL     OW24751   3.165   4.530   8.986 -0.0993  0.2571  0.1017
 4431SOL    HW124752   3.134   4.443   8.964 -0.2756  0.5234 -0.6961
 4431SOL    HW224753   3.149   4.532   9.081  2.5718  0.1865  0.5614
 4432SOL     OW24754   0.656   1.084   5.954  0.1436  0.4717  0.1023
 4432SOL    HW124755   0.571   1.091   5.911 -0.2336 -1.4699  0.5214
 4432SOL    HW224756   0.718   1.106   5.884 -0.1578  0.5096 -0.1523
 4433SOL     OW24757   2.345   4.709   6.523  0.1188  0.2895 -0.1384
 4433SOL    HW124758   2.316   0.059   6.468  2.4889  1.7519  0.5364
 4433SOL    HW224759   2.284   4.715   6.596 -0.6418  1.2155 -0.8583
 4434SOL     OW24760   2.322   2.720   2.429 -0.4265 -0.3059  0.3785
 4434SOL    HW124761   2.389   2.780   2.463 -1.2960  0.0608  1.4184
 4434SOL    HW224762   2.330   2.741   2.335  1.4069  0.0689  0.6130
 4435SOL     OW24763   4.025   3.710   1.770 -0.0995  0.1971 -0.1938
 4435SOL    HW124764   4.062   3.762   1.699 -2.3100  3.5435  1.0921
 4435SOL    HW224765   4.076   3.630   1.756  0.9126  1.3223 -2.7871
 4436SOL     OW24766   3.333   3.826   4.530 -0.6231  0.4842  0.1337
 4436SOL    HW124767   3.310   3.817   4.437  1.8061 -1.1070 -0.3087
 4436SOL    HW224768   3.274   3.770   4.580 -0.9374 -0.8590 -1.7208
 4437SOL     OW24769   2.603   4.336   8.801  0.2394  0.6120  0.3397
 4437SOL    HW124770   2.548   4.262   8.823  1.5403 -0.3252  0.4250
 4437SOL    HW224771   2.585   4.343   8.707  1.4676  1.7884  0.1800
 4438SOL     OW24772   3.144   2.419   5.155 -0.2305 -0.2448  0.0206
 4438SOL    HW124773   3.124   2.486   5.090  1.2005 -0.2582 -0.4366
 4438SOL    HW224774   3.062   2.371   5.161 -1.1536  1.1906 -1.2926
 4439SOL     OW24775   2.946   3.805   8.945 -0.5573  0.6027  0.0936
 4439SOL    HW124776   2.929   3.770   9.032 -0.5680  0.1561 -0.0902
 4439SOL    HW224777   3.018   3.862   8.972  0.6675 -0.3592 -1.0971
 4440SOL     OW24778   0.494   4.315   4.774 -0.0027  0.6648  0.7741
 4440SOL    HW124779   0.578   4.347   4.808 -0.5455  0.7347  2.0541
 4440SOL    HW224780   0.520   4.229   4.741  1.5532  2.3511 -2.3218
 4441SOL     OW24781   4.518   3.784   7.786 -0.4558  0.5274 -0.4667
 4441SOL    HW124782   4.506   3.848   7.716 -0.7288 -0.2161 -1.1003
 4441SOL    HW224783   4.613   3.793   7.795 -0.3689 -0.3108 -0.5484
 4442SOL     OW24784   1.254   2.801   3.724  0.5043 -0.0539 -0.3120
 4442SOL    HW124785   1.164   2.826   3.746  0.0594 -2.0209  0.0457
 4442SOL    HW224786   1.254   2.706   3.733 -1.6402 -0.0734 -0.4112
 4443SOL     OW24787   0.486   0.403   2.928 -0.2529  0.1637 -0.0097
 4443SOL    HW124788   0.580   0.386   2.923 -0.5133 -1.2440 -0.2263
 4443SOL    HW224789   0.480   0.436   3.017  1.6726 -0.5612  0.3816
 4444SOL     OW24790   2.219   0.255   0.271  0.1995 -0.1162  0.6576
 4444SOL    HW124791   2.223   0.160   0.267 -0.3109 -0.2029  2.2850
 4444SOL    HW224792   2.264   0.276   0.353 -0.5776 -1.4780  1.4254
 4445SOL     OW24793   1.589   0.230   6.606 -0.1457 -0.1555 -0.5040
 4445SOL    HW124794   1.617   0.182   6.527  3.2518  2.3051 -0.7782
 4445SOL    HW224795   1.592   0.156   6.666  3.1641  0.9382  0.6482
 4446SOL     OW24796   3.635   1.987   8.717 -0.2534  0.7753  0.7801
 4446SOL    HW124797   3.558   1.997   8.772 -1.7248 -0.4325 -1.0630
 4446SOL    HW224798   3.680   1.914   8.761  0.2190  0.7393  0.2341
 4447SOL     OW24799   0.209   1.156   9.902 -0.1006 -0.1204 -0.0266
 4447SOL    HW124800   0.188   1.133   9.811  1.4895  0.0443 -0.4513
 4447SOL    HW224801   0.221   1.250   9.891 -3.6353  0.3122 -0.0756
 4448SOL     OW24802   3.149   0.503  13.305 -0.4505 -0.8118  0.0819
 4448SOL    HW124803   3.209   0.468  13.239 -0.9720 -0.9464 -0.3143
 4448SOL    HW224804   3.089   0.560  13.257  0.9947  1.8053  1.3204
 4449SOL     OW24805   3.698   3.724   1.534  0.3583 -0.1862 -0.0908
 4449SOL    HW124806   3.719   3.804   1.581  1.4000 -1.7978  2.1521
 4449SOL    HW224807   3.628   3.682   1.583  2.1841 -2.5227  0.4950
 4450SOL     OW24808   1.623   4.551  14.805 -0.5205  0.4119 -0.3021
 4450SOL    HW124809   1.697   4.493  14.785  0.2808  1.3500 -0.0592
 4450SOL    HW224810   1.620   4.618  14.737  0.3371 -1.7485 -2.4496
 4451SOL     OW24811   2.812   0.643  15.785  0.1171 -0.0891  0.6088
 4451SOL    HW124812   2.743   0.591  15.743  0.1755  0.0981  0.2771
 4451SOL    HW224813   2.876   0.581  15.820  1.8515  0.0493 -2.3009
 4452SOL     OW24814   3.934   3.398   6.632 -0.0880 -0.1923 -0.2226
 4452SOL    HW124815   3.853   3.418   6.585 -0.5573 -0.6607  0.3977
 4452SOL    HW224816   3.914   3.345   6.709  1.8230 -0.7868 -0.1389
 4453SOL     OW24817   1.630   4.283  16.215 -0.0447  0.3060  1.1002
 4453SOL    HW124818   1.596   4.195  16.197 -0.0656 -0.0886  2.9794
 4453SOL    HW224819   1.549   4.334  16.216 -0.5548 -0.4885  0.8800
 4454SOL     OW24820   3.364   0.990   1.917  0.2314 -0.0034  0.2388
 4454SOL    HW124821   3.379   1.035   1.834 -2.1983  0.7531  0.2033
 4454SOL    HW224822   3.444   0.939   1.929 -0.8200 -0.6755  4.4997
 4455SOL     OW24823   4.041   0.146   2.120  0.5314 -0.4244 -0.2887
 4455SOL    HW124824   3.975   0.144   2.052  0.3248  0.5467 -0.1118
 4455SOL    HW224825   4.063   0.238   2.130 -0.8937 -0.1936  0.6294
 4456SOL     OW24826   4.461   1.416  16.445 -1.0158 -0.4493 -0.4319
 4456SOL    HW124827   4.452   1.379  16.357 -0.5157  2.2843 -1.6206
 4456SOL    HW224828   4.556   1.431  16.442 -1.2570  0.5837 -3.0345
 4457SOL     OW24829   2.897   4.423   2.722  0.0872 -0.2207  0.1951
 4457SOL    HW124830   2.918   4.479   2.647 -0.8947 -0.7277 -0.4765
 4457SOL    HW224831   2.805   4.443   2.741  0.0016  0.5268 -1.0183
 4458SOL     OW24832   1.250   4.391   5.445  0.6181  0.0040 -0.0764
 4458SOL    HW124833   1.299   4.315   5.410  1.6648 -0.4415  2.3387
 4458SOL    HW224834   1.162   4.371   5.413  1.0631 -1.0124 -0.6681
 4459SOL     OW24835   1.024   0.343   2.421  0.1763 -0.5587  0.3450
 4459SOL    HW124836   1.013   0.249   2.404  0.4693  0.0071 -3.0945
 4459SOL    HW224837   1.119   0.335   2.435  0.1644  0.3960  0.9351
 4460SOL     OW24838   0.559   3.060  10.105 -0.1436 -0.4340  0.0591
 4460SOL    HW124839   0.587   3.135  10.051  2.8491 -1.0069  0.8288
 4460SOL    HW224840   0.615   3.078  10.180  3.0970  1.2461 -2.7493
 4461SOL     OW24841   0.857   3.411   3.729 -0.0086 -0.5137 -0.6066
 4461SOL    HW124842   0.766   3.438   3.718  0.7657  1.3942 -2.4139
 4461SOL    HW224843   0.915   3.478   3.692  1.3582 -1.9659 -1.1163
 4462SOL     OW24844   0.720   3.441   9.389  0.2931 -0.3301  0.7442
 4462SOL    HW124845   0.670   3.498   9.448  0.5578  0.6888 -0.0151
 4462SOL    HW224846   0.808   3.467   9.415  0.4425  1.6979 -1.7971
 4463SOL     OW24847   1.619   4.117   8.899 -0.5015 -0.5116 -0.0284
 4463SOL    HW124848   1.608   4.022   8.906  0.8068 -0.4776  2.1236
 4463SOL    HW224849   1.566   4.158   8.968  1.0501 -0.3435  1.0403
 4464SOL     OW24850   0.059   3.454   5.103 -0.2521  0.1900 -0.2124
 4464SOL    HW124851   4.710   3.467   5.165 -1.0619  0.6691 -1.2464
 4464SOL    HW224852   0.016   3.384   5.052 -0.5154  1.2497 -1.4594
 4465SOL     OW24853   3.252   0.947  17.649  0.5919 -0.2504 -0.2119
 4465SOL    HW124854   3.262   0.946  17.554  0.3719 -1.6985 -0.2294
 4465SOL    HW224855   3.337   0.965  17.689  0.4887 -0.3380  0.0423
 4466SOL     OW24856   3.520   2.593   4.625  0.0282 -0.1693 -0.2764
 4466SOL    HW124857   3.520   2.602   4.721 -2.1414  0.2955 -0.3043
 4466SOL    HW224858   3.612   2.580   4.604  0.1342 -0.9933  0.6733
 4467SOL     OW24859   1.149   3.305   7.064 -0.1480  0.0516 -0.3296
 4467SOL    HW124860   1.067   3.269   7.029  1.0618 -1.7943 -1.3065
 4467SOL    HW224861   1.178   3.372   7.002  1.8243  0.5260  1.1337
 4468SOL     OW24862   0.646   0.933   9.180  0.4223 -0.3363  0.0174
 4468SOL    HW124863   0.643   1.022   9.216 -2.0411 -0.1395 -0.6565
 4468SOL    HW224864   0.665   0.881   9.258  2.2804  0.4559  0.0892
 4469SOL     OW24865   1.008   2.557   8.732 -0.3304 -0.0823 -0.2183
 4469SOL    HW124866   0.923   2.577   8.771 -0.4457  0.1414 -0.5870
 4469SOL    HW224867   1.060   2.626   8.772  0.3465 -0.1291 -1.0149
 4470SOL     OW24868   1.876   4.088   1.661 -0.1037 -0.5216  0.2356
 4470SOL    HW124869   1.934   4.164   1.656 -0.0826 -0.5845 -0.6425
 4470SOL    HW224870   1.891   4.056   1.571 -1.4446  1.7402 -0.7868
 4471SOL     OW24871   1.903   4.318   4.709 -0.4894  0.1883 -0.0602
 4471SOL    HW124872   1.820   4.272   4.723 -0.1033 -0.6128 -0.3927
 4471SOL    HW224873   1.968   4.270   4.759  0.0269  1.8728  0.8961
 4472SOL     OW24874   3.019   1.585   5.222  0.2052 -0.3275 -0.2623
 4472SOL    HW124875   3.096   1.623   5.264  1.0750 -0.2087 -1.9534
 4472SOL    HW224876   3.052   1.502   5.189  0.5252  0.6334 -2.3263
 4473SOL     OW24877   0.379   3.699   0.457 -0.4965  0.4733  0.4586
 4473SOL    HW124878   0.461   3.663   0.423  0.7960  1.9726  1.9863
 4473SOL    HW224879   0.320   3.702   0.382 -0.7878  0.3166  0.6812
 4474SOL     OW24880   1.378   1.078   5.420  0.7887  0.0995 -0.0625
 4474SOL    HW124881   1.464   1.118   5.414  0.5318  1.0230  2.1814
 4474SOL    HW224882   1.402   0.995   5.462 -0.0680 -0.9472 -1.6404
 4475SOL     OW24883   4.313   2.516   3.128  0.0858 -0.1169 -0.2799
 4475SOL    HW124884   4.388   2.461   3.104  0.9939  1.6040 -1.3179
 4475SOL    HW224885   4.251   2.450   3.160  2.1987 -1.2060  1.5582
 4476SOL     OW24886   3.010   3.743   3.664 -0.5307 -0.4003  0.1540
 4476SOL    HW124887   3.076   3.757   3.732 -0.5226  1.7160 -0.2928
 4476SOL    HW224888   3.018   3.648   3.654 -0.3772 -0.4713  0.9768
 4477SOL     OW24889   2.481   3.598  17.145 -0.3057  0.4110 -0.0326
 4477SOL    HW124890   2.475   3.508  17.177  0.6444  0.4529  0.2627
 4477SOL    HW224891   2.536   3.592  17.066  0.5999 -0.2211  0.6485
 4478SOL     OW24892   0.972   3.261   9.643 -0.3879  0.7882  0.0607
 4478SOL    HW124893   1.000   3.327   9.580 -0.2803  1.3976  0.7490
 4478SOL    HW224894   1.028   3.267   9.720 -1.4166  0.6137  0.8207
 4479SOL     OW24895   1.743   4.080   5.484  0.0502 -0.3261  0.1340
 4479SOL    HW124896   1.779   4.072   5.395  1.6561 -2.4802  0.9756
 4479SOL    HW224897   1.674   4.015   5.469 -0.5059  0.4967 -0.9219
 4480SOL     OW24898   3.915   1.259   2.069  0.2738 -0.0846  0.2119
 4480SOL    HW124899   3.840   1.314   2.043  0.2427 -0.4404 -0.4651
 4480SOL    HW224900   3.961   1.335   2.105 -0.0015  0.9364 -1.5734
 4481SOL     OW24901   2.702   1.727   1.684 -0.0472  0.0787 -0.1503
 4481SOL    HW124902   2.734   1.690   1.766  0.1697  2.3041  0.7937
 4481SOL    HW224903   2.627   1.782   1.710  0.2140  1.0402 -1.4137
 4482SOL     OW24904   1.088   1.861   5.450 -0.1094  0.5141 -0.0118
 4482SOL    HW124905   1.180   1.836   5.441 -0.4282 -0.7375  0.1646
 4482SOL    HW224906   1.089   1.900   5.538 -2.6572 -0.2640  0.3572
 4483SOL     OW24907   0.499   1.710   2.154 -0.5913 -0.1793  0.2395
 4483SOL    HW124908   0.441   1.641   2.187  0.0677 -0.4658  0.8009
 4483SOL    HW224909   0.585   1.669   2.142 -1.5430 -1.6361 -1.7498
 4484SOL     OW24910   3.065   2.420  13.008 -0.0103 -0.2574  0.4119
 4484SOL    HW124911   3.019   2.411  12.924  0.5782 -0.4490  0.1121
 4484SOL    HW224912   3.088   2.329  13.022  0.4747  0.2357  2.7583
 4485SOL     OW24913   0.778   3.346  11.190 -0.1754 -0.1689  0.3596
 4485SOL    HW124914   0.848   3.361  11.253  2.7897 -1.0819 -2.6871
 4485SOL    HW224915   0.708   3.392  11.236  0.8573  1.0405  0.7182
 4486SOL     OW24916   3.131   2.364  14.987  0.0726  0.3104  0.1894
 4486SOL    HW124917   3.214   2.323  14.962 -0.4325 -0.7075  0.1567
 4486SOL    HW224918   3.145   2.339  15.079 -1.1677 -0.8831  0.0541
 4487SOL     OW24919   2.773   2.267   5.729  0.0772  0.5321  0.7213
 4487SOL    HW124920   2.844   2.323   5.761  0.4134  0.7779 -0.4416
 4487SOL    HW224921   2.761   2.218   5.810 -0.6868  1.4757  1.1874
 4488SOL     OW24922   0.972   4.124  10.921 -0.2888 -0.0698 -0.2604
 4488SOL    HW124923   1.056   4.099  10.882  1.0262  1.1572  1.7826
 4488SOL    HW224924   0.966   4.216  10.895  1.3325  0.6785  1.9261
 4489SOL     OW24925   0.932   1.083   3.307 -0.0162  0.1226 -0.4766
 4489SOL    HW124926   0.939   1.001   3.258  0.7290 -0.6976  0.9668
 4489SOL    HW224927   0.925   1.055   3.399  2.3067 -2.2736 -1.0117
 4490SOL     OW24928   0.853   1.673   4.828  0.2270 -1.1240 -0.0497
 4490SOL    HW124929   0.931   1.727   4.813  0.0528 -0.9991 -0.5096
 4490SOL    HW224930   0.793   1.745   4.848  1.0424 -0.2150 -0.8194
 4491SOL     OW24931   1.191   2.456   8.025  0.1151  0.1159 -0.0019
 4491SOL    HW124932   1.205   2.430   8.116  1.0435  0.6364 -0.0061
 4491SOL    HW224933   1.135   2.534   8.035 -1.1238 -0.4727 -2.3215
 4492SOL     OW24934   2.227   2.434   5.601 -0.1429  0.4120  0.4884
 4492SOL    HW124935   2.170   2.503   5.566 -0.5869  0.1247  0.6495
 4492SOL    HW224936   2.172   2.403   5.673  1.6248 -0.5017  1.4276
 4493SOL     OW24937   2.869   2.338   6.089 -0.0162 -0.2239  0.3974
 4493SOL    HW124938   2.917   2.275   6.034  2.9100  3.8046 -1.6576
 4493SOL    HW224939   2.930   2.412   6.081 -0.1248 -0.3949 -2.0086
 4494SOL     OW24940   2.600   3.467   3.826  0.2758  0.1636 -0.1831
 4494SOL    HW124941   2.595   3.391   3.885  1.6833  0.6177  0.5232
 4494SOL    HW224942   2.519   3.446   3.779  0.3002  0.7284 -0.4698
 4495SOL     OW24943   0.653   1.757   5.465 -0.2164  0.2346 -0.0123
 4495SOL    HW124944   0.675   1.819   5.534  2.1904 -1.9380  1.1540
 4495SOL    HW224945   0.735   1.748   5.417 -0.3808  0.5682 -0.3522
 4496SOL     OW24946   3.243   2.048   8.444  0.0532  0.0018 -0.7951
 4496SOL    HW124947   3.208   2.016   8.361  1.4995 -0.0014 -1.4165
 4496SOL    HW224948   3.335   2.057   8.417  1.0922 -0.7438  2.5544
 4497SOL     OW24949   2.229   0.004   4.945  0.0434 -0.1469  0.3782
 4497SOL    HW124950   2.251   4.640   4.980 -0.1562 -0.5448 -0.4809
 4497SOL    HW224951   2.272   0.002   4.860  1.7264  1.7882  1.1773
 4498SOL     OW24952   1.702   1.110   3.966  0.3728  0.5315 -0.0724
 4498SOL    HW124953   1.667   1.155   3.889 -2.4513 -0.9093  0.3403
 4498SOL    HW224954   1.638   1.039   3.969 -0.5531  1.3999  0.7665
 4499SOL     OW24955   2.938   3.698   7.090  0.6608 -0.3569 -0.4257
 4499SOL    HW124956   2.905   3.770   7.143  0.1539  0.9552 -2.4960
 4499SOL    HW224957   3.022   3.734   7.059  0.0294  0.8075 -0.7589
 4500SOL     OW24958   0.536   4.016   2.317 -0.2158 -0.1409  0.6966
 4500SOL    HW124959   0.457   4.061   2.289  1.6052  1.6152 -1.6005
 4500SOL    HW224960   0.568   3.982   2.234 -1.1892 -0.3976  0.4359
 4501SOL     OW24961   4.019   3.009   2.166 -0.3291 -0.4170 -0.2553
 4501SOL    HW124962   3.980   3.063   2.235 -3.8512 -1.3255 -1.5241
 4501SOL    HW224963   4.070   3.072   2.115 -1.1205 -1.6180 -2.5394
 4502SOL     OW24964   1.121   1.815   9.066  0.3351 -0.2173  0.2734
 4502SOL    HW124965   1.065   1.783   9.137  1.3175 -0.8559  0.7682
 4502SOL    HW224966   1.068   1.890   9.039  0.3471 -0.2614  0.1295
 4503SOL     OW24967   0.447   2.554   2.019  0.3053 -0.5151 -1.3237
 4503SOL    HW124968   0.372   2.611   2.038 -0.0258 -1.4102  0.0570
 4503SOL    HW224969   0.509   2.596   2.078 -1.7554 -0.7069  0.9676
 4504SOL     OW24970   4.046   1.080   4.730  0.0873  0.3314  0.1591
 4504SOL    HW124971   4.031   1.088   4.636 -1.2235  2.1342  0.5358
 4504SOL    HW224972   3.968   1.039   4.766  0.4301 -1.2985 -0.9747
 4505SOL     OW24973   4.287   2.856  16.950 -0.8253 -0.3894  0.0140
 4505SOL    HW124974   4.260   2.772  16.987  0.9489 -1.5593 -1.3660
 4505SOL    HW224975   4.265   2.918  17.020  0.3996 -0.4709  0.4702
 4506SOL     OW24976   4.551   0.406  13.154  0.1683  0.0338 -0.1153
 4506SOL    HW124977   4.548   0.501  13.151  0.3607  0.0183 -0.6761
 4506SOL    HW224978   4.458   0.387  13.140  0.3560  0.2076 -1.6317
 4507SOL     OW24979   1.218   3.188   4.054 -0.5941 -0.3687 -0.3489
 4507SOL    HW124980   1.301   3.143   4.072 -0.1846 -0.7878 -3.2723
 4507SOL    HW224981   1.228   3.276   4.091 -0.8335 -0.1999 -0.6799
 4508SOL     OW24982   3.876   1.094   3.105 -0.1747 -0.1737  0.0385
 4508SOL    HW124983   3.786   1.079   3.134 -0.6965  1.2743 -0.8408
 4508SOL    HW224984   3.857   1.121   3.015  2.1397 -0.7782 -0.6374
 4509SOL     OW24985   0.869   2.155   0.998 -0.1906  0.3100  0.2291
 4509SOL    HW124986   0.918   2.107   0.932  1.6386 -0.4398  2.1304
 4509SOL    HW224987   0.927   2.231   0.999 -2.1200  1.8046 -0.5444
 4510SOL     OW24988   1.485   1.600   6.762 -0.1983 -0.3418 -0.2605
 4510SOL    HW124989   1.408   1.547   6.782  0.0648 -0.3121  0.8252
 4510SOL    HW224990   1.547   1.535   6.730 -0.1922  0.0146 -0.9799
 4511SOL     OW24991   2.939   1.308  12.414  0.6017 -0.0632  0.4114
 4511SOL    HW124992   3.011   1.366  12.390  0.5624 -0.5236 -0.8391
 4511SOL    HW224993   2.868   1.372  12.417  0.4137 -0.2596  0.1671
 4512SOL     OW24994   3.634   3.845   9.716 -0.1644 -0.6172  0.0790
 4512SOL    HW124995   3.643   3.784   9.789 -0.1220  1.1722  1.5869
 4512SOL    HW224996   3.699   3.816   9.652 -0.0733 -0.3814  0.0657
 4513SOL     OW24997   1.322   0.863   1.330  0.1319  0.3434  0.1134
 4513SOL    HW124998   1.407   0.897   1.304 -0.1876  1.4862  0.5576
 4513SOL    HW224999   1.333   0.770   1.311  1.1344 -0.0952  2.8300
 4514SOL     OW25000   4.606   2.496   6.215  0.7006 -0.6091 -0.5933
 4514SOL    HW125001   4.512   2.492   6.232  0.6420  2.5993 -0.0657
 4514SOL    HW225002   4.620   2.588   6.238 -0.4334 -0.3423 -0.9257
 4515SOL     OW25003   3.878   3.180   8.042 -0.1190 -0.1537 -0.0326
 4515SOL    HW125004   3.924   3.174   7.958 -1.3461 -2.1399 -0.5662
 4515SOL    HW225005   3.819   3.253   8.021  0.6841  0.7561  0.8646
 4516SOL     OW25006   0.424   2.201   8.105 -0.5018 -0.4344  0.0312
 4516SOL    HW125007   0.485   2.147   8.054  1.7832  1.9133  0.2405
 4516SOL    HW225008   0.359   2.135   8.129 -0.1238 -1.3297 -1.3810
 4517SOL     OW25009   4.472   4.511   1.543 -0.2357 -0.3852  0.4511
 4517SOL    HW125010   4.516   4.590   1.509  2.4592 -1.5139  1.2686
 4517SOL    HW225011   4.543   4.488   1.603 -0.2233  2.5930  1.6162
 4518SOL     OW25012   0.208   3.188   1.409  0.4063  0.0839 -0.1673
 4518SOL    HW125013   0.120   3.156   1.425  1.2112 -1.0340  2.1536
 4518SOL    HW225014   0.185   3.279   1.429  0.1521 -0.1194  0.4578
 4519SOL     OW25015   1.410   3.344  10.326  0.0635 -0.5967  0.0315
 4519SOL    HW125016   1.487   3.297  10.358  0.5958  1.8112  2.2466
 4519SOL    HW225017   1.345   3.338  10.395 -1.2327  2.3535 -0.9077
 4520SOL     OW25018   4.293   3.585   3.950  0.0897 -0.6645 -0.5615
 4520SOL    HW125019   4.304   3.604   4.043  2.2508  0.1610 -0.9719
 4520SOL    HW225020   4.382   3.562   3.923  0.0737 -1.3971  0.0387
 4521SOL     OW25021   0.914   1.994   8.973 -0.0889  0.0291 -0.0062
 4521SOL    HW125022   0.931   2.083   9.004  0.9831  0.2439 -1.2178
 4521SOL    HW225023   0.954   1.994   8.886 -1.2849 -1.1786 -0.5464
 4522SOL     OW25024   3.664   4.585   5.205 -0.3411 -0.2650  0.1173
 4522SOL    HW125025   3.677   4.656   5.142  0.5616  0.4232  1.0781
 4522SOL    HW225026   3.709   4.513   5.161 -0.4565  1.1586 -2.3325
 4523SOL     OW25027   3.519   4.162   7.531  0.0021  0.4273  0.4329
 4523SOL    HW125028   3.431   4.127   7.521  0.6687 -0.8943 -0.7197
 4523SOL    HW225029   3.570   4.095   7.485  0.0494  0.0115  1.0886
 4524SOL     OW25030   1.324   1.776   6.586 -0.0927  0.4908  0.0489
 4524SOL    HW125031   1.401   1.734   6.624 -1.4058 -0.9669  1.0853
 4524SOL    HW225032   1.301   1.822   6.666  2.5946 -1.9149  2.1991
 4525SOL     OW25033   4.722   2.664  16.368  0.0215  0.3216 -0.1176
 4525SOL    HW125034   4.689   2.682  16.456  0.6745 -1.7857  0.5524
 4525SOL    HW225035   0.056   2.741  16.361  0.1603  0.2747  0.5000
 4526SOL     OW25036   0.137   3.330   7.246 -0.6314 -0.2350 -0.1420
 4526SOL    HW125037   0.157   3.366   7.160  2.0880 -0.0815  0.5580
 4526SOL    HW225038   0.221   3.346   7.290  1.0275 -1.1660 -2.9347
 4527SOL     OW25039   2.229   2.046  10.221 -0.4175  0.0873 -0.1644
 4527SOL    HW125040   2.306   2.026  10.274 -1.2292 -0.6947  0.7292
 4527SOL    HW225041   2.263   2.123  10.175 -0.5428  0.8447  1.0153
 4528SOL     OW25042   2.544   4.461   8.236 -0.4444  0.3096  0.1576
 4528SOL    HW125043   2.536   4.403   8.312  0.1754 -3.2011 -2.4846
 4528SOL    HW225044   2.637   4.477   8.248 -0.3945 -0.8300  1.3664
 4529SOL     OW25045   1.705   4.294   2.538 -0.3926  0.1706 -0.1656
 4529SOL    HW125046   1.682   4.330   2.452  1.1944 -1.5327 -1.3202
 4529SOL    HW225047   1.649   4.216   2.536 -0.9552  0.5991 -1.4082
 4530SOL     OW25048   1.712   4.062  14.007  0.0529  0.4619 -0.4046
 4530SOL    HW125049   1.662   4.024  14.079  2.1571  0.1175  0.8773
 4530SOL    HW225050   1.659   4.032  13.933  1.9149 -0.1055 -1.5326
 4531SOL     OW25051   2.435   3.310   9.321  0.3856  0.2528 -0.5054
 4531SOL    HW125052   2.508   3.372   9.322 -0.3270  1.0858 -0.6027
 4531SOL    HW225053   2.376   3.331   9.393  0.6038  0.7733 -0.4749
 4532SOL     OW25054   3.706   3.552   2.731  0.1853 -0.6724  0.2325
 4532SOL    HW125055   3.625   3.601   2.720  0.2977 -0.8594 -1.5534
 4532SOL    HW225056   3.756   3.566   2.650 -0.7669  1.0277 -0.0561
 4533SOL     OW25057   1.711   4.380   3.693  0.0836 -0.0687 -0.3677
 4533SOL    HW125058   1.770   4.364   3.766 -0.5836 -1.1759 -0.0714
 4533SOL    HW225059   1.763   4.442   3.641  0.8987 -0.4209  0.0274
 4534SOL     OW25060   4.231   0.994  12.791 -0.6341 -0.9847  0.1514
 4534SOL    HW125061   4.177   1.052  12.737  0.7758 -1.2416 -1.5439
 4534SOL    HW225062   4.288   1.061  12.830  1.7274 -1.5522 -2.3114
 4535SOL     OW25063   1.284   0.964   4.312 -0.4827 -0.2308  0.2043
 4535SOL    HW125064   1.354   1.015   4.351 -0.9397  0.8247 -0.3717
 4535SOL    HW225065   1.237   1.038   4.273 -0.8294 -1.1268 -1.0913
 4536SOL     OW25066   0.302   0.223  11.292  0.5823 -0.2894 -0.3763
 4536SOL    HW125067   0.210   0.203  11.271  0.2673  0.7034  0.0275
 4536SOL    HW225068   0.305   0.318  11.299  0.3809 -0.3023 -0.1259
 4537SOL     OW25069   1.659   3.721   6.280  0.0338  0.1545  0.2800
 4537SOL    HW125070   1.747   3.735   6.243  1.0566 -1.9318  1.9625
 4537SOL    HW225071   1.670   3.743   6.372  0.5357  0.0348  0.2500
 4538SOL     OW25072   1.100   2.255  17.436 -1.1412  0.0361 -0.8447
 4538SOL    HW125073   1.090   2.197  17.511 -1.8397  0.4823 -0.5989
 4538SOL    HW225074   1.181   2.303  17.453 -2.2361  1.4004  0.4291
 4539SOL     OW25075   4.474   0.957  12.505 -0.0379  0.1949 -0.1560
 4539SOL    HW125076   4.443   0.960  12.595  3.6970 -0.1854  1.1571
 4539SOL    HW225077   4.567   0.935  12.514  0.5921  3.4202  1.2879
 4540SOL     OW25078   0.531   2.611  16.574  0.2272  0.1962 -0.4751
 4540SOL    HW125079   0.463   2.575  16.631 -1.5864  0.5060 -2.4421
 4540SOL    HW225080   0.484   2.584  16.496  0.0777  0.6854 -0.5544
 4541SOL     OW25081   1.167   2.701   2.238  0.7141  0.0759  0.1573
 4541SOL    HW125082   1.245   2.647   2.222  3.3851  3.7239  0.8551
 4541SOL    HW225083   1.132   2.698   2.149 -1.1210  0.9936  0.8637
 4542SOL     OW25084   0.601   4.456  10.638 -0.0743 -0.1570  0.2497
 4542SOL    HW125085   0.634   4.376  10.679 -0.4956 -0.6275 -0.3313
 4542SOL    HW225086   0.570   4.430  10.551 -0.1629  0.7703  0.0032
 4543SOL     OW25087   0.456   0.565   4.440 -0.2364  0.1800 -0.3307
 4543SOL    HW125088   0.544   0.551   4.476  0.0810  0.1663 -1.0980
 4543SOL    HW225089   0.395   0.540   4.510  1.6482 -0.5681  1.0504
 4544SOL     OW25090   1.733   1.301   2.355  0.8815  0.0807  0.4753
 4544SOL    HW125091   1.753   1.383   2.399  3.2496  0.5137 -1.4365
 4544SOL    HW225092   1.705   1.331   2.269  1.4202  1.0320  0.6269
 4545SOL     OW25093   3.518   1.591  13.552 -0.0011 -0.6539 -0.3629
 4545SOL    HW125094   3.584   1.628  13.611 -2.1323 -2.1922  2.9890
 4545SOL    HW225095   3.571   1.588  13.473 -2.6557  2.1631 -2.2654
 4546SOL     OW25096   1.950   4.015   8.553 -0.5075  0.1153  0.0579
 4546SOL    HW125097   1.956   4.050   8.642 -0.8872  0.1630  0.0654
 4546SOL    HW225098   1.859   3.984   8.550 -0.1615 -0.8728 -0.1834
 4547SOL     OW25099   0.619   2.111   4.616 -0.2458  0.4220  0.5895
 4547SOL    HW125100   0.663   2.196   4.615 -1.6635  1.1747  1.5776
 4547SOL    HW225101   0.624   2.085   4.708 -2.4609 -0.1899  0.5286
 4548SOL     OW25102   1.932   1.849  15.686 -0.5217  0.0539 -0.2492
 4548SOL    HW125103   1.849   1.852  15.735 -0.1335 -2.1427  0.5218
 4548SOL    HW225104   1.944   1.755  15.693 -2.2548 -0.2408 -1.3517
 4549SOL     OW25105   1.675   1.301   4.677 -0.7440 -0.2259 -0.2406
 4549SOL    HW125106   1.666   1.261   4.763 -2.1503  1.0533  0.1974
 4549SOL    HW225107   1.588   1.303   4.636 -0.1468 -1.1239 -1.5513
 4550SOL     OW25108   1.375   1.684  14.843  0.6342  0.2698 -0.3556
 4550SOL    HW125109   1.445   1.709  14.782  0.9828 -0.6136 -0.3097
 4550SOL    HW225110   1.299   1.676  14.785  0.5418  0.6691 -0.2906
 4551SOL     OW25111   2.902   1.948  15.272  0.2989  0.1623  0.3818
 4551SOL    HW125112   2.913   1.862  15.231 -0.4532 -0.0873  0.6958
 4551SOL    HW225113   2.866   1.923  15.357 -1.0267 -0.7503 -0.4397
 4552SOL     OW25114   1.317   1.400  14.402 -1.1593  0.7796 -0.0017
 4552SOL    HW125115   1.255   1.327  14.396 -0.6907  0.1359  3.1702
 4552SOL    HW225116   1.300   1.451  14.481 -0.6435  1.1406 -0.1229
 4553SOL     OW25117   1.985   0.218   9.049 -0.0811 -0.3395 -0.0898
 4553SOL    HW125118   2.005   0.285   9.114  0.8568  1.3277 -2.0931
 4553SOL    HW225119   1.893   0.245   9.042  0.5627  1.6688 -0.9882
 4554SOL     OW25120   2.864   2.241   7.297 -0.1798 -0.0534 -0.4916
 4554SOL    HW125121   2.947   2.276   7.329  1.1275 -1.5682 -2.2136
 4554SOL    HW225122   2.823   2.245   7.383 -0.5825  0.2454 -0.7014
 4555SOL     OW25123   0.611   3.279   5.245 -0.3492  0.0245 -0.0874
 4555SOL    HW125124   0.567   3.216   5.187  0.9867 -1.3395  0.3756
 4555SOL    HW225125   0.694   3.296   5.200  1.0015 -1.7603  1.7469
 4556SOL     OW25126   1.289   1.855  13.559 -0.8023 -0.8851  0.2131
 4556SOL    HW125127   1.305   1.761  13.561  1.2325 -0.5502 -0.2578
 4556SOL    HW225128   1.260   1.863  13.650 -1.7856  0.1641 -0.1899
 4557SOL     OW25129   0.053   3.680   1.166 -0.1289 -0.2921 -0.7052
 4557SOL    HW125130   0.072   3.627   1.088  0.8251 -0.4774 -0.3438
 4557SOL    HW225131   0.114   3.636   1.225 -1.4050 -0.4718  0.4813
 4558SOL     OW25132   1.607   1.717   5.630  0.1842  0.2097 -0.1173
 4558SOL    HW125133   1.631   1.746   5.542  0.0953 -0.8083 -0.4743
 4558SOL    HW225134   1.628   1.625   5.617 -1.3153 -0.3057  1.1826
 4559SOL     OW25135   3.451   0.668  10.263 -0.1827 -0.1826 -0.0424
 4559SOL    HW125136   3.392   0.743  10.264  1.8217  1.4585 -3.4740
 4559SOL    HW225137   3.411   0.604  10.321  0.7737  0.7906  1.7063
 4560SOL     OW25138   4.462   4.587   8.722  0.4583 -0.3762 -0.4576
 4560SOL    HW125139   4.444   4.508   8.773 -0.8460 -0.2698 -0.7500
 4560SOL    HW225140   4.555   4.599   8.739  0.8449 -0.6139 -2.4462
 4561SOL     OW25141   0.377   2.815  12.121 -0.0764 -0.3606  0.3893
 4561SOL    HW125142   0.436   2.741  12.109  0.7057  0.3874 -0.4120
 4561SOL    HW225143   0.291   2.777  12.139  1.3823 -3.7348  0.2159
 4562SOL     OW25144   2.348   1.689  15.222 -0.5604  0.3495 -0.0121
 4562SOL    HW125145   2.351   1.595  15.240  0.7410  0.2622 -0.6286
 4562SOL    HW225146   2.365   1.693  15.128 -0.0144 -2.1831 -0.0274
 4563SOL     OW25147   4.366   1.984   9.775 -0.1230 -0.3208  0.0992
 4563SOL    HW125148   4.438   2.046   9.770 -1.3245  1.2723  2.2452
 4563SOL    HW225149   4.419   1.904   9.785  0.0129 -0.0641  1.4106
 4564SOL     OW25150   3.123   1.855  15.046  0.3998  0.3487  0.3522
 4564SOL    HW125151   3.172   1.837  14.966 -0.9536 -0.1972 -0.3518
 4564SOL    HW225152   3.101   1.769  15.080 -2.1577  0.8749  0.0351
 4565SOL     OW25153   1.544   1.967   3.117 -0.3830 -0.2658  0.0897
 4565SOL    HW125154   1.583   2.026   3.053 -1.5127 -1.4282 -1.6658
 4565SOL    HW225155   1.573   1.992   3.205 -0.1431 -0.1861 -0.0126
 4566SOL     OW25156   3.917   0.386   9.679 -0.1335  0.3355 -0.3796
 4566SOL    HW125157   4.001   0.376   9.635  0.9552 -0.9600  2.0293
 4566SOL    HW225158   3.871   0.312   9.638  0.4643  0.5818 -1.4979
 4567SOL     OW25159   4.343   0.415   3.450  0.4538 -0.1933  0.2888
 4567SOL    HW125160   4.300   0.441   3.369 -0.1019  0.8906  0.9244
 4567SOL    HW225161   4.268   0.428   3.509 -1.3460 -0.5723 -1.9488
 4568SOL     OW25162   2.418   1.446   6.615  0.5739 -0.0218  0.0485
 4568SOL    HW125163   2.454   1.534   6.614 -0.9015  0.5894  0.8760
 4568SOL    HW225164   2.389   1.426   6.526  1.5135 -0.6480 -0.1177
 4569SOL     OW25165   3.096   0.417  10.774 -0.1754  0.5475 -0.5088
 4569SOL    HW125166   3.051   0.334  10.793 -1.2580  1.1590 -0.3921
 4569SOL    HW225167   3.017   0.467  10.755 -0.2355  0.3602 -0.7535
 4570SOL     OW25168   4.663   4.255  15.915 -0.1427 -0.3515  0.0168
 4570SOL    HW125169   0.016   4.290  15.963  0.7816 -0.0789 -1.6641
 4570SOL    HW225170   4.612   4.331  15.889  1.3874  0.5897 -0.2019
 4571SOL     OW25171   1.015   0.716   2.311 -0.3328 -0.6805  0.3413
 4571SOL    HW125172   1.082   0.736   2.246 -0.0666 -2.2184  0.1409
 4571SOL    HW225173   0.961   0.792   2.333 -1.1063 -2.4942  4.7665
 4572SOL     OW25174   1.386   1.165  10.899  0.5390  0.3055 -0.2616
 4572SOL    HW125175   1.335   1.238  10.865  0.3806  1.0655  1.5799
 4572SOL    HW225176   1.463   1.217  10.923  0.0257  0.3031  1.4021
 4573SOL     OW25177   0.929   4.333   1.741  0.3681 -0.8693 -0.0666
 4573SOL    HW125178   0.961   4.327   1.651 -0.2940  2.0739 -0.5002
 4573SOL    HW225179   0.845   4.287   1.732 -0.4744  0.8821 -1.0124
 4574SOL     OW25180   3.527   4.418   4.532  0.7959  0.2047 -1.2197
 4574SOL    HW125181   3.453   4.478   4.527 -1.3182 -2.3145 -0.4030
 4574SOL    HW225182   3.594   4.483   4.551  0.3594  0.9090 -2.0694
 4575SOL     OW25183   1.545   4.375   7.781  0.2524  0.6748 -0.0658
 4575SOL    HW125184   1.636   4.350   7.763 -0.7978 -3.2585 -0.0801
 4575SOL    HW225185   1.501   4.291   7.765  2.6938 -0.7785  0.8910
 4576SOL     OW25186   2.214   1.707   7.114 -0.3699 -0.9232 -0.2831
 4576SOL    HW125187   2.122   1.699   7.141 -0.3276  0.3240  0.2462
 4576SOL    HW225188   2.213   1.763   7.036  1.1377 -0.5843 -0.0603
 4577SOL     OW25189   3.918   2.543  13.808  0.8658 -0.6406 -0.3761
 4577SOL    HW125190   3.940   2.465  13.757  1.0079 -0.7779 -0.1052
 4577SOL    HW225191   3.970   2.549  13.889 -1.4661 -0.4127  1.0903
 4578SOL     OW25192   3.684   2.399  14.810  0.6028 -0.1063 -0.1590
 4578SOL    HW125193   3.727   2.398  14.895 -0.7902  2.8038  0.5789
 4578SOL    HW225194   3.649   2.488  14.809  1.4181  0.2048 -1.3866
 4579SOL     OW25195   2.215   2.255   6.643 -0.1762  0.5371 -0.5168
 4579SOL    HW125196   2.202   2.337   6.691  0.8074  0.1647  0.3776
 4579SOL    HW225197   2.305   2.229   6.664 -0.2903 -0.3760 -1.1644
 4580SOL     OW25198   4.424   0.061  14.146  0.3878  0.0581  0.4414
 4580SOL    HW125199   4.371   0.064  14.226  0.6252  1.5302  0.5481
 4580SOL    HW225200   4.468   4.699  14.150 -3.0616 -1.5290  4.6495
 4581SOL     OW25201   2.587   1.512  14.838  0.1474 -0.5004  0.5646
 4581SOL    HW125202   2.526   1.580  14.868  1.4541  0.2945  1.4793
 4581SOL    HW225203   2.675   1.538  14.868 -0.1017 -0.6003  1.3842
 4582SOL     OW25204   4.220   2.910   8.657  0.4449  0.0806  0.2478
 4582SOL    HW125205   4.260   2.977   8.602  0.0448 -0.1049 -0.2723
 4582SOL    HW225206   4.173   2.963   8.721  2.8529 -0.0561  2.0844
 4583SOL     OW25207   0.932   0.061  14.799  0.8007  0.0017 -0.1217
 4583SOL    HW125208   1.009   0.006  14.783  0.2878 -1.4354  2.4707
 4583SOL    HW225209   0.877   0.007  14.856  1.4197 -0.5346 -0.0291
 4584SOL     OW25210   4.059   4.040   7.237  0.1649 -0.4865  0.3422
 4584SOL    HW125211   4.038   3.952   7.206  3.6316 -0.4983 -2.0374
 4584SOL    HW225212   3.970   4.064   7.262  0.4626 -0.1828  1.1130
 4585SOL     OW25213   2.391   3.260  11.677  0.0838  0.5879  0.1891
 4585SOL    HW125214   2.482   3.258  11.707 -0.0325  1.4795  0.5972
 4585SOL    HW225215   2.392   3.197  11.605  0.1222  2.5652 -1.5222
 4586SOL     OW25216   2.490   2.189  17.335 -0.0577  0.0041 -0.2231
 4586SOL    HW125217   2.499   2.280  17.365 -0.9941  0.3879 -1.1029
 4586SOL    HW225218   2.546   2.132  17.388  0.9506 -0.0198 -1.3067
 4587SOL     OW25219   2.435   2.946   7.392  0.1106  0.1244  0.0140
 4587SOL    HW125220   2.430   3.013   7.460 -2.9227 -0.0907 -0.0267
 4587SOL    HW225221   2.445   2.867   7.446 -0.8909 -0.4191 -0.5990
 4588SOL     OW25222   3.386   1.939   4.258 -0.2668  0.1558  0.1682
 4588SOL    HW125223   3.381   1.857   4.307  2.3154  0.2764  0.6318
 4588SOL    HW225224   3.419   1.999   4.325  1.1593  0.1012 -0.4732
 4589SOL     OW25225   4.132   2.121   0.648  0.5738  0.1503 -0.0890
 4589SOL    HW125226   4.091   2.143   0.565  0.1211 -4.5541 -1.1503
 4589SOL    HW225227   4.225   2.108   0.629  1.0911  0.3263  2.3427
 4590SOL     OW25228   2.184   3.159   6.650 -0.0759  0.2397 -0.4320
 4590SOL    HW125229   2.197   3.229   6.713  2.7325  1.1896 -2.0506
 4590SOL    HW225230   2.244   3.101   6.695 -0.6682  0.6416  0.8681
 4591SOL     OW25231   0.796   1.216  10.674  0.2715  0.2029  0.4746
 4591SOL    HW125232   0.865   1.237  10.738  1.5914  2.5193 -1.7379
 4591SOL    HW225233   0.715   1.208  10.725 -0.1590  3.0700  0.2058
 4592SOL     OW25234   0.653   1.471  10.598 -0.0238 -0.2354 -0.0281
 4592SOL    HW125235   0.743   1.461  10.566 -0.5371  0.9738 -1.8778
 4592SOL    HW225236   0.608   1.498  10.518 -0.1339 -0.0013  0.1142
 4593SOL     OW25237   0.679   2.071   1.780 -0.6451 -0.2579  0.3317
 4593SOL    HW125238   0.763   2.117   1.774  1.0709 -3.4049  0.4474
 4593SOL    HW225239   0.651   2.063   1.689 -2.9885  1.8861  0.8713
 4594SOL     OW25240   3.563   4.471   8.029 -0.2871  0.1629  0.4079
 4594SOL    HW125241   3.577   4.491   8.122  0.7222  1.6973 -0.0646
 4594SOL    HW225242   3.580   4.377   8.036  0.8864  0.3390 -0.0358
 4595SOL     OW25243   4.175   3.417   3.538  0.2317  0.4588  0.1294
 4595SOL    HW125244   4.116   3.343   3.550 -0.6177  1.1834  0.3775
 4595SOL    HW225245   4.118   3.488   3.508  1.2773  1.7878  1.2581
 4596SOL     OW25246   3.897   1.039   8.008 -0.5594  0.1753 -0.3593
 4596SOL    HW125247   3.974   0.988   8.034 -0.4857 -0.0024 -0.9193
 4596SOL    HW225248   3.879   1.102   8.078  0.1719  0.4672 -0.4324
 4597SOL     OW25249   2.158   3.305  16.573 -0.6614  0.0214  0.4942
 4597SOL    HW125250   2.191   3.229  16.620  1.4693  1.1675  0.8552
 4597SOL    HW225251   2.228   3.368  16.589 -0.4497 -0.1054  0.0645
 4598SOL     OW25252   1.611   2.588  17.165 -0.7093  0.1305  0.2744
 4598SOL    HW125253   1.672   2.517  17.143  1.0180  2.1463 -1.3929
 4598SOL    HW225254   1.673   2.647  17.207 -2.9790  2.2364  0.6917
 4599SOL     OW25255   1.909   3.414   7.962 -0.0986  0.4434 -0.6173
 4599SOL    HW125256   1.985   3.355   7.963 -0.8829 -0.6002 -2.6682
 4599SOL    HW225257   1.857   3.356   7.906  0.1407 -0.3851  0.0283
 4600SOL     OW25258   2.960   2.672   7.234 -0.0033 -0.0134  0.2922
 4600SOL    HW125259   2.973   2.599   7.174 -1.5052  0.7775 -1.0009
 4600SOL    HW225260   2.889   2.717   7.188  0.2855 -0.6264 -0.7502
 4601SOL     OW25261   3.209   2.928  14.610 -0.3464  0.1448 -0.0460
 4601SOL    HW125262   3.295   2.941  14.652 -0.0539  0.3677 -0.7238
 4601SOL    HW225263   3.157   2.895  14.683 -0.0781 -1.7166 -0.7123
 4602SOL     OW25264   3.039   4.549   6.615 -0.4722 -0.2614  0.4455
 4602SOL    HW125265   3.003   4.585   6.696  1.1043  3.1350 -0.3563
 4602SOL    HW225266   3.115   4.606   6.605 -2.3633  1.7062 -2.6179
 4603SOL     OW25267   2.599   1.054  14.775 -0.9237 -0.6006  0.2955
 4603SOL    HW125268   2.652   1.008  14.710 -1.1155  0.3060 -0.4985
 4603SOL    HW225269   2.591   1.145  14.747  1.0573  0.0549  1.8347
 4604SOL     OW25270   4.210   3.866   0.493  0.2167  0.0778  0.2111
 4604SOL    HW125271   4.169   3.944   0.531 -0.8196 -0.2677 -0.1900
 4604SOL    HW225272   4.269   3.846   0.566  1.1658  1.9082 -0.0598
 4605SOL     OW25273   4.074   1.739   8.578  0.1995 -0.3493 -0.1172
 4605SOL    HW125274   4.032   1.825   8.574 -0.3745 -0.5599  1.6709
 4605SOL    HW225275   4.109   1.720   8.665  3.0154 -0.5431 -1.2756
 4606SOL     OW25276   0.068   2.174   4.123 -0.0850 -0.1280 -0.1705
 4606SOL    HW125277   0.007   2.128   4.066 -0.4285  1.2568 -0.9086
 4606SOL    HW225278   0.040   2.265   4.118 -0.2743 -0.2955 -2.2401
 4607SOL     OW25279   4.106   2.925   3.789 -0.2854 -0.0604 -0.5978
 4607SOL    HW125280   4.122   2.911   3.882 -0.5083  0.0325 -0.5448
 4607SOL    HW225281   4.023   2.877   3.784 -0.2259 -0.1780 -0.4503
 4608SOL     OW25282   1.249   0.249   5.049  0.0155 -0.7489  0.3613
 4608SOL    HW125283   1.301   0.329   5.045  0.0802 -0.8543 -0.7566
 4608SOL    HW225284   1.218   0.239   4.959 -1.7811  1.5514  0.7277
 4609SOL     OW25285   2.222   3.117   6.108  0.4435 -0.5185 -0.0469
 4609SOL    HW125286   2.138   3.149   6.075  1.1974  1.6912  0.1982
 4609SOL    HW225287   2.213   3.111   6.203 -0.3176 -1.7680 -0.2047
 4610SOL     OW25288   4.168   2.392   5.472  0.0891 -0.1927  0.6649
 4610SOL    HW125289   4.229   2.463   5.494 -1.1515  0.8134  0.9218
 4610SOL    HW225290   4.224   2.342   5.413 -0.3404  0.3996 -0.2404
 4611SOL     OW25291   1.772   4.166   8.080 -0.0005 -0.0339  0.0863
 4611SOL    HW125292   1.693   4.114   8.064 -0.8451  1.5104 -0.7714
 4611SOL    HW225293   1.793   4.174   7.987  1.1335 -0.1205  0.3341
 4612SOL     OW25294   2.113   0.393  13.156  0.0684 -0.2898  0.9256
 4612SOL    HW125295   2.107   0.481  13.192  0.5083  0.0891  0.0453
 4612SOL    HW225296   2.058   0.344  13.218 -1.4046  1.7220  1.1915
 4613SOL     OW25297   2.403   0.378  10.529  0.1852  0.2018  0.3769
 4613SOL    HW125298   2.371   0.453  10.580  0.0740 -0.8315  1.8339
 4613SOL    HW225299   2.462   0.339  10.593 -0.1211  0.6482  0.9327
 4614SOL     OW25300   2.948   0.640   5.025  0.0590  0.1114 -0.3268
 4614SOL    HW125301   2.928   0.684   5.107 -2.6417  0.4878 -1.1649
 4614SOL    HW225302   2.861   0.605   5.006  0.8782  0.0061 -3.9714
 4615SOL     OW25303   3.815   4.291  17.259 -0.1142 -0.0724  0.6019
 4615SOL    HW125304   3.858   4.307  17.175 -1.5291  1.0898  0.0969
 4615SOL    HW225305   3.739   4.241  17.229 -1.1619  2.4523 -0.9286
 4616SOL     OW25306   0.508   0.869  10.415 -0.3340 -0.1400  0.7239
 4616SOL    HW125307   0.445   0.898  10.349  0.6834  0.1343 -0.1134
 4616SOL    HW225308   0.517   0.956  10.453 -0.6315  0.7727 -1.3256
 4617SOL     OW25309   4.290   2.100   7.266  0.0582 -0.1045  0.3918
 4617SOL    HW125310   4.354   2.164   7.234  1.3454  0.8854  4.9975
 4617SOL    HW225311   4.226   2.092   7.195  2.4473  1.5655 -1.9206
 4618SOL     OW25312   1.003   2.137   3.564 -0.5184 -0.3295  0.4266
 4618SOL    HW125313   0.929   2.077   3.572  0.2766 -1.5713 -1.6130
 4618SOL    HW225314   1.021   2.138   3.470  1.1618 -0.7358  0.7454
 4619SOL     OW25315   1.350   2.850   7.582 -0.1596 -0.6744 -0.6407
 4619SOL    HW125316   1.280   2.853   7.648 -1.1607 -2.6427 -1.6200
 4619SOL    HW225317   1.388   2.933   7.611  1.4115 -2.4231  2.2778
 4620SOL     OW25318   0.982   4.198  12.470 -0.1383  0.1320 -0.1057
 4620SOL    HW125319   0.966   4.127  12.533  0.7053  1.4020  1.5539
 4620SOL    HW225320   0.904   4.186  12.416 -0.4944 -0.0202  0.4386
 4621SOL     OW25321   0.150   1.204  16.814  0.2078  0.1621  0.2850
 4621SOL    HW125322   0.179   1.265  16.746  0.5177 -1.0161 -0.6596
 4621SOL    HW225323   0.058   1.192  16.790  0.3362  0.4932 -0.3875
 4622SOL     OW25324   1.569   1.780   6.337  0.2631  0.5054  0.0702
 4622SOL    HW125325   1.526   1.739   6.262  0.6304  0.5856 -0.1846
 4622SOL    HW225326   1.583   1.868   6.302 -0.3178  0.8980  0.8366
 4623SOL     OW25327   1.014   2.562   3.036 -0.1108 -0.7304 -0.2584
 4623SOL    HW125328   0.970   2.503   3.097  0.4710  0.4135  1.2606
 4623SOL    HW225329   1.103   2.530   3.051 -0.3920 -1.3478  0.0631
 4624SOL     OW25330   2.956   3.833   3.415 -0.4154  0.2836 -0.1917
 4624SOL    HW125331   2.943   3.808   3.506 -0.7515  0.5497 -0.1667
 4624SOL    HW225332   2.881   3.888   3.391 -0.0746  0.6895 -0.3387
 4625SOL     OW25333   1.189   0.207   1.781  0.4337 -0.1866  0.3559
 4625SOL    HW125334   1.115   0.148   1.794 -1.4746  1.7366 -1.8802
 4625SOL    HW225335   1.150   0.295   1.785  0.9772  0.0397  0.6815
 4626SOL     OW25336   2.212   2.659   3.881  0.0532  0.0766 -0.0230
 4626SOL    HW125337   2.307   2.670   3.890 -0.0281 -0.0515  0.9395
 4626SOL    HW225338   2.197   2.634   3.972 -0.2061 -0.7886 -0.3076
 4627SOL     OW25339   1.663   0.517   2.224  0.7965  0.3488  0.2556
 4627SOL    HW125340   1.573   0.490   2.243  0.2242  1.0686 -1.4531
 4627SOL    HW225341   1.661   0.610   2.246  2.1539  0.7492 -1.3020
 4628SOL     OW25342   4.124   0.986  15.268  0.4041 -0.2229  0.0110
 4628SOL    HW125343   4.131   1.068  15.318 -0.8754 -0.0045 -0.1700
 4628SOL    HW225344   4.199   1.000  15.209  1.3290  1.3437  1.5372
 4629SOL     OW25345   1.473   0.403   3.876  0.1077  0.0462 -0.0480
 4629SOL    HW125346   1.441   0.482   3.920  2.2391  0.7068  0.2920
 4629SOL    HW225347   1.566   0.422   3.883  0.1644  0.2606 -1.5040
 4630SOL     OW25348   2.281   1.974   1.437  0.2167  0.1943 -0.1847
 4630SOL    HW125349   2.302   1.885   1.463 -0.8580 -0.4390 -1.4831
 4630SOL    HW225350   2.271   1.961   1.342 -1.4116  0.6698 -0.0785
 4631SOL     OW25351   0.280   0.308   7.863  0.3567  0.1871  0.0154
 4631SOL    HW125352   0.257   0.394   7.898  0.5396  1.0940 -2.1351
 4631SOL    HW225353   0.189   0.280   7.849  0.2707  1.2226 -1.5568
 4632SOL     OW25354   2.369   0.248   2.793 -0.2028  0.6020  0.2145
 4632SOL    HW125355   2.279   0.225   2.816 -0.2299  0.6493  0.1538
 4632SOL    HW225356   2.370   0.319   2.729  0.0829  0.0160 -0.4308
 4633SOL     OW25357   3.187   0.394   7.419  0.1095  0.1161 -0.6206
 4633SOL    HW125358   3.111   0.397   7.477  0.5652  1.6554 -0.1006
 4633SOL    HW225359   3.138   0.331   7.366  2.2751 -2.2027  0.1385
 4634SOL     OW25360   0.475   3.019   3.228  0.4493  0.0615 -0.2161
 4634SOL    HW125361   0.421   3.076   3.283  0.1543  1.6189 -2.1038
 4634SOL    HW225362   0.453   2.931   3.259 -1.2723  0.4878 -0.2043
 4635SOL     OW25363   2.323   0.932   8.540 -0.2031 -0.1805  0.3775
 4635SOL    HW125364   2.306   0.840   8.520 -2.3017  0.4310 -0.5636
 4635SOL    HW225365   2.268   0.953   8.616 -1.7307  1.4830 -1.1951
 4636SOL     OW25366   1.112   2.290  17.159  0.4829  0.9001  0.2781
 4636SOL    HW125367   1.052   2.243  17.103  0.6568  0.3170  0.5761
 4636SOL    HW225368   1.089   2.275  17.251  1.1969  0.0429  0.3163
 4637SOL     OW25369   3.609   4.513  10.996  0.6626 -0.5868  0.1611
 4637SOL    HW125370   3.569   4.587  10.952  2.5609 -0.6752 -1.7562
 4637SOL    HW225371   3.699   4.538  11.018  0.1923  0.8526  0.4105
 4638SOL     OW25372   2.253   4.628   1.940  0.6946  0.3414 -0.0337
 4638SOL    HW125373   2.201   4.696   1.985 -1.0119  0.8372 -2.7329
 4638SOL    HW225374   2.223   4.546   1.980 -1.7351 -0.0465 -2.6349
 4639SOL     OW25375   0.445   0.266  11.007 -0.0283  0.4502 -0.3812
 4639SOL    HW125376   0.421   0.328  10.939  0.2664 -2.3838 -3.0458
 4639SOL    HW225377   0.366   0.213  10.999 -0.5157  1.4558 -2.2968
 4640SOL     OW25378   0.414   0.497   7.229 -0.2467 -0.2261  0.0626
 4640SOL    HW125379   0.470   0.491   7.307 -0.2923  1.4815  0.2141
 4640SOL    HW225380   0.363   0.416   7.224 -0.7547  0.1989 -1.4327
 4641SOL     OW25381   1.890   3.902   4.910 -0.5654  0.0949  0.0903
 4641SOL    HW125382   1.824   3.833   4.919  1.5151 -1.7921  1.0031
 4641SOL    HW225383   1.938   3.877   4.989 -0.9832 -1.5550 -0.1690
 4642SOL     OW25384   4.437   3.765   2.985  0.4183  0.1245  0.2077
 4642SOL    HW125385   4.498   3.694   3.006  0.3177  0.2283  0.8348
 4642SOL    HW225386   4.495   3.822   2.934 -0.6261 -0.5425 -1.7419
 4643SOL     OW25387   1.891   3.858   7.465  0.2969  0.8973 -0.0901
 4643SOL    HW125388   1.797   3.876   7.472  0.1035  0.3679 -1.3234
 4643SOL    HW225389   1.910   3.805   7.542  1.7732  0.4584 -0.7421
 4644SOL     OW25390   0.893   4.171  15.093 -0.2939  0.1714 -0.4806
 4644SOL    HW125391   0.936   4.092  15.060 -0.4833 -1.2603  2.6658
 4644SOL    HW225392   0.831   4.182  15.021 -2.8497 -0.7356  1.6270
 4645SOL     OW25393   1.501   0.856   2.146 -0.0686  0.4299 -0.3793
 4645SOL    HW125394   1.570   0.822   2.089 -0.1106  0.4418 -0.4369
 4645SOL    HW225395   1.502   0.942   2.106  1.3348  0.5594 -0.0743
 4646SOL     OW25396   0.583   0.631   5.501  0.3454 -0.5667  0.5252
 4646SOL    HW125397   0.612   0.605   5.589  1.6774 -0.0098  0.2578
 4646SOL    HW225398   0.517   0.691   5.534 -0.3579  0.7715 -3.3552
 4647SOL     OW25399   4.647   0.792  13.542 -0.4653 -0.9728  0.3828
 4647SOL    HW125400   4.645   0.796  13.638  0.4370 -0.8777  0.3936
 4647SOL    HW225401   4.559   0.758  13.523 -1.6406  1.1519  1.9733
 4648SOL     OW25402   0.201   4.646   6.959  0.3432 -0.4395 -0.4691
 4648SOL    HW125403   0.123   4.669   6.908 -0.7514 -0.1668  1.3178
 4648SOL    HW225404   0.188   0.006   7.006 -1.0999 -0.3108 -1.0791
 4649SOL     OW25405   4.465   3.962   9.379  0.0070  0.4199 -0.3872
 4649SOL    HW125406   4.504   3.980   9.294  2.2571  3.5032  1.3027
 4649SOL    HW225407   4.530   4.001   9.437 -0.5500 -0.6409  0.9567
 4650SOL     OW25408   1.769   3.631   5.590 -0.0252 -0.4621  0.5775
 4650SOL    HW125409   1.798   3.540   5.600  2.4947  0.5292  2.0031
 4650SOL    HW225410   1.690   3.634   5.644 -1.6524  0.4569 -1.8491
 4651SOL     OW25411   1.054   3.764  13.690 -0.9953 -0.7697 -0.7633
 4651SOL    HW125412   1.141   3.794  13.715 -0.8311  1.1610 -3.6424
 4651SOL    HW225413   1.011   3.849  13.697  0.2332 -0.0767 -1.6364
 4652SOL     OW25414   3.333   0.275  10.817 -0.0229 -0.6776 -0.0801
 4652SOL    HW125415   3.309   0.274  10.910 -2.4882  0.1991 -0.7022
 4652SOL    HW225416   3.252   0.318  10.788  0.7553 -0.7182 -2.2472
 4653SOL     OW25417   0.906   4.664  12.790 -0.1175 -0.1200  0.2699
 4653SOL    HW125418   0.871   4.576  12.806  1.2100 -0.4744  1.1739
 4653SOL    HW225419   0.837   4.704  12.738 -0.3892  1.6802  2.0323
 4654SOL     OW25420   1.001   4.212  16.120  0.0437  0.1059 -0.4503
 4654SOL    HW125421   0.914   4.178  16.141  0.9564 -0.2483  2.7338
 4654SOL    HW225422   0.974   4.270  16.049  0.9447  1.8583  0.6194
 4655SOL     OW25423   1.597   3.545   0.560  0.4183 -0.5335 -0.0536
 4655SOL    HW125424   1.512   3.553   0.604  1.2725  2.6090  1.0096
 4655SOL    HW225425   1.606   3.450   0.559 -1.6816 -0.7139 -2.7718
 4656SOL     OW25426   0.822   3.319   6.844  0.6390 -0.1335 -0.1931
 4656SOL    HW125427   0.833   3.387   6.911 -1.0769  2.2432 -2.3226
 4656SOL    HW225428   0.865   3.244   6.884 -0.9784  0.2496  2.2923
 4657SOL     OW25429   1.360   3.056  16.175 -0.3863 -0.0424  0.4834
 4657SOL    HW125430   1.303   3.052  16.252  0.1982 -0.6087  0.8866
 4657SOL    HW225431   1.336   2.968  16.145 -1.5549 -0.1211  1.6482
 4658SOL     OW25432   0.967   0.092   6.247  0.1910  0.4634  0.4623
 4658SOL    HW125433   1.019   0.168   6.272 -0.0316  0.7353  0.1078
 4658SOL    HW225434   1.016   0.051   6.177 -0.2555  0.9398 -0.1277
 4659SOL     OW25435   3.818   0.645   7.001  0.5461 -0.2482 -0.3242
 4659SOL    HW125436   3.906   0.650   6.963  1.1655 -2.8047  0.7947
 4659SOL    HW225437   3.816   0.558   7.039  0.8266 -0.8247 -1.6217
 4660SOL     OW25438   2.003   2.032   1.509  0.4035  0.3242  0.6175
 4660SOL    HW125439   2.095   2.008   1.507  0.7439  1.6182  0.5028
 4660SOL    HW225440   2.003   2.128   1.519 -1.6621  0.4161 -0.0613
 4661SOL     OW25441   2.927   1.881  12.023  0.1933 -0.0656 -0.3432
 4661SOL    HW125442   2.954   1.789  12.022 -0.9165 -0.4257  2.4424
 4661SOL    HW225443   3.009   1.929  12.015 -0.1874  0.9980  2.0513
 4662SOL     OW25444   0.588   2.191   2.812  0.5426  0.2275 -0.2103
 4662SOL    HW125445   0.585   2.146   2.727  1.5616 -1.1062  0.4541
 4662SOL    HW225446   0.672   2.236   2.804 -0.8533  2.3815 -2.8397
 4663SOL     OW25447   0.218   1.217   2.521  0.3400 -0.4243 -0.2795
 4663SOL    HW125448   0.135   1.247   2.484 -0.0990 -0.7778  0.4064
 4663SOL    HW225449   0.285   1.244   2.458  1.1909 -0.2165  0.7084
 4664SOL     OW25450   1.843   1.527   5.901  0.8900  0.1314  0.1420
 4664SOL    HW125451   1.773   1.513   5.965  1.8927 -1.2778  0.9204
 4664SOL    HW225452   1.848   1.434   5.878  1.3015 -0.0534  0.9770
 4665SOL     OW25453   3.193   1.634   7.706  0.3165  0.5835  0.0018
 4665SOL    HW125454   3.167   1.690   7.633 -1.3284 -1.7480 -1.2049
 4665SOL    HW225455   3.110   1.631   7.754  0.8802  0.8836  1.0171
 4666SOL     OW25456   3.868   0.723   6.550 -0.1491  0.6970 -0.5604
 4666SOL    HW125457   3.855   0.635   6.584  0.9307 -0.0129 -2.0134
 4666SOL    HW225458   3.929   0.711   6.478 -0.4049 -2.1585 -0.2918
 4667SOL     OW25459   4.414   3.348   5.873  0.1693 -0.1811  0.4696
 4667SOL    HW125460   4.492   3.390   5.908  1.2244 -0.4112 -1.5809
 4667SOL    HW225461   4.450   3.262   5.852 -0.5033 -0.6752  1.3331
 4668SOL     OW25462   2.965   0.285   2.068 -0.5566 -0.3326  0.7565
 4668SOL    HW125463   2.962   0.351   2.138  1.2203  0.4900  0.0508
 4668SOL    HW225464   2.961   0.204   2.118 -2.1242 -1.9424 -1.9626
 4669SOL     OW25465   0.120   3.907  11.219 -0.8347  0.4949  0.0472
 4669SOL    HW125466   0.123   3.820  11.180  3.0480  1.2515 -1.3609
 4669SOL    HW225467   0.195   3.952  11.179  0.4269  0.4556  2.3772
 4670SOL     OW25468   1.794   2.247  11.754 -0.2762  0.2478 -0.7135
 4670SOL    HW125469   1.785   2.339  11.726  0.4882  0.5773  0.1354
 4670SOL    HW225470   1.701   2.225  11.749 -1.1742  3.3498  2.2658
 4671SOL     OW25471   2.813   3.120   4.083 -0.3288  0.2772 -0.2036
 4671SOL    HW125472   2.801   3.069   4.163  1.3086  1.4613  0.8022
 4671SOL    HW225473   2.873   3.071   4.026  1.1612  2.3752 -0.4804
 4672SOL     OW25474   3.078   4.071  12.798  0.2992 -0.1435 -0.2385
 4672SOL    HW125475   3.042   4.096  12.883 -2.8542 -0.6361 -1.4108
 4672SOL    HW225476   3.167   4.043  12.821  0.0520 -0.9746 -0.3092
 4673SOL     OW25477   4.025   4.385   7.898 -0.2611 -0.1500  0.0016
 4673SOL    HW125478   3.952   4.442   7.876  1.6873  1.5156 -2.1379
 4673SOL    HW225479   4.100   4.442   7.885 -0.4026  0.2483  0.9245
 4674SOL     OW25480   2.321   4.029  14.691 -0.6034 -0.1169 -0.1977
 4674SOL    HW125481   2.396   3.991  14.737 -2.0471 -2.2213  0.4343
 4674SOL    HW225482   2.347   4.004  14.603 -1.9824 -0.1740 -0.5747
 4675SOL     OW25483   0.508   2.202  16.856  0.7478  0.4034  0.4837
 4675SOL    HW125484   0.424   2.168  16.888 -0.4719  1.9024 -1.1147
 4675SOL    HW225485   0.538   2.265  16.921  1.1306  1.3838 -0.6496
 4676SOL     OW25486   0.816   2.978   6.121  0.4464 -0.1563  0.4036
 4676SOL    HW125487   0.750   2.991   6.053 -0.4242 -0.6574  1.1558
 4676SOL    HW225488   0.891   2.997   6.065  0.5915  2.2043  1.3891
 4677SOL     OW25489   0.972   4.383   3.160 -0.5594 -0.0791 -0.1232
 4677SOL    HW125490   0.999   4.292   3.144  0.5721  0.7010 -2.6263
 4677SOL    HW225491   0.889   4.393   3.114 -0.0514  0.1614 -0.9949
 4678SOL     OW25492   2.651   3.552  14.844  0.0407 -0.2041 -0.2886
 4678SOL    HW125493   2.593   3.527  14.771  0.3602 -1.0397 -0.2552
 4678SOL    HW225494   2.731   3.557  14.791 -0.0513 -1.5160 -0.5611
 4679SOL     OW25495   4.022   0.511   4.754 -0.3527 -0.1316 -0.4255
 4679SOL    HW125496   4.007   0.417   4.752 -2.5857  0.2338 -0.4758
 4679SOL    HW225497   4.004   0.550   4.668 -1.1242  1.4053  0.4199
 4680SOL     OW25498   3.701   4.609   4.527 -0.4869  0.1629  0.0654
 4680SOL    HW125499   3.743   4.649   4.603  0.8877 -0.7178 -0.2264
 4680SOL    HW225500   3.694   4.689   4.474  0.7305 -0.3276 -0.8510
 4681SOL     OW25501   0.652   0.824  12.797  0.0399 -0.3578 -0.7584
 4681SOL    HW125502   0.667   0.739  12.838  0.2232 -0.5968 -1.3275
 4681SOL    HW225503   0.694   0.874  12.867  1.8974 -0.1406 -2.0116
 4682SOL     OW25504   2.462   0.536   5.166  0.2773  0.3730  0.1002
 4682SOL    HW125505   2.496   0.600   5.228  1.8055  0.2949 -0.6567
 4682SOL    HW225506   2.393   0.590   5.126  0.4697  2.2300  2.3192
 4683SOL     OW25507   3.942   0.236   3.538  0.5543 -0.4404 -0.3205
 4683SOL    HW125508   3.986   0.173   3.481  2.6548  0.6860  0.0284
 4683SOL    HW225509   3.936   0.181   3.615 -0.7839  0.3020  0.1150
 4684SOL     OW25510   0.632   0.448   6.075 -0.1182  0.1118 -0.0079
 4684SOL    HW125511   0.681   0.466   6.155  0.9610 -0.2650 -0.5705
 4684SOL    HW225512   0.668   0.361   6.057 -0.1446  0.7638 -3.2415
 4685SOL     OW25513   3.588   2.365   3.343  0.0180 -0.3584  0.4052
 4685SOL    HW125514   3.666   2.417   3.361 -0.6994  1.1646 -0.8861
 4685SOL    HW225515   3.617   2.317   3.266  0.2480  0.0086  0.2634
 4686SOL     OW25516   0.342   4.083  10.626  0.3289 -0.4295 -0.1513
 4686SOL    HW125517   0.295   4.143  10.684  0.1356 -0.6740 -0.0534
 4686SOL    HW225518   0.428   4.082  10.667 -0.4369  1.0768  1.4473
 4687SOL     OW25519   1.583   2.018   2.149 -0.0005 -0.3029 -0.3002
 4687SOL    HW125520   1.502   1.970   2.168 -1.8445  3.1950  0.6671
 4687SOL    HW225521   1.584   2.013   2.053  2.5974 -0.3049 -0.2613
 4688SOL     OW25522   4.028   2.943  16.855 -0.4534  0.5651 -0.4641
 4688SOL    HW125523   4.012   2.862  16.806  0.2073 -1.0320  1.9964
 4688SOL    HW225524   4.108   2.976  16.815 -0.1087 -0.4460 -0.5916
 4689SOL     OW25525   2.054   1.810  14.975 -0.0283  0.5168 -0.3019
 4689SOL    HW125526   2.061   1.803  14.880  1.1790 -2.7575  0.0240
 4689SOL    HW225527   2.030   1.720  14.995 -0.9429  0.5495 -1.2446
 4690SOL     OW25528   0.294   4.704   3.401  0.0920  0.4357  0.8296
 4690SOL    HW125529   0.231   4.714   3.330  1.1500  2.6214  0.1777
 4690SOL    HW225530   0.290   0.071   3.435 -2.0962 -0.1034  2.0014
 4691SOL     OW25531   2.581   1.330  17.153 -0.1531  0.2911  0.3091
 4691SOL    HW125532   2.529   1.341  17.073  0.7807 -1.3873 -0.5356
 4691SOL    HW225533   2.537   1.255  17.194  1.1950 -0.3015  0.6711
 4692SOL     OW25534   0.336   2.365   2.864 -0.6611  0.3495  0.0413
 4692SOL    HW125535   0.346   2.270   2.865  0.6031  0.4682 -0.3121
 4692SOL    HW225536   0.402   2.387   2.798 -1.6523 -0.7401 -1.3088
 4693SOL     OW25537   1.819   2.309   4.867 -0.6597 -0.2218  0.3432
 4693SOL    HW125538   1.889   2.266   4.917 -1.6886 -1.2301  0.9235
 4693SOL    HW225539   1.826   2.403   4.884  2.1421 -0.6354  1.4805
 4694SOL     OW25540   3.973   0.146   2.954  0.0805  0.2854 -0.4576
 4694SOL    HW125541   4.063   0.159   2.923  0.2488  0.4585  0.1063
 4694SOL    HW225542   3.918   0.150   2.876  0.5234  1.9552 -0.6941
 4695SOL     OW25543   3.643   0.149   8.870 -0.0513 -0.0195 -0.5414
 4695SOL    HW125544   3.606   0.209   8.805 -1.7420  0.5483  0.9408
 4695SOL    HW225545   3.713   0.204   8.904  1.7422 -2.9594  0.5041
 4696SOL     OW25546   2.464   1.484   7.542  0.5818 -0.1767  0.3850
 4696SOL    HW125547   2.382   1.475   7.590  1.3438 -1.8723  1.3511
 4696SOL    HW225548   2.434   1.470   7.452  0.2558 -0.3413  0.5164
 4697SOL     OW25549   2.209   0.380   8.511  0.6383  0.1801 -0.3057
 4697SOL    HW125550   2.245   0.362   8.598  0.3589  0.9418 -0.0352
 4697SOL    HW225551   2.144   0.311   8.500  1.4233 -0.4695 -0.9157
 4698SOL     OW25552   3.324   0.315  13.120 -0.1853  0.1287  0.0232
 4698SOL    HW125553   3.244   0.287  13.074 -0.5257  1.6155 -0.2936
 4698SOL    HW225554   3.335   0.230  13.162 -1.5065 -0.3416 -0.5733
 4699SOL     OW25555   4.514   3.798   6.015  0.1503 -0.7319 -0.1665
 4699SOL    HW125556   4.450   3.785   5.944  1.1819  1.6109 -1.5314
 4699SOL    HW225557   4.462   3.770   6.090  0.7785 -0.6817  0.2798
 4700SOL     OW25558   2.311   4.666   6.989 -0.2909  0.4496 -0.4749
 4700SOL    HW125559   2.288   4.716   7.067 -0.2439 -1.5853  0.8608
 4700SOL    HW225560   2.343   4.590   7.038 -0.9778  0.5009  0.0489
 4701SOL     OW25561   0.817   3.503   4.921 -0.1275  0.1206  0.5346
 4701SOL    HW125562   0.823   3.453   4.840  1.3699 -0.4121  0.9648
 4701SOL    HW225563   0.801   3.436   4.987 -2.3450  0.0264 -0.1132
 4702SOL     OW25564   3.589   2.711   2.510 -0.0285  0.8074  0.4594
 4702SOL    HW125565   3.662   2.756   2.467 -1.3612  0.5998 -2.0407
 4702SOL    HW225566   3.628   2.663   2.583  0.0218  1.5430  0.9173
 4703SOL     OW25567   3.522   3.577   1.698 -0.2497  0.0533  0.7726
 4703SOL    HW125568   3.448   3.587   1.758 -0.6933  2.3730 -0.1866
 4703SOL    HW225569   3.503   3.501   1.642 -0.0662  1.0439 -0.6424
 4704SOL     OW25570   0.238   3.268   6.815 -0.0067 -0.2585 -0.9459
 4704SOL    HW125571   0.225   3.337   6.880  0.2978  0.4655 -1.6498
 4704SOL    HW225572   0.255   3.184   6.859  0.7432 -0.8867 -2.4498
 4705SOL     OW25573   1.552   0.371  10.199 -0.6231  0.1238  0.1558
 4705SOL    HW125574   1.629   0.318  10.182 -1.9344 -1.7544  0.1606
 4705SOL    HW225575   1.542   0.409  10.112  0.0068  0.5212  0.2585
 4706SOL     OW25576   3.485   3.918  10.164 -0.3761  0.6643 -0.6943
 4706SOL    HW125577   3.525   3.855  10.224  1.0541  1.6808 -0.5833
 4706SOL    HW225578   3.557   3.979  10.152 -2.1295  2.6704 -1.1333
 4707SOL     OW25579   1.969   3.989   6.844  0.2016 -0.3598 -0.2019
 4707SOL    HW125580   1.916   4.061   6.811 -0.0630 -1.2250 -1.6624
 4707SOL    HW225581   1.897   3.929   6.862  0.1336 -0.9014 -2.2909
 4708SOL     OW25582   1.707   1.806   2.716  0.1713  0.1707  0.0536
 4708SOL    HW125583   1.760   1.867   2.767  1.6203 -0.1727 -1.0424
 4708SOL    HW225584   1.655   1.763   2.784 -0.4341 -0.9992 -1.1341
 4709SOL     OW25585   1.885   1.463   2.527  0.7419  0.1433 -0.0346
 4709SOL    HW125586   1.902   1.371   2.545  3.1276  0.0686 -2.5920
 4709SOL    HW225587   1.839   1.489   2.607 -0.7080 -0.7859 -0.5762
 4710SOL     OW25588   0.066   0.641   6.489 -0.6488 -0.2164 -0.1949
 4710SOL    HW125589   0.001   0.618   6.423 -1.9053  2.2294  0.1764
 4710SOL    HW225590   0.087   0.548   6.498  3.1071  0.5923 -0.5380
 4711SOL     OW25591   1.554   4.273   5.292  0.0298 -0.7548  0.7868
 4711SOL    HW125592   1.590   4.215   5.224  0.7623  1.6803 -0.8889
 4711SOL    HW225593   1.461   4.254   5.282  0.1078 -1.1763  0.8601
 4712SOL     OW25594   1.243   2.107   2.027 -0.3661  0.1539 -0.0737
 4712SOL    HW125595   1.250   2.103   2.122 -4.0655  0.8132  0.2095
 4712SOL    HW225596   1.251   2.202   2.018  0.5016  0.0110 -0.8949
 4713SOL     OW25597   1.382   2.598  15.090  0.6323 -0.7680 -0.2984
 4713SOL    HW125598   1.351   2.682  15.125 -0.3756 -1.1372 -0.3104
 4713SOL    HW225599   1.375   2.544  15.169  0.7948 -1.4658 -0.7668
 4714SOL     OW25600   2.653   1.252   9.060  0.3194  0.1921 -0.8331
 4714SOL    HW125601   2.578   1.240   9.118 -0.5970 -2.1447 -2.4504
 4714SOL    HW225602   2.623   1.201   8.984  1.0361 -0.9520 -0.3576
 4715SOL     OW25603   2.728   2.777  13.579 -0.1773  0.0972 -0.3804
 4715SOL    HW125604   2.794   2.727  13.626 -0.2619 -1.0165 -1.4671
 4715SOL    HW225605   2.656   2.716  13.565 -1.4755  1.8555 -1.4607
 4716SOL     OW25606   4.369   1.926   2.653  0.3020 -0.4563 -0.0338
 4716SOL    HW125607   4.307   1.915   2.580 -0.0250  0.5989  0.0903
 4716SOL    HW225608   4.437   1.968   2.600  0.9710 -1.9943 -0.4032
 4717SOL     OW25609   3.567   1.400   8.653  0.1384  0.2203 -0.6062
 4717SOL    HW125610   3.557   1.423   8.561  0.3393 -1.1320 -0.9658
 4717SOL    HW225611   3.635   1.337   8.631 -0.7454 -1.0011  0.1911
 4718SOL     OW25612   4.225   1.809  10.032 -0.0911 -0.0205  0.0098
 4718SOL    HW125613   4.183   1.786  10.115 -0.8252  2.6058  0.3588
 4718SOL    HW225614   4.295   1.745  10.022 -0.9994 -1.2265  1.3733
 4719SOL     OW25615   2.153   1.868   3.731 -0.0724  0.1707 -0.4563
 4719SOL    HW125616   2.178   1.866   3.823  0.4296  0.1676 -0.5919
 4719SOL    HW225617   2.182   1.959   3.724 -1.4172  0.6050 -0.3445
 4720SOL     OW25618   3.562   4.283   6.511 -0.3572 -0.2607  0.2063
 4720SOL    HW125619   3.478   4.290   6.557 -0.2083  0.7158  0.3356
 4720SOL    HW225620   3.545   4.204   6.461  1.7278  0.2177 -1.2402
 4721SOL     OW25621   0.001   2.615   7.795 -0.8811 -0.6601  0.0256
 4721SOL    HW125622   4.649   2.626   7.853 -1.5320  0.7697 -1.0888
 4721SOL    HW225623   0.073   2.625   7.858 -0.9163 -0.0295 -0.0423
 4722SOL     OW25624   0.270   4.026   9.801 -0.0577 -0.0998  0.4536
 4722SOL    HW125625   0.289   4.114   9.770 -0.6674  0.1783  0.8648
 4722SOL    HW225626   0.242   4.049   9.890 -0.3397  0.8091  0.1285
 4723SOL     OW25627   4.288   2.544   0.746  0.0857 -0.8635  0.2393
 4723SOL    HW125628   4.273   2.473   0.808  1.6228 -1.4892 -0.1177
 4723SOL    HW225629   4.380   2.561   0.766 -0.1434  1.0832 -0.3182
 4724SOL     OW25630   1.904   3.398   6.839  0.3154  0.0123 -0.0828
 4724SOL    HW125631   1.823   3.368   6.880 -0.6303 -0.1946 -2.1152
 4724SOL    HW225632   1.955   3.317   6.835  2.0931  1.1126  0.2717
 4725SOL     OW25633   3.986   3.037   1.818 -0.0780  0.2209  0.4421
 4725SOL    HW125634   3.925   2.988   1.873  0.1731  0.6369  1.0819
 4725SOL    HW225635   4.044   3.072   1.885  0.6255 -2.3078  1.1553
 4726SOL     OW25636   2.525   4.346   8.547 -0.1841 -0.0442 -0.0505
 4726SOL    HW125637   2.429   4.340   8.555 -0.2848  1.0173 -0.5000
 4726SOL    HW225638   2.540   4.271   8.489  3.2311  2.6691 -2.6122
 4727SOL     OW25639   0.872   1.629   7.919 -0.1493 -0.2803  1.1450
 4727SOL    HW125640   0.965   1.629   7.896 -0.5055 -1.6865 -0.2874
 4727SOL    HW225641   0.850   1.536   7.928  2.2726 -1.1259 -1.7448
 4728SOL     OW25642   2.068   1.823   6.794  0.1038 -0.4137 -0.1741
 4728SOL    HW125643   2.073   1.896   6.732 -0.5541  1.2090  1.6841
 4728SOL    HW225644   2.119   1.760   6.744 -2.9553 -2.6627 -0.4619
 4729SOL     OW25645   0.149   1.361   5.415 -0.3459 -0.1893  0.5369
 4729SOL    HW125646   0.162   1.385   5.507  2.5608  1.6908 -0.3814
 4729SOL    HW225647   0.224   1.303   5.405 -1.0049 -0.6964 -1.4201
 4730SOL     OW25648   2.911   2.165   8.379  0.3330 -0.6112  0.3561
 4730SOL    HW125649   2.819   2.144   8.366  0.4171 -1.5665  1.3344
 4730SOL    HW225650   2.949   2.078   8.392  0.1376 -0.4356  2.0644
 4731SOL     OW25651   2.720   4.476  13.313  0.3462  0.0144 -0.5436
 4731SOL    HW125652   2.757   4.500  13.398  0.6743 -0.6639 -0.4963
 4731SOL    HW225653   2.676   4.558  13.287  0.1280  0.8644  2.4970
 4732SOL     OW25654   2.017   3.174   9.452 -0.0927  0.5258  0.0326
 4732SOL    HW125655   1.964   3.142   9.379  0.6058 -0.9069  0.1310
 4732SOL    HW225656   2.091   3.113   9.439  1.5974  2.5807  0.0071
 4733SOL     OW25657   1.462   3.879   5.766 -0.1525 -0.6100 -0.3599
 4733SOL    HW125658   1.418   3.957   5.733  2.1852  0.7185 -0.3213
 4733SOL    HW225659   1.439   3.812   5.702 -0.4499  0.2648 -1.1494
 4734SOL     OW25660   4.675   2.926   3.947  0.2501  0.0158 -0.0985
 4734SOL    HW125661   4.619   2.972   4.009  0.5383 -1.7368  1.4548
 4734SOL    HW225662   4.687   2.852   4.007  2.3311 -0.2439 -0.8367
 4735SOL     OW25663   4.656   3.257   3.450  0.0597  0.3574 -0.1596
 4735SOL    HW125664   4.592   3.327   3.437  0.7277  1.1429  0.7705
 4735SOL    HW225665   4.687   3.247   3.360  0.9462  2.1500 -0.0425
 4736SOL     OW25666   0.282   0.202   6.743 -0.5830  0.0134  0.6175
 4736SOL    HW125667   0.377   0.199   6.755 -0.3584 -0.7422 -1.2513
 4736SOL    HW225668   0.275   0.298   6.745 -2.0311 -0.0477 -1.0153
 4737SOL     OW25669   2.613   0.433  16.725 -0.0889  0.2614 -0.3764
 4737SOL    HW125670   2.620   0.528  16.739 -0.3308  0.0006  1.4595
 4737SOL    HW225671   2.560   0.421  16.647 -2.0740  0.6223  0.9263
 4738SOL     OW25672   1.480   2.109   4.401  0.7767  0.1598 -0.0179
 4738SOL    HW125673   1.571   2.131   4.380  0.4258  0.6067 -1.0934
 4738SOL    HW225674   1.439   2.196   4.400  0.5503  0.0614  0.6856
 4739SOL     OW25675   3.824   2.962  10.297 -0.0092  0.2501 -0.2440
 4739SOL    HW125676   3.856   2.887  10.347 -1.5141  0.1022  0.5058
 4739SOL    HW225677   3.818   2.915  10.214 -1.0639 -0.4819  0.2445
 4740SOL     OW25678   2.296   3.629  17.483  0.1445 -0.3374 -0.2753
 4740SOL    HW125679   2.361   3.668  17.541 -0.4206  0.6137 -0.2957
 4740SOL    HW225680   2.209   3.647  17.517 -0.3889 -1.7894 -0.8570
 4741SOL     OW25681   2.904   0.927   8.228  0.0350  0.8226  0.6639
 4741SOL    HW125682   2.839   0.882   8.282  2.7806 -1.7863  1.8051
 4741SOL    HW225683   2.845   0.995   8.199  1.3687  0.7667 -2.1680
 4742SOL     OW25684   2.312   1.835   5.195  0.0885  0.1415  0.2520
 4742SOL    HW125685   2.330   1.911   5.251 -0.0605  0.1126  0.3394
 4742SOL    HW225686   2.286   1.773   5.263 -3.4997  1.5234  0.1069
 4743SOL     OW25687   0.567   3.463  11.329 -0.2556 -0.1600 -0.1318
 4743SOL    HW125688   0.514   3.472  11.407 -1.5965 -4.9990 -0.4867
 4743SOL    HW225689   0.558   3.553  11.298  1.3252  0.4598  1.1822
 4744SOL     OW25690   1.277   0.528   3.672 -0.0310 -0.3676  0.6199
 4744SOL    HW125691   1.272   0.505   3.765 -3.9333  1.5345  0.8886
 4744SOL    HW225692   1.358   0.484   3.647  0.1395 -1.3959  2.9556
 4745SOL     OW25693   1.537   4.011   7.163  0.0982 -0.7426  0.0956
 4745SOL    HW125694   1.511   3.950   7.233 -0.7231  1.4678  1.7135
 4745SOL    HW225695   1.484   3.964   7.098 -0.7442 -1.2729  1.1644
 4746SOL     OW25696   2.023   4.398   2.249  0.2046  0.1807  0.3373
 4746SOL    HW125697   2.026   4.493   2.240 -1.0144  0.1778 -0.2016
 4746SOL    HW225698   1.962   4.385   2.175  1.8654 -0.0657 -0.9837
 4747SOL     OW25699   3.864   3.960   6.407  0.1397  0.1140 -0.3948
 4747SOL    HW125700   3.870   3.952   6.502  0.9109  3.2810 -0.1699
 4747SOL    HW225701   3.772   3.943   6.392  0.1745 -1.3259  1.1516
 4748SOL     OW25702   1.698   0.489  11.554 -1.1256  0.1334  0.6481
 4748SOL    HW125703   1.737   0.410  11.591 -3.6441 -1.1572  0.5202
 4748SOL    HW225704   1.769   0.553  11.563  0.8966 -2.2729  1.6022
 4749SOL     OW25705   1.975   4.366  16.354  0.2804  0.3806  0.7397
 4749SOL    HW125706   1.892   4.408  16.375 -0.2740 -1.1968  1.7152
 4749SOL    HW225707   1.972   4.347  16.260 -1.2218 -1.7358  1.2392
 4750SOL     OW25708   0.807   4.684   0.996  0.1375 -0.5822 -0.6306
 4750SOL    HW125709   0.775   4.595   1.007  1.2834 -1.0884 -1.4055
 4750SOL    HW225710   0.860   4.696   1.074 -0.4327 -0.0016 -0.3210
 4751SOL     OW25711   1.010   3.801   4.207  0.3646  0.0104  0.7253
 4751SOL    HW125712   1.089   3.756   4.237  1.7858  1.7714 -0.3631
 4751SOL    HW225713   0.942   3.743   4.242 -0.4752 -0.2711 -1.3292
 4752SOL     OW25714   0.734   1.877   4.385  0.5001 -0.2273 -0.5046
 4752SOL    HW125715   0.686   1.809   4.337 -0.4491 -1.1323  1.7136
 4752SOL    HW225716   0.800   1.915   4.328  1.6576  0.6769  1.4288
 4753SOL     OW25717   2.004   2.638   7.299  0.4939  0.4608 -0.8830
 4753SOL    HW125718   2.016   2.550   7.336  1.5325  0.7857 -0.4725
 4753SOL    HW225719   2.096   2.664   7.297  0.5139  0.5759  1.4616
 4754SOL     OW25720   0.837   3.970   1.795 -0.2498  0.1437  0.0728
 4754SOL    HW125721   0.809   4.009   1.878 -1.0475  1.4582 -0.8061
 4754SOL    HW225722   0.795   4.021   1.726 -0.0561 -0.7568 -0.7111
 4755SOL     OW25723   0.297   4.426  11.703 -0.4708  0.4221  0.4598
 4755SOL    HW125724   0.352   4.387  11.771  1.4237  0.6362 -0.9460
 4755SOL    HW225725   0.266   4.502  11.751 -1.0699  0.6867 -0.3407
 4756SOL     OW25726   3.709   0.959   3.847 -0.6066  0.3126 -0.0389
 4756SOL    HW125727   3.676   0.968   3.758 -1.5205  0.0715  0.2712
 4756SOL    HW225728   3.704   0.865   3.860 -4.0845  0.5905  0.9085
 4757SOL     OW25729   1.760   0.881  12.728 -0.5266  0.0605  0.3313
 4757SOL    HW125730   1.833   0.918  12.779  1.1078  1.0729 -2.7121
 4757SOL    HW225731   1.748   0.795  12.769 -0.2444  0.1907  0.6897
 4758SOL     OW25732   1.602   3.034   0.588  0.0488 -0.3850 -0.2502
 4758SOL    HW125733   1.612   2.958   0.531  0.5790  0.2383 -0.9764
 4758SOL    HW225734   1.513   3.017   0.619  0.0327 -2.0038 -1.1657
 4759SOL     OW25735   3.916   4.553  11.203 -0.0838 -0.3445 -0.3751
 4759SOL    HW125736   3.875   4.506  11.131  0.4750 -1.6655  0.1674
 4759SOL    HW225737   3.837   4.595  11.238 -0.4376  0.7144 -2.4429
 4760SOL     OW25738   4.183   3.859   9.670  0.5245  0.1030  0.4970
 4760SOL    HW125739   4.277   3.874   9.681  0.3365  2.8476 -1.5561
 4760SOL    HW225740   4.185   3.787   9.608  1.7245  1.3049 -0.8475
 4761SOL     OW25741   0.630   4.327  11.050  0.0610 -0.1740 -0.1618
 4761SOL    HW125742   0.653   4.241  11.016 -0.5395 -0.0180 -0.9647
 4761SOL    HW225743   0.571   4.363  10.984  1.3311  1.8693 -0.1864
 4762SOL     OW25744   1.461   4.349   3.860  0.2036  0.1461  1.1740
 4762SOL    HW125745   1.457   4.445   3.857  1.9793  0.1177 -2.1261
 4762SOL    HW225746   1.552   4.332   3.834 -0.4799 -0.0185 -1.1558
 4763SOL     OW25747   2.271   4.280   8.483  0.5425  0.4774 -0.0109
 4763SOL    HW125748   2.240   4.346   8.545 -0.8611 -0.2237  0.0324
 4763SOL    HW225749   2.212   4.310   8.413  1.6749  1.0530 -0.7235
 4764SOL     OW25750   4.269   4.195   6.019  0.3891 -0.0778  0.4582
 4764SOL    HW125751   4.362   4.202   6.001  0.1897 -3.2784 -1.9256
 4764SOL    HW225752   4.269   4.180   6.114  2.6710  1.2214  0.6592
 4765SOL     OW25753   4.105   2.469  16.799  1.1268  0.0775 -0.6509
 4765SOL    HW125754   4.185   2.501  16.839  0.8020 -0.3775  0.3631
 4765SOL    HW225755   4.065   2.417  16.869  0.6669  2.3762  0.7939
 4766SOL     OW25756   0.582   2.437  16.971 -0.0364  0.7868 -0.0499
 4766SOL    HW125757   0.546   2.512  17.018  0.6208  1.0043  0.1002
 4766SOL    HW225758   0.609   2.480  16.889 -0.7841  1.7666  0.2191
 4767SOL     OW25759   1.996   1.195  14.244 -0.7782  0.5290 -0.1703
 4767SOL    HW125760   1.960   1.173  14.330  1.7237 -1.4353  0.4021
 4767SOL    HW225761   1.945   1.272  14.219  0.2563  1.4575  0.5776
 4768SOL     OW25762   0.578   0.543   8.272 -0.5804  0.3015 -0.2301
 4768SOL    HW125763   0.508   0.577   8.328  1.0965  1.5204  1.1446
 4768SOL    HW225764   0.525   0.501   8.204  1.7695  0.0394 -1.9060
 4769SOL     OW25765   1.979   4.588   5.150 -0.0122  1.1333 -0.3864
 4769SOL    HW125766   2.055   4.533   5.168  0.4742  1.2387 -2.1611
 4769SOL    HW225767   1.928   4.577   5.230  0.5679  3.1763  0.2610
 4770SOL     OW25768   2.887   3.433   4.594  0.2924 -0.2616  0.1930
 4770SOL    HW125769   2.846   3.448   4.679 -0.3789 -0.8000 -0.0383
 4770SOL    HW225770   2.977   3.419   4.624  0.9043  0.3650 -1.3374
 4771SOL     OW25771   0.033   3.555  10.247  0.3667 -0.9397  0.0369
 4771SOL    HW125772   0.028   3.495  10.321 -1.6031 -0.8834 -0.0420
 4771SOL    HW225773   0.110   3.612  10.253  0.2276 -0.8329  0.9298
 4772SOL     OW25774   1.730   4.005   5.740  0.1283 -0.3252  0.5732
 4772SOL    HW125775   1.648   3.955   5.739 -1.1275  1.7207  0.2771
 4772SOL    HW225776   1.750   4.020   5.648  2.6290 -0.4870  1.0931
 4773SOL     OW25777   3.984   4.329   6.831  0.7649 -0.5132 -0.2865
 4773SOL    HW125778   3.896   4.294   6.846 -0.0482  1.5562 -0.2155
 4773SOL    HW225779   4.030   4.285   6.902  2.2535 -0.2150 -1.0711
 4774SOL     OW25780   4.024   0.363   8.005  0.4919  0.4219 -0.6822
 4774SOL    HW125781   4.089   0.430   8.029 -0.3344  0.8814  0.2768
 4774SOL    HW225782   3.984   0.409   7.931 -0.4918  0.8891  0.1322
 4775SOL     OW25783   2.625   0.610  14.537  0.3083 -0.3503 -0.2739
 4775SOL    HW125784   2.537   0.603  14.574  0.6152 -4.2156 -0.2707
 4775SOL    HW225785   2.613   0.533  14.481  1.4906 -3.8493  4.2600
 4776SOL     OW25786   1.722   4.483  16.382 -0.1298 -0.0846  0.0978
 4776SOL    HW125787   1.708   4.431  16.303 -2.1185  1.0379 -0.2964
 4776SOL    HW225788   1.712   4.419  16.452 -0.7950 -1.9769 -1.7270
 4777SOL     OW25789   3.279   2.720  13.715 -0.5464  0.6855  0.1751
 4777SOL    HW125790   3.348   2.735  13.779 -1.1889  0.7572  0.8502
 4777SOL    HW225791   3.206   2.699  13.774 -0.2975  3.6060  1.5129
 4778SOL     OW25792   0.661   1.183  17.015 -0.3237  0.3069  0.3991
 4778SOL    HW125793   0.591   1.153  16.957  0.7550  0.2912 -0.9118
 4778SOL    HW225794   0.648   1.131  17.094  1.0807 -1.4700 -0.5356
 4779SOL     OW25795   2.903   1.863   3.204 -0.0321 -0.1599  0.2476
 4779SOL    HW125796   2.818   1.821   3.214  0.0876 -0.5438 -0.3042
 4779SOL    HW225797   2.877   1.900   3.119 -0.6789 -0.0238  0.5078
 4780SOL     OW25798   3.985   0.835   2.687  0.0880 -0.2346 -0.2100
 4780SOL    HW125799   3.903   0.852   2.734  0.9200  0.1708  1.0733
 4780SOL    HW225800   4.028   0.917   2.711  2.9423 -1.9121  0.2650
 4781SOL     OW25801   4.415   0.990   5.465 -0.1987 -0.2700 -0.1641
 4781SOL    HW125802   4.434   1.004   5.373  1.9409 -0.2497  0.2725
 4781SOL    HW225803   4.401   1.080   5.493  0.7628  0.0082 -0.5864
 4782SOL     OW25804   2.242   3.031   9.367  0.0680  0.0998 -0.5059
 4782SOL    HW125805   2.196   3.029   9.284  0.6118 -0.6659 -0.7903
 4782SOL    HW225806   2.321   2.983   9.343 -0.5155  0.2454 -2.7161
 4783SOL     OW25807   4.439   0.148  10.031 -0.1171  0.4311 -0.2841
 4783SOL    HW125808   4.397   0.209  10.092  0.8235  2.3395 -1.5476
 4783SOL    HW225809   4.368   0.087  10.013  0.2774  0.1947 -1.0403
 4784SOL     OW25810   4.283   2.305   5.773  0.2201  0.6873  0.0030
 4784SOL    HW125811   4.270   2.375   5.709  1.5589  0.2727 -0.7227
 4784SOL    HW225812   4.364   2.335   5.814 -0.5856  2.7367  0.0868
 4785SOL     OW25813   2.901   3.923   7.235  0.2259  0.5697 -0.8482
 4785SOL    HW125814   2.859   3.969   7.307 -2.0828 -0.5242 -1.4878
 4785SOL    HW225815   2.969   3.870   7.277  1.0128  0.9201 -1.6765
 4786SOL     OW25816   1.608   0.851   8.879  0.3234 -0.2290 -0.4321
 4786SOL    HW125817   1.544   0.863   8.950  0.3394 -1.9657 -0.1227
 4786SOL    HW225818   1.691   0.888   8.908 -0.0916 -0.3725  0.9423
 4787SOL     OW25819   0.101   0.066   5.560 -0.0271  0.0196  0.4780
 4787SOL    HW125820   0.184   0.112   5.545 -0.0493 -0.1792 -0.2643
 4787SOL    HW225821   0.091   0.043   5.467 -0.7570 -2.2665  1.1126
 4788SOL     OW25822   3.193   0.629   3.668  0.1337  0.0919 -0.5231
 4788SOL    HW125823   3.201   0.631   3.764  0.7544  1.5155 -0.5983
 4788SOL    HW225824   3.113   0.682   3.658 -0.4137 -0.3093  1.5705
 4789SOL     OW25825   0.680   3.548   4.477 -0.1090 -0.7028 -0.0744
 4789SOL    HW125826   0.710   3.472   4.428  1.7554 -0.2604  0.3506
 4789SOL    HW225827   0.586   3.534   4.474 -0.3669  1.2496 -1.1785
 4790SOL     OW25828   4.716   4.390   3.311 -0.2775 -0.1806  0.3443
 4790SOL    HW125829   0.040   4.419   3.233  0.4110  1.0652  1.2140
 4790SOL    HW225830   0.068   4.356   3.361 -0.6846 -0.2738  0.8818
 4791SOL     OW25831   0.306   1.905   6.353 -0.1863  0.2885  0.3141
 4791SOL    HW125832   0.310   1.998   6.332 -2.2279 -0.1590 -2.1932
 4791SOL    HW225833   0.383   1.889   6.406 -2.0823 -1.7196  2.4608
 4792SOL     OW25834   1.985   2.891   7.211  0.4805  0.4575 -0.0045
 4792SOL    HW125835   1.994   2.801   7.245  0.1218  0.9688  1.4339
 4792SOL    HW225836   2.071   2.931   7.218  0.4498  0.3592  0.8812
 4793SOL     OW25837   4.224   4.174  13.808 -0.3149  0.1327  0.2222
 4793SOL    HW125838   4.201   4.124  13.886 -0.4985  1.1686  0.8377
 4793SOL    HW225839   4.144   4.168  13.755 -0.9897 -1.2793  1.4084
 4794SOL     OW25840   0.264   0.722   7.227 -0.3881  0.1587 -0.1616
 4794SOL    HW125841   0.239   0.754   7.140 -1.1055 -2.1787 -0.8044
 4794SOL    HW225842   0.325   0.650   7.211  0.3422  1.0169 -1.2943
 4795SOL     OW25843   2.610   0.493  12.024  0.0352  0.5216 -0.3321
 4795SOL    HW125844   2.618   0.401  12.051 -0.9275  0.6263  0.3210
 4795SOL    HW225845   2.599   0.486  11.929 -1.1718 -0.0995 -0.1547
 4796SOL     OW25846   1.076   2.060   6.560 -0.6257  0.0945  0.4876
 4796SOL    HW125847   1.082   1.974   6.519 -2.2090  0.5728 -0.7180
 4796SOL    HW225848   1.032   2.102   6.487  0.8308  2.9133  1.1949
 4797SOL     OW25849   2.311   1.561   2.139  0.4135  0.0858 -0.1416
 4797SOL    HW125850   2.406   1.555   2.146  0.4597 -0.7937 -1.5638
 4797SOL    HW225851   2.278   1.526   2.222 -1.7775  1.3289 -0.4703
 4798SOL     OW25852   1.690   3.559   5.211  0.1756  0.5647 -0.0805
 4798SOL    HW125853   1.744   3.607   5.274  1.5754 -0.3163 -0.6071
 4798SOL    HW225854   1.687   3.468   5.241  0.5991 -0.0602 -1.9637
 4799SOL     OW25855   2.912   4.592   0.791  0.3121  0.3020  0.1167
 4799SOL    HW125856   2.838   4.576   0.849 -0.1518  1.0158 -0.2870
 4799SOL    HW225857   2.869   4.581   0.706  0.6063 -0.7275  0.0916
 4800SOL     OW25858   0.419   0.872  13.688 -0.3079  0.0356 -0.4789
 4800SOL    HW125859   0.392   0.963  13.704  1.8147  0.8306 -1.5010
 4800SOL    HW225860   0.510   0.875  13.717 -0.4062  1.8364 -0.3314
 4801SOL     OW25861   2.792   1.462   3.729 -0.0673  0.1658  0.6879
 4801SOL    HW125862   2.855   1.434   3.663  0.9526 -0.0969  1.7625
 4801SOL    HW225863   2.839   1.450   3.812 -0.5227 -2.1129  0.6305
 4802SOL     OW25864   1.466   0.766  14.749  0.3183  0.3269  0.0004
 4802SOL    HW125865   1.504   0.800  14.668  0.5834 -2.8545 -1.2181
 4802SOL    HW225866   1.428   0.847  14.783 -0.6430  0.2778 -0.9812
 4803SOL     OW25867   0.273   3.568   1.293 -0.0645 -0.0024  0.1214
 4803SOL    HW125868   0.314   3.654   1.303  0.0940 -0.3202  2.0697
 4803SOL    HW225869   0.307   3.545   1.206  0.0642 -0.1313  0.2049
 4804SOL     OW25870   4.440   0.890   4.443  0.2851  0.2125 -0.4483
 4804SOL    HW125871   4.413   0.805   4.408 -1.3498  0.3988  0.3564
 4804SOL    HW225872   4.535   0.883   4.447  0.3656  1.4353 -0.3083
 4805SOL     OW25873   3.562   0.117  15.974  0.3215  0.2539  0.0277
 4805SOL    HW125874   3.512   0.086  15.899 -0.8453  1.6591  0.2112
 4805SOL    HW225875   3.496   0.123  16.044  0.6626 -0.0848  0.3796
 4806SOL     OW25876   3.366   1.253   2.797  0.0836 -0.0457 -0.8287
 4806SOL    HW125877   3.344   1.346   2.786 -1.6309 -0.4642 -0.9199
 4806SOL    HW225878   3.447   1.242   2.747  0.1061  0.9709 -1.0185
 4807SOL     OW25879   4.301   1.737   3.142  0.4738 -0.2087 -0.3051
 4807SOL    HW125880   4.287   1.650   3.181 -0.1985 -0.6058 -1.4210
 4807SOL    HW225881   4.235   1.744   3.073  0.5294  2.5033 -0.0690
 4808SOL     OW25882   3.890   3.397   7.239  0.1468  0.2033 -0.0771
 4808SOL    HW125883   3.883   3.397   7.334 -1.6966 -1.4253 -0.1964
 4808SOL    HW225884   3.883   3.487   7.207  1.2908 -0.4078 -2.0781
 4809SOL     OW25885   1.789   0.152   2.011 -0.2528 -0.0747  0.4619
 4809SOL    HW125886   1.715   0.170   2.070 -1.1162  1.3274 -1.0317
 4809SOL    HW225887   1.768   0.225   1.952 -0.5781  0.7193  1.5446
 4810SOL     OW25888   1.665   0.052   6.415 -0.5733  0.2678 -0.4252
 4810SOL    HW125889   1.584   0.049   6.364  0.3622  2.7130 -2.0232
 4810SOL    HW225890   1.711   4.693   6.395 -2.4351 -0.5881 -1.3268
 4811SOL     OW25891   0.451   3.122   9.416  0.2938  0.1603  0.4595
 4811SOL    HW125892   0.429   3.194   9.476  1.9492  1.4713 -0.4988
 4811SOL    HW225893   0.368   3.075   9.413 -0.9669  2.4018 -0.3949
 4812SOL     OW25894   3.545   1.208   5.772 -0.0678  0.3482 -0.1688
 4812SOL    HW125895   3.462   1.164   5.754 -0.4866  1.0945 -0.0677
 4812SOL    HW225896   3.586   1.144   5.830 -1.3569 -1.3147 -1.0799
 4813SOL     OW25897   2.693   4.142  11.086  0.3902 -0.0351  0.0243
 4813SOL    HW125898   2.620   4.098  11.042  0.9414 -1.7367  0.8103
 4813SOL    HW225899   2.681   4.235  11.064  1.9093 -0.3144 -1.9955
 4814SOL     OW25900   0.338   3.283  10.828  0.4348 -0.1390 -0.3960
 4814SOL    HW125901   0.395   3.327  10.891  0.3745 -0.6112 -0.0186
 4814SOL    HW225902   0.366   3.192  10.830  0.3869 -0.2164 -3.7702
 4815SOL     OW25903   3.247   1.566  16.264  0.3267 -0.1243 -0.0871
 4815SOL    HW125904   3.239   1.661  16.257 -2.5071 -0.4601 -1.3837
 4815SOL    HW225905   3.296   1.539  16.186 -0.7591  2.2223 -1.6018
 4816SOL     OW25906   2.931   4.206   5.472 -0.2872  0.2897 -0.1120
 4816SOL    HW125907   2.851   4.249   5.445 -1.7646 -1.8518  0.8810
 4816SOL    HW225908   2.898   4.140   5.532  1.0354 -1.6092 -1.4263
 4817SOL     OW25909   2.769   1.634   5.184  0.2158 -0.3500  0.6251
 4817SOL    HW125910   2.857   1.596   5.191  0.2774 -0.1525  0.9359
 4817SOL    HW225911   2.794   1.723   5.207 -0.1001 -0.1031 -0.0151
 4818SOL     OW25912   4.215   4.147   5.670  0.9844  0.4183 -0.0725
 4818SOL    HW125913   4.283   4.213   5.683 -1.5343  3.0071 -0.0642
 4818SOL    HW225914   4.221   4.103   5.754 -0.9046  0.6079  0.1629
 4819SOL     OW25915   4.357   0.430   4.807  0.3025  0.3515 -0.0399
 4819SOL    HW125916   4.370   0.427   4.712  0.8955  1.6430  0.0053
 4819SOL    HW225917   4.272   0.386   4.804  0.6116 -0.3205  1.3571
 4820SOL     OW25918   3.590   4.326   8.890  0.6049  0.1207 -0.8645
 4820SOL    HW125919   3.657   4.385   8.926  0.4530  0.6915 -1.5340
 4820SOL    HW225920   3.644   4.247   8.886 -1.0119 -0.9634 -1.0259
 4821SOL     OW25921   1.464   0.767   8.290  0.1916  0.3157 -0.2231
 4821SOL    HW125922   1.464   0.673   8.271  0.1320  0.0647  1.0368
 4821SOL    HW225923   1.545   0.795   8.246 -0.6494  0.8689 -1.4243
 4822SOL     OW25924   3.085   3.453   2.121 -0.0921  0.1713  0.2673
 4822SOL    HW125925   3.163   3.479   2.171  0.7322 -0.0486 -0.9223
 4822SOL    HW225926   3.110   3.459   2.029 -0.5779 -1.2641  0.0455
 4823SOL     OW25927   2.816   2.597   5.155  0.3045  0.5456 -0.1407
 4823SOL    HW125928   2.791   2.507   5.179  0.9822  0.3906  0.0068
 4823SOL    HW225929   2.901   2.571   5.120 -0.3632 -0.2342 -1.1885
 4824SOL     OW25930   3.787   4.305  14.636 -0.0624 -0.7516 -0.3527
 4824SOL    HW125931   3.800   4.356  14.716 -0.4137 -0.6599 -0.3527
 4824SOL    HW225932   3.879   4.289  14.616 -0.0351 -1.3098  0.2094
 4825SOL     OW25933   0.257   3.537   9.610  0.2975 -0.6801 -0.5553
 4825SOL    HW125934   0.336   3.557   9.659 -0.0852 -2.1236  0.6663
 4825SOL    HW225935   0.186   3.584   9.654  0.2717 -0.5157 -0.7739
 4826SOL     OW25936   2.835   2.030   4.432  0.8073  0.0563  0.0232
 4826SOL    HW125937   2.744   2.060   4.436  1.0873  0.7128  1.4078
 4826SOL    HW225938   2.816   1.936   4.423 -0.1663  0.3094 -0.6966
 4827SOL     OW25939   4.382   0.976  17.424  0.1087  0.4840 -0.3116
 4827SOL    HW125940   4.412   1.065  17.403 -0.2963  0.9456  1.0582
 4827SOL    HW225941   4.338   0.987  17.509 -0.0183 -1.2865 -0.1517
 4828SOL     OW25942   2.888   0.739   7.388 -0.0084 -0.2523 -0.4453
 4828SOL    HW125943   2.854   0.817   7.432 -1.0556  0.8230 -3.1775
 4828SOL    HW225944   2.924   0.773   7.306  1.7625 -1.5811 -0.2265
 4829SOL     OW25945   2.140   4.131   7.063  0.4795 -0.4156 -0.1548
 4829SOL    HW125946   2.199   4.068   7.021 -0.9830 -2.6270  1.1076
 4829SOL    HW225947   2.071   4.080   7.106  0.0566 -0.5058 -0.9438
 4830SOL     OW25948   4.550   1.683   2.463  0.0130  0.0201 -0.3456
 4830SOL    HW125949   4.604   1.739   2.407  0.9337 -1.6344 -1.1113
 4830SOL    HW225950   4.569   1.594   2.435 -0.3552 -0.8503  2.2052
 4831SOL     OW25951   2.782   3.009   2.151 -0.3435 -0.1993  0.1630
 4831SOL    HW125952   2.807   3.004   2.059 -2.7233 -0.0623 -0.4895
 4831SOL    HW225953   2.713   2.944   2.136 -0.6507 -0.1012  1.1446
 4832SOL     OW25954   2.542   1.819   6.864  0.7382 -0.0736 -0.8156
 4832SOL    HW125955   2.587   1.873   6.928 -0.8385 -0.9990  1.0516
 4832SOL    HW225956   2.613   1.773   6.820  2.5346  1.2186  0.7790
 4833SOL     OW25957   3.304   0.408  16.398 -0.4357  0.2755  0.6684
 4833SOL    HW125958   3.284   0.320  16.428 -1.6213  1.2381  2.7453
 4833SOL    HW225959   3.397   0.396  16.380  0.0568  1.3167  2.4532
 4834SOL     OW25960   2.189   1.427   5.713 -0.7395  0.7103 -0.2385
 4834SOL    HW125961   2.218   1.447   5.624 -4.0629  0.7376 -1.3249
 4834SOL    HW225962   2.238   1.347   5.729 -2.3185 -0.0853  0.5770
 4835SOL     OW25963   3.424   4.036  15.791 -0.2591  0.2505  0.2250
 4835SOL    HW125964   3.485   4.109  15.776  0.6235 -0.6912 -0.7467
 4835SOL    HW225965   3.420   3.990  15.708  0.2487 -2.4128  1.6569
 4836SOL     OW25966   4.540   3.382   8.908  0.3127 -0.1022  0.3144
 4836SOL    HW125967   4.578   3.322   8.972  3.2704  3.8572  2.3495
 4836SOL    HW225968   4.585   3.462   8.936  0.3728 -0.0598  0.0972
 4837SOL     OW25969   2.033   1.557   2.285 -0.9700  0.7284  0.0664
 4837SOL    HW125970   1.990   1.523   2.363 -0.1270 -0.5991 -0.0377
 4837SOL    HW225971   2.071   1.475   2.254  1.2778  2.2018 -1.0632
 4838SOL     OW25972   3.572   1.111   9.760  0.6278  0.4561  0.1798
 4838SOL    HW125973   3.662   1.118   9.791  1.6510 -0.2640 -2.5737
 4838SOL    HW225974   3.578   1.048   9.688 -0.3353 -0.5405  0.9666
 4839SOL     OW25975   4.169   2.118  12.432 -0.3404 -0.6147 -0.0556
 4839SOL    HW125976   4.216   2.105  12.515 -2.7403 -3.2360  0.8928
 4839SOL    HW225977   4.096   2.170  12.466  0.3688  1.8346 -2.3147
 4840SOL     OW25978   1.318   1.760   6.137 -0.3504 -0.3940 -0.3287
 4840SOL    HW125979   1.385   1.772   6.070  1.6787 -0.8169  1.6527
 4840SOL    HW225980   1.242   1.714   6.101  0.0086 -0.7361 -0.6476
 4841SOL     OW25981   2.052   0.294   4.637 -0.4549 -0.4499 -0.5899
 4841SOL    HW125982   2.074   0.327   4.550  1.7173 -0.8886 -0.1978
 4841SOL    HW225983   2.063   0.202   4.613 -1.3941 -0.3603 -1.3495
 4842SOL     OW25984   1.299   0.183   3.841 -0.1208 -0.2334 -0.2209
 4842SOL    HW125985   1.337   0.169   3.754  2.3928 -3.1476  1.3371
 4842SOL    HW225986   1.350   0.257   3.874  1.2291 -0.5829 -1.4864
 4843SOL     OW25987   1.760   3.137   8.107 -0.2311 -0.4879  0.1145
 4843SOL    HW125988   1.838   3.158   8.159  1.5990  0.2991 -2.9659
 4843SOL    HW225989   1.695   3.181   8.161  1.4915  0.9454  1.0198
 4844SOL     OW25990   3.710   3.142  14.132  0.3620  0.0058 -0.1338
 4844SOL    HW125991   3.715   3.147  14.228  0.9601 -1.1633 -0.1077
 4844SOL    HW225992   3.707   3.233  14.105 -1.4802  0.3655  1.3066
 4845SOL     OW25993   2.656   1.242  16.456  0.6317 -0.2108 -0.1094
 4845SOL    HW125994   2.732   1.184  16.466  0.3715 -0.5073  0.1443
 4845SOL    HW225995   2.675   1.283  16.371 -1.5049  2.1849  0.5944
 4846SOL     OW25996   1.740   1.019  14.307 -0.0906 -0.2711 -0.1634
 4846SOL    HW125997   1.794   0.962  14.252 -0.8182 -0.8922 -0.2294
 4846SOL    HW225998   1.799   1.050  14.376 -0.9746  0.6506  0.1821
 4847SOL     OW25999   2.961   2.158   4.201  0.5271  0.0607 -0.3479
 4847SOL    HW126000   2.975   2.077   4.151  3.3329 -1.4199  2.8437
 4847SOL    HW226001   2.949   2.129   4.291  1.5695 -0.3011 -0.3275
 4848SOL     OW26002   2.448   2.419   8.948 -0.4849  0.0499  0.6413
 4848SOL    HW126003   2.380   2.352   8.952  0.3582 -0.8403  0.3833
 4848SOL    HW226004   2.473   2.433   9.040 -3.2883  0.6647  1.3095
 4849SOL     OW26005   0.111   1.579   2.335 -0.3532  0.5624 -0.0905
 4849SOL    HW126006   0.147   1.653   2.385 -0.6192 -0.7840  2.0523
 4849SOL    HW226007   0.174   1.581   2.263 -1.1048 -2.9371 -0.7996
 4850SOL     OW26008   4.010   0.810   1.069  0.0791 -0.2963 -0.1096
 4850SOL    HW126009   4.061   0.883   1.101  1.3270 -1.1085 -0.2564
 4850SOL    HW226010   4.083   0.751   1.051  0.9356  0.5585  0.6468
 4851SOL     OW26011   1.672   3.986   8.648 -0.1982 -0.3367 -0.3498
 4851SOL    HW126012   1.664   3.896   8.680  0.3092 -0.4242 -0.4598
 4851SOL    HW226013   1.647   4.028   8.730  0.6743  0.3156 -0.4104
 4852SOL     OW26014   4.120   1.998  12.709  0.1463  0.2444 -0.3560
 4852SOL    HW126015   4.214   2.014  12.713  0.1264  0.4378 -0.6725
 4852SOL    HW226016   4.077   2.083  12.711  1.9127  1.1054  0.8446
 4853SOL     OW26017   3.903   2.180  14.301 -0.0009 -0.4294 -0.1621
 4853SOL    HW126018   3.887   2.212  14.212  0.1176  0.8196  0.2610
 4853SOL    HW226019   3.977   2.240  14.311 -1.4518  1.2636  0.4080
 4854SOL     OW26020   4.674   4.488   5.370  0.0709  0.3529 -0.6830
 4854SOL    HW126021   4.709   4.568   5.331  0.3953  0.9046  0.7378
 4854SOL    HW226022   4.630   4.447   5.296  2.0658 -0.8988 -1.1565
 4855SOL     OW26023   3.389   2.628   7.191  0.1600  0.0997 -0.3171
 4855SOL    HW126024   3.317   2.683   7.161 -1.0556 -2.4945 -2.2151
 4855SOL    HW226025   3.378   2.550   7.136  1.1318 -0.1371 -0.1822
 4856SOL     OW26026   2.623   0.042   2.522 -0.1168  0.1817  0.1098
 4856SOL    HW126027   2.664   4.678   2.528 -0.2432  0.1892  1.0756
 4856SOL    HW226028   2.610   0.048   2.427 -0.4001 -0.2694  0.1148
 4857SOL     OW26029   3.892   2.594   6.919 -0.4051 -0.2107  0.2757
 4857SOL    HW126030   3.949   2.670   6.933 -1.3387  0.4448  0.4725
 4857SOL    HW226031   3.916   2.539   6.994  1.5265 -0.6571 -0.6432
 4858SOL     OW26032   0.971   0.202  12.888 -0.0558 -0.2511  0.0126
 4858SOL    HW126033   0.965   0.197  12.792 -1.1420 -2.3698  0.2110
 4858SOL    HW226034   0.989   0.295  12.907 -2.7166  0.0181  1.1612
 4859SOL     OW26035   0.042   3.497   6.662  0.1270  0.3511 -0.2032
 4859SOL    HW126036   0.128   3.491   6.704  0.3358  0.3748 -0.6302
 4859SOL    HW226037   4.708   3.480   6.737  0.7182  1.1208  0.4090
 4860SOL     OW26038   3.617   1.023   3.142  0.0958 -0.4495  0.6576
 4860SOL    HW126039   3.647   0.938   3.110  0.3641  0.6196 -1.9695
 4860SOL    HW226040   3.565   1.001   3.219 -0.7487  1.6082  0.6862
 4861SOL     OW26041   0.725   1.246  13.028  0.6043  0.0953 -0.2172
 4861SOL    HW126042   0.759   1.213  13.111  0.1661  0.5879  0.1620
 4861SOL    HW226043   0.782   1.323  13.029  1.2216 -0.3559 -0.3955
 4862SOL     OW26044   4.410   3.684  14.094  0.2447  0.7370 -0.0492
 4862SOL    HW126045   4.486   3.669  14.038  0.1525  0.3520 -0.0734
 4862SOL    HW226046   4.405   3.593  14.122 -2.1285  0.9564  0.2421
 4863SOL     OW26047   3.974   0.675   9.870  0.2084  0.5686 -0.0062
 4863SOL    HW126048   3.999   0.591   9.832 -1.7307 -0.8350  1.7560
 4863SOL    HW226049   3.983   0.656   9.964 -2.6056  1.8872  0.5392
 4864SOL     OW26050   1.197   2.765  13.768 -0.0192  0.4347 -0.1075
 4864SOL    HW126051   1.191   2.673  13.796 -1.3626  0.8697  1.0579
 4864SOL    HW226052   1.113   2.780  13.727  0.4011 -0.6159 -1.3539
 4865SOL     OW26053   0.700   0.285   3.794 -0.3469  0.4001  0.4396
 4865SOL    HW126054   0.639   0.323   3.857 -1.1258  0.5983 -0.4423
 4865SOL    HW226055   0.774   0.279   3.854  0.2200  1.2551 -0.1836
 4866SOL     OW26056   4.593   2.997   8.781 -0.1993  0.0077 -0.0785
 4866SOL    HW126057   4.621   3.082   8.748  1.4637 -0.6414 -0.3261
 4866SOL    HW226058   4.535   3.020   8.854 -2.1988 -0.1252 -1.6112
 4867SOL     OW26059   0.857   4.217   9.084 -0.3625 -0.5157 -0.0416
 4867SOL    HW126060   0.870   4.305   9.118  0.1102 -1.4198  2.0834
 4867SOL    HW226061   0.895   4.233   8.997  1.0765 -0.7081  0.5393
 4868SOL     OW26062   0.371   0.855   9.380  0.1512 -0.1842  0.2472
 4868SOL    HW126063   0.364   0.763   9.355  1.0588  0.0944 -1.0149
 4868SOL    HW226064   0.421   0.847   9.462  0.2782 -0.8240  0.1093
 4869SOL     OW26065   0.406   2.091   1.871 -0.4470  0.6589 -0.3371
 4869SOL    HW126066   0.421   1.997   1.883 -0.0898  0.5749 -1.5059
 4869SOL    HW226067   0.494   2.123   1.851  1.0568 -2.4480  1.3966
 4870SOL     OW26068   0.096   1.516   6.108 -0.1300  0.2511  0.2636
 4870SOL    HW126069   0.098   1.611   6.101  1.0689  0.3261  1.6199
 4870SOL    HW226070   0.164   1.515   6.175 -0.4730 -1.9802  0.5948
 4871SOL     OW26071   1.686   3.858   0.197 -0.1726  0.4066 -0.3443
 4871SOL    HW126072   1.616   3.876   0.134 -0.7502 -0.0125  0.1668
 4871SOL    HW226073   1.634   3.841   0.276  0.9423 -1.0459  0.0653
 4872SOL     OW26074   3.690   1.393   2.860  0.2843 -0.2026 -0.0960
 4872SOL    HW126075   3.681   1.399   2.956  1.4158 -0.2714  0.0122
 4872SOL    HW226076   3.725   1.306   2.843 -2.1882 -1.3880  0.8673
 4873SOL     OW26077   3.440   1.119   4.051 -0.2819  0.6319 -0.1306
 4873SOL    HW126078   3.501   1.142   4.121 -0.3312 -0.9677  0.4588
 4873SOL    HW226079   3.415   1.031   4.079  2.2222 -1.1126 -3.3865
 4874SOL     OW26080   4.708   0.328  12.934  0.3318 -0.1520 -0.0915
 4874SOL    HW126081   4.661   0.356  13.012  0.4705  1.7071 -0.6906
 4874SOL    HW226082   4.631   0.315  12.879 -1.0599  2.0080  1.3930
 4875SOL     OW26083   1.724   1.936   3.493  0.1010  0.4210  0.0836
 4875SOL    HW126084   1.783   1.866   3.519  0.2720 -0.4250 -2.5158
 4875SOL    HW226085   1.739   1.951   3.399  1.1332  1.2757  0.3830
 4876SOL     OW26086   4.405   2.475   5.274 -0.3407  0.1588 -0.8464
 4876SOL    HW126087   4.331   2.435   5.227 -1.8900  0.3768  1.4042
 4876SOL    HW226088   4.477   2.462   5.212 -0.0281  2.1272 -0.8882
 4877SOL     OW26089   2.005   3.506   3.919 -0.3423  0.2120  0.4925
 4877SOL    HW126090   2.020   3.418   3.953 -2.5072 -0.4764 -0.2899
 4877SOL    HW226091   2.006   3.561   3.997  0.0993  1.6231 -0.5042
 4878SOL     OW26092   1.830   4.408  14.717 -0.7437 -0.3592  0.2364
 4878SOL    HW126093   1.766   4.359  14.665 -1.9087 -1.5042  2.7074
 4878SOL    HW226094   1.903   4.393  14.658 -0.6715  0.0940  0.2082
 4879SOL     OW26095   4.704   0.870   4.373  0.4052 -0.3952  0.3449
 4879SOL    HW126096   0.007   0.778   4.377 -1.3370 -0.9311 -0.7748
 4879SOL    HW226097   0.060   0.914   4.341 -1.1830  0.4424 -2.4207
 4880SOL     OW26098   4.015   4.088  10.515 -0.2988  0.0560 -0.1231
 4880SOL    HW126099   4.080   4.018  10.516  1.0969  1.4261  2.4240
 4880SOL    HW226100   3.943   4.036  10.480 -0.7485  3.0909 -3.7645
 4881SOL     OW26101   3.414   4.506   5.283 -0.5612 -0.4659 -0.0446
 4881SOL    HW126102   3.507   4.514   5.263 -0.6501 -1.6237 -0.9636
 4881SOL    HW226103   3.375   4.576   5.231 -1.8448  0.4611  2.1688
 4882SOL     OW26104   1.596   2.956  11.534  0.2091  0.2963  0.0249
 4882SOL    HW126105   1.653   2.890  11.495 -0.8205 -0.2381 -0.5651
 4882SOL    HW226106   1.642   2.982  11.614 -1.1714  0.3241  0.8211
 4883SOL     OW26107   0.223   0.164   4.528 -0.0738  0.1798  0.4964
 4883SOL    HW126108   0.219   0.116   4.611 -0.7501  0.5756  0.6995
 4883SOL    HW226109   0.310   0.143   4.495  0.3755 -1.0907  2.4746
 4884SOL     OW26110   0.611   1.661   4.086  0.4145 -0.0505  0.5446
 4884SOL    HW126111   0.698   1.653   4.047  0.9616  1.1912  1.5203
 4884SOL    HW226112   0.563   1.596   4.034 -0.8826  0.8324  0.6140
 4885SOL     OW26113   3.632   4.478   0.551  0.4898  0.1435  0.0571
 4885SOL    HW126114   3.555   4.432   0.585  0.3367  1.3307  1.3271
 4885SOL    HW226115   3.632   4.446   0.461 -0.3792 -1.3414  0.5748
 4886SOL     OW26116   1.964   1.587   7.102 -0.3605  0.1123 -0.6631
 4886SOL    HW126117   1.926   1.632   7.026 -0.2259  0.1643 -0.7006
 4886SOL    HW226118   2.023   1.524   7.061 -0.7207 -0.6421 -0.0098
 4887SOL     OW26119   0.907   4.372   6.288  0.4888  0.1107 -0.3128
 4887SOL    HW126120   0.967   4.429   6.336  0.6258  1.3481 -1.9460
 4887SOL    HW226121   0.889   4.412   6.203 -0.4502  0.3694  0.0174
 4888SOL     OW26122   0.604   0.593  14.922  0.0806  0.2518  0.1874
 4888SOL    HW126123   0.665   0.520  14.916  0.2796  0.3512  1.0512
 4888SOL    HW226124   0.517   0.557  14.903 -0.0945  0.5297  0.4642
 4889SOL     OW26125   1.715   1.754  14.163  0.3996  0.3597 -0.3323
 4889SOL    HW126126   1.699   1.726  14.253 -1.6894  0.2819 -0.7165
 4889SOL    HW226127   1.752   1.841  14.175  1.0087 -0.1966  1.8421
 4890SOL     OW26128   3.825   4.428   6.446  0.2467 -0.1074  0.0566
 4890SOL    HW126129   3.889   4.363   6.477  0.0644 -0.1861  0.2631
 4890SOL    HW226130   3.752   4.408   6.503 -0.4625 -0.0905 -0.8481
 4891SOL     OW26131   4.387   0.757  14.465  0.6835 -0.0673 -0.9294
 4891SOL    HW126132   4.324   0.731  14.532 -0.8811  3.1859 -1.1353
 4891SOL    HW226133   4.461   0.705  14.497  0.0533 -0.1980  0.2908
 4892SOL     OW26134   3.332   4.646   7.358  0.2425 -0.1325 -0.4841
 4892SOL    HW126135   3.400   4.581   7.379  1.3280  1.0999 -0.2122
 4892SOL    HW226136   3.252   4.606   7.394  0.7131 -1.2176 -0.6367
 4893SOL     OW26137   3.924   0.987   5.200  0.4073  0.8311  0.3215
 4893SOL    HW126138   4.014   0.982   5.232  0.5527 -0.5256 -0.2545
 4893SOL    HW226139   3.921   0.912   5.140 -2.9294  0.6152  0.7549
 4894SOL     OW26140   0.690   3.021   6.360 -0.6509 -0.0702 -0.3121
 4894SOL    HW126141   0.671   3.101   6.311 -1.7238  1.1790  2.1210
 4894SOL    HW226142   0.752   2.981   6.299 -1.8729 -2.6540  0.1835
 4895SOL     OW26143   4.707   1.841   3.743  0.0012 -0.2367 -0.1975
 4895SOL    HW126144   0.056   1.789   3.707  0.5132  1.9405 -2.2936
 4895SOL    HW226145   0.028   1.924   3.720  0.9479 -0.2375  1.5328
 4896SOL     OW26146   3.641   1.676  12.543 -0.7300  0.3672  0.4577
 4896SOL    HW126147   3.724   1.629  12.534  0.4021  2.4046  0.2656
 4896SOL    HW226148   3.592   1.598  12.518  1.9546 -0.5411 -1.9818
 4897SOL     OW26149   3.374   0.572  14.637  0.0609  0.0160  0.0780
 4897SOL    HW126150   3.439   0.634  14.605 -0.1313 -0.3696 -1.0868
 4897SOL    HW226151   3.378   0.576  14.732 -0.0304  1.3317  0.0303
 4898SOL     OW26152   0.561   2.893   7.708  0.0267  0.0827 -0.3755
 4898SOL    HW126153   0.507   2.830   7.757  0.7705  0.3842  0.8483
 4898SOL    HW226154   0.486   2.946   7.681  0.0847 -0.6673 -1.9989
 4899SOL     OW26155   0.820   4.463  16.225  0.4662  0.2591  0.1934
 4899SOL    HW126156   0.852   4.446  16.137 -0.1304 -0.3306  0.0890
 4899SOL    HW226157   0.799   4.377  16.262 -0.1935 -0.8340 -2.7548
 4900SOL     OW26158   2.588   3.212   2.738  0.7633 -0.6115  0.1210
 4900SOL    HW126159   2.628   3.223   2.652  1.4767  2.1815  0.8331
 4900SOL    HW226160   2.658   3.233   2.799 -0.2448  1.7439  0.4800
 4901SOL     OW26161   0.844   0.231   7.288 -0.1275 -0.4197  0.0834
 4901SOL    HW126162   0.938   0.215   7.289 -0.0019  0.3086  0.3088
 4901SOL    HW226163   0.841   0.327   7.287  0.1137 -0.4213 -0.7436
 4902SOL     OW26164   4.395   2.323   8.200  0.1005 -0.5614 -0.4958
 4902SOL    HW126165   4.468   2.275   8.240 -0.2331 -0.9348 -0.3275
 4902SOL    HW226166   4.425   2.410   8.227 -2.7882 -0.2590  1.7755
 4903SOL     OW26167   0.302   3.760   8.127  0.5096 -0.3893 -0.1158
 4903SOL    HW126168   0.358   3.701   8.077  0.8687  1.0730 -1.4192
 4903SOL    HW226169   0.263   3.703   8.194 -0.1221  0.2430  0.0505
 4904SOL     OW26170   2.292   1.945   6.911  0.0922  0.5793 -0.5274
 4904SOL    HW126171   2.366   1.887   6.893  0.4821  0.3207  1.9606
 4904SOL    HW226172   2.227   1.911   6.850  0.3856 -1.8435  0.5167
 4905SOL     OW26173   2.884   3.095   5.927 -0.2499 -0.0510  0.4535
 4905SOL    HW126174   2.868   3.007   5.894  0.5624  0.4715 -1.3748
 4905SOL    HW226175   2.953   3.077   5.991  0.6558  0.1719 -0.4589
 4906SOL     OW26176   2.390   4.617   2.379 -0.2432  0.2016  0.6555
 4906SOL    HW126177   2.428   4.589   2.462  1.1222 -2.6109 -0.9440
 4906SOL    HW226178   2.354   4.698   2.415 -2.1359 -0.9600  1.3413
 4907SOL     OW26179   1.589   4.288  14.610 -0.3888 -0.0107  0.5231
 4907SOL    HW126180   1.605   4.240  14.529  2.1475 -1.4605  1.8907
 4907SOL    HW226181   1.498   4.318  14.602 -0.1423 -0.1859 -2.8161
 4908SOL     OW26182   4.512   0.564   9.106  0.2825 -0.1091  0.5560
 4908SOL    HW126183   4.475   0.576   9.194 -1.7336 -0.4164 -0.2714
 4908SOL    HW226184   4.604   0.564   9.133  0.5575  0.8475 -0.3905
 4909SOL     OW26185   2.461   4.305  17.573  0.1483 -0.2346 -0.0859
 4909SOL    HW126186   2.444   4.360  17.650  0.0654  0.9504 -0.9537
 4909SOL    HW226187   2.381   4.315  17.521  1.2141 -1.2395 -1.8949
 4910SOL     OW26188   3.963   4.536  11.472 -0.0610  0.1307 -0.1677
 4910SOL    HW126189   3.897   4.589  11.517 -0.2076 -3.9869  4.4566
 4910SOL    HW226190   3.977   4.582  11.390 -1.7297 -2.6053 -1.9969
 4911SOL     OW26191   0.697   1.442   6.510 -0.0723  0.6022  0.2287
 4911SOL    HW126192   0.791   1.432   6.495 -0.2595 -1.3034  0.2886
 4911SOL    HW226193   0.660   1.357   6.487  3.6900 -1.3189  1.2548
 4912SOL     OW26194   4.202   1.178   1.483  0.1575  0.1701  0.1050
 4912SOL    HW126195   4.168   1.227   1.558 -0.3669 -0.1002  0.0473
 4912SOL    HW226196   4.153   1.098   1.502 -0.9519  1.0637  1.0468
 4913SOL     OW26197   3.518   0.102  10.894 -0.1692 -0.3663  0.0297
 4913SOL    HW126198   3.448   0.151  10.851  1.5118  1.2028 -0.9050
 4913SOL    HW226199   3.600   0.134  10.858  1.6879 -3.1341  1.7421
 4914SOL     OW26200   0.952   4.408   3.479 -0.2425  0.1588 -0.2189
 4914SOL    HW126201   0.944   4.393   3.385  2.3108 -4.1445  0.2783
 4914SOL    HW226202   1.015   4.344   3.512  0.5993  0.8632 -0.4477
 4915SOL     OW26203   2.425   0.680   3.012  0.5394  0.2323 -0.6984
 4915SOL    HW126204   2.519   0.700   3.016  0.1142  2.2366 -0.7372
 4915SOL    HW226205   2.397   0.720   3.094 -0.2386 -1.4000 -0.1700
 4916SOL     OW26206   3.370   2.382   6.124 -0.2700 -0.2461 -0.0182
 4916SOL    HW126207   3.454   2.358   6.086 -0.0579 -0.9908  0.9257
 4916SOL    HW226208   3.385   2.440   6.199 -1.8332  2.1410 -1.5759
 4917SOL     OW26209   2.476   2.195  15.974  0.5688  0.4033 -0.0103
 4917SOL    HW126210   2.489   2.134  16.046  0.4330 -0.9238 -1.1065
 4917SOL    HW226211   2.488   2.279  16.019 -0.2311 -0.0624  1.0457
 4918SOL     OW26212   0.149   0.319   8.459 -0.9168 -0.2380 -0.1846
 4918SOL    HW126213   0.173   0.286   8.545  1.8980  1.1687 -0.4095
 4918SOL    HW226214   0.065   0.276   8.445 -0.7055 -1.0275  0.9951
 4919SOL     OW26215   2.145   3.285   2.521  0.5432  0.3074 -0.1968
 4919SOL    HW126216   2.176   3.196   2.505  2.7786  1.1317 -0.3600
 4919SOL    HW226217   2.197   3.304   2.599  2.0759 -0.7857 -0.9435
 4920SOL     OW26218   0.565   4.628   6.726  0.1164  0.5458 -0.2975
 4920SOL    HW126219   0.505   4.617   6.652  0.3033 -0.8263 -0.2279
 4920SOL    HW226220   0.528   4.571   6.794  2.0982 -0.0498  0.2552
 4921SOL     OW26221   3.225   0.793   9.777  0.5127  0.2205  0.2832
 4921SOL    HW126222   3.134   0.773   9.799  0.3171  0.8580  0.0739
 4921SOL    HW226223   3.264   0.713   9.813  1.3247  0.3142 -0.3649
 4922SOL     OW26224   4.341   4.609   6.735 -0.6297  0.1428 -0.2908
 4922SOL    HW126225   4.367   4.525   6.772  0.7488 -0.6109 -3.0562
 4922SOL    HW226226   4.247   4.609   6.717 -1.2461 -0.5575  2.8730
 4923SOL     OW26227   3.853   4.195   5.834  0.1857  0.0659  0.5184
 4923SOL    HW126228   3.922   4.129   5.826 -2.2194 -2.0443 -2.7681
 4923SOL    HW226229   3.840   4.205   5.928  2.6977 -0.8485  0.9694
 4924SOL     OW26230   4.404   2.743   0.539  0.1000  0.4575  0.5573
 4924SOL    HW126231   4.390   2.670   0.598 -2.1882  0.0177 -0.5243
 4924SOL    HW226232   4.318   2.745   0.497  0.4593 -0.0715 -0.2061
 4925SOL     OW26233   3.548   0.747  15.982  0.2443 -0.1415 -0.2188
 4925SOL    HW126234   3.490   0.676  15.954  0.2883  0.1537 -1.0585
 4925SOL    HW226235   3.554   0.722  16.074 -2.8077 -0.5926 -0.1239
 4926SOL     OW26236   1.107   2.553   4.287  0.2693  0.7747 -0.4995
 4926SOL    HW126237   1.126   2.645   4.266  0.5586  0.1374 -3.0187
 4926SOL    HW226238   1.071   2.563   4.375 -1.5890  2.9156 -1.5144
 4927SOL     OW26239   1.968   2.627   8.839  0.0796 -0.6113  0.2573
 4927SOL    HW126240   1.930   2.705   8.880  0.7977  0.2070 -0.6618
 4927SOL    HW226241   2.062   2.622   8.858  0.3799 -0.9202 -1.3483
 4928SOL     OW26242   1.929   2.846  15.089  0.1409  0.3493 -0.5594
 4928SOL    HW126243   1.874   2.815  15.161  0.0540  2.2013  0.1637
 4928SOL    HW226244   1.999   2.781  15.083 -0.6319 -0.4474 -1.1594
 4929SOL     OW26245   4.272   4.000   2.926 -0.0371  0.1688 -0.0948
 4929SOL    HW126246   4.337   3.956   2.981 -0.7826 -0.1531  0.5359
 4929SOL    HW226247   4.322   4.059   2.870  0.3165  1.9681  2.0988
 4930SOL     OW26248   1.875   2.796   5.404  0.1218 -0.0856  0.5231
 4930SOL    HW126249   1.825   2.823   5.327  0.1773 -1.0884  0.1372
 4930SOL    HW226250   1.948   2.854   5.383 -0.4872  0.9531  1.2773
 4931SOL     OW26251   1.136   3.932   3.088 -0.0729 -0.1044 -0.2961
 4931SOL    HW126252   1.228   3.911   3.108 -0.3264 -0.2665  0.6828
 4931SOL    HW226253   1.096   3.849   3.064  0.9377 -0.8918  0.7942
 4932SOL     OW26254   2.929   0.144  12.347  0.1091 -0.1062 -0.0973
 4932SOL    HW126255   2.890   0.064  12.383  0.8197  0.5337  2.1314
 4932SOL    HW226256   2.854   0.204  12.349  0.4373  0.3140 -0.3816
 4933SOL     OW26257   2.245   3.289   9.783 -0.0380  0.4521  0.3807
 4933SOL    HW126258   2.216   3.199   9.772 -1.9774  1.5303 -3.3204
 4933SOL    HW226259   2.195   3.324   9.709 -0.7781 -0.9921  0.1893
 4934SOL     OW26260   3.065   3.408   8.765 -0.0166  0.1273  0.3475
 4934SOL    HW126261   3.042   3.469   8.835 -0.1583  0.1978  0.2381
 4934SOL    HW226262   3.057   3.323   8.807 -1.4497  0.1677  0.1564
 4935SOL     OW26263   4.242   0.029  10.266 -0.4596 -0.0234  0.4315
 4935SOL    HW126264   4.270   4.672  10.312 -2.2261 -1.9346 -1.8049
 4935SOL    HW226265   4.148   0.012  10.253  0.4362 -0.7001 -4.9410
 4936SOL     OW26266   3.289   0.710   7.737  0.3875 -0.7961  0.1151
 4936SOL    HW126267   3.279   0.796   7.695 -0.3916  0.0636  2.0707
 4936SOL    HW226268   3.199   0.681   7.747  0.0486  0.6034  1.2931
 4937SOL     OW26269   1.724   1.169   8.881  0.5735  0.1656  0.3231
 4937SOL    HW126270   1.688   1.162   8.792  1.7119  2.8248 -0.3238
 4937SOL    HW226271   1.797   1.108   8.869  0.4293  0.3440 -1.4476
 4938SOL     OW26272   3.354   0.388   5.861 -0.5629  0.1835 -0.1956
 4938SOL    HW126273   3.328   0.480   5.861 -2.3635 -0.3240  1.2142
 4938SOL    HW226274   3.290   0.356   5.799  0.4312 -0.0743 -1.0921
 4939SOL     OW26275   3.586   0.871   1.808 -0.0569  0.0177  0.4942
 4939SOL    HW126276   3.549   0.888   1.721  1.5051  0.4242 -0.0772
 4939SOL    HW226277   3.675   0.852   1.780 -0.5390 -0.0608 -0.9672
 4940SOL     OW26278   3.109   3.797   6.093 -0.2151 -0.3782  0.4091
 4940SOL    HW126279   3.015   3.792   6.107 -0.4104 -0.2646 -0.9285
 4940SOL    HW226280   3.122   3.881   6.051 -2.4761 -0.3758 -0.2675
 4941SOL     OW26281   2.696   1.534  12.724 -0.4740 -0.5818 -0.2103
 4941SOL    HW126282   2.734   1.498  12.804  1.1835 -0.7028 -1.0682
 4941SOL    HW226283   2.664   1.614  12.767 -2.2199 -1.1101 -0.4960
 4942SOL     OW26284   0.571   3.443   3.686 -0.0538 -0.2724 -0.5029
 4942SOL    HW126285   0.543   3.534   3.679  2.7578  0.5854 -0.8207
 4942SOL    HW226286   0.540   3.407   3.603 -2.0416  0.0280  0.1151
 4943SOL     OW26287   0.057   3.974   1.225 -0.0691  0.5869  0.0791
 4943SOL    HW126288   0.133   3.983   1.166  0.2902  2.1427  0.7683
 4943SOL    HW226289   0.015   3.895   1.191 -0.2372  0.9347 -0.5246
 4944SOL     OW26290   4.593   0.248  14.700  0.1310 -0.4547 -0.3716
 4944SOL    HW126291   4.650   0.325  14.691 -1.0442  0.4609  0.0656
 4944SOL    HW226292   4.642   0.205  14.770 -0.3619 -0.9798 -0.3545
 4945SOL     OW26293   3.953   1.828   7.278 -0.1994 -0.5980  0.4239
 4945SOL    HW126294   4.015   1.887   7.321 -1.1744 -0.2610  1.3777
 4945SOL    HW226295   3.947   1.751   7.334 -3.5173 -0.3932  0.3288
 4946SOL     OW26296   3.780   4.054   7.926 -0.6035 -0.2112  0.0046
 4946SOL    HW126297   3.804   3.966   7.954  0.4548 -0.1030 -0.5541
 4946SOL    HW226298   3.857   4.099   7.892 -0.9795  1.6230  1.5884
 4947SOL     OW26299   2.799   3.244   6.862 -0.3568  0.5897 -0.1764
 4947SOL    HW126300   2.726   3.265   6.921 -2.6365 -1.3575 -2.3003
 4947SOL    HW226301   2.800   3.321   6.805  0.5218 -0.1414 -1.1442
 4948SOL     OW26302   0.922   4.327   2.820 -0.2334  0.0618 -0.0199
 4948SOL    HW126303   0.997   4.319   2.878  0.9908  0.3526 -1.5643
 4948SOL    HW226304   0.927   4.236   2.792  0.8605 -0.5043  2.0773
 4949SOL     OW26305   0.606   0.160   5.186  0.3448  0.3090 -0.1233
 4949SOL    HW126306   0.565   0.076   5.165  2.6729 -0.7183 -0.5954
 4949SOL    HW226307   0.547   0.219   5.139  0.8338  0.4845 -0.5182
 4950SOL     OW26308   2.658   2.801   5.882 -0.0379 -0.2205 -0.0368
 4950SOL    HW126309   2.751   2.782   5.897 -0.0404  0.6978  1.2011
 4950SOL    HW226310   2.635   2.828   5.971 -1.1350 -0.7773 -0.1647
 4951SOL     OW26311   3.357   0.914   2.476  0.0687 -0.2471 -0.5662
 4951SOL    HW126312   3.280   0.858   2.463 -0.6527  0.4214  0.8900
 4951SOL    HW226313   3.359   0.951   2.388  0.9096 -1.5715 -1.1198
 4952SOL     OW26314   3.163   2.267  16.116 -0.3528 -0.3634 -0.7822
 4952SOL    HW126315   3.170   2.238  16.208 -2.0454 -0.2305 -0.6117
 4952SOL    HW226316   3.248   2.309  16.104 -0.2749 -0.4205 -0.4406
 4953SOL     OW26317   4.368   4.286   5.420  0.2861  0.1723  0.1341
 4953SOL    HW126318   4.378   4.348   5.493 -0.8366 -0.6897  1.0195
 4953SOL    HW226319   4.316   4.342   5.362 -0.7151 -1.9128 -0.9655
 4954SOL     OW26320   2.133   1.756   0.777 -0.3418 -0.2294 -0.4464
 4954SOL    HW126321   2.227   1.744   0.788  0.0570  2.2538 -0.9997
 4954SOL    HW226322   2.114   1.716   0.692  0.5418 -0.9437 -0.3126
 4955SOL     OW26323   0.035   2.760  12.576 -0.8485  0.0934  0.0254
 4955SOL    HW126324   0.080   2.753  12.660  0.7368 -1.7551 -0.9682
 4955SOL    HW226325   4.720   2.848  12.580 -0.9676 -0.0821  2.8658
 4956SOL     OW26326   2.080   1.993   3.137  0.5251  0.2997 -0.6101
 4956SOL    HW126327   2.105   1.933   3.207 -2.2656 -1.1221 -0.8204
 4956SOL    HW226328   2.107   2.080   3.168  1.7668 -0.2833 -0.0483
 4957SOL     OW26329   1.193   0.035   1.171  0.5558 -0.2179 -0.3655
 4957SOL    HW126330   1.259   4.690   1.186  0.9689  0.6370  1.7368
 4957SOL    HW226331   1.238   0.118   1.186 -0.3009 -0.0163  1.1344
 4958SOL     OW26332   0.385   2.522  10.100  0.4455  0.2994  0.1555
 4958SOL    HW126333   0.289   2.532  10.102  0.3559 -0.9105  2.0881
 4958SOL    HW226334   0.414   2.574  10.026  0.9778  0.7342  0.6687
 4959SOL     OW26335   4.530   2.228   8.970 -0.4553  0.3590 -0.1525
 4959SOL    HW126336   4.545   2.322   8.969  0.0922  0.2635 -0.6462
 4959SOL    HW226337   4.480   2.210   9.050  2.2048 -0.6697  1.2695
 4960SOL     OW26338   0.826   2.984  12.172  0.1926  0.0110 -0.2324
 4960SOL    HW126339   0.738   2.990  12.136  0.2377  0.9167 -0.1965
 4960SOL    HW226340   0.880   2.995  12.094 -1.1560 -1.6461 -1.3933
 4961SOL     OW26341   3.879   3.762   9.653 -0.1041  0.3903  0.2571
 4961SOL    HW126342   3.941   3.806   9.711 -0.2254  0.3160  0.4446
 4961SOL    HW226343   3.941   3.711   9.601 -1.2012  0.8629 -1.4982
 4962SOL     OW26344   1.078   4.004  16.320 -0.0903  0.2677  0.2268
 4962SOL    HW126345   1.056   4.043  16.235 -2.7141 -0.5934  0.5221
 4962SOL    HW226346   1.122   3.927  16.283  1.1185  0.0092  2.2061
 4963SOL     OW26347   4.616   4.719   6.893 -0.0507  0.3306  0.2020
 4963SOL    HW126348   4.583   4.690   6.808  1.5145  0.5924 -0.5032
 4963SOL    HW226349   4.590   0.089   6.886 -0.3356  0.1586 -1.0873
 4964SOL     OW26350   3.636   3.017   8.342  0.3009 -0.5155 -0.0096
 4964SOL    HW126351   3.688   3.098   8.342  0.3144 -0.5252 -1.4980
 4964SOL    HW226352   3.680   2.969   8.272  0.6916 -0.7075  0.3716
 4965SOL     OW26353   1.638   0.768  12.019  0.1402  0.0324  0.6601
 4965SOL    HW126354   1.673   0.726  11.941  0.7370  0.9112  0.4482
 4965SOL    HW226355   1.545   0.746  12.005  0.3910 -0.6602  0.0770
 4966SOL     OW26356   1.005   4.388   1.067 -0.2235 -0.2606 -0.4053
 4966SOL    HW126357   1.082   4.400   1.013  0.1929  0.7997  0.4338
 4966SOL    HW226358   1.023   4.304   1.110  0.6850  0.0923 -0.0923
 4967SOL     OW26359   1.432   0.921   9.079 -0.3286 -0.4742  0.2062
 4967SOL    HW126360   1.357   0.977   9.058  0.4602 -0.0983 -1.6306
 4967SOL    HW226361   1.398   0.868   9.151 -0.8773  0.0053  0.3096
 4968SOL     OW26362   3.056   4.507  13.010  0.6348  0.3734 -0.1501
 4968SOL    HW126363   3.093   4.595  13.014  0.5357  0.3787  0.6211
 4968SOL    HW226364   3.127   4.461  12.966  1.0141 -0.3610  1.2352
 4969SOL     OW26365   3.243   1.371  13.455 -0.3381 -0.0849 -0.7551
 4969SOL    HW126366   3.171   1.406  13.402  1.0329  2.0921 -1.2106
 4969SOL    HW226367   3.240   1.435  13.526 -1.5048  0.3533 -1.2055
 4970SOL     OW26368   3.845   0.906  12.728  0.0019 -0.4205 -0.4416
 4970SOL    HW126369   3.904   0.831  12.714  0.9214  0.3004 -0.4231
 4970SOL    HW226370   3.900   0.968  12.679 -1.6213 -0.1234 -1.8752
 4971SOL     OW26371   2.822   4.495   8.680  0.2021  0.5234  0.0224
 4971SOL    HW126372   2.792   4.519   8.768  3.5010 -0.7399  1.4751
 4971SOL    HW226373   2.904   4.451   8.703  0.0438 -0.1529 -0.7013
 4972SOL     OW26374   1.027   3.587   0.819 -0.0457 -0.0137  0.4370
 4972SOL    HW126375   1.090   3.566   0.750  0.0383  1.4011  0.0973
 4972SOL    HW226376   0.959   3.620   0.761  0.9494  0.2873 -0.5387
 4973SOL     OW26377   0.121   0.011   7.540 -0.0927 -0.0892 -0.0716
 4973SOL    HW126378   0.163   4.673   7.601  0.3613 -0.3581 -0.6496
 4973SOL    HW226379   0.188   0.080   7.537  0.1553 -0.3865 -1.4042
 4974SOL     OW26380   0.977   3.467   7.707 -0.2872 -0.1602  0.2481
 4974SOL    HW126381   0.956   3.408   7.779  0.2802 -0.8519 -0.1538
 4974SOL    HW226382   1.010   3.402   7.644 -0.0493  0.3305 -0.1342
 4975SOL     OW26383   4.427   3.727   6.824 -0.2977  0.1265 -0.3766
 4975SOL    HW126384   4.346   3.675   6.827  0.1171 -0.5586 -0.9099
 4975SOL    HW226385   4.418   3.754   6.915 -0.4759  0.5596 -0.5208
 4976SOL     OW26386   3.197   1.835   3.094  0.3560  0.2569 -0.4867
 4976SOL    HW126387   3.152   1.751   3.085 -0.4918  0.7390 -0.7514
 4976SOL    HW226388   3.145   1.877   3.162 -0.0897 -0.6656 -0.2623
 4977SOL     OW26389   1.721   2.964   5.228  0.1510  0.4129  0.0845
 4977SOL    HW126390   1.699   2.952   5.135  2.1571 -2.7989  0.0223
 4977SOL    HW226391   1.638   2.980   5.272 -1.1683 -0.1345 -2.1935
 4978SOL     OW26392   1.964   2.383   3.784  0.1549  0.2012  0.2958
 4978SOL    HW126393   1.966   2.478   3.780 -2.8461  0.1338 -3.0533
 4978SOL    HW226394   1.999   2.361   3.870  1.3306 -0.9192 -0.4528
 4979SOL     OW26395   4.204   4.402   1.579 -0.2461 -0.4817  0.1190
 4979SOL    HW126396   4.297   4.420   1.594 -0.7253  2.7564 -0.9309
 4979SOL    HW226397   4.165   4.379   1.664  2.2673 -1.8735  0.9154
 4980SOL     OW26398   4.344   1.788  16.351  0.4866  0.2299 -0.5734
 4980SOL    HW126399   4.302   1.715  16.397  0.5902 -0.2488 -1.2422
 4980SOL    HW226400   4.384   1.836  16.424 -3.1436  1.0249  0.9075
 4981SOL     OW26401   3.724   4.063  10.060 -0.4561  0.7135  0.0446
 4981SOL    HW126402   3.691   4.081   9.972 -1.4326  0.9326  0.4598
 4981SOL    HW226403   3.813   4.031  10.047 -1.3529 -1.0117 -1.8452
 4982SOL     OW26404   1.950   3.544   2.276  0.2160  0.2013 -0.5808
 4982SOL    HW126405   2.012   3.615   2.290  0.3289  0.2844 -1.5083
 4982SOL    HW226406   1.880   3.579   2.331 -0.7703 -1.8023 -0.5365
 4983SOL     OW26407   1.203   0.673   9.742 -0.2191 -0.4151  0.4457
 4983SOL    HW126408   1.207   0.624   9.824 -0.3669  1.1036  1.3616
 4983SOL    HW226409   1.133   0.734   9.766 -0.0821 -0.1774  0.2457
 4984SOL     OW26410   4.394   0.373  14.536 -0.2770 -0.3880 -0.0242
 4984SOL    HW126411   4.449   0.313  14.587 -1.3225 -0.4662  1.0324
 4984SOL    HW226412   4.451   0.449  14.545  0.3756 -0.8410 -0.3710
 4985SOL     OW26413   3.068   1.375   8.584 -0.3162  0.0405 -0.0672
 4985SOL    HW126414   3.024   1.327   8.654  1.1181 -1.8291 -0.4504
 4985SOL    HW226415   3.153   1.396   8.622 -0.8814 -0.1328  1.3086
 4986SOL     OW26416   3.200   1.198  10.708 -0.3283  0.5063  1.0457
 4986SOL    HW126417   3.110   1.230  10.709 -0.2574  0.7101  0.5916
 4986SOL    HW226418   3.214   1.172  10.617 -1.4696  0.0833  0.9968
 4987SOL     OW26419   1.182   0.451  10.785 -0.1652 -0.1544  0.4536
 4987SOL    HW126420   1.103   0.501  10.762 -0.3531  0.6588  2.8629
 4987SOL    HW226421   1.177   0.460  10.880  0.9609  1.2587  0.3857
 4988SOL     OW26422   3.213   2.680  12.999  0.5052  0.1678  1.0207
 4988SOL    HW126423   3.152   2.697  13.070 -1.7331  1.7340 -1.2840
 4988SOL    HW226424   3.180   2.593  12.975  0.7531  0.1035  0.9108
 4989SOL     OW26425   0.743   0.441  13.845 -0.0816 -0.0577  0.3347
 4989SOL    HW126426   0.700   0.406  13.923  1.1684  1.9110  1.9423
 4989SOL    HW226427   0.668   0.483  13.803  0.7670  1.1093 -0.0510
 4990SOL     OW26428   4.533   1.651   8.728  0.3031 -0.1882  0.2494
 4990SOL    HW126429   4.493   1.615   8.807 -0.4029 -1.4851 -0.6983
 4990SOL    HW226430   4.529   1.744   8.750 -0.7031 -0.4272  1.0875
 4991SOL     OW26431   4.198   1.455   6.182 -0.1006  0.1139 -0.3733
 4991SOL    HW126432   4.122   1.405   6.215  0.3078  0.7163  1.5016
 4991SOL    HW226433   4.169   1.543   6.158 -0.2317  0.2397  0.2408
 4992SOL     OW26434   3.093   0.821   3.321  0.6957 -0.2511 -0.7866
 4992SOL    HW126435   3.030   0.768   3.370 -0.1416 -1.0561 -2.6805
 4992SOL    HW226436   3.051   0.906   3.326  1.1553 -0.1111  0.5590
 4993SOL     OW26437   0.170   4.511   1.408  0.0924 -0.6871  0.8871
 4993SOL    HW126438   0.178   4.564   1.487  2.3892  0.8547 -0.4009
 4993SOL    HW226439   0.078   4.486   1.416  0.3455 -2.1236 -0.6061
 4994SOL     OW26440   0.698   2.221   9.992 -0.0162 -0.1731 -0.1310
 4994SOL    HW126441   0.649   2.268   9.925  0.9130  2.3522  0.9640
 4994SOL    HW226442   0.713   2.144   9.937 -0.1587  0.7724 -1.4945
 4995SOL     OW26443   3.792   1.665   7.717  0.1276 -0.2675 -0.5158
 4995SOL    HW126444   3.719   1.656   7.778 -1.3065  2.3838 -1.8238
 4995SOL    HW226445   3.855   1.633   7.781  1.4721  1.7041 -0.8744
 4996SOL     OW26446   4.325   1.286   6.388 -0.2582 -0.1603 -0.8422
 4996SOL    HW126447   4.268   1.351   6.348 -1.1046  1.0430  2.3442
 4996SOL    HW226448   4.351   1.238   6.309  3.0080 -0.5725  0.4581
 4997SOL     OW26449   2.664   2.469   4.959 -0.9808 -0.3840 -0.1071
 4997SOL    HW126450   2.710   2.542   5.000 -0.2168  0.2177 -2.0498
 4997SOL    HW226451   2.736   2.418   4.920  0.2104  0.4164  1.0442
 4998SOL     OW26452   0.851   0.849   5.621  0.4837 -0.3453 -0.2980
 4998SOL    HW126453   0.841   0.851   5.526 -2.3018 -0.5992 -0.0237
 4998SOL    HW226454   0.768   0.890   5.647  0.7283 -0.4139  0.5941
 4999SOL     OW26455   3.427   4.243   0.894 -0.2455 -0.1501  0.1780
 4999SOL    HW126456   3.522   4.244   0.907 -0.2311  1.2538 -0.0545
 4999SOL    HW226457   3.398   4.277   0.978  1.2067  0.4712  0.4280
 5000SOL     OW26458   2.943   3.479  10.259  0.0708  0.0201 -0.7495
 5000SOL    HW126459   2.942   3.484  10.163 -0.3949 -0.6831 -0.7814
 5000SOL    HW226460   3.018   3.423  10.279  0.1336  0.0670 -0.8539
 5001SOL     OW26461   0.189   4.663  13.605 -0.2560 -0.0273 -0.2625
 5001SOL    HW126462   0.170   4.571  13.587 -0.4125  0.0056 -0.2675
 5001SOL    HW226463   0.106   4.708  13.588 -1.5569 -1.9791  0.9990
 5002SOL     OW26464   3.859   0.688   1.310 -0.3210 -0.6255 -0.4611
 5002SOL    HW126465   3.918   0.739   1.255  0.3408 -1.3058 -0.3779
 5002SOL    HW226466   3.885   0.720   1.396 -0.6927 -0.0501 -0.5619
 5003SOL     OW26467   0.272   3.380   2.537  0.1720  0.8442  1.1591
 5003SOL    HW126468   0.278   3.314   2.607  0.6384 -0.6483 -0.2783
 5003SOL    HW226469   0.289   3.456   2.593 -2.2208  2.0752  0.2264
 5004SOL     OW26470   2.970   0.836   3.636  0.1330  0.5800 -0.7447
 5004SOL    HW126471   2.971   0.874   3.724  0.8656 -2.5935  0.6112
 5004SOL    HW226472   2.881   0.803   3.622  0.9723  0.0941 -5.0148
 5005SOL     OW26473   3.389   1.193   3.626  0.0296  0.7223 -0.1592
 5005SOL    HW126474   3.424   1.197   3.537 -1.6041  2.9603 -0.6929
 5005SOL    HW226475   3.326   1.121   3.615 -0.8083  1.5912 -1.0117
 5006SOL     OW26476   2.997   3.463   8.506 -0.7098 -0.5428  0.2484
 5006SOL    HW126477   2.916   3.429   8.544  0.9297 -1.2996  3.0429
 5006SOL    HW226478   3.042   3.500   8.582 -1.1717  0.8475 -0.1469
 5007SOL     OW26479   1.367   0.291   4.262 -0.1667  0.5568 -0.2103
 5007SOL    HW126480   1.283   0.244   4.268  1.6536 -2.8221 -1.4036
 5007SOL    HW226481   1.404   0.250   4.184  0.6158 -3.3555  2.1934
 5008SOL     OW26482   1.817   1.918   3.216  0.3642  0.1003 -0.3865
 5008SOL    HW126483   1.895   1.890   3.168  0.6528  0.3639 -0.0790
 5008SOL    HW226484   1.812   2.011   3.194  3.1475  0.4394  0.4138
 5009SOL     OW26485   3.694   2.771   5.161  0.0772  0.3618  0.1463
 5009SOL    HW126486   3.684   2.684   5.198  0.8390  0.2368  0.0598
 5009SOL    HW226487   3.782   2.765   5.125 -0.2096  0.1224 -0.5088
 5010SOL     OW26488   0.609   1.273   1.109 -0.2031 -0.0458 -0.3402
 5010SOL    HW126489   0.556   1.234   1.179 -0.8686  0.2559 -0.6763
 5010SOL    HW226490   0.540   1.310   1.054  0.9818  2.7086  0.0263
 5011SOL     OW26491   1.487   0.322  16.196 -0.4133 -0.0938  0.0446
 5011SOL    HW126492   1.581   0.316  16.207 -0.5129  0.5895  1.3414
 5011SOL    HW226493   1.475   0.299  16.104 -3.2148  1.4144  0.0160
 5012SOL     OW26494   1.155   0.297   6.039  0.4584  0.4329  0.3744
 5012SOL    HW126495   1.211   0.304   6.116  0.4617  1.3894  0.2856
 5012SOL    HW226496   1.176   0.209   6.008 -0.6898 -0.3825  1.8940
 5013SOL     OW26497   1.541   3.499   2.800 -0.0271 -0.4128 -0.0415
 5013SOL    HW126498   1.449   3.491   2.824 -0.3630 -1.8108 -1.7932
 5013SOL    HW226499   1.565   3.555   2.873  1.3338  0.9759 -1.5500
 5014SOL     OW26500   1.826   4.098   2.690 -0.3370  0.1350  0.2676
 5014SOL    HW126501   1.782   4.170   2.645 -0.7779 -0.6411 -0.5349
 5014SOL    HW226502   1.763   4.085   2.761  0.4699 -0.0329  0.9578
 5015SOL     OW26503   4.439   4.476   4.645  0.3113  0.0237  0.1986
 5015SOL    HW126504   4.389   4.434   4.715  0.2835  0.4910  0.4588
 5015SOL    HW226505   4.463   4.402   4.588  1.8200  0.7871 -0.1624
 5016SOL     OW26506   3.144   2.672   3.263  0.0840 -0.1441 -0.0445
 5016SOL    HW126507   3.171   2.646   3.351 -0.4890  1.6811  0.6541
 5016SOL    HW226508   3.197   2.607   3.216  0.5877  0.0678  0.2437
 5017SOL     OW26509   1.458   0.354  17.201  0.5732 -0.1188 -0.7803
 5017SOL    HW126510   1.545   0.391  17.213  1.1778 -1.3461 -1.4013
 5017SOL    HW226511   1.489   0.264  17.194 -0.6516 -0.6034  0.1364
 5018SOL     OW26512   4.183   4.567   8.605 -0.6012 -0.1193 -0.3573
 5018SOL    HW126513   4.257   4.579   8.665 -0.5884 -1.3144 -0.1347
 5018SOL    HW226514   4.232   4.591   8.527  0.1132  2.6312  0.9526
 5019SOL     OW26515   3.503   3.853   6.852 -0.2554 -0.8449  0.3049
 5019SOL    HW126516   3.455   3.920   6.901  1.9625  2.1426 -1.5945
 5019SOL    HW226517   3.552   3.804   6.918  0.0007  1.3888  1.7847
 5020SOL     OW26518   3.704   0.675   3.834 -0.7450  0.3996 -0.7205
 5020SOL    HW126519   3.781   0.684   3.779  0.0191  1.0554  0.4568
 5020SOL    HW226520   3.663   0.604   3.784 -1.5961 -0.1494  0.7501
 5021SOL     OW26521   3.595   0.797  10.001 -0.2288 -0.3186  0.0128
 5021SOL    HW126522   3.624   0.786   9.911  1.9154 -1.5390  0.8720
 5021SOL    HW226523   3.574   0.889  10.015 -0.3555 -0.1100 -1.5146
 5022SOL     OW26524   3.950   0.680   6.130  0.5319 -0.0052  0.3444
 5022SOL    HW126525   3.906   0.739   6.192  2.5006  0.5186  1.2250
 5022SOL    HW226526   3.877   0.664   6.070  1.6844 -2.0198 -0.4967
 5023SOL     OW26527   3.043   1.938   5.255  0.0450  0.1471 -0.4849
 5023SOL    HW126528   3.067   2.000   5.324  2.0242  0.2967 -1.2909
 5023SOL    HW226529   3.114   1.878   5.281  2.2565  2.6324 -0.7917
 5024SOL     OW26530   4.415   0.836   8.104  0.2760 -0.0023  0.2904
 5024SOL    HW126531   4.376   0.920   8.130 -0.3483 -0.9313  2.3130
 5024SOL    HW226532   4.344   0.802   8.050  3.5963 -0.5580 -3.7097
 5025SOL     OW26533   3.643   4.167  17.093  0.8993  0.6489 -0.5580
 5025SOL    HW126534   3.650   4.097  17.029  1.9081 -0.4567  0.7505
 5025SOL    HW226535   3.554   4.150  17.126  1.9328 -0.0932  1.8670
 5026SOL     OW26536   0.552   4.227   3.459 -0.3612  0.6487  0.0647
 5026SOL    HW126537   0.594   4.256   3.378 -0.8261 -2.0055 -1.1273
 5026SOL    HW226538   0.573   4.299   3.519 -1.3670  1.6974 -0.8475
 5027SOL     OW26539   1.934   3.531   3.375  0.5736  0.8038 -0.0260
 5027SOL    HW126540   1.872   3.603   3.386  0.1443  0.4992 -0.4776
 5027SOL    HW226541   1.973   3.521   3.462  2.0210 -2.3736 -1.0500
 5028SOL     OW26542   3.253   4.649   6.451  0.3104 -0.3101 -0.1939
 5028SOL    HW126543   3.218   4.654   6.362 -0.4457 -0.3445  0.0992
 5028SOL    HW226544   3.273   4.556   6.461 -0.7818 -0.2768  2.1532
 5029SOL     OW26545   2.262   3.082   2.416 -0.6249 -0.0399  0.0271
 5029SOL    HW126546   2.232   3.021   2.349  0.8689  1.4827 -2.0081
 5029SOL    HW226547   2.355   3.063   2.405 -0.8025  1.2735 -3.5162
 5030SOL     OW26548   0.327   0.238   7.172 -0.9224  0.2485 -0.2696
 5030SOL    HW126549   0.280   0.171   7.221  0.8798  1.3478  2.9259
 5030SOL    HW226550   0.285   0.238   7.086  2.0520 -0.3485 -1.7603
 5031SOL     OW26551   0.094   0.958  13.400  0.2064 -0.7315  0.7299
 5031SOL    HW126552   0.042   0.884  13.431 -0.7040 -0.7905 -0.9549
 5031SOL    HW226553   0.059   0.970  13.312  1.4957 -0.7934  0.2105
 5032SOL     OW26554   4.140   3.607   8.556 -0.5609 -0.5428 -0.1156
 5032SOL    HW126555   4.051   3.585   8.584 -1.3198  1.6773 -0.7866
 5032SOL    HW226556   4.143   3.531   8.497 -1.5024 -1.3446  0.8739
 5033SOL     OW26557   0.968   3.568  15.841 -0.1675  0.1839 -0.1581
 5033SOL    HW126558   0.874   3.584  15.847 -0.6245 -1.1376 -3.9661
 5033SOL    HW226559   0.964   3.485  15.792  0.5703  0.2561 -0.3449
 5034SOL     OW26560   2.356   2.955   8.883  0.0918 -0.2443  0.3363
 5034SOL    HW126561   2.430   2.972   8.824 -1.3971  0.9863 -1.2021
 5034SOL    HW226562   2.329   3.043   8.907 -2.7938 -0.5936 -1.6299
 5035SOL     OW26563   1.065   2.822   2.924 -0.0493 -0.5491 -0.7303
 5035SOL    HW126564   1.079   2.789   2.836  0.0206 -0.5073 -0.7347
 5035SOL    HW226565   0.993   2.767   2.956 -0.6441  0.6877  0.0724
 5036SOL     OW26566   0.368   3.548  11.495  0.4520  0.3365  0.8657
 5036SOL    HW126567   0.371   3.609  11.568 -0.8158  0.6153  0.6844
 5036SOL    HW226568   0.273   3.553  11.483  0.6054 -0.4589 -0.7647
 5037SOL     OW26569   2.558   1.291  14.694 -0.0918  0.0671  0.0543
 5037SOL    HW126570   2.478   1.320  14.649  0.6983 -0.1519 -1.5132
 5037SOL    HW226571   2.572   1.377  14.734  0.0221  0.8193 -1.5907
 5038SOL     OW26572   0.318   0.824  13.432  0.4477  0.2741  0.7090
 5038SOL    HW126573   0.349   0.822  13.523 -1.6249  2.4269  1.4387
 5038SOL    HW226574   0.250   0.891  13.431  0.0441 -0.1064  2.7603
 5039SOL     OW26575   1.127   3.459   3.489 -0.0899 -0.3392 -0.3243
 5039SOL    HW126576   1.121   3.364   3.482  3.4828 -0.6899  1.4553
 5039SOL    HW226577   1.150   3.462   3.582 -1.3603  2.4181 -0.1049
 5040SOL     OW26578   4.298   2.246  13.462 -0.0800 -0.0035 -0.5978
 5040SOL    HW126579   4.293   2.312  13.393  0.4541 -0.2147 -0.8395
 5040SOL    HW226580   4.381   2.267  13.506  0.3324  1.0423 -1.8667
 5041SOL     OW26581   2.486   3.956   6.943  0.4637 -0.1157  0.4795
 5041SOL    HW126582   2.522   3.868   6.934 -4.0877 -2.0057  0.9180
 5041SOL    HW226583   2.396   3.942   6.914  0.2580  2.5815 -0.1710
 5042SOL     OW26584   4.547   3.787   6.598  0.1559 -0.4186 -0.3146
 5042SOL    HW126585   4.500   3.750   6.673  0.4189 -0.0581  0.0312
 5042SOL    HW226586   4.624   3.821   6.644 -0.1727 -0.6056  0.3725
 5043SOL     OW26587   0.751   0.330   1.708 -0.3408 -0.2168 -0.3993
 5043SOL    HW126588   0.735   0.408   1.762 -0.9984 -0.4776 -0.2206
 5043SOL    HW226589   0.774   0.258   1.766 -3.0325 -1.6888 -1.1504
 5044SOL     OW26590   2.470   2.115   7.546 -0.3614 -0.2641 -0.1070
 5044SOL    HW126591   2.450   2.173   7.619  0.2448  0.8283 -0.7950
 5044SOL    HW226592   2.387   2.070   7.531 -1.2129  1.1304  0.4292
 5045SOL     OW26593   1.421   2.086  14.939 -0.0793 -0.2390 -0.4467
 5045SOL    HW126594   1.463   2.171  14.931  0.7578 -0.5671  0.5044
 5045SOL    HW226595   1.399   2.075  14.846 -2.8440  2.2385 -0.0819
 5046SOL     OW26596   0.221   3.831  10.866 -0.1896  0.1912  0.1156
 5046SOL    HW126597   0.153   3.822  10.800  0.2603 -1.5329 -0.1295
 5046SOL    HW226598   0.183   3.784  10.940 -0.6917 -1.2871 -1.0741
 5047SOL     OW26599   2.968   3.952   6.755  0.0056  0.1146  0.2339
 5047SOL    HW126600   2.976   4.040   6.791 -1.2288 -0.3043  1.5527
 5047SOL    HW226601   2.878   3.932   6.782  0.4974 -1.6924  0.5203
 5048SOL     OW26602   2.989   4.430   7.701  0.2002 -0.2787  0.6628
 5048SOL    HW126603   2.919   4.495   7.709  0.7453  0.5006 -0.9699
 5048SOL    HW226604   2.975   4.390   7.788 -0.9028 -0.4881  0.3889
 5049SOL     OW26605   3.294   3.156   3.035 -0.2179 -0.6263 -0.2136
 5049SOL    HW126606   3.199   3.170   3.029  0.2393  3.0031  1.0854
 5049SOL    HW226607   3.295   3.082   3.097 -3.0121 -1.3351 -1.0150
 5050SOL     OW26608   4.636   0.883   7.097 -0.2537  0.3698 -0.3329
 5050SOL    HW126609   0.008   0.869   7.109  0.1959  1.9154 -2.1133
 5050SOL    HW226610   4.610   0.850   7.012  0.4390 -0.9711 -0.0249
 5051SOL     OW26611   0.098   0.102  17.521 -0.4058 -0.2198  0.4028
 5051SOL    HW126612   0.126   0.047  17.594  1.5638  2.1433  1.4394
 5051SOL    HW226613   0.040   0.053  17.462  0.0734  2.4712 -2.3296
 5052SOL     OW26614   3.614   1.481   7.404 -0.5680 -0.1559 -0.3104
 5052SOL    HW126615   3.524   1.510   7.388 -1.3240 -2.0576  0.4641
 5052SOL    HW226616   3.590   1.436   7.485 -0.0959  2.0561  1.0439
 5053SOL     OW26617   2.371   2.775   6.250 -0.3209 -0.0047 -0.3413
 5053SOL    HW126618   2.432   2.766   6.324 -1.2832 -0.3171  0.4161
 5053SOL    HW226619   2.437   2.803   6.187  1.4655 -0.0398  1.4934
 5054SOL     OW26620   2.651   1.714   1.423 -0.2263 -0.1977  0.4556
 5054SOL    HW126621   2.564   1.752   1.430 -0.3682  0.1697 -3.1241
 5054SOL    HW226622   2.676   1.702   1.514  1.6977 -1.9398 -0.3091
 5055SOL     OW26623   0.338   1.133   6.292  0.4853 -0.1696 -0.2925
 5055SOL    HW126624   0.347   1.148   6.198 -3.4831 -1.0551 -0.7942
 5055SOL    HW226625   0.264   1.189   6.315  1.6683  0.6760  1.4771
 5056SOL     OW26626   4.497   4.475   3.032  0.6571  0.1037  0.1290
 5056SOL    HW126627   4.479   4.529   3.110 -0.6726  2.1330 -1.5822
 5056SOL    HW226628   4.552   4.411   3.078 -1.0796 -1.1473  0.4580
 5057SOL     OW26629   4.520   4.395   6.472  0.4870 -0.2185 -0.2712
 5057SOL    HW126630   4.565   4.377   6.390  1.5343 -2.2808  0.7484
 5057SOL    HW226631   4.487   4.310   6.503  0.4384 -0.6464 -1.4868
 5058SOL     OW26632   4.158   0.092   3.484 -0.3502 -0.0836 -0.2277
 5058SOL    HW126633   4.149   0.008   3.440  0.1316 -0.0202 -0.4444
 5058SOL    HW226634   4.226   0.069   3.547 -2.0082 -1.6468  1.0039
 5059SOL     OW26635   4.695   1.006  10.772  0.1940  0.1148  0.5566
 5059SOL    HW126636   4.674   1.080  10.715  2.6102 -0.7008 -1.3531
 5059SOL    HW226637   4.658   1.038  10.855 -0.9694 -0.4582  0.2536
 5060SOL     OW26638   3.323   4.105   7.231 -0.0149 -0.2599 -0.0759
 5060SOL    HW126639   3.271   4.155   7.293 -0.5149 -2.0278  0.9244
 5060SOL    HW226640   3.344   4.175   7.170 -0.2117  1.2035  1.5378
 5061SOL     OW26641   1.599   0.698  15.976 -0.2303  0.1914 -0.0069
 5061SOL    HW126642   1.573   0.769  15.919 -2.0319 -2.1352 -2.0808
 5061SOL    HW226643   1.518   0.648  15.976  0.8451 -1.5824  2.1137
 5062SOL     OW26644   3.690   0.471   1.238  0.0623  0.3473 -0.2898
 5062SOL    HW126645   3.776   0.446   1.204 -0.5581  0.3571 -1.8888
 5062SOL    HW226646   3.709   0.564   1.252 -0.3829  0.4105 -0.1116
 5063SOL     OW26647   3.783   1.791   8.121  0.1190  0.2981  0.0011
 5063SOL    HW126648   3.708   1.741   8.087  1.5307 -3.0034  1.6869
 5063SOL    HW226649   3.844   1.756   8.056 -0.4211  1.5310 -1.1646
 5064SOL     OW26650   0.026   1.065   9.017 -0.4911 -0.2843  0.6382
 5064SOL    HW126651   0.024   1.155   9.047  0.1580 -0.3727  0.9394
 5064SOL    HW226652   0.014   1.074   8.922 -1.3379  1.3480  0.9084
 5065SOL     OW26653   0.581   2.440   3.281  0.4171  0.4546  0.1693
 5065SOL    HW126654   0.507   2.432   3.221 -0.8514  1.7784  1.5423
 5065SOL    HW226655   0.573   2.535   3.294 -1.5014  0.2776  0.3409
 5066SOL     OW26656   3.062   0.187  12.119 -0.3955  0.3026  0.1674
 5066SOL    HW126657   3.106   0.102  12.114  0.7667  0.7903  2.1639
 5066SOL    HW226658   3.031   0.177  12.209  1.7895  0.4007  0.9299
 5067SOL     OW26659   0.876   4.674  10.368  0.1447  0.1174 -0.4792
 5067SOL    HW126660   0.788   4.700  10.398  0.9341  3.4943 -1.1323
 5067SOL    HW226661   0.856   4.582  10.350 -1.5756 -0.0734  2.3127
 5068SOL     OW26662   2.042   1.896   2.661  0.1539 -0.8756  0.8548
 5068SOL    HW126663   2.010   1.962   2.600 -0.4477 -0.4249  1.6632
 5068SOL    HW226664   1.981   1.918   2.731 -0.8061  1.0665 -0.6234
 5069SOL     OW26665   0.206   4.137   7.799  0.4005 -0.3135 -0.4591
 5069SOL    HW126666   0.244   4.071   7.858  2.2480 -1.5650 -3.0208
 5069SOL    HW226667   0.279   4.186   7.761  0.1008 -1.0387 -1.9575
 5070SOL     OW26668   0.381   4.678   9.164 -0.2000 -0.4306 -0.8442
 5070SOL    HW126669   0.308   0.011   9.135  0.1565  0.3588 -0.2341
 5070SOL    HW226670   0.455   0.014   9.180 -2.7530  2.6347 -0.0238
 5071SOL     OW26671   2.356   2.124   2.334  0.1558  0.2668 -0.6280
 5071SOL    HW126672   2.405   2.042   2.339 -1.7634 -0.8339 -0.2919
 5071SOL    HW226673   2.427   2.187   2.318  0.2439  0.4268  0.3713
 5072SOL     OW26674   1.166   2.103  15.109  0.6316  0.5922  0.1081
 5072SOL    HW126675   1.210   2.024  15.077  0.4188 -0.4404  2.3498
 5072SOL    HW226676   1.216   2.173  15.067 -2.6088  2.0200 -1.4422
 5073SOL     OW26677   0.329   0.354   3.813  0.3105  0.4992 -0.2262
 5073SOL    HW126678   0.370   0.271   3.836 -0.2252 -0.5190 -2.9329
 5073SOL    HW226679   0.241   0.328   3.786  0.1552  1.0603 -0.2764
 5074SOL     OW26680   2.646   2.961   7.708 -0.1525  0.0043 -0.3605
 5074SOL    HW126681   2.606   2.900   7.646 -0.2005  1.3416 -1.6515
 5074SOL    HW226682   2.741   2.945   7.704 -0.1511 -0.6145  1.9645
 5075SOL     OW26683   3.670   0.885  10.302 -0.2149 -1.2234 -0.0127
 5075SOL    HW126684   3.733   0.889  10.374  1.1078  0.3662 -1.2628
 5075SOL    HW226685   3.694   0.958  10.245 -1.7320 -1.3147 -0.7725
 5076SOL     OW26686   3.346   4.473   5.545  0.1050  0.3475 -0.0314
 5076SOL    HW126687   3.398   4.477   5.465 -0.0993  1.0582 -0.1297
 5076SOL    HW226688   3.258   4.489   5.511 -0.2152 -0.5450  0.3770
 5077SOL     OW26689   3.329   4.629   6.012  0.2868  0.0140  0.6404
 5077SOL    HW126690   3.289   4.629   5.925  2.3287  0.9840 -0.2862
 5077SOL    HW226691   3.348   4.721   6.031  1.1568 -0.1551  0.5777
 5078SOL     OW26692   0.692   0.822  15.836 -0.5979  0.7342 -0.4907
 5078SOL    HW126693   0.632   0.794  15.904  0.0381 -0.8921 -0.5944
 5078SOL    HW226694   0.766   0.855  15.888 -1.6875  1.1966  0.7556
 5079SOL     OW26695   2.731   0.190   4.984  0.1823  0.6792  0.0549
 5079SOL    HW126696   2.709   0.137   5.061 -1.4546  0.7220 -0.3939
 5079SOL    HW226697   2.678   0.269   4.994  0.0783  0.7661 -1.2383
 5080SOL     OW26698   0.517   4.047  15.663  0.4394 -0.1936  0.2127
 5080SOL    HW126699   0.538   3.982  15.729 -0.8541 -2.2247 -1.3889
 5080SOL    HW226700   0.424   4.029  15.653  0.5034  0.5334 -1.6208
 5081SOL     OW26701   1.586   3.241   8.262  0.3338  0.3198 -0.2177
 5081SOL    HW126702   1.635   3.291   8.327 -1.8882  0.4717  1.3792
 5081SOL    HW226703   1.511   3.301   8.256 -0.3090 -0.6030 -1.3963
 5082SOL     OW26704   3.837   2.515   3.317 -0.2808  0.4429 -0.4111
 5082SOL    HW126705   3.859   2.587   3.377 -5.2680  2.2475 -0.7311
 5082SOL    HW226706   3.873   2.540   3.232 -2.8301  0.3333 -1.5186
 5083SOL     OW26707   3.105   0.535  14.614 -0.5630  0.2095  1.0571
 5083SOL    HW126708   3.199   0.552  14.619 -0.6074  0.9266 -0.6025
 5083SOL    HW226709   3.087   0.568  14.525  1.6649  1.5603  1.1146
 5084SOL     OW26710   2.031   4.095   8.305  0.6698 -0.1465 -0.2295
 5084SOL    HW126711   2.004   4.091   8.396  3.4731  1.0503  0.6691
 5084SOL    HW226712   2.001   4.184   8.283  1.9207  0.4074  0.3043
 5085SOL     OW26713   0.000   3.246   4.641 -0.6412  0.2778 -0.2450
 5085SOL    HW126714   0.088   3.214   4.662 -1.3141 -0.1156  1.9336
 5085SOL    HW226715   0.001   3.236   4.545 -2.5206 -0.4117 -0.1880
 5086SOL     OW26716   3.049   4.632   7.148 -0.1954  0.2058  0.2420
 5086SOL    HW126717   3.074   4.662   7.060  0.6041  0.9089  0.6963
 5086SOL    HW226718   2.979   4.693   7.173  0.5965  0.4201  1.9368
 5087SOL     OW26719   1.725   1.090   7.586  0.1400  0.1183  0.0812
 5087SOL    HW126720   1.719   1.013   7.641 -2.1455  0.6863  0.6238
 5087SOL    HW226721   1.665   1.068   7.515  0.6754  1.9630 -0.9644
 5088SOL     OW26722   4.599   4.212   5.242 -0.5851  0.1436 -0.3162
 5088SOL    HW126723   4.668   4.177   5.298 -1.5890  0.3950  1.0675
 5088SOL    HW226724   4.518   4.188   5.289  1.0948 -3.3025  0.8626
 5089SOL     OW26725   2.416   1.263   1.108  0.3663  0.2576  0.0375
 5089SOL    HW126726   2.477   1.301   1.046 -1.3568  0.0288 -1.8148
 5089SOL    HW226727   2.469   1.263   1.188 -0.0193 -0.1239  0.2988
 5090SOL     OW26728   2.375   3.778   9.673  0.2342 -0.6485 -0.6506
 5090SOL    HW126729   2.334   3.826   9.601  0.6443 -0.0947 -0.5232
 5090SOL    HW226730   2.304   3.721   9.702  0.2830 -0.6993 -0.6315
 5091SOL     OW26731   3.195   4.074   0.939 -1.0326 -0.8608 -0.4207
 5091SOL    HW126732   3.136   4.149   0.951  0.1794 -0.4728  2.9120
 5091SOL    HW226733   3.225   4.112   0.856  1.3219 -1.0291  0.3455
 5092SOL     OW26734   2.717   3.708   7.916  0.2090  0.1804 -0.1387
 5092SOL    HW126735   2.716   3.613   7.899  0.1891  1.0706 -5.2010
 5092SOL    HW226736   2.692   3.704   8.008 -0.2651  0.4233 -0.2572
 5093SOL     OW26737   3.311   3.776  12.103  0.5406 -0.0173 -0.0398
 5093SOL    HW126738   3.276   3.687  12.107  1.2212 -0.3697 -1.6568
 5093SOL    HW226739   3.266   3.816  12.029 -0.6023 -0.1454  0.5976
 5094SOL     OW26740   4.539   3.281   8.663 -0.5287  0.2260  0.1611
 5094SOL    HW126741   4.576   3.360   8.623  1.1773  0.1417  1.5609
 5094SOL    HW226742   4.536   3.306   8.755 -0.8975  1.2268 -0.1236
 5095SOL     OW26743   4.519   2.968   7.851 -0.1914 -0.1509 -0.5126
 5095SOL    HW126744   4.560   3.035   7.905 -1.0664  0.5118 -0.6743
 5095SOL    HW226745   4.471   2.919   7.918 -0.2540  0.2952 -0.2283
 5096SOL     OW26746   1.647   3.942   4.439  0.2179  0.1687  0.2254
 5096SOL    HW126747   1.600   3.963   4.520 -0.9514 -0.2398 -0.3471
 5096SOL    HW226748   1.740   3.949   4.462  0.1947 -1.9295  0.9785
 5097SOL     OW26749   3.835   2.416   8.534  0.1295  0.4293 -0.4703
 5097SOL    HW126750   3.784   2.341   8.502 -1.6452  1.4922 -0.1312
 5097SOL    HW226751   3.772   2.487   8.527 -0.1327  0.2500  0.0338
 5098SOL     OW26752   3.827   0.807  11.639 -0.6504  0.3059  0.3402
 5098SOL    HW126753   3.839   0.839  11.549 -0.5152  0.2174  0.3269
 5098SOL    HW226754   3.767   0.738  11.613 -0.3667  1.5602 -3.6864
 5099SOL     OW26755   4.535   3.391   3.899  0.3480  0.0380 -0.2905
 5099SOL    HW126756   4.466   3.361   3.841 -1.0443  1.2446  0.7465
 5099SOL    HW226757   4.611   3.368   3.845  1.2769 -1.4360  1.6557
 5100SOL     OW26758   1.833   1.584   8.205  0.0796 -0.0407  0.1582
 5100SOL    HW126759   1.885   1.551   8.131  2.6445 -0.5818  2.1728
 5100SOL    HW226760   1.826   1.673   8.170  0.9879 -0.2919 -0.6834
 5101SOL     OW26761   1.430   0.517   8.215  0.2214 -0.0752 -0.0607
 5101SOL    HW126762   1.413   0.433   8.258  0.4360 -1.0157 -1.8128
 5101SOL    HW226763   1.507   0.497   8.161  0.6702 -0.6143  0.7575
 5102SOL     OW26764   2.824   0.432   1.100 -0.1512 -0.2462 -0.7956
 5102SOL    HW126765   2.735   0.456   1.076  0.2360 -0.6135 -2.5879
 5102SOL    HW226766   2.833   0.495   1.172  1.2087 -2.0469  0.6244
 5103SOL     OW26767   1.626   3.680   9.523 -0.3861 -0.0531  0.0785
 5103SOL    HW126768   1.568   3.677   9.447  0.3063 -0.3914 -0.4421
 5103SOL    HW226769   1.585   3.626   9.590  0.9980 -1.7148 -0.3956
 5104SOL     OW26770   3.500   1.013  16.007  0.0363  0.9875  0.0811
 5104SOL    HW126771   3.524   0.924  15.981  0.1403  0.6609  1.2841
 5104SOL    HW226772   3.491   1.049  15.919 -1.2266  0.2391 -0.0839
 5105SOL     OW26773   0.255   0.606   9.385 -0.2590  0.0878 -0.0118
 5105SOL    HW126774   0.299   0.523   9.403  0.0914  0.3268  0.2255
 5105SOL    HW226775   0.246   0.636   9.475  3.7719  1.1474  0.0409
 5106SOL     OW26776   3.231   0.591   8.569 -0.2917 -0.1300 -0.4557
 5106SOL    HW126777   3.191   0.525   8.626 -0.7453 -0.0427 -0.6761
 5106SOL    HW226778   3.156   0.648   8.553 -1.2871 -2.0440 -2.5707
 5107SOL     OW26779   2.708   4.104   7.447 -0.2565 -0.1695  0.4137
 5107SOL    HW126780   2.645   4.045   7.489  0.1612 -2.0491 -1.6068
 5107SOL    HW226781   2.639   4.169   7.432  1.3292  1.7052  1.2107
 5108SOL     OW26782   0.495   4.144  14.971  0.2451  0.1658  0.0716
 5108SOL    HW126783   0.585   4.157  14.942  0.6639  1.1673  1.7847
 5108SOL    HW226784   0.475   4.060  14.930 -2.1295  1.4166 -1.3185
 5109SOL     OW26785   4.138   2.180   1.153 -0.1450  0.5287 -0.3462
 5109SOL    HW126786   4.157   2.114   1.085 -0.1694 -0.2578  0.4133
 5109SOL    HW226787   4.047   2.205   1.136  0.5798  4.0382  1.0591
 5110SOL     OW26788   4.250   2.030   4.425 -0.1047 -0.2223  0.0742
 5110SOL    HW126789   4.288   1.970   4.360  3.1197  2.8237 -0.8502
 5110SOL    HW226790   4.176   1.971   4.435  0.9783 -1.2137  2.1999
 5111SOL     OW26791   0.751   0.317   6.720  0.7581 -0.0494 -0.2173
 5111SOL    HW126792   0.722   0.342   6.631  0.8644  0.3512 -0.1408
 5111SOL    HW226793   0.686   0.253   6.749  0.5475  0.4281  0.3626
 5112SOL     OW26794   1.140   4.689  10.317 -0.1520 -0.0741  0.2098
 5112SOL    HW126795   1.100   0.035  10.264 -0.8199 -0.0350  0.7672
 5112SOL    HW226796   1.058   4.666  10.361  1.2213  0.7280  3.2164
 5113SOL     OW26797   3.258   4.304  16.437 -0.1715  0.6639 -0.0966
 5113SOL    HW126798   3.289   4.379  16.384 -1.0017  0.5782 -0.7011
 5113SOL    HW226799   3.257   4.252  16.356 -0.8360 -0.7949  0.8657
 5114SOL     OW26800   4.591   0.588   7.493  0.1139 -0.5377 -0.4590
 5114SOL    HW126801   4.548   0.670   7.468  0.7034 -0.1920 -0.3488
 5114SOL    HW226802   4.680   0.621   7.475 -0.3863  0.4652 -1.1106
 5115SOL     OW26803   1.380   2.544   2.203 -0.1216 -0.1512  0.1970
 5115SOL    HW126804   1.401   2.500   2.120  0.2732 -0.5878  0.5298
 5115SOL    HW226805   1.396   2.471   2.263 -3.5176  0.3705  1.7462
 5116SOL     OW26806   1.832   2.471  14.942  0.3121  0.1931  0.1900
 5116SOL    HW126807   1.926   2.454  14.937  0.1868  0.0601 -1.7205
 5116SOL    HW226808   1.799   2.407  15.005  4.0303 -0.5530  1.3994
 5117SOL     OW26809   0.295   0.444  11.704  0.1913 -0.1227  0.0243
 5117SOL    HW126810   0.224   0.460  11.642  1.1897  1.4680 -0.7124
 5117SOL    HW226811   0.371   0.490  11.668 -0.7639  1.2454 -0.2476
 5118SOL     OW26812   0.522   1.887   9.713  0.1775 -0.0275 -0.6868
 5118SOL    HW126813   0.439   1.929   9.690  0.5773  1.1476  0.0226
 5118SOL    HW226814   0.553   1.942   9.785  1.8484 -0.5931 -0.9728
 5119SOL     OW26815   4.211   0.914   2.025  0.7981  0.3704  0.1580
 5119SOL    HW126816   4.207   0.966   2.105 -0.3411  1.2188 -0.4550
 5119SOL    HW226817   4.123   0.933   1.994  0.5147 -2.3558 -0.7081
 5120SOL     OW26818   2.482   3.788   5.447  0.1917 -0.3595  0.3171
 5120SOL    HW126819   2.562   3.748   5.482  0.4202  2.0016  2.4772
 5120SOL    HW226820   2.506   3.820   5.360  1.2358  0.7601  1.0057
 5121SOL     OW26821   3.608   3.099   4.431 -0.0305 -0.5792 -0.2623
 5121SOL    HW126822   3.640   3.174   4.480 -0.3377 -0.2131 -0.6252
 5121SOL    HW226823   3.575   3.153   4.360 -1.2625 -1.6046 -0.4750
 5122SOL     OW26824   0.925   1.507   0.344  0.1060  0.2441  0.1623
 5122SOL    HW126825   0.891   1.498   0.255  0.3131 -0.7539  0.1749
 5122SOL    HW226826   0.934   1.602   0.341  2.1079  0.1429  3.1838
 5123SOL     OW26827   0.824   1.191   2.285 -0.0265 -0.1707  0.1297
 5123SOL    HW126828   0.755   1.206   2.349  0.2754  0.8140  0.2219
 5123SOL    HW226829   0.801   1.254   2.217  0.8361 -2.8684 -2.6768
 5124SOL     OW26830   0.708   0.839   7.735  0.0466 -0.4486  0.4435
 5124SOL    HW126831   0.632   0.854   7.680 -0.5355 -1.0581  1.0898
 5124SOL    HW226832   0.667   0.785   7.802  0.8749 -2.0349 -0.3263
 5125SOL     OW26833   4.491   0.159  17.264 -0.4879 -0.8138  0.2688
 5125SOL    HW126834   4.585   0.144  17.261 -0.2153  0.8743  0.3323
 5125SOL    HW226835   4.450   0.073  17.268  0.7146 -1.3662  0.7093
 5126SOL     OW26836   0.393   1.783   8.048  0.3553  0.1536 -0.2566
 5126SOL    HW126837   0.367   1.739   7.967 -0.4179 -0.6140  0.4164
 5126SOL    HW226838   0.474   1.734   8.063  0.4209  0.1094 -0.7392
 5127SOL     OW26839   0.113   0.352  15.594 -0.0235  0.4596  0.4380
 5127SOL    HW126840   0.083   0.261  15.587  1.8821 -0.1590  0.4030
 5127SOL    HW226841   0.042   0.396  15.547  2.2819  0.3953 -3.1479
 5128SOL     OW26842   0.109   0.828  15.523  0.8350  0.5423 -0.0527
 5128SOL    HW126843   0.186   0.783  15.488  0.0042 -0.4714 -0.5752
 5128SOL    HW226844   0.059   0.849  15.444  2.3023  2.1372 -0.5417
 5129SOL     OW26845   1.943   0.694   0.059 -0.9612 -0.4595 -0.1482
 5129SOL    HW126846   2.016   0.687  17.688 -0.1465  0.4179  0.7012
 5129SOL    HW226847   1.904   0.781   0.046 -0.4998 -0.3764 -1.0343
 5130SOL     OW26848   4.107   0.564   0.312 -0.2786 -0.0833  0.3210
 5130SOL    HW126849   4.194   0.597   0.336  0.2157 -1.3203  0.2530
 5130SOL    HW226850   4.100   0.578   0.217  2.0993 -3.2792 -0.3231
 5131SOL     OW26851   2.665   3.438   8.509  0.3145  0.3049 -0.3254
 5131SOL    HW126852   2.695   3.528   8.523 -0.7789  0.3621  1.5870
 5131SOL    HW226853   2.570   3.445   8.515  0.5095 -0.3257  3.7577
 5132SOL     OW26854   1.886   2.008   5.280 -0.6952  0.0531 -0.3087
 5132SOL    HW126855   1.928   2.090   5.307 -0.6951 -0.4227  1.1639
 5132SOL    HW226856   1.934   1.976   5.204  0.7744  1.7604 -0.1107
 5133SOL     OW26857   2.346   4.203  10.422  0.4893 -0.2177 -0.0631
 5133SOL    HW126858   2.294   4.222  10.344  0.3946  0.7461  0.2362
 5133SOL    HW226859   2.281   4.157  10.476 -1.0724  1.6073 -0.3984
 5134SOL     OW26860   3.568   4.314  17.628 -0.0272  0.3607  0.8082
 5134SOL    HW126861   3.610   4.231  17.647 -0.1845  0.0279 -0.2838
 5134SOL    HW226862   3.491   4.285  17.579 -0.0748  0.6963  0.6840
 5135SOL     OW26863   1.872   4.505  13.096  0.0523  0.4251 -0.4935
 5135SOL    HW126864   1.920   4.583  13.069  1.6117 -0.2485  0.3557
 5135SOL    HW226865   1.885   4.506  13.191  0.9506 -2.8306 -0.5932
 5136SOL     OW26866   3.785   4.412   8.478 -0.0436 -0.1999 -0.0778
 5136SOL    HW126867   3.712   4.448   8.531  1.3340  0.9859  1.0219
 5136SOL    HW226868   3.787   4.320   8.503  0.4845 -0.1249  0.1427
 5137SOL     OW26869   0.912   2.551   0.825  0.1569 -0.7488 -0.6803
 5137SOL    HW126870   0.845   2.494   0.863  1.5956 -0.1759  2.7368
 5137SOL    HW226871   0.990   2.526   0.875 -0.4170  1.8349  1.5002
 5138SOL     OW26872   3.388   4.634   7.872 -0.2889  0.4007  0.2846
 5138SOL    HW126873   3.368   4.552   7.829 -0.3718  0.1123  0.8779
 5138SOL    HW226874   3.445   4.609   7.945  0.8830  2.5537  0.1413
 5139SOL     OW26875   1.813   4.231  10.145  0.1582  0.3935  0.0645
 5139SOL    HW126876   1.782   4.280  10.221 -0.1105  0.7229 -0.2635
 5139SOL    HW226877   1.870   4.172  10.195 -0.4531  0.3122  0.6685
 5140SOL     OW26878   2.838   2.889   2.940 -0.7411 -0.1547 -0.4668
 5140SOL    HW126879   2.915   2.947   2.938  0.9241 -2.4275 -2.0388
 5140SOL    HW226880   2.791   2.915   2.861 -3.6579 -1.5385  0.8504
 5141SOL     OW26881   1.644   1.519   0.780  0.0043  0.1543 -0.2608
 5141SOL    HW126882   1.662   1.584   0.712 -1.4449 -0.0121 -0.8123
 5141SOL    HW226883   1.682   1.567   0.854 -1.5299  0.5486  0.2849
 5142SOL     OW26884   2.065   4.593   6.887  0.1415  0.0224 -0.2613
 5142SOL    HW126885   2.130   4.645   6.933  0.4379  0.4700 -1.1801
 5142SOL    HW226886   1.994   4.606   6.951  1.2229 -0.3124  0.9940
 5143SOL     OW26887   1.413   0.821   7.684  0.2865  0.1216 -0.3522
 5143SOL    HW126888   1.503   0.801   7.657  0.0301 -3.6320  1.5442
 5143SOL    HW226889   1.371   0.778   7.609 -0.0200 -0.8040  0.3459
 5144SOL     OW26890   1.450   1.088   1.951  0.8438  0.5704 -1.1572
 5144SOL    HW126891   1.427   1.079   1.858 -0.5883 -1.7471 -0.5987
 5144SOL    HW226892   1.512   1.160   1.952 -0.0135  1.2966 -0.2552
 5145SOL     OW26893   3.258   2.151   6.081  0.6694 -0.4282  0.7609
 5145SOL    HW126894   3.249   2.245   6.095  0.8797 -0.3184  0.1832
 5145SOL    HW226895   3.297   2.119   6.163  0.5610  2.3078  1.8502
 5146SOL     OW26896   2.380   3.313   0.814 -0.2481 -0.3914 -0.3012
 5146SOL    HW126897   2.347   3.358   0.892 -0.8434 -0.3742 -0.5648
 5146SOL    HW226898   2.470   3.303   0.845 -0.1949 -0.6067 -0.5335
 5147SOL     OW26899   3.492   4.307   4.808 -0.2865  0.2435 -0.5111
 5147SOL    HW126900   3.438   4.288   4.731  0.0306  0.9945 -0.9201
 5147SOL    HW226901   3.548   4.374   4.768  0.6567 -0.0884  0.2620
 5148SOL     OW26902   2.848   3.247  15.489 -0.0607 -0.4601 -0.8673
 5148SOL    HW126903   2.920   3.307  15.469  1.4373 -1.2632  2.0162
 5148SOL    HW226904   2.789   3.273  15.418 -0.3431  2.2595  0.3543
 5149SOL     OW26905   1.393   4.301   9.592 -0.1270 -0.9521 -0.2090
 5149SOL    HW126906   1.338   4.246   9.536 -0.1224 -1.1680 -0.0011
 5149SOL    HW226907   1.333   4.374   9.608 -1.2157 -1.9551  0.2796
 5150SOL     OW26908   4.433   3.558  13.697  0.1802 -0.2311  0.1733
 5150SOL    HW126909   4.519   3.578  13.732 -0.0263  2.1543 -0.6232
 5150SOL    HW226910   4.391   3.548  13.782  3.3237 -0.2954  1.7088
 5151SOL     OW26911   0.880   2.464   6.832  0.1842  0.1536 -0.1138
 5151SOL    HW126912   0.904   2.555   6.848  4.0963 -0.9282  0.2969
 5151SOL    HW226913   0.969   2.439   6.806  0.5359  1.5084 -0.2226
 5152SOL     OW26914   4.056   3.613   5.016  0.4883 -0.5509  0.5277
 5152SOL    HW126915   4.093   3.675   5.079  0.7376 -0.1121 -0.0458
 5152SOL    HW226916   4.073   3.529   5.057  1.8888  0.1011  1.2995
 5153SOL     OW26917   2.210   0.953   4.115 -0.4675  0.2011 -0.1881
 5153SOL    HW126918   2.210   1.037   4.161 -1.9075  1.4240 -2.3716
 5153SOL    HW226919   2.139   0.965   4.051  1.2474 -0.0150 -2.1180
 5154SOL     OW26920   2.695   1.162  12.033  0.1973  0.1868 -0.1891
 5154SOL    HW126921   2.677   1.246  11.992  0.8606  0.2179 -0.4289
 5154SOL    HW226922   2.605   1.133  12.043  1.3284 -2.4473  2.4618
 5155SOL     OW26923   2.366   2.234   5.495 -0.7428  0.8726  0.1407
 5155SOL    HW126924   2.442   2.281   5.462 -0.5953  0.3325 -0.2884
 5155SOL    HW226925   2.305   2.304   5.518 -1.7138  0.1364 -0.1567
 5156SOL     OW26926   1.758   4.640   8.561 -0.1531  0.1197 -0.2979
 5156SOL    HW126927   1.793   4.560   8.522 -0.7136 -0.5229  0.5295
 5156SOL    HW226928   1.842   4.684   8.573 -0.1354  0.3696 -1.3197
 5157SOL     OW26929   2.754   2.751   5.543 -0.4117  0.3861 -0.2543
 5157SOL    HW126930   2.816   2.681   5.563 -2.5034 -1.4682 -0.2526
 5157SOL    HW226931   2.789   2.816   5.605 -2.0577 -0.3352  1.4186
 5158SOL     OW26932   4.547   3.102   4.112  0.3048  0.0098 -0.3417
 5158SOL    HW126933   4.554   3.193   4.142  0.9908 -0.4642  0.9008
 5158SOL    HW226934   4.468   3.069   4.154 -0.2616 -0.0514 -1.4480
 5159SOL     OW26935   0.281   0.959   6.069  0.2124  0.5206 -0.9132
 5159SOL    HW126936   0.309   0.904   5.997  0.1984 -2.1419  1.1223
 5159SOL    HW226937   0.342   0.933   6.138 -1.0576  2.1341  0.8249
 5160SOL     OW26938   3.149   3.249   4.585  0.2940  0.0381  0.1698
 5160SOL    HW126939   3.206   3.172   4.588  0.5095  0.1182 -1.9868
 5160SOL    HW226940   3.061   3.211   4.585  0.4919 -0.4294  0.7755
 5161SOL     OW26941   0.336   3.970   4.245  0.3257  0.2688 -0.6592
 5161SOL    HW126942   0.400   4.038   4.228 -1.3588  1.2240 -3.0947
 5161SOL    HW226943   0.364   3.942   4.332  1.8296  0.7806 -0.9777
 5162SOL     OW26944   1.524   1.743   2.943 -0.1599 -0.2411 -0.3958
 5162SOL    HW126945   1.484   1.810   2.887  0.0970  0.0961 -0.1788
 5162SOL    HW226946   1.546   1.798   3.019 -0.9980  1.0494 -1.0784
 5163SOL     OW26947   0.090   0.549  12.461 -0.1077 -0.5506  0.0558
 5163SOL    HW126948   0.165   0.584  12.509  0.5393 -0.0854 -1.2944
 5163SOL    HW226949   0.135   0.521  12.381 -0.6646 -0.5661 -0.2542
 5164SOL     OW26950   2.343   4.340   9.012  0.5788 -0.2439 -0.0708
 5164SOL    HW126951   2.262   4.369   8.970  1.3185 -0.1720 -1.4868
 5164SOL    HW226952   2.336   4.373   9.101  3.0454 -0.8680  0.3692
 5165SOL     OW26953   2.722   0.585  16.441 -0.0764 -0.3239 -0.0880
 5165SOL    HW126954   2.661   0.562  16.371 -1.9293  1.3266  0.9995
 5165SOL    HW226955   2.778   0.650  16.398 -1.4962  1.5047  0.8327
 5166SOL     OW26956   3.107   2.938   3.244 -0.2516 -0.3025  0.5094
 5166SOL    HW126957   3.201   2.949   3.257 -0.1675 -0.2874 -0.1190
 5166SOL    HW226958   3.107   2.843   3.250  0.9199 -0.5302 -3.1141
 5167SOL     OW26959   0.858   0.703   2.598  0.3492  0.3506 -0.3964
 5167SOL    HW126960   0.825   0.748   2.520  0.6205 -1.8763 -1.7730
 5167SOL    HW226961   0.839   0.617   2.563  2.6182 -1.4930  2.8655
 5168SOL     OW26962   0.594   3.602   0.309  0.3284  0.0998 -0.5353
 5168SOL    HW126963   0.638   3.687   0.308  0.4185  0.0552 -0.4553
 5168SOL    HW226964   0.651   3.553   0.369 -1.5218 -0.3239  0.8758
 5169SOL     OW26965   0.962   1.021   8.768  0.2905  0.0179  0.0790
 5169SOL    HW126966   0.871   0.990   8.760  0.4281 -0.7452  1.3522
 5169SOL    HW226967   1.003   0.961   8.707  0.9876  1.0594 -0.4774
 5170SOL     OW26968   1.442   2.776   2.498 -0.1107 -0.6725 -0.3566
 5170SOL    HW126969   1.419   2.839   2.429 -1.2686 -1.2693 -0.5067
 5170SOL    HW226970   1.520   2.819   2.533 -1.6624  0.8471  1.2576
 5171SOL     OW26971   2.091   2.455  11.750 -0.0834 -0.5027  0.3250
 5171SOL    HW126972   2.017   2.430  11.806 -0.9981  2.3834  0.4459
 5171SOL    HW226973   2.150   2.475  11.823  1.7348  1.1783 -1.5932
 5172SOL     OW26974   1.837   1.490  10.931 -0.4487  0.1127  0.0436
 5172SOL    HW126975   1.848   1.578  10.967  3.0932  0.0688 -0.9600
 5172SOL    HW226976   1.910   1.445  10.973 -0.8678 -1.9250 -1.4084
 5173SOL     OW26977   1.161   1.209  10.069 -0.0940 -0.2436 -0.4038
 5173SOL    HW126978   1.228   1.277  10.073  0.4720 -0.6553 -2.5925
 5173SOL    HW226979   1.103   1.237   9.998 -1.0115 -0.4968  0.2472
 5174SOL     OW26980   2.767   0.284  13.637  0.1125 -0.1426 -0.6458
 5174SOL    HW126981   2.861   0.270  13.640  0.0113 -0.6156  0.3306
 5174SOL    HW226982   2.770   0.372  13.673  0.2473  0.1450 -1.3646
 5175SOL     OW26983   1.274   3.274   1.722 -0.1037  0.3148 -0.9953
 5175SOL    HW126984   1.183   3.257   1.695 -0.2610  0.9390 -0.8593
 5175SOL    HW226985   1.287   3.366   1.699  1.3682  0.4528  0.4158
 5176SOL     OW26986   2.563   0.571   8.236 -0.3051 -0.4100  0.6812
 5176SOL    HW126987   2.480   0.613   8.213  0.9185  0.0326 -2.8943
 5176SOL    HW226988   2.539   0.478   8.242  1.5622 -0.7960  2.1408
 5177SOL     OW26989   3.866   2.806   7.893  0.3222 -0.3542  0.3234
 5177SOL    HW126990   3.809   2.730   7.902 -0.7292  0.1252 -2.4293
 5177SOL    HW226991   3.904   2.782   7.809 -1.5632 -1.8433 -0.1026
 5178SOL     OW26992   2.754   3.968  12.116  0.4775 -0.0866 -0.3645
 5178SOL    HW126993   2.772   3.887  12.069  2.5932  1.2526 -1.8913
 5178SOL    HW226994   2.836   3.984  12.162 -0.3291  0.1425  0.9753
 5179SOL     OW26995   0.046   2.434   8.118 -0.4622  0.5894  0.0666
 5179SOL    HW126996   0.088   2.383   8.048 -2.1872 -0.6555 -0.0572
 5179SOL    HW226997   0.104   2.413   8.192 -1.2457  2.2766  1.1295
 5180SOL     OW26998   0.468   1.916   2.369  0.2378 -0.3575 -0.1251
 5180SOL    HW126999   0.464   1.844   2.306 -2.9849  1.2814 -1.7744
 5180SOL    HW227000   0.428   1.982   2.312  1.2160  0.7805  0.5283
 5181SOL     OW27001   3.333   0.592  10.744 -0.1608  0.6165 -0.2936
 5181SOL    HW127002   3.238   0.580  10.752  0.2045 -2.0706 -0.0359
 5181SOL    HW227003   3.366   0.504  10.732 -1.4983  0.0064  0.5073
 5182SOL     OW27004   2.913   1.918   1.654 -0.2566  0.2001  0.4868
 5182SOL    HW127005   2.859   1.863   1.598  1.2407 -0.3597 -0.4153
 5182SOL    HW227006   2.853   1.992   1.652  0.1949  0.5849  1.2586
 5183SOL     OW27007   4.572   4.658   1.163  0.3612 -0.0921  0.0797
 5183SOL    HW127008   4.477   4.650   1.153  0.1672  3.7049 -1.1599
 5183SOL    HW227009   4.575   4.696   1.251  2.0193 -0.0208 -0.0031
 5184SOL     OW27010   3.418   1.786   2.638  0.4628  0.3321  0.1683
 5184SOL    HW127011   3.406   1.828   2.723  0.5063 -0.3422  0.5060
 5184SOL    HW227012   3.338   1.803   2.589  1.1626 -2.2030 -1.8347
 5185SOL     OW27013   2.191   2.082   7.159 -0.3866  0.1124  0.0154
 5185SOL    HW127014   2.239   2.047   7.085 -2.2230  1.0374 -1.6006
 5185SOL    HW227015   2.102   2.051   7.145 -1.2424  2.5831 -0.0227
 5186SOL     OW27016   4.126   0.103   9.878 -0.3628  0.0149  0.5078
 5186SOL    HW127017   4.094   0.053   9.953  1.2810  1.3824  2.1420
 5186SOL    HW227018   4.063   0.063   9.818  2.4219 -0.1881 -2.2831
 5187SOL     OW27019   3.447   4.119  12.836  0.0682  0.3797  0.2222
 5187SOL    HW127020   3.438   4.055  12.907  0.9051 -1.4272 -1.2924
 5187SOL    HW227021   3.542   4.127  12.836  0.2429 -1.7340  1.4993
 5188SOL     OW27022   0.892   1.187   5.360 -0.0937 -0.5815 -0.4015
 5188SOL    HW127023   0.846   1.108   5.332  1.8085 -1.8858  0.1618
 5188SOL    HW227024   0.939   1.162   5.439  1.0085  0.3433 -0.7584
 5189SOL     OW27025   3.498   1.082  17.679  0.3592 -0.0556  0.6507
 5189SOL    HW127026   3.538   1.069  17.593 -0.0221 -0.5106  0.5415
 5189SOL    HW227027   3.535   1.168   0.010 -1.8617  1.3995 -1.1294
 5190SOL     OW27028   0.283   4.308  15.045 -0.7084  0.7023  0.1133
 5190SOL    HW127029   0.357   4.267  15.000  0.5622  2.1292  0.8794
 5190SOL    HW227030   0.331   4.357  15.112  0.4129  1.9064 -1.5637
 5191SOL     OW27031   4.498   1.155   3.059 -0.3386  0.1617  0.2064
 5191SOL    HW127032   4.570   1.092   3.067  1.1774  2.0011  1.3713
 5191SOL    HW227033   4.443   1.136   3.134  0.2619 -2.2099  0.0353
 5192SOL     OW27034   0.260   4.023   2.253 -0.0533  0.8630 -0.2177
 5192SOL    HW127035   0.242   3.933   2.225  0.0450  0.4513  1.0415
 5192SOL    HW227036   0.230   4.061   2.171 -1.2334 -1.0256 -0.6534
 5193SOL     OW27037   2.660   4.683   7.474  0.2835 -0.5833 -0.1473
 5193SOL    HW127038   2.718   0.036   7.469  0.1660 -0.4799  0.0152
 5193SOL    HW227039   2.587   0.003   7.520  0.3750  1.0274 -1.5095
 5194SOL     OW27040   2.426   1.247   7.754 -0.1579  0.0800 -0.3725
 5194SOL    HW127041   2.395   1.286   7.836  0.2442 -2.0432  0.8058
 5194SOL    HW227042   2.400   1.310   7.686  2.5026  2.4016  0.7491
 5195SOL     OW27043   0.448   3.968   7.527  0.2388  0.2975  0.1477
 5195SOL    HW127044   0.476   3.880   7.552 -1.5098 -0.0841  0.7605
 5195SOL    HW227045   0.462   4.016   7.609  0.9258 -1.5762  1.1331
 5196SOL     OW27046   2.021   2.244   2.774 -0.3406 -0.3957 -0.5937
 5196SOL    HW127047   1.939   2.219   2.731 -0.1444  0.6589 -1.5877
 5196SOL    HW227048   2.079   2.282   2.708 -0.1320  3.0117  1.6001
 5197SOL     OW27049   0.904   0.781  12.013 -0.2814 -0.8927 -0.0131
 5197SOL    HW127050   0.986   0.734  12.027 -0.4335 -0.5668  1.9697
 5197SOL    HW227051   0.857   0.734  11.945  1.3421 -2.6505  0.0919
 5198SOL     OW27052   2.520   3.575   4.567 -0.0718  0.2156  0.1984
 5198SOL    HW127053   2.583   3.522   4.520  0.1613  0.3982  0.3051
 5198SOL    HW227054   2.468   3.504   4.605  1.6302 -0.8174  0.5593
 5199SOL     OW27055   2.931   0.298   0.873 -0.6112 -0.3515  0.5573
 5199SOL    HW127056   2.890   0.338   0.949  0.4379  1.8802 -0.0620
 5199SOL    HW227057   2.943   0.377   0.821 -1.0845  0.3831  1.5835
 5200SOL     OW27058   4.307   0.879   3.801 -0.0159  0.6577  0.1799
 5200SOL    HW127059   4.384   0.935   3.807  0.5527 -0.2693  1.5698
 5200SOL    HW227060   4.340   0.811   3.743  0.4069  1.7984 -0.9097
 5201SOL     OW27061   3.109   1.210  11.027 -0.1441  0.6236 -0.2471
 5201SOL    HW127062   3.101   1.194  10.932  0.1278 -0.3239 -0.1112
 5201SOL    HW227063   3.021   1.187  11.057 -0.6491  1.5852 -0.9992
 5202SOL     OW27064   4.362   3.316   3.694  0.3327  0.0262  0.3656
 5202SOL    HW127065   4.355   3.224   3.668  2.6242  0.4440 -1.7692
 5202SOL    HW227066   4.328   3.377   3.628  0.9978  0.9406  0.8695
 5203SOL     OW27067   4.167   1.959   7.454  0.3059 -0.2768 -0.0337
 5203SOL    HW127068   4.218   2.007   7.389  0.6845  0.2195  0.6267
 5203SOL    HW227069   4.144   2.029   7.514  1.9101 -0.2848  0.5798
 5204SOL     OW27070   1.367   2.988  11.379 -0.0458  0.0675  0.0024
 5204SOL    HW127071   1.410   3.010  11.296 -1.8945 -0.9926 -1.2229
 5204SOL    HW227072   1.449   2.990  11.428  0.4179 -0.6047 -0.7391
 5205SOL     OW27073   1.517   4.299   5.566 -0.0984  0.1883  0.3385
 5205SOL    HW127074   1.537   4.255   5.483  0.8960  0.1815  0.5765
 5205SOL    HW227075   1.455   4.235   5.600 -0.3718  0.7162  0.8311
 5206SOL     OW27076   4.212   2.332  11.088 -0.0922 -0.3533  0.0651
 5206SOL    HW127077   4.281   2.293  11.142 -0.9943 -0.9096  0.8024
 5206SOL    HW227078   4.138   2.328  11.148  1.5222  0.9055  2.1580
 5207SOL     OW27079   0.289   2.829   7.773 -0.2349 -0.0223  0.4390
 5207SOL    HW127080   0.225   2.888   7.815  0.4303  1.1120 -0.1417
 5207SOL    HW227081   0.274   2.751   7.826  0.4464  0.0052  0.6767
 5208SOL     OW27082   0.423   1.874   5.369  0.1980  0.1797 -0.0329
 5208SOL    HW127083   0.484   1.801   5.377  0.2570  0.0881 -1.2404
 5208SOL    HW227084   0.349   1.839   5.320  0.3283  0.2020 -0.2457
 5209SOL     OW27085   2.454   2.067   3.981  0.3560  0.5494  0.4779
 5209SOL    HW127086   2.424   2.083   3.891  2.1833 -0.0776 -0.2433
 5209SOL    HW227087   2.409   1.983   3.989 -0.2197  0.5718 -2.5411
 5210SOL     OW27088   4.429   0.397  13.610  0.2268 -0.1370  0.7351
 5210SOL    HW127089   4.378   0.317  13.616  0.4668 -0.2491  1.2861
 5210SOL    HW227090   4.442   0.418  13.702  0.3875  0.1585  0.6459
 5211SOL     OW27091   2.552   2.432   1.156  0.4319 -0.4432  0.3407
 5211SOL    HW127092   2.593   2.518   1.142  0.0904 -0.2400  0.5760
 5211SOL    HW227093   2.503   2.422   1.075  0.2231 -0.2366  0.4427
 5212SOL     OW27094   3.323   2.844   7.878 -0.7871  0.3471  0.2316
 5212SOL    HW127095   3.417   2.862   7.872 -1.0851  1.8122 -0.0401
 5212SOL    HW227096   3.340   2.784   7.950 -0.4394  2.7714  2.1672
 5213SOL     OW27097   2.800   2.805  15.728 -0.5277 -0.2856 -0.7439
 5213SOL    HW127098   2.707   2.825  15.720  0.0141  1.8451 -1.6298
 5213SOL    HW227099   2.823   2.713  15.714  0.0182 -0.0352 -1.4626
 5214SOL     OW27100   4.599   2.241   3.581 -0.5426 -0.3711  0.1995
 5214SOL    HW127101   4.673   2.184   3.560 -0.2462  0.0312  0.1598
 5214SOL    HW227102   4.622   2.320   3.532 -0.1597 -1.7096 -1.7818
 5215SOL     OW27103   1.997   4.033   2.134  0.7088  0.1550 -0.1668
 5215SOL    HW127104   1.910   4.041   2.173  0.4867  0.9264 -0.8320
 5215SOL    HW227105   2.007   4.117   2.089 -0.5449 -0.6258 -1.8964
 5216SOL     OW27106   2.369   4.315   5.897 -0.3075 -0.2412 -0.3402
 5216SOL    HW127107   2.402   4.250   5.959 -1.8674 -1.7446 -1.0934
 5216SOL    HW227108   2.282   4.330   5.936  0.0597  0.2341  0.3066
 5217SOL     OW27109   2.508   1.969  12.182  0.0031  0.1253  0.0908
 5217SOL    HW127110   2.494   1.989  12.090 -0.6814 -1.8630 -0.2371
 5217SOL    HW227111   2.516   2.054  12.226  2.3198  0.4834 -1.0202
 5218SOL     OW27112   2.105   2.782   8.510 -0.2212  0.0051 -0.0867
 5218SOL    HW127113   2.044   2.710   8.522 -1.4458  1.0371 -0.1983
 5218SOL    HW227114   2.186   2.736   8.535  0.0824  0.9793  0.7528
 5219SOL     OW27115   2.045   3.727   1.646 -0.0795  0.9638  0.0749
 5219SOL    HW127116   2.126   3.746   1.692  0.6267 -0.0452 -0.7651
 5219SOL    HW227117   2.013   3.817   1.655 -3.6384 -0.4705  1.6221
 5220SOL     OW27118   1.115   1.569   6.602  0.1615  0.6744  0.2984
 5220SOL    HW127119   1.079   1.619   6.676  0.4220  1.4223 -0.0806
 5220SOL    HW227120   1.201   1.610   6.601  0.5838 -0.1852  1.4691
 5221SOL     OW27121   3.868   2.236  14.044 -1.0203 -0.0892 -0.5885
 5221SOL    HW127122   3.870   2.302  13.974 -0.1442 -0.6494 -1.0918
 5221SOL    HW227123   3.948   2.184  14.031 -0.5078  0.7833 -0.9412
 5222SOL     OW27124   3.179   2.999   4.828  0.4218 -0.1429 -0.4096
 5222SOL    HW127125   3.220   2.959   4.751  1.2033  0.3051 -0.2335
 5222SOL    HW227126   3.224   2.953   4.899 -0.0099 -2.8196 -1.8859
 5223SOL     OW27127   2.652   1.306   2.153  0.1683 -0.3007  0.2125
 5223SOL    HW127128   2.562   1.321   2.182  0.7652  3.5625  0.0786
 5223SOL    HW227129   2.671   1.219   2.188 -0.1757 -0.2528  0.5166
 5224SOL     OW27130   0.548   4.615   5.074 -0.3163  0.6168 -0.2344
 5224SOL    HW127131   0.593   4.539   5.112 -1.2611  0.1821  0.0301
 5224SOL    HW227132   0.492   4.574   5.008 -0.3822 -1.3955  1.0754
 5225SOL     OW27133   2.243   3.045   7.214 -0.3990 -0.2839 -0.4680
 5225SOL    HW127134   2.308   3.032   7.282 -1.8917 -0.8790  0.8562
 5225SOL    HW227135   2.246   3.140   7.202 -0.3082 -0.1176  0.9595
 5226SOL     OW27136   2.217   2.011  15.602  0.2311  0.3085 -0.4085
 5226SOL    HW127137   2.211   1.989  15.509 -1.4840  0.5983 -0.3602
 5226SOL    HW227138   2.273   2.088  15.589  0.0899  0.9504  2.7871
 5227SOL     OW27139   3.892   2.931   4.733  0.0269 -0.0994 -0.3449
 5227SOL    HW127140   3.959   2.910   4.798  0.7241  0.9079 -0.7395
 5227SOL    HW227141   3.884   3.027   4.737 -0.3331 -0.2509  2.3214
 5228SOL     OW27142   2.924   1.666   2.502 -0.1145  0.0575 -0.1911
 5228SOL    HW127143   2.908   1.682   2.595 -0.0225 -0.2627 -0.1191
 5228SOL    HW227144   2.964   1.579   2.511  0.9703  0.8020  2.1666
 5229SOL     OW27145   0.628   1.149   6.846 -0.0095 -0.5650 -0.2085
 5229SOL    HW127146   0.682   1.159   6.924  3.4798 -1.2088 -2.5052
 5229SOL    HW227147   0.665   1.075   6.796  0.2436 -0.4757 -0.1532
 5230SOL     OW27148   2.032   1.355   3.719  0.4794 -0.1523 -1.1750
 5230SOL    HW127149   1.972   1.423   3.748 -0.0721 -0.7137 -0.9938
 5230SOL    HW227150   2.111   1.400   3.748 -0.3224 -0.9895  2.3365
 5231SOL     OW27151   3.272   1.195   8.911  0.3013 -0.1740  0.0329
 5231SOL    HW127152   3.282   1.237   8.996 -1.0354  2.2360 -1.0040
 5231SOL    HW227153   3.276   1.267   8.848 -2.0932 -0.5103 -0.4915
 5232SOL     OW27154   3.224   2.305   2.483 -0.3224  0.1246 -0.5211
 5232SOL    HW127155   3.317   2.327   2.478 -0.2871 -0.3802 -2.0391
 5232SOL    HW227156   3.183   2.379   2.438 -0.4864  1.3408  1.5886
 5233SOL     OW27157   1.060   0.369   3.600 -0.2803 -0.3290  0.2491
 5233SOL    HW127158   1.127   0.431   3.628 -0.0467 -0.0516 -0.8932
 5233SOL    HW227159   1.038   0.317   3.677 -0.7413 -2.1393 -1.0891
 5234SOL     OW27160   1.485   1.333   7.083 -0.5120  0.5958  0.0918
 5234SOL    HW127161   1.444   1.275   7.019 -0.3810 -2.3009  2.6104
 5234SOL    HW227162   1.577   1.310   7.095 -0.4564  0.7829  0.0340
 5235SOL     OW27163   4.587   3.007   6.853 -0.0625  0.3927  0.0883
 5235SOL    HW127164   4.648   2.938   6.880  2.1634  2.2443 -0.2145
 5235SOL    HW227165   4.625   3.087   6.891 -2.8586  1.8232 -0.1327
 5236SOL     OW27166   0.481   1.657  12.737  0.2564 -0.8145  0.2849
 5236SOL    HW127167   0.567   1.695  12.756 -0.5890  1.8551 -1.2054
 5236SOL    HW227168   0.436   1.727  12.690  0.6326 -1.2985 -0.8040
 5237SOL     OW27169   2.690   3.981  12.919 -0.3952  0.2224  0.0137
 5237SOL    HW127170   2.669   3.895  12.883  1.3026 -1.3635  2.8393
 5237SOL    HW227171   2.618   3.991  12.982 -2.1469 -1.7950 -1.6996
 5238SOL     OW27172   1.219   3.572  10.514  0.1694  0.2919  0.1121
 5238SOL    HW127173   1.198   3.548  10.424  0.0126 -0.3153  0.3117
 5238SOL    HW227174   1.179   3.501  10.563 -1.5256  1.3162  0.2003
 5239SOL     OW27175   0.193   2.037   5.114 -0.0893  0.3806 -0.4177
 5239SOL    HW127176   0.222   1.962   5.166  0.6137  2.4906  2.2149
 5239SOL    HW227177   0.252   2.102   5.151 -0.3250  0.1315  0.3888
 5240SOL     OW27178   4.006   1.754   5.151  0.4096 -0.5140 -0.1215
 5240SOL    HW127179   4.011   1.699   5.230  2.6868 -1.5002 -0.9602
 5240SOL    HW227180   4.046   1.694   5.088 -1.7767 -1.9842 -0.1295
 5241SOL     OW27181   4.646   3.111   2.187 -0.3357 -0.1588  0.1296
 5241SOL    HW127182   4.551   3.094   2.186 -0.1726 -1.0313 -0.5912
 5241SOL    HW227183   4.657   3.196   2.145  2.1976 -0.0488  1.0071
 5242SOL     OW27184   4.447   3.188   8.069  0.2604  0.3561  0.0609
 5242SOL    HW127185   4.469   3.205   8.161 -0.7490 -1.0940  0.5831
 5242SOL    HW227186   4.403   3.104   8.080  1.9509 -0.4159  0.9796
 5243SOL     OW27187   3.464   0.147  11.330 -0.2134 -0.5547  0.6447
 5243SOL    HW127188   3.538   0.091  11.354  1.0129  0.5915 -0.4581
 5243SOL    HW227189   3.432   0.096  11.256 -2.7812  1.7719  0.1394
 5244SOL     OW27190   1.673   1.743   0.596  0.2988 -0.0560 -0.2442
 5244SOL    HW127191   1.676   1.833   0.629  2.0706 -0.0875 -0.3282
 5244SOL    HW227192   1.607   1.758   0.528  0.2519 -1.1680 -0.4311
 5245SOL     OW27193   1.993   1.091   4.012 -0.1135  0.1710  0.1915
 5245SOL    HW127194   1.974   1.037   3.935 -0.9339  0.3633  0.2560
 5245SOL    HW227195   1.907   1.119   4.043  0.4602  1.1768  0.8579
 5246SOL     OW27196   0.265   2.258   5.502 -0.0467  0.4363 -0.0416
 5246SOL    HW127197   0.245   2.351   5.488 -0.5700 -0.0295 -2.5235
 5246SOL    HW227198   0.182   2.215   5.522 -0.0434  0.2060 -0.5209
 5247SOL     OW27199   4.548   1.332  15.395 -0.4830  0.3852 -0.6592
 5247SOL    HW127200   4.482   1.379  15.345 -1.0573  0.1168 -0.1535
 5247SOL    HW227201   4.626   1.387  15.396  0.6893 -1.2422 -1.6156
 5248SOL     OW27202   2.627   1.332   5.655 -0.5283 -1.1396  0.0212
 5248SOL    HW127203   2.655   1.420   5.631  2.6951 -1.7357  1.5661
 5248SOL    HW227204   2.705   1.281   5.631 -0.1959 -0.7288  0.2174
 5249SOL     OW27205   2.863   0.164   0.126 -0.4578 -0.0863 -0.0177
 5249SOL    HW127206   2.783   0.203   0.161 -0.5502 -0.1089 -0.2062
 5249SOL    HW227207   2.829   0.091   0.075  1.2634 -0.6645 -0.3452
 5250SOL     OW27208   2.707   1.867   7.704  0.5097 -0.2583  0.2982
 5250SOL    HW127209   2.637   1.821   7.750  0.0917 -1.9151 -2.0286
 5250SOL    HW227210   2.680   1.837   7.617 -0.1092  0.4266  0.2600
 5251SOL     OW27211   1.818   3.007   6.873 -0.1276 -0.3010  0.6055
 5251SOL    HW127212   1.868   3.054   6.939 -2.1402  0.5079  1.5512
 5251SOL    HW227213   1.811   3.061   6.794  1.4973 -0.3803  0.4246
 5252SOL     OW27214   3.779   4.308   7.515 -0.2136 -0.1665  0.2968
 5252SOL    HW127215   3.780   4.401   7.536  0.1470 -0.3075  0.9349
 5252SOL    HW227216   3.699   4.277   7.559  0.9779 -0.1459  2.5103
 5253SOL     OW27217   1.638   4.721  16.769 -0.0480 -0.5456  0.0167
 5253SOL    HW127218   1.684   0.038  16.694  1.1321  1.8665  2.0185
 5253SOL    HW227219   1.614   0.067  16.831 -1.7183 -1.8835  0.8602
 5254SOL     OW27220   1.877   3.378  15.030  0.5721  0.0546  0.1741
 5254SOL    HW127221   1.872   3.473  15.036 -0.5115  0.1626 -2.4660
 5254SOL    HW227222   1.970   3.369  15.013  0.8500  0.4741  1.4467
 5255SOL     OW27223   1.264   2.309   5.452  0.1650  0.2674  0.3221
 5255SOL    HW127224   1.177   2.279   5.480  0.3326 -1.1362 -0.6485
 5255SOL    HW227225   1.309   2.232   5.416  3.2484  2.6217 -0.7995
 5256SOL     OW27226   0.287   4.121   8.962 -0.4331 -0.1763 -0.2899
 5256SOL    HW127227   0.350   4.192   8.955  1.6853 -2.1411 -1.0711
 5256SOL    HW227228   0.265   4.109   9.054 -1.7808 -1.3014 -0.7531
 5257SOL     OW27229   0.962   2.930   1.024 -0.2442 -0.1373  0.2491
 5257SOL    HW127230   0.994   2.892   0.942 -3.9037 -0.1424 -1.1895
 5257SOL    HW227231   0.891   2.982   0.987  0.9979  0.7978 -0.8103
 5258SOL     OW27232   2.412   0.340   8.084 -0.2436  0.5232  0.1124
 5258SOL    HW127233   2.400   0.375   7.996  0.0858 -1.8286 -0.8736
 5258SOL    HW227234   2.478   0.273   8.065 -2.3555 -1.2831 -0.7669
 5259SOL     OW27235   3.939   0.154   7.206  0.1714  0.1582  0.5064
 5259SOL    HW127236   4.022   0.114   7.232 -1.5535 -1.9108  2.8168
 5259SOL    HW227237   3.949   0.236   7.255  1.1783  0.9277 -0.9658
 5260SOL     OW27238   0.110   2.590   3.106 -0.2479 -0.3494  0.4880
 5260SOL    HW127239   0.067   2.675   3.110 -2.2442 -1.3634  0.7371
 5260SOL    HW227240   0.099   2.582   3.011 -0.5144 -0.6294  0.5412
 5261SOL     OW27241   1.996   3.397   6.069  0.3750  0.5508 -0.2261
 5261SOL    HW127242   2.059   3.416   5.999  0.0060 -1.1038 -1.0260
 5261SOL    HW227243   1.990   3.302   6.060 -0.3544  0.6242 -0.5351
 5262SOL     OW27244   0.499   1.135   8.732  0.1919 -0.1637  0.4470
 5262SOL    HW127245   0.556   1.132   8.809 -0.3552  2.4082  0.9365
 5262SOL    HW227246   0.557   1.197   8.689 -2.5800  2.2257  0.1498
 5263SOL     OW27247   3.679   2.525   2.707  0.1888  0.2285 -0.8494
 5263SOL    HW127248   3.662   2.544   2.799 -0.2387 -2.8553 -0.2661
 5263SOL    HW227249   3.754   2.465   2.718 -0.0390 -0.2106 -1.6671
 5264SOL     OW27250   3.984   2.695  16.736 -0.0746  0.1875  0.1967
 5264SOL    HW127251   3.913   2.662  16.790  0.1109  0.7255  0.7765
 5264SOL    HW227252   4.047   2.623  16.729  1.0366  0.7433  4.3187
 5265SOL     OW27253   4.114   3.434   5.873 -0.3221 -0.0099  0.1768
 5265SOL    HW127254   4.204   3.416   5.849 -0.4661 -1.3943  0.6873
 5265SOL    HW227255   4.076   3.347   5.864  1.6634 -0.9392  0.9026
 5266SOL     OW27256   4.686   2.419   6.492 -0.6617 -0.0821  0.1059
 5266SOL    HW127257   4.619   2.487   6.503  0.6936  0.9867  1.7405
 5266SOL    HW227258   4.717   2.445   6.405 -1.0764 -0.0841 -0.0428
 5267SOL     OW27259   3.802   2.335   4.806 -0.4447  0.5881  0.4291
 5267SOL    HW127260   3.861   2.312   4.877 -0.2769  1.9601  0.7418
 5267SOL    HW227261   3.842   2.411   4.764  0.0785  1.4406  2.4642
 5268SOL     OW27262   3.020   0.067   1.556 -0.4924  0.2324 -0.5078
 5268SOL    HW127263   3.114   0.056   1.569 -0.0723  1.2554 -2.6189
 5268SOL    HW227264   3.030   0.089   1.463  0.3687  1.1484 -0.1959
 5269SOL     OW27265   0.941   3.528  10.622 -0.3206  0.2809 -0.2307
 5269SOL    HW127266   0.906   3.443  10.650  0.1861 -0.2062 -1.0949
 5269SOL    HW227267   0.971   3.562  10.706  0.2379  0.6899 -0.5919
 5270SOL     OW27268   0.597   2.995  12.077 -0.1479 -0.2491  0.1176
 5270SOL    HW127269   0.529   2.929  12.089 -1.4595  0.9000 -1.0964
 5270SOL    HW227270   0.549   3.070  12.044 -2.0211 -1.6277 -0.3072
 5271SOL     OW27271   2.228   0.598   8.788  0.1417 -0.2543  0.2597
 5271SOL    HW127272   2.271   0.635   8.711 -1.8842 -1.2034 -1.3298
 5271SOL    HW227273   2.254   0.659   8.857  3.2177 -1.3300  0.0524
 5272SOL     OW27274   2.646   1.976  14.995 -0.1862 -0.7356  0.3473
 5272SOL    HW127275   2.712   1.908  14.980  0.9938  0.6820 -0.7946
 5272SOL    HW227276   2.582   1.946  14.930 -0.0523  0.4428 -0.3220
 5273SOL     OW27277   1.701   0.982   8.266  0.3125  0.3810  0.2704
 5273SOL    HW127278   1.741   0.896   8.275  0.1279  0.4251  1.4620
 5273SOL    HW227279   1.690   0.992   8.171  3.9687  1.0953 -0.0851
 5274SOL     OW27280   4.291   3.794   5.854  0.2130 -0.6908  0.4350
 5274SOL    HW127281   4.256   3.870   5.900  1.2228 -0.5366  0.9447
 5274SOL    HW227282   4.219   3.772   5.795  1.2807 -2.0429 -0.3659
 5275SOL     OW27283   0.869   3.371   6.118 -0.3634  0.1382  0.4331
 5275SOL    HW127284   0.875   3.335   6.207 -0.2325 -1.1929 -0.1031
 5275SOL    HW227285   0.774   3.368   6.106 -0.2920  1.7538 -0.4291
 5276SOL     OW27286   2.271   2.617  12.700  0.5652  0.1283 -0.2957
 5276SOL    HW127287   2.282   2.523  12.691  2.4275  0.2695  0.4865
 5276SOL    HW227288   2.280   2.625  12.795  0.1292  1.4954 -0.3608
 5277SOL     OW27289   0.223   2.285  14.879 -0.1902 -0.2498 -0.1603
 5277SOL    HW127290   0.177   2.239  14.809  0.0654  1.1103 -1.2171
 5277SOL    HW227291   0.199   2.220  14.946 -1.2188  0.8696  0.5430
 5278SOL     OW27292   4.181   2.498   7.045  0.0438  0.1878  0.4061
 5278SOL    HW127293   4.144   2.585   7.032 -0.0477 -0.3315 -2.7999
 5278SOL    HW227294   4.140   2.480   7.129  1.9337 -0.6729  1.1489
 5279SOL     OW27295   0.327   2.025  13.752 -0.6305  0.2908 -0.1550
 5279SOL    HW127296   0.378   1.945  13.769  1.7636  1.3593 -2.3398
 5279SOL    HW227297   0.394   2.091  13.767 -0.8717 -0.0699  2.5995
 5280SOL     OW27298   3.124   3.398   5.367  0.6978 -0.1155  0.6644
 5280SOL    HW127299   3.037   3.369   5.394  0.4142 -0.3798 -0.5691
 5280SOL    HW227300   3.101   3.430   5.280 -0.4385 -1.2125  0.5759
 5281SOL     OW27301   3.573   2.256   5.993  0.0223  0.2289  0.7470
 5281SOL    HW127302   3.602   2.204   5.919  1.2770  0.3603  1.1452
 5281SOL    HW227303   3.638   2.326   5.984 -0.7088  1.3874  4.4698
 5282SOL     OW27304   1.070   0.052   5.106  0.4025 -0.9148 -0.0987
 5282SOL    HW127305   1.078   0.040   5.201 -1.5365  0.2686  0.1978
 5282SOL    HW227306   1.149   0.106   5.100  0.4609 -0.5940  3.5316
 5283SOL     OW27307   1.758   1.809   5.417  0.0080 -0.3835 -0.2877
 5283SOL    HW127308   1.825   1.860   5.372 -0.9013 -1.1061 -2.4709
 5283SOL    HW227309   1.693   1.802   5.346  0.2707  1.3916 -0.7019
 5284SOL     OW27310   3.611   3.631  12.661  0.3079  0.2659 -0.5607
 5284SOL    HW127311   3.677   3.568  12.633 -2.8955 -2.7037 -1.4782
 5284SOL    HW227312   3.644   3.711  12.620  0.9658  0.0449 -0.4543
 5285SOL     OW27313   0.833   0.890   6.975 -0.6391 -0.0672 -0.6072
 5285SOL    HW127314   0.825   0.929   7.062 -1.9176 -1.6160 -0.0347
 5285SOL    HW227315   0.750   0.913   6.934  0.8464  2.5450 -2.1553
 5286SOL     OW27316   2.768   2.912   3.767  0.3101  0.1840  0.0817
 5286SOL    HW127317   2.835   2.850   3.736 -0.2802 -1.4840  2.1263
 5286SOL    HW227318   2.699   2.883   3.708 -0.2602 -0.2157  0.9430
 5287SOL     OW27319   1.634   3.333   6.331 -0.3231 -0.0007 -0.2824
 5287SOL    HW127320   1.674   3.332   6.244 -0.1834  0.1186 -0.2191
 5287SOL    HW227321   1.713   3.361   6.376 -1.5926  1.7568  0.8481
 5288SOL     OW27322   1.023   2.988   7.186 -0.5749  0.1536 -0.0706
 5288SOL    HW127323   0.954   2.923   7.200  0.0705 -0.4444  0.3080
 5288SOL    HW227324   1.102   2.950   7.225 -0.8476 -1.3296 -0.9406
 5289SOL     OW27325   0.371   1.389   1.011 -0.0059  0.2476 -0.2892
 5289SOL    HW127326   0.299   1.423   1.063 -1.2431 -1.7977 -0.6973
 5289SOL    HW227327   0.333   1.304   0.989 -1.9022  1.1481 -0.4744
 5290SOL     OW27328   3.645   3.828   7.728  0.0120  0.1661 -0.0307
 5290SOL    HW127329   3.648   3.803   7.820 -0.6236  0.9577  0.2065
 5290SOL    HW227330   3.735   3.857   7.717 -0.6580  1.8746 -1.1119
 5291SOL     OW27331   2.767   4.617  15.523  0.2264  0.5928 -0.1462
 5291SOL    HW127332   2.700   4.587  15.462  0.5908 -1.1843  0.3246
 5291SOL    HW227333   2.717   4.660  15.592  1.0877  2.6822 -0.8148
 5292SOL     OW27334   2.239   0.837  15.122 -0.1051  0.3131  0.9618
 5292SOL    HW127335   2.213   0.838  15.030 -0.0957  0.0038  0.9564
 5292SOL    HW227336   2.294   0.759  15.131 -2.0981 -1.1926 -0.0704
 5293SOL     OW27337   3.992   1.590   1.770  0.2111 -0.3151  0.2265
 5293SOL    HW127338   4.051   1.561   1.701  0.5840 -0.6883  0.6956
 5293SOL    HW227339   3.997   1.685   1.761  0.8178 -0.5317 -1.6092
 5294SOL     OW27340   1.900   3.354  16.587  0.2893 -0.2850 -0.7248
 5294SOL    HW127341   1.991   3.323  16.581  0.4137 -0.3714  1.3788
 5294SOL    HW227342   1.855   3.272  16.609 -1.5059  0.2890 -2.2848
 5295SOL     OW27343   3.210   2.766   8.565 -0.9561  0.8302  0.6478
 5295SOL    HW127344   3.164   2.693   8.608 -1.6135  1.1302  0.4556
 5295SOL    HW227345   3.257   2.798   8.642 -1.5339 -0.3286  1.4907
 5296SOL     OW27346   0.713   3.311   6.601 -0.0612  0.0162  0.1016
 5296SOL    HW127347   0.618   3.297   6.594 -0.0890  1.4598 -2.5857
 5296SOL    HW227348   0.722   3.327   6.695 -2.7874  1.2181  0.1548
 5297SOL     OW27349   1.514   3.304   1.902  0.2447  0.2918 -0.0792
 5297SOL    HW127350   1.435   3.337   1.858 -0.7180 -3.2961 -1.0262
 5297SOL    HW227351   1.528   3.226   1.849 -4.6133  0.2648 -1.3521
 5298SOL     OW27352   4.473   1.277   4.330  0.9437 -0.2942  0.2114
 5298SOL    HW127353   4.464   1.288   4.236 -0.4301 -0.9168  0.2614
 5298SOL    HW227354   4.492   1.366   4.361  0.6263  0.3459 -1.4322
 5299SOL     OW27355   2.014   3.012   2.625  0.1921  0.4387 -0.5523
 5299SOL    HW127356   2.018   2.921   2.596  0.5958 -0.1656  1.3957
 5299SOL    HW227357   2.108   3.031   2.625 -0.0893  1.8260  0.7696
 5300SOL     OW27358   0.624   3.328  15.996 -0.2974 -0.1426 -0.5498
 5300SOL    HW127359   0.663   3.295  15.915  0.5643 -0.3191 -0.0746
 5300SOL    HW227360   0.580   3.247  16.020 -2.4949  1.2184 -0.0138
 5301SOL     OW27361   4.245   2.049   5.492 -0.2511  0.7162  0.3021
 5301SOL    HW127362   4.181   2.052   5.421 -0.2990 -0.8459  0.2793
 5301SOL    HW227363   4.230   1.968   5.540 -0.4661  0.6054  0.0488
 5302SOL     OW27364   3.411   0.332  14.507  0.1109 -0.2657  0.4738
 5302SOL    HW127365   3.378   0.403  14.562  1.3954 -0.0508  0.9532
 5302SOL    HW227366   3.459   0.284  14.574 -0.3902 -0.3570  0.7698
 5303SOL     OW27367   4.278   1.979   4.810  0.2339  0.7314 -0.0232
 5303SOL    HW127368   4.321   2.026   4.881 -1.3778  0.3263  1.2353
 5303SOL    HW227369   4.344   1.915   4.785  0.4097  0.7138  0.4805
 5304SOL     OW27370   3.510   3.507   4.093  0.6003 -0.4243 -0.1909
 5304SOL    HW127371   3.502   3.473   4.004  0.1424 -1.8120  0.3765
 5304SOL    HW227372   3.435   3.482   4.146  0.0831 -0.2130 -0.8277
 5305SOL     OW27373   2.472   4.526   3.852 -0.0978 -0.0048 -0.1246
 5305SOL    HW127374   2.409   4.469   3.896  0.5321 -0.6787 -0.0911
 5305SOL    HW227375   2.498   4.477   3.774 -2.1884  0.1347 -0.8997
 5306SOL     OW27376   1.185   0.152  12.531  0.6411 -0.0075 -0.0054
 5306SOL    HW127377   1.229   0.224  12.486 -0.3840  0.4748 -0.2466
 5306SOL    HW227378   1.097   0.190  12.539  0.2910 -0.9012  0.3273
 5307SOL     OW27379   0.860   0.621  17.433  0.2413 -0.2411 -0.0177
 5307SOL    HW127380   0.843   0.526  17.435 -1.8860  0.0424 -3.1711
 5307SOL    HW227381   0.947   0.629  17.394  0.5036 -0.4097  0.5466
 5308SOL     OW27382   0.582   3.879  12.296  0.2328 -0.3960 -0.5479
 5308SOL    HW127383   0.630   3.805  12.333  1.3484  0.7557  0.2829
 5308SOL    HW227384   0.513   3.890  12.361 -0.0568 -1.8702 -0.5955
 5309SOL     OW27385   3.153   1.744   9.113  0.3208  0.3131  0.4827
 5309SOL    HW127386   3.092   1.670   9.113  1.2752 -0.4545 -1.3510
 5309SOL    HW227387   3.234   1.703   9.083 -0.6323 -0.6690 -0.7136
 5310SOL     OW27388   3.060   3.699   8.664  0.4033  0.2547 -0.0997
 5310SOL    HW127389   3.028   3.773   8.715 -0.7616  0.3669 -0.9813
 5310SOL    HW227390   3.117   3.651   8.723  0.3784  0.9472  0.4848
 5311SOL     OW27391   1.095   1.987   1.427  0.1210 -0.4126  0.0749
 5311SOL    HW127392   1.007   2.022   1.412  0.3089 -0.7899 -1.9522
 5311SOL    HW227393   1.074   1.910   1.479 -1.1163  0.1160  0.3446
 5312SOL     OW27394   0.687   0.153   2.783  0.0331 -0.4880  0.4259
 5312SOL    HW127395   0.678   0.097   2.860  0.5776  0.4163  1.1517
 5312SOL    HW227396   0.760   0.210   2.810 -2.3709  2.0068  1.6465
 5313SOL     OW27397   4.459   1.027   6.493  0.8739  0.4360  0.0687
 5313SOL    HW127398   4.416   1.096   6.442 -3.8453 -2.9273 -0.4788
 5313SOL    HW227399   4.440   1.056   6.582  0.2023  1.6282 -0.4720
 5314SOL     OW27400   3.179   2.785   7.113  0.8021 -0.1343 -0.1129
 5314SOL    HW127401   3.144   2.836   7.041  0.0954 -0.0021  0.3252
 5314SOL    HW227402   3.098   2.759   7.158  2.2038  0.3837  2.7654
 5315SOL     OW27403   3.751   3.108  13.859  0.1183 -0.2831 -0.7304
 5315SOL    HW127404   3.719   3.095  13.948  1.3441 -0.4783 -0.3194
 5315SOL    HW227405   3.721   3.196  13.834 -1.4946 -0.0779  2.0025
 5316SOL     OW27406   1.762   3.400   3.747  0.6439 -0.5330  0.5161
 5316SOL    HW127407   1.721   3.486   3.756 -0.9320 -1.5678  3.2007
 5316SOL    HW227408   1.855   3.417   3.756  0.7555 -1.6698  1.5043
 5317SOL     OW27409   0.692   2.473   1.069  0.5838 -0.1057  0.1642
 5317SOL    HW127410   0.765   2.532   1.091  0.9609 -0.1023 -1.0840
 5317SOL    HW227411   0.613   2.526   1.055 -0.1626 -1.6542 -1.4906
 5318SOL     OW27412   1.808   0.929   6.078 -0.4697  0.3970 -0.1936
 5318SOL    HW127413   1.776   0.865   6.014  0.3446  0.0843 -0.2943
 5318SOL    HW227414   1.739   0.994   6.068 -1.1100 -0.4345 -1.2247
 5319SOL     OW27415   0.458   1.688  17.461 -0.2795  0.0961 -0.0756
 5319SOL    HW127416   0.488   1.611  17.412 -0.9785  0.1335 -0.5601
 5319SOL    HW227417   0.498   1.752  17.402  0.0500  0.8938  1.0193
 5320SOL     OW27418   1.623   2.832  16.726 -0.2546  0.1132 -0.1308
 5320SOL    HW127419   1.639   2.749  16.770  1.1309  1.6260  2.2228
 5320SOL    HW227420   1.640   2.797  16.638  1.9870  2.1854 -0.5376
 5321SOL     OW27421   2.306   2.417   6.347 -0.1435 -0.2116  0.1613
 5321SOL    HW127422   2.233   2.367   6.383 -1.1486 -0.1397 -1.7353
 5321SOL    HW227423   2.273   2.446   6.262 -0.0726 -0.0620  0.1856
 5322SOL     OW27424   2.680   2.268   6.265  0.5281  0.3004 -0.8560
 5322SOL    HW127425   2.619   2.249   6.194 -0.6856  1.0388  0.0061
 5322SOL    HW227426   2.746   2.314   6.213  0.6370  1.3161  0.1856
 5323SOL     OW27427   2.932   0.690   6.123  0.2889 -0.5189 -0.3367
 5323SOL    HW127428   2.882   0.611   6.143  1.6439 -1.3417 -0.1402
 5323SOL    HW227429   2.987   0.712   6.199 -1.8025 -2.2448  1.6909
 5324SOL     OW27430   0.796   4.563  12.497  0.1797  0.0859 -0.7702
 5324SOL    HW127431   0.806   4.651  12.533  0.6703  0.3770 -1.6390
 5324SOL    HW227432   0.875   4.546  12.445 -0.9846 -0.3089 -2.4142
 5325SOL     OW27433   4.629   4.262   7.117 -0.0391  0.5031 -0.4716
 5325SOL    HW127434   0.002   4.268   7.113  0.2454 -2.1617  2.0607
 5325SOL    HW227435   4.608   4.286   7.208 -1.0223 -0.5551 -0.4154
 5326SOL     OW27436   1.234   2.132  15.395  0.3188 -0.0849  0.1604
 5326SOL    HW127437   1.276   2.179  15.467  1.5360  0.6533 -1.0084
 5326SOL    HW227438   1.309   2.106  15.340  0.4933  0.9707 -0.0954
 5327SOL     OW27439   2.571   4.623   5.513 -0.1323  0.6871  0.6042
 5327SOL    HW127440   2.645   4.574   5.478  0.9189  2.0433  0.9511
 5327SOL    HW227441   2.497   4.582   5.468  0.5493  0.3546 -0.2061
 5328SOL     OW27442   3.455   2.030  16.255 -0.5102 -0.3339 -0.0049
 5328SOL    HW127443   3.500   2.086  16.192 -3.2199  1.4984 -0.3131
 5328SOL    HW227444   3.520   1.962  16.270 -0.6425 -0.2810  0.7813
 5329SOL     OW27445   4.354   2.541   5.634  0.1237 -0.2020 -0.4210
 5329SOL    HW127446   4.410   2.600   5.685 -0.6127 -0.8832  1.1423
 5329SOL    HW227447   4.317   2.599   5.567  2.9121  3.5541  1.2536
 5330SOL     OW27448   1.911   3.781   8.985  0.8605  0.2088 -0.2349
 5330SOL    HW127449   1.873   3.816   8.904 -0.7077 -0.3349  0.2653
 5330SOL    HW227450   1.860   3.826   9.053 -0.8522  0.5912 -1.7745
 5331SOL     OW27451   1.572   0.882   3.904  0.1231 -0.0468 -0.6187
 5331SOL    HW127452   1.658   0.841   3.903  0.9763  1.7510  0.0240
 5331SOL    HW227453   1.533   0.828   3.835 -0.1279 -0.2649 -0.3094
 5332SOL     OW27454   0.187   4.490   8.488 -0.1254  0.8675  0.0132
 5332SOL    HW127455   0.212   4.457   8.574  0.1894  3.4606  0.8927
 5332SOL    HW227456   0.261   4.549   8.474  0.8557 -0.9189 -2.3859
 5333SOL     OW27457   1.507   4.392   8.066  0.7364  0.3774 -0.4016
 5333SOL    HW127458   1.543   4.312   8.105 -0.2717  0.5997  0.9789
 5333SOL    HW227459   1.528   4.385   7.973  0.3809  0.4986 -0.4890
 5334SOL     OW27460   1.506   3.189   4.311 -0.2891  0.1583 -0.3371
 5334SOL    HW127461   1.475   3.110   4.266  0.0892 -0.2308  0.0751
 5334SOL    HW227462   1.432   3.214   4.366 -0.2371 -1.3511  0.4188
 5335SOL     OW27463   2.852   0.881  13.535 -0.3743 -0.5667 -0.3498
 5335SOL    HW127464   2.782   0.880  13.470 -1.2371  0.8632  0.5784
 5335SOL    HW227465   2.854   0.788  13.559 -0.1845 -0.5620 -0.3490
 5336SOL     OW27466   2.482   4.328  13.299  0.1510  0.3898  0.0319
 5336SOL    HW127467   2.413   4.272  13.261  1.8939  0.2492 -2.9059
 5336SOL    HW227468   2.527   4.348  13.218  0.4293 -1.6433 -0.3330
 5337SOL     OW27469   3.992   1.293   4.510  0.2733 -0.1901  0.2725
 5337SOL    HW127470   4.075   1.325   4.545 -0.3734 -0.5668  2.1850
 5337SOL    HW227471   3.925   1.324   4.571 -0.7066 -1.0797 -0.3425
 5338SOL     OW27472   2.916   1.118   9.019 -0.1110  0.3363 -0.1527
 5338SOL    HW127473   2.847   1.147   9.078  1.3826 -0.9675  2.2497
 5338SOL    HW227474   2.926   1.189   8.957 -2.0307 -1.2000 -2.2115
 5339SOL     OW27475   1.325   0.700   6.318 -0.3741 -0.6500 -0.2336
 5339SOL    HW127476   1.379   0.714   6.396  1.3346 -0.8689 -1.3841
 5339SOL    HW227477   1.372   0.749   6.251 -2.3990  1.6166  0.0265
 5340SOL     OW27478   3.608   0.732   1.510  0.0508 -0.0605 -0.2252
 5340SOL    HW127479   3.702   0.743   1.495 -0.0542  0.3244 -0.6220
 5340SOL    HW227480   3.571   0.817   1.533 -0.9938 -1.2113  2.2532
 5341SOL     OW27481   1.522   1.821   4.795  0.0382  0.1284  0.2356
 5341SOL    HW127482   1.437   1.797   4.758 -1.6253  4.1315  1.4931
 5341SOL    HW227483   1.522   1.914   4.771 -0.4220  0.3630  1.1546
 5342SOL     OW27484   3.770   4.171   2.271  0.4383  0.7084 -0.0768
 5342SOL    HW127485   3.683   4.141   2.297  1.1542 -2.2018 -1.0537
 5342SOL    HW227486   3.752   4.170   2.177 -0.8874  0.3977  0.1884
 5343SOL     OW27487   3.174   2.964  11.958  0.2373 -0.0980 -0.2254
 5343SOL    HW127488   3.083   2.936  11.960  0.3844 -0.4073  1.9353
 5343SOL    HW227489   3.202   2.958  11.867 -0.8167 -1.0622 -0.4881
 5344SOL     OW27490   3.871   4.200   5.056 -0.3138  0.1360 -0.3187
 5344SOL    HW127491   3.871   4.142   4.980 -0.9411 -1.2884  0.7765
 5344SOL    HW227492   3.907   4.145   5.125 -0.6694 -0.1133 -0.3330
 5345SOL     OW27493   0.325   3.442   7.075  0.2192 -0.2815 -0.3046
 5345SOL    HW127494   0.388   3.421   7.144 -1.1207  1.9356  1.5956
 5345SOL    HW227495   0.326   3.537   7.088 -1.0978 -0.0805 -1.6960
 5346SOL     OW27496   3.113   3.259   1.091 -0.1773 -0.2386 -0.4960
 5346SOL    HW127497   3.169   3.202   1.142  1.5235  2.3343  0.4852
 5346SOL    HW227498   3.170   3.272   1.015 -0.9182 -0.5846 -1.1159
 5347SOL     OW27499   1.242   0.308  16.342  0.0518  0.4874  0.4473
 5347SOL    HW127500   1.293   0.359  16.279  0.8426 -0.7036  0.1398
 5347SOL    HW227501   1.284   0.316  16.428 -1.3340  0.1707  1.1559
 5348SOL     OW27502   1.982   1.605   7.665 -0.1246 -0.0218 -0.0529
 5348SOL    HW127503   1.921   1.563   7.726 -0.4439  0.8367  0.2238
 5348SOL    HW227504   1.928   1.683   7.652 -1.3885 -0.8562  0.1674
 5349SOL     OW27505   1.465   2.951   2.777 -0.2952 -0.2033  0.2384
 5349SOL    HW127506   1.561   2.953   2.785  0.0101 -0.7477 -3.0150
 5349SOL    HW227507   1.438   2.898   2.851  0.6214 -0.6853  0.2328
 5350SOL     OW27508   3.108   2.654  17.288 -0.1966 -0.0579 -0.4164
 5350SOL    HW127509   3.044   2.587  17.313 -0.1002  0.2231  0.5659
 5350SOL    HW227510   3.166   2.641  17.363 -0.0146  0.8620 -0.3981
 5351SOL     OW27511   0.623   0.348  16.981  0.2978 -0.1343  0.1176
 5351SOL    HW127512   0.646   0.410  17.049  0.3227 -0.9020  0.8062
 5351SOL    HW227513   0.531   0.369  16.965  0.5494 -0.3121 -1.6435
 5352SOL     OW27514   3.707   2.956   3.799  0.0327  0.1117  0.3381
 5352SOL    HW127515   3.776   2.909   3.753 -1.2601  0.6415 -2.1797
 5352SOL    HW227516   3.764   2.956   3.876 -0.8526 -1.8663  1.0094
 5353SOL     OW27517   1.464   3.821   7.348  0.0634 -0.0381  0.4702
 5353SOL    HW127518   1.538   3.777   7.391  0.1712  0.5746  0.9109
 5353SOL    HW227519   1.390   3.785   7.396  1.0967 -1.2053  1.1841
 5354SOL     OW27520   3.872   3.526  12.499 -0.4428  0.5068 -0.9123
 5354SOL    HW127521   3.846   3.543  12.409 -0.4005  3.1606 -0.4199
 5354SOL    HW227522   3.923   3.445  12.491  0.2373  0.7207  1.2173
 5355SOL     OW27523   1.611   2.816   0.444 -0.0213 -0.0013 -0.5163
 5355SOL    HW127524   1.570   2.825   0.359  1.1203 -1.9547 -1.2689
 5355SOL    HW227525   1.664   2.737   0.432 -1.2334 -0.5248 -2.4096
 5356SOL     OW27526   2.305   2.968   4.725 -0.4172 -0.2481 -0.1826
 5356SOL    HW127527   2.307   2.983   4.819  1.6854  0.7715 -0.3919
 5356SOL    HW227528   2.384   3.014   4.697 -1.5157  1.0197 -1.2455
 5357SOL     OW27529   0.342   0.176   2.420  0.3136  0.1408  0.0593
 5357SOL    HW127530   0.376   0.098   2.375  1.2494 -0.9613  2.6566
 5357SOL    HW227531   0.361   0.152   2.511 -0.6263 -0.8464 -0.0035
 5358SOL     OW27532   2.628   4.140   4.412 -0.3165 -0.4251  0.2927
 5358SOL    HW127533   2.659   4.230   4.412 -0.3297 -0.4088 -1.6626
 5358SOL    HW227534   2.638   4.119   4.505 -3.9179  3.2461  1.4842
 5359SOL     OW27535   0.074   2.656   1.029 -0.1292 -0.3343  0.3358
 5359SOL    HW127536   0.114   2.743   1.033 -0.3667 -0.0706 -3.2621
 5359SOL    HW227537   0.122   2.612   1.099  0.0284 -0.2739  0.2661
 5360SOL     OW27538   2.530   1.651   5.963  0.3157  0.2125 -0.1199
 5360SOL    HW127539   2.496   1.584   6.023  0.4715 -0.2174 -0.5101
 5360SOL    HW227540   2.454   1.660   5.905 -0.9326  0.3403  1.5363
 5361SOL     OW27541   4.416   4.692   3.230  0.0574  0.6514 -0.5769
 5361SOL    HW127542   4.378   4.658   3.311 -0.0388  0.2013 -0.8106
 5361SOL    HW227543   4.349   0.034   3.208 -0.8934 -0.6762 -1.6171
 5362SOL     OW27544   2.230   3.897   4.766  0.7087  0.0099  0.6175
 5362SOL    HW127545   2.280   3.831   4.814  0.0565 -2.2087 -1.7307
 5362SOL    HW227546   2.264   3.879   4.678 -0.6097  0.5707 -0.0179
 5363SOL     OW27547   1.508   4.250   4.658  0.6807  0.1198 -0.0718
 5363SOL    HW127548   1.482   4.331   4.615 -0.9104 -0.5147 -0.2842
 5363SOL    HW227549   1.424   4.208   4.639  0.1338  1.3366 -0.3270
 5364SOL     OW27550   3.340   4.318   1.122  0.0228 -0.3928  0.3667
 5364SOL    HW127551   3.322   4.393   1.178 -0.7972  0.6036 -1.2018
 5364SOL    HW227552   3.252   4.279   1.118 -0.3197  0.3337  1.0219
 5365SOL     OW27553   1.702   1.339  17.307  0.0769 -0.1780 -0.2906
 5365SOL    HW127554   1.610   1.343  17.281 -0.5919  0.3642  2.1737
 5365SOL    HW227555   1.744   1.328  17.222  0.9139  1.0740 -0.0322
 5366SOL     OW27556   2.682   2.006   8.961  0.3433 -0.2843  0.4762
 5366SOL    HW127557   2.594   1.991   8.926  1.1398 -1.6691 -0.9226
 5366SOL    HW227558   2.724   1.924   8.938  2.3315  0.3073  2.0474
 5367SOL     OW27559   0.641   4.626   4.274  0.2353 -0.4905  0.0684
 5367SOL    HW127560   0.725   4.616   4.319 -0.1531 -0.5887  0.7563
 5367SOL    HW227561   0.597   4.543   4.290  0.0458 -0.5249 -0.6173
 5368SOL     OW27562   2.375   1.169   6.783 -0.1611  0.0589 -0.4715
 5368SOL    HW127563   2.409   1.237   6.726 -1.6719  0.0647 -1.3471
 5368SOL    HW227564   2.368   1.210   6.869 -0.3633  1.2976 -1.0828
 5369SOL     OW27565   4.540   1.607   3.946 -0.1421  0.4595 -0.2403
 5369SOL    HW127566   4.464   1.577   3.896  1.3173 -1.4355 -1.3398
 5369SOL    HW227567   4.547   1.692   3.904  2.8381 -0.4031 -1.4829
 5370SOL     OW27568   1.949   0.788   3.336 -0.0718 -0.8051  0.4471
 5370SOL    HW127569   1.899   0.761   3.259  0.9073 -0.5793 -0.2689
 5370SOL    HW227570   1.911   0.875   3.347 -1.0689 -0.8429 -3.0115
 5371SOL     OW27571   2.534   4.458   4.429 -0.4141  0.0879  0.1830
 5371SOL    HW127572   2.538   4.536   4.374 -1.9301 -0.2765 -0.4368
 5371SOL    HW227573   2.451   4.419   4.403 -1.0402  0.7974  1.0784
 5372SOL     OW27574   1.268   4.340   2.415 -0.5830  0.0931 -0.6166
 5372SOL    HW127575   1.335   4.287   2.373 -0.1449 -1.0906  1.5964
 5372SOL    HW227576   1.238   4.285   2.487 -0.7722  1.4483  0.3528
 5373SOL     OW27577   4.381   0.005   7.776 -0.1144 -0.1570  0.0036
 5373SOL    HW127578   4.472   0.001   7.746  0.0368 -0.3838  0.4913
 5373SOL    HW227579   4.353   0.071   7.713  2.8013  0.7727 -0.3419
 5374SOL     OW27580   4.033   2.307   6.011  0.2587  0.0268  0.8780
 5374SOL    HW127581   4.074   2.378   5.963 -0.6459 -1.7623 -2.5081
 5374SOL    HW227582   4.024   2.237   5.946 -0.3978 -0.3133  1.3355
 5375SOL     OW27583   1.940   0.054   8.102 -0.1928  0.6575 -0.4474
 5375SOL    HW127584   1.929   4.682   8.091  0.2811  0.5217  0.2450
 5375SOL    HW227585   2.033   0.066   8.122 -0.1607 -0.8041  0.3125
 5376SOL     OW27586   2.390   1.094   3.806 -0.3869  0.5864  0.4657
 5376SOL    HW127587   2.360   1.003   3.810 -0.7124  0.7129  0.9123
 5376SOL    HW227588   2.336   1.124   3.733  0.6149  0.2170 -0.4232
 5377SOL     OW27589   4.557   3.276   6.451 -0.3578 -0.4612  0.0614
 5377SOL    HW127590   4.560   3.257   6.544 -0.3043  1.1122  0.3814
 5377SOL    HW227591   4.463   3.296   6.446  0.0750  1.2934 -1.0404
 5378SOL     OW27592   0.832   2.888   5.105  0.5101  0.3523  0.2980
 5378SOL    HW127593   0.835   2.933   5.021 -1.0556 -0.1447 -0.0168
 5378SOL    HW227594   0.862   2.959   5.162  1.9743  0.1271 -0.2026
 5379SOL     OW27595   3.775   4.492   2.474 -0.4040 -0.4580  0.1611
 5379SOL    HW127596   3.788   4.562   2.538  0.0175 -0.8065  0.4552
 5379SOL    HW227597   3.683   4.470   2.493 -0.7341  0.2044 -0.6819
 5380SOL     OW27598   0.400   3.686   5.850  0.3069 -0.0579  0.3529
 5380SOL    HW127599   0.373   3.705   5.940 -0.2679 -0.9320  0.3648
 5380SOL    HW227600   0.317   3.682   5.803 -0.1477  0.7492  1.0740
 5381SOL     OW27601   2.052   0.846  13.182  0.4637 -0.1424 -0.1390
 5381SOL    HW127602   2.073   0.785  13.253 -0.7173 -1.6514 -1.1053
 5381SOL    HW227603   2.106   0.795  13.122  0.9334  1.1844 -0.8423
 5382SOL     OW27604   2.120   0.519   0.455  0.0902 -0.0656  0.1111
 5382SOL    HW127605   2.155   0.431   0.465  0.4830 -0.0607 -1.2395
 5382SOL    HW227606   2.040   0.504   0.405  1.2282 -0.4643 -1.5870
 5383SOL     OW27607   2.659   3.811   2.176  0.0688  0.2393  0.9345
 5383SOL    HW127608   2.755   3.810   2.173  0.0491  2.3570 -0.7920
 5383SOL    HW227609   2.634   3.832   2.086  0.5885  1.1653  1.0014
 5384SOL     OW27610   1.596   0.059  14.143  0.6285  0.3987  0.6626
 5384SOL    HW127611   1.532   4.715  14.169  1.6128 -0.4443  0.8898
 5384SOL    HW227612   1.556   0.087  14.060 -1.2291 -0.5078  1.2598
 5385SOL     OW27613   2.676   1.469   8.502 -0.0222  0.0374 -0.7024
 5385SOL    HW127614   2.602   1.482   8.560  0.6615 -1.4342  0.5039
 5385SOL    HW227615   2.746   1.519   8.545 -1.0532  2.0204 -1.3570
 5386SOL     OW27616   1.972   0.025  13.609 -0.3738  0.3928  0.2627
 5386SOL    HW127617   1.984   0.052  13.700  1.0129 -1.2931  0.5842
 5386SOL    HW227618   1.880   0.000  13.615 -0.1255 -1.2798 -2.6977
 5387SOL     OW27619   1.265   1.558   5.281 -0.3774  0.0163 -0.0850
 5387SOL    HW127620   1.268   1.568   5.186  1.0113 -1.0926 -0.1627
 5387SOL    HW227621   1.302   1.471   5.299 -2.6611 -0.9312  0.1314
 5388SOL     OW27622   1.872   1.342   2.996 -0.0826 -0.0952 -0.1583
 5388SOL    HW127623   1.824   1.389   2.928 -2.6022  0.4116  1.9753
 5388SOL    HW227624   1.905   1.417   3.045  0.7297  0.0741 -0.9601
 5389SOL     OW27625   4.550   3.654   2.571 -0.0188 -0.0739 -0.3431
 5389SOL    HW127626   4.512   3.737   2.598  1.2807  1.5226 -3.3457
 5389SOL    HW227627   4.645   3.667   2.581  0.1495 -1.5419 -0.0090
 5390SOL     OW27628   0.390   1.414  12.600 -0.9876  0.0876  0.6472
 5390SOL    HW127629   0.433   1.479  12.657 -2.8653  2.7462 -0.9658
 5390SOL    HW227630   0.330   1.372  12.661 -0.6404 -1.0901  0.1726
 5391SOL     OW27631   3.992   1.984   6.818 -0.0542 -0.3050 -0.4611
 5391SOL    HW127632   3.990   1.937   6.735 -1.5573 -2.7600  0.9430
 5391SOL    HW227633   3.921   2.047   6.808 -1.6875 -2.1727 -0.8059
 5392SOL     OW27634   1.378   2.174   3.761  0.4910  0.4381 -0.6780
 5392SOL    HW127635   1.325   2.247   3.727 -1.3619 -1.4452 -1.8538
 5392SOL    HW227636   1.313   2.117   3.803  1.5611  0.5620  1.1331
 5393SOL     OW27637   2.165   1.330  15.089  0.1704  0.6236 -0.0426
 5393SOL    HW127638   2.221   1.355  15.162 -0.5716 -0.9964  1.0814
 5393SOL    HW227639   2.154   1.236  15.100  0.2922  0.5723 -0.3688
 5394SOL     OW27640   1.922   1.290   5.014 -0.1270 -0.6579  0.4422
 5394SOL    HW127641   1.890   1.330   4.933 -1.9851  0.1379  1.5643
 5394SOL    HW227642   1.835   1.268   5.047  0.2421  0.3040  2.0662
 5395SOL     OW27643   1.027   3.430   5.902  0.1483 -0.3175  0.3423
 5395SOL    HW127644   0.998   3.412   5.991 -1.0932  0.4967  0.1061
 5395SOL    HW227645   1.120   3.445   5.920  0.1736 -0.5050  0.3606
 5396SOL     OW27646   2.865   2.971   2.647  0.1009  0.2020  0.5150
 5396SOL    HW127647   2.961   2.965   2.646  0.0679 -0.3632  0.8299
 5396SOL    HW227648   2.832   3.046   2.596 -1.8221 -1.6153 -0.9093
 5397SOL     OW27649   4.337   2.184   8.562 -0.1135  0.0341 -0.1427
 5397SOL    HW127650   4.377   2.117   8.507  0.3042 -0.6157  0.9510
 5397SOL    HW227651   4.248   2.188   8.528  0.4949 -0.6601 -1.7916
 5398SOL     OW27652   4.667   1.949  16.418 -0.1729 -0.0182 -0.6934
 5398SOL    HW127653   4.698   2.039  16.403  1.0957 -0.0343  1.9749
 5398SOL    HW227654   4.576   1.963  16.444 -0.0260  2.3858 -1.4297
 5399SOL     OW27655   4.360   3.387   6.161 -0.2116  0.8065 -0.2053
 5399SOL    HW127656   4.348   3.384   6.066  1.8061  0.1677 -0.4493
 5399SOL    HW227657   4.403   3.303   6.175 -0.5134  0.5616 -0.7386
 5400SOL     OW27658   2.497   4.477   6.756 -0.4869 -0.2346 -0.2964
 5400SOL    HW127659   2.517   4.567   6.731 -0.2887 -0.6132 -1.5224
 5400SOL    HW227660   2.585   4.447   6.777 -0.9614 -0.8551  0.8179
 5401SOL     OW27661   3.911   3.959   6.673  0.1909  0.3020 -0.2408
 5401SOL    HW127662   3.904   3.869   6.706 -1.1419  0.5352  0.1331
 5401SOL    HW227663   3.821   3.985   6.694 -0.3010 -1.8579  0.3933
 5402SOL     OW27664   1.931   2.705   2.285  0.2192 -0.3063 -0.0955
 5402SOL    HW127665   1.868   2.736   2.350 -0.3606  0.2764 -0.9294
 5402SOL    HW227666   1.929   2.780   2.225  0.9047 -0.1644  0.0573
 5403SOL     OW27667   2.304   3.410   6.424  0.0761  0.4137 -0.0170
 5403SOL    HW127668   2.330   3.373   6.509  2.1936  0.3083 -0.7061
 5403SOL    HW227669   2.209   3.400   6.429  0.2738 -0.4459  1.9853
 5404SOL     OW27670   0.547   0.223   3.283  0.1436 -0.1352 -0.1807
 5404SOL    HW127671   0.509   0.203   3.368 -3.7949  1.3232 -1.5941
 5404SOL    HW227672   0.637   0.242   3.311  0.8048 -4.3515  0.4568
 5405SOL     OW27673   4.192   0.160  17.023  0.2570  0.4608  0.0916
 5405SOL    HW127674   4.140   0.240  17.015  2.1742  1.4943 -1.9332
 5405SOL    HW227675   4.189   0.152  17.119  0.8866 -0.1811  0.0592
 5406SOL     OW27676   2.536   3.535   1.869 -0.1200 -0.0782  0.1358
 5406SOL    HW127677   2.574   3.460   1.824 -0.2674  0.6366 -1.2009
 5406SOL    HW227678   2.560   3.509   1.958 -0.6274  1.1759  0.6448
 5407SOL     OW27679   4.127   0.681   8.618  0.3753  0.4741 -0.0675
 5407SOL    HW127680   4.126   0.769   8.656  2.6145  0.6480 -0.3874
 5407SOL    HW227681   4.186   0.630   8.673 -0.9571 -1.4764 -0.4655
 5408SOL     OW27682   1.622   1.971   6.566  0.0008 -0.1343 -0.0939
 5408SOL    HW127683   1.534   2.009   6.562 -0.9690 -2.2255  1.3354
 5408SOL    HW227684   1.617   1.887   6.519 -0.1937 -1.0129  1.4816
 5409SOL     OW27685   2.356   1.352   8.016 -0.2657 -0.3024  0.3050
 5409SOL    HW127686   2.269   1.384   7.991 -0.6559 -1.1335  0.6008
 5409SOL    HW227687   2.347   1.308   8.100 -1.2346 -0.2399  0.2386
 5410SOL     OW27688   2.029   2.190  12.054 -0.1499  0.3672  0.2652
 5410SOL    HW127689   2.039   2.160  11.964 -2.3947 -4.1480  1.5579
 5410SOL    HW227690   1.934   2.200  12.061 -0.5493 -3.9528  0.5464
 5411SOL     OW27691   2.482   0.579  14.147 -0.0788  0.0813  0.4082
 5411SOL    HW127692   2.552   0.539  14.095  2.0911  2.6990  1.3270
 5411SOL    HW227693   2.409   0.531  14.109 -0.4363  0.2437  0.8972
 5412SOL     OW27694   0.101   1.193  15.066  0.0533  0.3949  0.0545
 5412SOL    HW127695   0.171   1.135  15.096 -1.8938 -1.7545  0.4957
 5412SOL    HW227696   0.091   1.160  14.977  0.1595 -1.2000  0.6375
 5413SOL     OW27697   1.637   0.264   9.438  0.3374 -0.6495  0.1185
 5413SOL    HW127698   1.679   0.244   9.521  0.5964 -0.2213  0.0909
 5413SOL    HW227699   1.716   0.290   9.390  0.0805 -0.0570  0.0121
 5414SOL     OW27700   4.098   2.865   3.537  0.1688 -0.1486  0.0862
 5414SOL    HW127701   4.181   2.860   3.489  1.4804 -1.7568  2.5260
 5414SOL    HW227702   4.129   2.878   3.626  2.1387  0.1722 -0.6458
 5415SOL     OW27703   2.253   2.955   2.808 -0.6104  0.5548 -0.0112
 5415SOL    HW127704   2.198   2.877   2.822 -0.3273  0.3075 -0.2843
 5415SOL    HW227705   2.340   2.915   2.801 -0.4867  0.6844  0.8738
 5416SOL     OW27706   0.749   3.082  10.300  0.5629  0.0241 -0.2000
 5416SOL    HW127707   0.720   3.141  10.368 -0.2297  0.2080 -0.7008
 5416SOL    HW227708   0.810   3.024  10.346  0.5638 -0.0475 -0.2905
 5417SOL     OW27709   4.143   3.612   0.774  0.0806 -0.1765  0.1130
 5417SOL    HW127710   4.051   3.599   0.751  0.3450 -3.4379  0.8095
 5417SOL    HW227711   4.188   3.581   0.696 -0.4974 -0.8934  0.0549
 5418SOL     OW27712   3.161   0.451   9.825 -0.2200  0.4810  0.1881
 5418SOL    HW127713   3.226   0.517   9.850  0.3881 -0.9491  2.3668
 5418SOL    HW227714   3.202   0.423   9.744 -0.7520  1.6046 -0.4781
 5419SOL     OW27715   3.338   1.073  11.630  0.2350  0.1312  0.5006
 5419SOL    HW127716   3.274   1.029  11.575  0.2378  0.9574 -0.1680
 5419SOL    HW227717   3.307   1.045  11.716 -1.2602  0.0552 -0.0673
 5420SOL     OW27718   4.527   0.657  11.464 -0.3805  0.0760  0.0409
 5420SOL    HW127719   4.561   0.713  11.533  1.5373  0.5704 -1.3104
 5420SOL    HW227720   4.568   0.571  11.473 -0.3426  0.1918  0.9377
 5421SOL     OW27721   1.492   2.184   7.928  0.0920 -0.4461  0.3390
 5421SOL    HW127722   1.405   2.150   7.951 -0.8066  0.9091 -1.0799
 5421SOL    HW227723   1.477   2.269   7.888  2.0510  0.9303  2.5260
 5422SOL     OW27724   4.369   1.984   3.132 -0.0846  0.1345  0.7607
 5422SOL    HW127725   4.353   2.027   3.215 -0.7405  1.1290  0.1130
 5422SOL    HW227726   4.332   1.896   3.135 -0.8841  0.4354 -0.2098
 5423SOL     OW27727   2.180   4.692   6.243 -0.2794 -0.1459  0.5265
 5423SOL    HW127728   2.133   0.043   6.203  1.6078  0.0881 -1.2753
 5423SOL    HW227729   2.135   4.682   6.327 -0.7408  2.0653  0.5489
 5424SOL     OW27730   4.397   1.068  14.153 -0.5981 -0.3004  0.6467
 5424SOL    HW127731   4.307   1.095  14.132 -0.4474 -1.0013 -0.8967
 5424SOL    HW227732   4.448   1.146  14.133 -0.4671 -0.7345 -0.6661
 5425SOL     OW27733   0.424   1.571   4.816 -0.5338 -0.4268 -0.0398
 5425SOL    HW127734   0.519   1.572   4.828 -0.5098 -0.5228 -0.2291
 5425SOL    HW227735   0.392   1.629   4.885  0.3946 -2.1151  1.8252
 5426SOL     OW27736   4.295   3.128   5.486 -0.5616 -0.0279 -0.4321
 5426SOL    HW127737   4.276   3.058   5.548  2.4894  0.3461  0.9249
 5426SOL    HW227738   4.369   3.163   5.536  2.1833 -3.8273 -1.8606
 5427SOL     OW27739   2.129   4.465   3.395 -0.2283 -0.4176 -0.4708
 5427SOL    HW127740   2.152   4.424   3.311 -1.8068  0.0734 -1.1357
 5427SOL    HW227741   2.220   4.485   3.417 -0.4708  1.1817 -0.9889
 5428SOL     OW27742   4.490   2.884   9.751 -0.0130 -0.0956  0.0762
 5428SOL    HW127743   4.520   2.794   9.758  1.5163  0.4885  1.0777
 5428SOL    HW227744   4.423   2.879   9.683 -0.7821  0.3098  0.8060
 5429SOL     OW27745   0.736   0.701   0.152 -0.8737  0.3605 -0.1045
 5429SOL    HW127746   0.817   0.677   0.198 -1.8083 -0.4734  1.0931
 5429SOL    HW227747   0.698   0.615   0.134 -0.7152  0.3119 -0.2078
 5430SOL     OW27748   2.341   2.208  14.966  0.2905  0.5355 -0.1050
 5430SOL    HW127749   2.347   2.146  14.893  1.4250 -0.0366  0.4689
 5430SOL    HW227750   2.432   2.200  14.996 -0.5281  0.6697  2.3974
 5431SOL     OW27751   2.010   2.576   7.663 -0.1720 -0.5502  0.0661
 5431SOL    HW127752   2.045   2.513   7.600  2.1558  1.6803 -0.8783
 5431SOL    HW227753   1.924   2.585   7.622  1.3858  0.2625 -3.0531
 5432SOL     OW27754   2.853   3.970  11.343  0.3886 -0.1216  0.0522
 5432SOL    HW127755   2.835   3.876  11.349  0.3190  0.0712  3.0103
 5432SOL    HW227756   2.786   4.014  11.395  0.4002 -2.3356  1.9176
 5433SOL     OW27757   0.880   2.439   0.369  0.1646 -0.1232 -0.5358
 5433SOL    HW127758   0.888   2.531   0.395 -0.0574  0.1665 -1.4804
 5433SOL    HW227759   0.803   2.421   0.424  1.1705 -1.6075  0.3681
 5434SOL     OW27760   2.567   2.232  11.519  0.2421  0.0470 -0.3092
 5434SOL    HW127761   2.574   2.276  11.435  1.6647  1.6702  0.6524
 5434SOL    HW227762   2.484   2.184  11.512  0.8429 -0.9136 -0.8381
 5435SOL     OW27763   2.077   2.322   8.523  0.0053 -0.2933  0.1864
 5435SOL    HW127764   2.162   2.352   8.490  0.9212  0.3462  3.1486
 5435SOL    HW227765   2.055   2.250   8.463 -1.0607 -0.0259  0.2572
 5436SOL     OW27766   0.461   0.931   0.719 -0.2349  0.4641  0.5026
 5436SOL    HW127767   0.380   0.888   0.694  0.2866  0.6976 -1.6780
 5436SOL    HW227768   0.516   0.863   0.680 -0.2701  2.0424 -2.3714
 5437SOL     OW27769   3.880   1.581  17.667  0.0708  0.4146  0.2924
 5437SOL    HW127770   3.874   1.535   0.059 -0.1414  2.6687  1.5052
 5437SOL    HW227771   3.808   1.643  17.671  0.1919  0.4422  1.9964
 5438SOL     OW27772   4.126   3.550  16.103 -0.0405 -0.9273  0.6186
 5438SOL    HW127773   4.088   3.635  16.082  2.2086 -0.0616  0.0671
 5438SOL    HW227774   4.114   3.556  16.198  0.9749  2.3449  0.5179
 5439SOL     OW27775   3.057   2.538   8.099 -0.0956  0.1205 -0.1956
 5439SOL    HW127776   3.054   2.443   8.100  0.2194  0.0753 -3.0338
 5439SOL    HW227777   2.972   2.564   8.135 -0.7356  0.3103 -1.8718
 5440SOL     OW27778   4.469   1.306   2.829  0.5256  0.2562 -0.1616
 5440SOL    HW127779   4.488   1.248   2.903 -0.0178  0.5283  0.1959
 5440SOL    HW227780   4.491   1.389   2.870  0.4498  1.8838 -3.4608
 5441SOL     OW27781   2.490   2.961  14.100 -0.0665 -0.5442 -0.0764
 5441SOL    HW127782   2.516   2.973  14.008  1.1514  2.2699  0.6155
 5441SOL    HW227783   2.396   2.973  14.092 -0.4968 -4.1210 -0.3584
 5442SOL     OW27784   1.533   1.505  11.878  0.8167  0.2476 -0.2664
 5442SOL    HW127785   1.451   1.538  11.916 -0.2569 -1.1039 -1.3985
 5442SOL    HW227786   1.503   1.478  11.791 -1.4739 -0.7851  0.8474
 5443SOL     OW27787   1.033   3.061   1.563  0.3968 -0.0281  0.6950
 5443SOL    HW127788   0.942   3.048   1.536  0.1675  0.2383  1.3451
 5443SOL    HW227789   1.038   3.145   1.608 -1.4056  0.2745  0.3250
 5444SOL     OW27790   3.399   2.996  17.238 -0.2478 -0.3361 -0.2867
 5444SOL    HW127791   3.307   2.990  17.214 -0.0047 -0.7460 -1.1134
 5444SOL    HW227792   3.433   3.021  17.152  0.4078  0.1399  0.1109
 5445SOL     OW27793   4.263   1.096  11.440 -0.1911 -0.4026 -0.2580
 5445SOL    HW127794   4.292   1.006  11.452  0.8082  0.0994  1.0523
 5445SOL    HW227795   4.275   1.096  11.345  0.7671 -1.3022 -0.1387
 5446SOL     OW27796   0.752   1.030   4.377 -0.0095  0.2378  0.2288
 5446SOL    HW127797   0.777   0.978   4.453  0.7657  0.7276  0.3057
 5446SOL    HW227798   0.785   1.117   4.399  3.2775 -0.9360  0.0061
 5447SOL     OW27799   4.417   4.082   3.638  0.2259 -0.3109 -0.0857
 5447SOL    HW127800   4.447   4.005   3.687  0.6376  1.0706  1.8364
 5447SOL    HW227801   4.495   4.137   3.632 -0.6498  0.8475 -0.8584
 5448SOL     OW27802   3.699   2.816  17.651 -0.0481  0.1185 -0.0664
 5448SOL    HW127803   3.778   2.824  17.597  0.7304 -3.6029  0.5527
 5448SOL    HW227804   3.724   2.882   0.024 -0.5229 -0.3484  0.5862
 5449SOL     OW27805   4.701   0.994   3.431  0.3501  0.2708  0.2968
 5449SOL    HW127806   4.681   1.079   3.392 -0.4979  0.1434  0.4718
 5449SOL    HW227807   0.058   1.017   3.479  0.4247  1.8737 -0.6033
 5450SOL     OW27808   1.359   2.945   3.489 -0.1924  0.1860  0.1747
 5450SOL    HW127809   1.443   2.899   3.497 -0.4392  0.0372  1.7424
 5450SOL    HW227810   1.304   2.902   3.554 -0.0885 -0.9221 -0.4795
 5451SOL     OW27811   4.314   4.381   7.259 -0.7451 -0.0096 -0.2083
 5451SOL    HW127812   4.264   4.391   7.340 -1.5857  0.5662 -0.7859
 5451SOL    HW227813   4.290   4.457   7.206 -1.5841  1.1197  1.8329
 5452SOL     OW27814   0.847   2.008  15.305  0.1798 -0.3943 -0.8318
 5452SOL    HW127815   0.893   1.924  15.302 -0.5994 -0.7338 -3.6686
 5452SOL    HW227816   0.764   1.978  15.269  0.8335 -3.6537  0.4077
 5453SOL     OW27817   2.375   4.225  12.955  0.2510  0.4245 -0.1433
 5453SOL    HW127818   2.445   4.278  12.993  2.0873 -0.0185 -2.9603
 5453SOL    HW227819   2.314   4.220  13.029  0.1581  2.0356 -0.1227
 5454SOL     OW27820   1.473   4.490   9.098 -0.1944 -1.0878  1.0106
 5454SOL    HW127821   1.469   4.566   9.040  3.5343 -0.4879  1.5812
 5454SOL    HW227822   1.387   4.500   9.139  0.3093 -0.4571  1.9081
 5455SOL     OW27823   4.045   3.431   9.076  0.5625 -0.9712 -0.5781
 5455SOL    HW127824   4.037   3.447   8.982 -2.4892 -0.7194 -0.2544
 5455SOL    HW227825   4.075   3.518   9.102 -1.2051 -0.5800  0.1339
 5456SOL     OW27826   2.043   4.671   2.258  0.4995  0.2663  0.2193
 5456SOL    HW127827   2.051   0.023   2.198  3.3805 -0.1587  0.0604
 5456SOL    HW227828   2.058   4.720   2.338  0.5409  1.8564 -0.7562
 5457SOL     OW27829   3.386   0.825   6.366 -0.1730  0.2531  0.6441
 5457SOL    HW127830   3.457   0.850   6.425  0.5054 -0.0701 -0.0365
 5457SOL    HW227831   3.444   0.810   6.291 -2.6461 -1.0534 -1.0216
 5458SOL     OW27832   4.078   2.103   7.078 -0.0912 -0.5361  0.0769
 5458SOL    HW127833   4.037   2.049   7.011  0.4344  1.3896 -1.7939
 5458SOL    HW227834   4.013   2.172   7.086  0.4719  0.1215 -0.9263
 5459SOL     OW27835   2.801   2.518  15.695 -0.8711  0.0723 -0.1917
 5459SOL    HW127836   2.712   2.533  15.662 -0.8402  2.6211  0.8478
 5459SOL    HW227837   2.777   2.453  15.760 -0.6904 -0.5012 -0.6957
 5460SOL     OW27838   4.284   1.204   5.585 -0.3082 -0.2585  0.1271
 5460SOL    HW127839   4.366   1.252   5.593 -1.1807  1.0978  0.8934
 5460SOL    HW227840   4.216   1.263   5.618  1.5852  0.8033  2.0959
 5461SOL     OW27841   4.671   4.517   2.308 -0.1405  0.4253 -0.6756
 5461SOL    HW127842   4.658   4.565   2.226 -0.8478  0.8360 -0.3137
 5461SOL    HW227843   0.015   4.451   2.285  1.9498  1.9678  0.9497
 5462SOL     OW27844   2.614   0.181   6.131  0.1607 -0.4527 -0.1862
 5462SOL    HW127845   2.544   0.118   6.146 -1.1177  1.3535  1.3357
 5462SOL    HW227846   2.583   0.253   6.185 -0.8321 -0.8502 -0.2342
 5463SOL     OW27847   1.111   3.410  14.593  0.3477 -0.1138 -0.0897
 5463SOL    HW127848   1.105   3.396  14.688 -1.3926 -1.9407 -0.4582
 5463SOL    HW227849   1.202   3.438  14.594 -0.0079  1.0591 -0.9571
 5464SOL     OW27850   3.132   4.075   9.650  0.3818  0.3290 -0.4925
 5464SOL    HW127851   3.157   3.992   9.609  1.0970 -0.4525  1.4930
 5464SOL    HW227852   3.086   4.121   9.580 -2.4399 -2.6172 -0.6089
 5465SOL     OW27853   0.639   2.240   3.437 -0.1649  0.5321 -0.2211
 5465SOL    HW127854   0.694   2.280   3.504  2.7976  2.0970 -3.6196
 5465SOL    HW227855   0.608   2.308   3.377 -1.3398  3.2521  3.4561
 5466SOL     OW27856   4.718   1.325   2.407  0.0042 -0.3357  0.1824
 5466SOL    HW127857   0.059   1.394   2.387  0.9744 -0.7706  1.8327
 5466SOL    HW227858   4.661   1.323   2.329 -0.8202  0.1756  0.7657
 5467SOL     OW27859   2.244   1.109   1.219 -0.2554  0.0322 -0.2060
 5467SOL    HW127860   2.285   1.030   1.184  0.8572  0.4708  0.1087
 5467SOL    HW227861   2.306   1.172   1.184  1.5868 -1.8840 -0.4353
 5468SOL     OW27862   2.887   2.557   7.557 -0.0346 -0.0712  0.3920
 5468SOL    HW127863   2.873   2.640   7.602  1.5431  0.5021 -0.1713
 5468SOL    HW227864   2.926   2.506   7.628 -1.7238  0.0573  1.4117
 5469SOL     OW27865   3.473   1.508   8.391 -0.2735  0.6071  0.1017
 5469SOL    HW127866   3.446   1.564   8.318  2.1611 -3.1756 -3.7179
 5469SOL    HW227867   3.568   1.501   8.381 -0.2863  1.9408 -1.0603
 5470SOL     OW27868   3.888   3.523   7.804  0.2856 -0.5794  0.2371
 5470SOL    HW127869   3.880   3.485   7.891 -2.1913  1.5265  0.8893
 5470SOL    HW227870   3.799   3.508   7.774 -0.1718  2.8004 -0.0846
 5471SOL     OW27871   4.302   1.562   3.852  0.2554 -0.3759 -0.2892
 5471SOL    HW127872   4.247   1.510   3.792  1.2235  3.1307 -4.1693
 5471SOL    HW227873   4.240   1.548   3.923  3.5975 -2.0312  2.2885
 5472SOL     OW27874   0.991   4.528   6.875 -0.1643 -0.6921 -0.3202
 5472SOL    HW127875   1.081   4.547   6.847 -0.6384  0.7665 -0.8335
 5472SOL    HW227876   0.940   4.575   6.809  1.1599 -0.6957 -1.3355
 5473SOL     OW27877   2.455   2.830   3.540  0.1017  0.2124 -0.2399
 5473SOL    HW127878   2.388   2.777   3.583 -0.1613  1.3433  0.7453
 5473SOL    HW227879   2.472   2.782   3.459 -1.0045 -2.2513  1.0116
 5474SOL     OW27880   0.897   0.818   1.987  0.5601 -0.3573  0.5120
 5474SOL    HW127881   0.981   0.842   1.947  0.2121  0.7796  0.4516
 5474SOL    HW227882   0.914   0.744   2.045  0.0445 -0.6953  0.2326
 5475SOL     OW27883   1.447   3.017   9.120 -0.1051 -0.6944  0.4373
 5475SOL    HW127884   1.440   3.077   9.045  0.7693  0.1666  1.0501
 5475SOL    HW227885   1.495   3.075   9.178  1.2039 -0.4945 -0.8475
 5476SOL     OW27886   2.034   3.230   0.970 -0.2607 -0.7963 -0.0716
 5476SOL    HW127887   2.120   3.223   1.010 -1.2794 -1.2163  2.0301
 5476SOL    HW227888   1.989   3.160   1.017 -0.1182 -0.9142 -0.1128
 5477SOL     OW27889   0.406   4.603   5.491  0.4833  0.7067 -0.2322
 5477SOL    HW127890   0.364   4.604   5.405 -1.3174  1.9080  0.6547
 5477SOL    HW227891   0.413   4.695   5.515 -0.3118  0.4927  0.8525
 5478SOL     OW27892   2.322   2.249  11.840  0.5257  0.0327  0.1945
 5478SOL    HW127893   2.329   2.158  11.866 -0.6587  0.0924  0.7015
 5478SOL    HW227894   2.256   2.277  11.904 -0.7224 -1.5788 -0.3930
 5479SOL     OW27895   1.410   0.935   5.125 -0.2008 -0.0072 -0.4867
 5479SOL    HW127896   1.381   0.922   5.035 -1.7943 -0.5464  0.1151
 5479SOL    HW227897   1.439   1.026   5.117  1.9655 -0.6363  0.1982
 5480SOL     OW27898   2.860   3.653  14.655  0.1042  0.0469 -0.0371
 5480SOL    HW127899   2.831   3.638  14.565  0.2387  0.2853 -0.1203
 5480SOL    HW227900   2.824   3.741  14.666 -0.2677 -0.2555  1.2306
 5481SOL     OW27901   1.731   4.575   4.407 -0.2212  0.1135 -0.1727
 5481SOL    HW127902   1.703   4.487   4.380  0.3349  0.4417 -1.8118
 5481SOL    HW227903   1.817   4.586   4.366 -1.5144  2.2504 -2.2880
 5482SOL     OW27904   2.243   2.180   5.889 -0.1933  0.0968 -0.0171
 5482SOL    HW127905   2.224   2.140   5.804  2.1608 -0.9073 -0.0584
 5482SOL    HW227906   2.316   2.126   5.917  0.6237  1.5074  0.5548
 5483SOL     OW27907   1.230   1.219  16.917 -0.0982 -0.1405  0.3880
 5483SOL    HW127908   1.158   1.217  16.979 -0.5349  1.2776 -0.0795
 5483SOL    HW227909   1.259   1.129  16.905 -0.1609 -0.1526  0.3241
 5484SOL     OW27910   4.313   3.432   8.226  0.2549  0.2421 -0.7802
 5484SOL    HW127911   4.400   3.419   8.263  0.0389 -0.9097 -0.7031
 5484SOL    HW227912   4.316   3.528   8.218 -0.9861  0.2498 -1.2154
 5485SOL     OW27913   1.512   3.486  14.955 -0.6116  0.2067 -0.2371
 5485SOL    HW127914   1.478   3.416  14.899 -1.2737  0.1221  0.2574
 5485SOL    HW227915   1.576   3.518  14.892  0.7047 -0.8250  0.5743
 5486SOL     OW27916   1.798   2.362  12.596 -0.2719  0.4295  0.4685
 5486SOL    HW127917   1.840   2.386  12.678 -1.2474  2.3471  0.3978
 5486SOL    HW227918   1.848   2.420  12.539  1.5660 -0.9527  0.6728
 5487SOL     OW27919   2.275   0.692   1.777  0.1091  0.2285  0.3067
 5487SOL    HW127920   2.371   0.699   1.778 -0.1595  3.6516  2.3150
 5487SOL    HW227921   2.253   0.655   1.862 -0.4106 -3.0464 -1.2790
 5488SOL     OW27922   1.667   0.163   3.187  0.2901 -0.5374  0.0525
 5488SOL    HW127923   1.642   0.140   3.097 -1.0018 -2.4713  0.8948
 5488SOL    HW227924   1.700   0.251   3.169  1.3283 -0.6067  1.6714
 5489SOL     OW27925   0.799   4.259   4.452  0.1992  0.2332  0.0080
 5489SOL    HW127926   0.715   4.247   4.497  0.8318 -0.4853  0.9911
 5489SOL    HW227927   0.820   4.350   4.469  0.3773  0.1729  0.1065
 5490SOL     OW27928   2.964   0.147   6.765  0.5997 -0.1240  0.0977
 5490SOL    HW127929   2.875   0.111   6.761  1.1164 -1.0553 -3.0344
 5490SOL    HW227930   2.951   0.241   6.781  2.8894  0.2041  0.0061
 5491SOL     OW27931   3.863   1.048   2.206  0.0107  0.5182  0.4775
 5491SOL    HW127932   3.849   1.120   2.145  1.6720  0.1847 -0.3228
 5491SOL    HW227933   3.908   1.080   2.284  3.0362 -0.0462 -1.0033
 5492SOL     OW27934   3.356   4.704  12.628  0.4703  0.0544 -0.2068
 5492SOL    HW127935   3.330   0.073  12.637 -2.6534 -0.5063 -3.5392
 5492SOL    HW227936   3.414   4.705  12.704 -0.4451  0.8532  0.4788
 5493SOL     OW27937   0.461   3.009   6.622 -0.2118  0.3802 -0.0358
 5493SOL    HW127938   0.377   3.049   6.599  0.4551  1.4810 -0.5710
 5493SOL    HW227939   0.523   3.080   6.603 -1.0276  1.1995  0.3736
 5494SOL     OW27940   0.714   4.094   2.968 -0.1086 -0.5161  0.2025
 5494SOL    HW127941   0.681   4.183   2.955 -1.6106 -0.9567  0.9365
 5494SOL    HW227942   0.744   4.091   3.059 -3.2186 -3.1815  1.1464
 5495SOL     OW27943   1.351   3.853   6.533 -0.2598  0.5361  0.1023
 5495SOL    HW127944   1.279   3.806   6.491  1.2073 -0.8523 -0.8564
 5495SOL    HW227945   1.368   3.919   6.466  1.6532 -0.3509 -0.2781
 5496SOL     OW27946   2.884   3.725  12.856 -0.3148  0.0455 -0.6932
 5496SOL    HW127947   2.908   3.807  12.814  1.2874  1.3270  2.8257
 5496SOL    HW227948   2.962   3.670  12.864 -1.8930 -2.3889 -1.7653
 5497SOL     OW27949   3.964   3.120   6.854  0.0687  0.3274  0.1601
 5497SOL    HW127950   3.921   3.106   6.939  2.4581 -1.2024  1.1042
 5497SOL    HW227951   3.965   3.041   6.801  0.4563  2.2433 -2.7357
 5498SOL     OW27952   0.828   3.995  15.824  1.0475 -0.2386 -0.6232
 5498SOL    HW127953   0.797   3.960  15.740 -1.6136  2.4378 -0.7417
 5498SOL    HW227954   0.751   3.980  15.878  1.0358 -3.1186 -1.4179
 5499SOL     OW27955   1.237   0.653   8.080 -0.2951  0.5851 -0.0400
 5499SOL    HW127956   1.289   0.618   8.152  0.7212 -1.9825 -2.0354
 5499SOL    HW227957   1.306   0.698   8.032 -0.4504 -1.1577 -1.9147
 5500SOL     OW27958   2.927   1.034   6.947  1.0492 -0.3973  0.2234
 5500SOL    HW127959   3.022   1.022   6.955  0.9881 -1.2607 -0.3376
 5500SOL    HW227960   2.904   0.944   6.925 -0.7425  0.5477 -1.7433
 5501SOL     OW27961   4.136   0.948   8.074  0.0761 -0.9069 -0.4847
 5501SOL    HW127962   4.159   1.017   8.136 -1.3603 -1.8503  1.1107
 5501SOL    HW227963   4.146   0.869   8.127 -0.4148 -0.5358  0.1534
 5502SOL     OW27964   2.976   3.853   8.081 -0.1628  0.1119  0.2379
 5502SOL    HW127965   3.063   3.844   8.042 -0.3765  0.1485 -0.2426
 5502SOL    HW227966   2.922   3.788   8.036 -0.0134 -0.0347  0.2702
 5503SOL     OW27967   2.032   4.252   1.955  0.2713 -0.3416  0.8219
 5503SOL    HW127968   1.962   4.295   1.905  0.7895 -1.2040 -0.6456
 5503SOL    HW227969   2.095   4.231   1.886 -0.5763  0.7259 -0.2733
 5504SOL     OW27970   4.531   2.390   8.632 -0.4103  0.6195  0.8437
 5504SOL    HW127971   4.605   2.330   8.646 -1.0632 -0.5336 -0.6641
 5504SOL    HW227972   4.455   2.332   8.625  0.1030  0.2395 -1.5802
 5505SOL     OW27973   2.028   0.621   6.201  0.2247 -0.8467 -0.3256
 5505SOL    HW127974   1.964   0.682   6.237  1.4624 -0.5753  1.4514
 5505SOL    HW227975   1.998   0.627   6.111 -0.0585  1.1633 -0.0760
 5506SOL     OW27976   1.011   4.694   3.484  0.3937 -0.4378 -0.0065
 5506SOL    HW127977   0.978   4.615   3.442  0.7884 -0.3201 -0.5322
 5506SOL    HW227978   0.980   4.677   3.573  0.9276 -0.3082  0.2082
 5507SOL     OW27979   1.636   4.180   9.370  0.0733 -0.7081 -0.0225
 5507SOL    HW127980   1.702   4.205   9.434 -1.3351  0.3955  1.0014
 5507SOL    HW227981   1.611   4.099   9.415 -0.7594 -1.8994 -2.6141
 5508SOL     OW27982   0.836   2.792   6.641  0.3641 -0.8197  0.2206
 5508SOL    HW127983   0.740   2.795   6.638  0.4346  1.4038 -0.2836
 5508SOL    HW227984   0.865   2.881   6.621  0.8554 -0.9206  0.4947
 5509SOL     OW27985   1.454   3.484   7.343 -0.1653  0.0552 -0.0101
 5509SOL    HW127986   1.466   3.403   7.394 -2.9613 -0.7586 -0.6761
 5509SOL    HW227987   1.535   3.532   7.361  1.3327 -2.0423 -1.1162
 5510SOL     OW27988   2.018   4.491   7.879  0.0864 -0.0937  0.4121
 5510SOL    HW127989   2.109   4.494   7.849  0.5687 -1.5714  1.7284
 5510SOL    HW227990   2.004   4.397   7.895 -3.0283  0.0016 -1.9419
 5511SOL     OW27991   2.176   3.762   0.576  0.0330  0.0842  0.1532
 5511SOL    HW127992   2.097   3.773   0.628  0.4823 -0.9309  1.0700
 5511SOL    HW227993   2.197   3.671   0.599 -1.6012 -0.2301  0.3726
 5512SOL     OW27994   2.111   3.700   2.961  0.2435 -0.3896  0.7570
 5512SOL    HW127995   2.050   3.639   3.002 -1.8714  0.2165 -1.4495
 5512SOL    HW227996   2.125   3.763   3.032  3.5181  1.1786 -1.2688
 5513SOL     OW27997   0.991   1.744   1.506  0.2403 -0.3320 -0.6916
 5513SOL    HW127998   1.002   1.655   1.539 -2.0783 -0.6739 -0.7988
 5513SOL    HW227999   0.925   1.728   1.438  1.4783  0.1559 -2.0087
 5514SOL     OW28000   0.471   3.174  11.344  0.1069  0.0018  0.8233
 5514SOL    HW128001   0.503   3.263  11.353  0.3203  0.1369 -1.2386
 5514SOL    HW228002   0.450   3.162  11.436  0.5088  0.2842  0.9500
 5515SOL     OW28003   1.485   2.551   1.690 -0.5103  0.2430 -0.1900
 5515SOL    HW128004   1.414   2.495   1.659 -0.1600  0.6789 -1.7933
 5515SOL    HW228005   1.514   2.495   1.762  1.7996  0.0702 -1.2522
 5516SOL     OW28006   1.813   2.058   0.126  0.1125 -0.1387 -0.3507
 5516SOL    HW128007   1.752   2.074   0.197 -0.2082  0.7992 -0.8273
 5516SOL    HW228008   1.802   1.966   0.106  2.0271 -0.5742  0.5412
 5517SOL     OW28009   1.375   2.119  11.063 -0.3015 -0.0817  0.2782
 5517SOL    HW128010   1.327   2.197  11.033  0.9541  0.7698  0.4966
 5517SOL    HW228011   1.312   2.085  11.128 -1.9836  2.7149  0.1366
 5518SOL     OW28012   4.262   0.696   3.001 -0.0696  0.3829  0.2940
 5518SOL    HW128013   4.336   0.750   2.973 -0.1670 -0.8104 -2.3120
 5518SOL    HW228014   4.196   0.762   3.021  2.5175  3.2078 -0.5601
 5519SOL     OW28015   4.543   0.694   0.246  0.8465 -0.1658 -0.4779
 5519SOL    HW128016   4.460   0.711   0.291  0.4167  0.9869 -1.6792
 5519SOL    HW228017   4.602   0.705   0.320  1.4934 -0.3685 -0.9668
 5520SOL     OW28018   1.688   0.568  15.022  0.0628  0.0691  0.4212
 5520SOL    HW128019   1.614   0.595  14.968  0.1907 -0.4377 -0.0181
 5520SOL    HW228020   1.660   0.590  15.111  1.7389 -1.2350  1.2870
 5521SOL     OW28021   3.669   1.751   0.073 -0.1776  0.0723  0.4283
 5521SOL    HW128022   3.580   1.765   0.039 -0.2701 -0.2243  0.5489
 5521SOL    HW228023   3.659   1.728   0.165 -1.3062 -0.3092  0.2105
 5522SOL     OW28024   2.944   3.064   4.702 -0.3884 -0.0499  0.2759
 5522SOL    HW128025   3.025   3.033   4.744  0.3058 -0.3123 -1.2638
 5522SOL    HW228026   2.889   3.053   4.780 -0.8150 -1.5274 -0.2370
 5523SOL     OW28027   2.966   0.293   7.656 -0.0658 -0.1090  0.7233
 5523SOL    HW128028   2.953   0.245   7.738 -1.0980  0.1446  0.7150
 5523SOL    HW228029   2.928   0.375   7.687 -0.5535  0.0520 -0.2795
 5524SOL     OW28030   3.388   4.547   5.014  0.0977 -0.1173 -0.0964
 5524SOL    HW128031   3.450   4.602   4.966 -0.4727  1.2801  0.7686
 5524SOL    HW228032   3.410   4.457   4.991 -1.1240  0.2316 -2.6836
 5525SOL     OW28033   1.916   1.804   1.909  0.6597  0.2018 -0.2341
 5525SOL    HW128034   1.894   1.821   2.000  1.2932  0.6981 -0.1757
 5525SOL    HW228035   2.004   1.766   1.906  0.7254  0.2639  1.2171
 5526SOL     OW28036   3.322   2.788   2.537 -0.5178  0.2102 -0.3348
 5526SOL    HW128037   3.414   2.765   2.525 -0.4837 -0.0768  0.4477
 5526SOL    HW228038   3.323   2.805   2.631  1.3647 -1.7126 -0.0122
 5527SOL     OW28039   3.298   2.255   7.962 -0.5920 -0.3681 -0.2554
 5527SOL    HW128040   3.360   2.209   7.905  0.8518  1.7225 -0.3897
 5527SOL    HW228041   3.228   2.190   7.962 -1.5518  0.6776  3.0033
 5528SOL     OW28042   4.544   2.096   2.514  0.1901  0.2143  0.7660
 5528SOL    HW128043   4.523   2.070   2.425  0.7461  1.9947  0.1180
 5528SOL    HW228044   4.535   2.192   2.508 -1.0585  0.0037 -0.7720
 5529SOL     OW28045   4.104   1.115   2.684 -0.1405 -0.2365 -0.3015
 5529SOL    HW128046   4.143   1.186   2.735 -1.7229  1.0221 -0.8443
 5529SOL    HW228047   4.188   1.096   2.643 -0.2622 -0.8158 -0.2832
 5530SOL     OW28048   1.789   3.952   0.564 -0.0135  0.2785  0.5754
 5530SOL    HW128049   1.726   3.944   0.492  0.8049 -0.4052 -0.0556
 5530SOL    HW228050   1.754   4.030   0.608 -1.8994 -0.8775  1.1184
 5531SOL     OW28051   4.353   2.840   6.134 -0.3105 -0.2439  0.0973
 5531SOL    HW128052   4.292   2.775   6.169 -1.2703 -0.3611 -1.8024
 5531SOL    HW228053   4.416   2.830   6.205  0.2192 -0.0450 -0.3447
 5532SOL     OW28054   1.036   2.254   3.988 -0.4774  0.3773 -0.4187
 5532SOL    HW128055   1.115   2.309   3.989 -1.1784  1.3515  0.9468
 5532SOL    HW228056   1.061   2.181   3.931  1.8533 -0.1088  1.2308
 5533SOL     OW28057   0.438   1.472   8.006 -0.3026  0.3651 -1.0497
 5533SOL    HW128058   0.464   1.537   7.941  0.9192  1.0959  0.1554
 5533SOL    HW228059   0.422   1.400   7.946 -1.1983 -0.3728  0.0763
 5534SOL     OW28060   4.714   0.373   5.740  0.0966 -0.9781  0.5174
 5534SOL    HW128061   4.651   0.419   5.796 -2.2872 -1.8222 -1.4387
 5534SOL    HW228062   4.695   0.281   5.754 -0.4640 -0.9895 -0.2998
 5535SOL     OW28063   1.628   3.832   8.076  0.0191 -0.1028  0.3293
 5535SOL    HW128064   1.689   3.795   8.012  0.3105  1.5452 -0.3553
 5535SOL    HW228065   1.679   3.862   8.151  0.0691  0.3861  0.0992
 5536SOL     OW28066   4.044   4.056   6.217  0.5704  0.0340 -0.2872
 5536SOL    HW128067   3.989   4.032   6.291  2.3567  1.2823  1.4357
 5536SOL    HW228068   4.085   3.971   6.198  0.0618 -0.6290  1.5548
 5537SOL     OW28069   0.562   2.735   2.193  0.5816 -0.2949  0.4704
 5537SOL    HW128070   0.512   2.772   2.267 -0.0609  1.4266 -0.8331
 5537SOL    HW228071   0.649   2.774   2.202 -0.1555  1.5609 -0.4443
 5538SOL     OW28072   2.899   1.588   8.601  0.5851 -0.1385 -0.0101
 5538SOL    HW128073   2.960   1.518   8.577  0.6188 -0.9787  2.6198
 5538SOL    HW228074   2.955   1.663   8.578  0.1403 -0.7198 -2.9529
 5539SOL     OW28075   0.723   4.426   4.869  0.4642 -0.3320  0.2314
 5539SOL    HW128076   0.803   4.380   4.845  0.5275 -0.4302  0.6409
 5539SOL    HW228077   0.745   4.480   4.945 -0.7674 -0.9591  1.0298
 5540SOL     OW28078   0.630   2.520   6.156 -0.0107  0.0936  0.2726
 5540SOL    HW128079   0.645   2.597   6.211 -0.7493 -0.8056  1.7355
 5540SOL    HW228080   0.700   2.460   6.181  1.6089  2.5992  1.7708
 5541SOL     OW28081   4.595   3.655  17.421 -0.5725 -0.1939 -0.3392
 5541SOL    HW128082   4.526   3.717  17.396 -0.2409  0.8253  1.3003
 5541SOL    HW228083   4.646   3.707  17.483 -0.5633  1.3148 -1.5764
 5542SOL     OW28084   0.242   4.147   4.620  0.3938  0.7218 -0.5280
 5542SOL    HW128085   0.262   4.239   4.635 -1.5238  1.2569 -1.3277
 5542SOL    HW228086   0.148   4.153   4.607  0.3720 -0.1151 -0.7629
 5543SOL     OW28087   4.277   4.204   6.295 -0.3681 -0.0060  0.0215
 5543SOL    HW128088   4.198   4.151   6.284 -1.0937  1.3475 -1.3000
 5543SOL    HW228089   4.313   4.177   6.380 -3.5164  1.0472  1.6514
 5544SOL     OW28090   3.403   0.081   7.140  0.2628  0.1186  0.1704
 5544SOL    HW128091   3.351   0.035   7.206  0.0915  1.1535  0.7677
 5544SOL    HW228092   3.488   0.043   7.160 -0.3127 -2.6898 -2.6942
 5545SOL     OW28093   4.488   1.645   3.443 -0.2602 -0.2980 -0.1554
 5545SOL    HW128094   4.446   1.566   3.408 -1.3746 -0.1041  0.7280
 5545SOL    HW228095   4.488   1.701   3.366 -0.7456 -1.5468 -1.0611
 5546SOL     OW28096   4.620   4.717  17.030 -0.0422  0.1330 -0.4934
 5546SOL    HW128097   4.550   0.058  17.020  0.7546  1.2553  1.0586
 5546SOL    HW228098   4.668   0.001  16.947  2.5184 -0.0793  0.9623
 5547SOL     OW28099   2.452   0.817  15.340  0.1309 -0.1830 -0.0058
 5547SOL    HW128100   2.535   0.769  15.337  1.3234  1.8591  0.5758
 5547SOL    HW228101   2.477   0.891  15.284  1.4250  1.6177  2.9772
 5548SOL     OW28102   2.259   0.063  11.855  0.3482  0.1529 -0.5697
 5548SOL    HW128103   2.272   4.691  11.859 -0.9568 -0.1367 -3.4155
 5548SOL    HW228104   2.292   0.082  11.943 -1.9213  0.1408  0.2755
 5549SOL     OW28105   3.055   3.490   1.662 -0.4525  0.6937 -0.0130
 5549SOL    HW128106   3.098   3.555   1.718  2.4508  1.2757 -2.9031
 5549SOL    HW228107   3.013   3.540   1.592  1.1370  1.1546 -0.6628
 5550SOL     OW28108   1.130   0.979  10.718 -0.2531 -0.6603  1.0852
 5550SOL    HW128109   1.074   0.989  10.641  0.0425  0.6385  1.0284
 5550SOL    HW228110   1.125   1.063  10.764 -0.6458 -0.3195  0.4085
 5551SOL     OW28111   1.572   2.541  14.245  0.3150 -0.0869 -0.6348
 5551SOL    HW128112   1.600   2.531  14.335 -1.0898 -2.0178 -0.4005
 5551SOL    HW228113   1.650   2.558  14.192  0.4616 -1.7674 -0.9479
 5552SOL     OW28114   4.214   2.498   3.521 -0.1434 -0.2735 -0.0871
 5552SOL    HW128115   4.249   2.434   3.458 -2.3161 -0.5272 -1.0243
 5552SOL    HW228116   4.171   2.434   3.578 -1.2032  1.8007  1.4344
 5553SOL     OW28117   3.487   2.787   9.680  0.5187  0.4059  0.2746
 5553SOL    HW128118   3.446   2.756   9.761  2.8238 -1.1221  0.8489
 5553SOL    HW228119   3.464   2.879   9.692 -2.7227 -0.8011  3.4934
 5554SOL     OW28120   4.053   1.440   2.427 -0.4350  0.2441 -0.2137
 5554SOL    HW128121   4.057   1.482   2.341 -0.1744 -1.0607 -0.8477
 5554SOL    HW228122   4.021   1.352   2.404  0.1397 -0.1982  0.6824
 5555SOL     OW28123   1.561   4.217   1.486  0.0693  1.0939 -0.0501
 5555SOL    HW128124   1.533   4.252   1.401 -2.8749 -2.5799 -0.5846
 5555SOL    HW228125   1.628   4.281   1.511  0.5550  1.0582 -1.2399
 5556SOL     OW28126   3.232   0.296   7.079  0.3212  0.2452  0.0977
 5556SOL    HW128127   3.305   0.237   7.094  0.0275  0.2376  1.5317
 5556SOL    HW228128   3.264   0.374   7.034 -2.3503  1.7908  0.8705
 5557SOL     OW28129   2.598   4.582   4.707 -1.2187  0.2826  0.4864
 5557SOL    HW128130   2.560   4.530   4.636  1.1668  0.8239 -1.1828
 5557SOL    HW228131   2.531   4.646   4.732 -0.9585  0.7306  0.0417
 5558SOL     OW28132   1.890   3.501  14.548 -0.7688  0.4108 -0.5080
 5558SOL    HW128133   1.897   3.409  14.520  1.7046 -0.5649  3.3970
 5558SOL    HW228134   1.919   3.488  14.638 -2.0136 -1.0259 -0.3120
 5559SOL     OW28135   3.738   2.753  11.794 -0.2504 -0.2537  0.5049
 5559SOL    HW128136   3.683   2.730  11.869  0.9665  2.1167  2.1234
 5559SOL    HW228137   3.817   2.699  11.801  0.2180 -0.0767 -3.1800
 5560SOL     OW28138   1.488   3.444   5.421 -0.5053  0.2556  0.0575
 5560SOL    HW128139   1.443   3.459   5.338  1.4188 -1.6820 -1.3447
 5560SOL    HW228140   1.557   3.388   5.386 -2.5097 -2.7938  1.0615
 5561SOL     OW28141   1.846   1.708   6.901 -0.0947  0.3352  0.1948
 5561SOL    HW128142   1.934   1.736   6.877 -0.1164  0.6923  0.5434
 5561SOL    HW228143   1.798   1.784   6.869  2.8436  1.9565 -0.3794
 5562SOL     OW28144   2.468   0.318  12.924  0.0588  0.3365  0.7408
 5562SOL    HW128145   2.436   0.397  12.881 -1.8729 -0.5208  0.6107
 5562SOL    HW228146   2.385   0.285  12.958 -0.7779  1.9835  0.2461
 5563SOL     OW28147   1.031   2.240   9.045  0.0688  0.1088 -0.3353
 5563SOL    HW128148   1.016   2.288   9.126 -3.5528  0.0730 -1.0103
 5563SOL    HW228149   1.097   2.293   9.000  0.8601 -0.2784  0.3794
 5564SOL     OW28150   4.494   0.398   6.257 -0.1195 -0.2136 -0.4552
 5564SOL    HW128151   4.528   0.310   6.274  1.4288  0.2270 -1.2391
 5564SOL    HW228152   4.431   0.380   6.188  0.6705  0.5701 -1.3942
 5565SOL     OW28153   2.991   4.610   4.319  0.3268 -0.3384  0.4330
 5565SOL    HW128154   2.905   4.573   4.301  0.2938 -1.9312  3.7472
 5565SOL    HW228155   2.989   4.624   4.414  1.7678  0.3826  0.3615
 5566SOL     OW28156   0.752   0.113  12.626 -0.0383  0.1876  0.1313
 5566SOL    HW128157   0.831   0.167  12.629 -1.6916  2.5805 -0.0076
 5566SOL    HW228158   0.684   0.179  12.618  0.8209  1.0507 -0.0388
 5567SOL     OW28159   3.418   4.256  10.855 -0.2738  0.2639 -0.0490
 5567SOL    HW128160   3.400   4.346  10.829  0.3817  0.7397  1.1245
 5567SOL    HW228161   3.502   4.246  10.811 -0.7643  0.8894 -1.1022
 5568SOL     OW28162   4.228   0.433   5.400 -0.3480  0.2246  0.0304
 5568SOL    HW128163   4.189   0.345   5.402 -0.9434  0.4232 -2.3003
 5568SOL    HW228164   4.161   0.499   5.381  2.6335  2.3871 -2.9695
 5569SOL     OW28165   1.940   2.641   4.639 -0.7940 -0.4181  0.6590
 5569SOL    HW128166   2.005   2.619   4.705  1.0043 -0.1909 -1.0441
 5569SOL    HW228167   1.899   2.555   4.632 -0.1244 -0.5361 -1.9928
 5570SOL     OW28168   0.498   0.039   7.641  0.6610 -0.5403 -0.1408
 5570SOL    HW128169   0.533   0.097   7.709  2.9090 -0.9867 -0.9152
 5570SOL    HW228170   0.569   0.017   7.580  1.4218 -0.3984  0.6913
 5571SOL     OW28171   2.939   3.047   3.426  0.0327 -0.0725  0.1434
 5571SOL    HW128172   2.959   3.053   3.333 -0.6748  3.4880  0.1992
 5571SOL    HW228173   2.994   2.974   3.453 -0.7847 -0.3381  1.1339
 5572SOL     OW28174   1.215   3.177   8.816 -0.2875  0.1719 -0.6828
 5572SOL    HW128175   1.300   3.199   8.856  0.5177 -1.6884 -1.3612
 5572SOL    HW228176   1.150   3.223   8.869 -1.2215  0.7182 -2.3214
 5573SOL     OW28177   0.817   1.119  11.052  0.2146 -0.4868 -0.5179
 5573SOL    HW128178   0.773   1.201  11.076 -0.5941 -0.9724 -0.3540
 5573SOL    HW228179   0.909   1.146  11.043  0.3189 -1.1279 -1.3443
 5574SOL     OW28180   4.539   3.859  13.755  0.3420  0.1687 -0.6384
 5574SOL    HW128181   4.553   3.771  13.790 -0.6980  0.5368  0.7117
 5574SOL    HW228182   4.562   3.915  13.829  1.4215 -1.6526  0.4124
 5575SOL     OW28183   0.632   4.650   2.053  0.3542  0.4868 -0.3617
 5575SOL    HW128184   0.606   4.715   2.119 -0.2012 -0.3910  0.2899
 5575SOL    HW228185   0.721   4.641   2.086  0.0648  0.9691  0.5518
 5576SOL     OW28186   3.624   3.909   7.470  0.1229  0.0694  0.3540
 5576SOL    HW128187   3.640   3.884   7.561  2.1456  0.0794 -0.0197
 5576SOL    HW228188   3.699   3.869   7.428  0.5686  0.5021  0.7428
 5577SOL     OW28189   2.008   2.846  13.644 -0.2181  0.3395 -0.3903
 5577SOL    HW128190   2.048   2.834  13.730  2.7105  0.6147 -1.7454
 5577SOL    HW228191   1.933   2.901  13.668 -0.1271 -0.2133  1.1618
 5578SOL     OW28192   4.039   4.332  16.240  0.1023 -0.3065  0.3556
 5578SOL    HW128193   3.957   4.365  16.202 -1.6323 -2.6658  2.0551
 5578SOL    HW228194   4.094   4.367  16.169 -1.8478  3.0968  0.5007
 5579SOL     OW28195   2.124   2.445   7.454  0.0172  0.2472 -0.4284
 5579SOL    HW128196   2.212   2.479   7.467 -0.0877 -0.3793  1.8721
 5579SOL    HW228197   2.151   2.357   7.428 -0.5453  0.0272 -0.2665
 5580SOL     OW28198   3.922   3.055   9.087 -0.2330 -0.2309 -0.2999
 5580SOL    HW128199   3.994   3.118   9.083  0.6603 -1.2031  0.6067
 5580SOL    HW228200   3.868   3.082   9.161  2.4369  2.0787  0.8051
 5581SOL     OW28201   2.126   0.506   4.158 -0.2626  0.0211  0.3034
 5581SOL    HW128202   2.088   0.589   4.130 -1.6758  0.6050  3.9770
 5581SOL    HW228203   2.203   0.499   4.101  0.4228  2.9574  0.8556
 5582SOL     OW28204   1.371   2.071   0.169  0.0436 -0.5916 -0.2601
 5582SOL    HW128205   1.299   2.011   0.152  0.3887 -0.4331 -2.2276
 5582SOL    HW228206   1.342   2.119   0.247 -1.1441  0.8881 -1.6135
 5583SOL     OW28207   0.324   1.807   1.154  0.1860 -0.1404  0.2070
 5583SOL    HW128208   0.294   1.779   1.240  1.2602  1.0889  0.9878
 5583SOL    HW228209   0.366   1.887   1.185  0.2036  0.5086 -1.4722
 5584SOL     OW28210   2.297   1.674   5.548  0.2232  0.0998  0.2462
 5584SOL    HW128211   2.299   1.767   5.525  0.4959  0.3797  1.3912
 5584SOL    HW228212   2.386   1.647   5.525 -0.5183 -0.9229 -1.3945
 5585SOL     OW28213   0.726   4.402   8.790  0.1900 -0.1189  0.2839
 5585SOL    HW128214   0.767   4.479   8.829 -1.9968  0.4920  1.4025
 5585SOL    HW228215   0.798   4.341   8.803 -0.2859 -0.8111 -0.2783
 5586SOL     OW28216   1.095   2.778   6.354  0.3682 -0.0497 -0.1977
 5586SOL    HW128217   1.152   2.854   6.367  0.4773 -0.0207 -0.8489
 5586SOL    HW228218   1.048   2.782   6.438  1.1496  1.0636  0.1852
 5587SOL     OW28219   2.952   3.620  12.583  0.7122  0.1179  0.3126
 5587SOL    HW128220   2.885   3.577  12.636  0.4750  0.3791  0.2248
 5587SOL    HW228221   2.917   3.709  12.586  0.7334  0.1523 -0.3431
 5588SOL     OW28222   3.381   4.384  14.615 -0.1694  0.1554 -0.2045
 5588SOL    HW128223   3.445   4.312  14.612  0.1359  0.4595 -1.0092
 5588SOL    HW228224   3.441   4.449  14.579 -0.7293  0.0747 -1.2960
 5589SOL     OW28225   1.418   4.475   4.521  0.5870 -0.1731 -0.7048
 5589SOL    HW128226   1.440   4.464   4.429 -2.1340 -0.8354 -1.2855
 5589SOL    HW228227   1.485   4.534   4.557  0.0034 -0.5329  0.9797
 5590SOL     OW28228   3.471   0.313   1.433  0.1619  0.5047 -0.1089
 5590SOL    HW128229   3.416   0.353   1.500  0.6869 -0.2986  0.8008
 5590SOL    HW228230   3.495   0.398   1.395 -0.2409  0.2600 -0.8900
 5591SOL     OW28231   2.282   0.585   7.017  0.0795  0.5251  0.7561
 5591SOL    HW128232   2.318   0.500   7.042 -2.1421 -0.3531  0.9411
 5591SOL    HW228233   2.283   0.632   7.100 -2.8837  0.7395  0.6880
 5592SOL     OW28234   4.528   4.456   3.507  0.5343  0.6171 -0.2909
 5592SOL    HW128235   4.592   4.410   3.452 -1.0789 -2.1557  0.1085
 5592SOL    HW228236   4.554   4.400   3.580  1.6044 -0.8277 -1.7621
 5593SOL     OW28237   0.816   0.643  15.579 -0.0858  0.1102 -0.4199
 5593SOL    HW128238   0.910   0.662  15.580 -0.2284  0.8147 -0.3478
 5593SOL    HW228239   0.805   0.596  15.497  0.8305  0.5309 -0.7832
 5594SOL     OW28240   0.728   1.216   8.890  0.7740 -0.2865  0.1865
 5594SOL    HW128241   0.761   1.268   8.963 -1.1563 -0.5692  1.2720
 5594SOL    HW228242   0.788   1.255   8.828 -0.1078  0.5343 -0.1557
 5595SOL     OW28243   0.758   1.681   1.365  0.4960 -0.2574 -0.3013
 5595SOL    HW128244   0.773   1.745   1.295  1.1605  0.6734  0.6813
 5595SOL    HW228245   0.785   1.618   1.299  3.7775 -0.4680  1.2200
 5596SOL     OW28246   3.346   1.488   7.352  0.1826 -0.6129  0.2960
 5596SOL    HW128247   3.356   1.573   7.309 -1.1014 -0.0759  1.0754
 5596SOL    HW228248   3.258   1.492   7.388 -0.4737 -0.0292 -1.3690
 5597SOL     OW28249   1.022   1.833  16.296 -0.1192 -0.0741  0.0903
 5597SOL    HW128250   1.029   1.738  16.302 -0.4084 -0.1215 -0.3093
 5597SOL    HW228251   0.944   1.847  16.242 -0.1375  1.4327  0.4926
 5598SOL     OW28252   3.839   3.080   6.362  0.0040 -0.3187  0.2443
 5598SOL    HW128253   3.785   3.157   6.383  0.1114 -1.1098  3.4073
 5598SOL    HW228254   3.783   3.043   6.294 -1.0587  1.0492  0.3659
 5599SOL     OW28255   1.860   0.513   8.066  0.1923 -0.0066 -0.2663
 5599SOL    HW128256   1.852   0.419   8.083 -2.4481  0.2745 -0.0869
 5599SOL    HW228257   1.770   0.523   8.036  0.6363 -0.2856 -1.7084
 5600SOL     OW28258   0.215   4.341  10.746 -0.1459 -0.3685  0.5405
 5600SOL    HW128259   0.304   4.359  10.776  0.5271 -4.3597  0.9283
 5600SOL    HW228260   0.174   4.361  10.830 -1.0120 -0.4371  0.1357
 5601SOL     OW28261   0.969   4.691   0.343 -0.5430  0.7468 -0.0753
 5601SOL    HW128262   1.060   4.695   0.314 -0.1479 -0.6181  0.9971
 5601SOL    HW228263   0.939   4.613   0.298  0.9631 -0.3037  0.7661
 5602SOL     OW28264   2.962   2.420   8.611 -0.1493  0.4334 -0.1936
 5602SOL    HW128265   2.950   2.385   8.523  3.2264  0.0225 -0.4950
 5602SOL    HW228266   2.932   2.347   8.665  0.6570 -0.1157 -0.4907
 5603SOL     OW28267   1.751   1.680   4.358 -0.4478 -0.2265  0.2052
 5603SOL    HW128268   1.810   1.633   4.416  1.0640 -0.1470 -1.2911
 5603SOL    HW228269   1.758   1.766   4.399  1.6740  0.0217 -0.7061
 5604SOL     OW28270   4.479   3.856   8.302  0.1445  0.1496  0.1862
 5604SOL    HW128271   4.404   3.916   8.300 -0.6101 -0.7559  2.3541
 5604SOL    HW228272   4.441   3.794   8.240 -0.6857  0.3997  0.4444
 5605SOL     OW28273   0.778   0.480   6.957  0.4426  0.0834 -0.4253
 5605SOL    HW128274   0.745   0.446   7.040  0.5495 -0.2836 -0.5337
 5605SOL    HW228275   0.763   0.402   6.903 -1.3391  0.6571 -0.7741
 5606SOL     OW28276   0.374   4.081  16.755  0.0667  0.3727  0.2549
 5606SOL    HW128277   0.353   4.053  16.844 -1.8842  2.8567  0.5675
 5606SOL    HW228278   0.426   4.160  16.770 -1.3807  1.2870  0.4417
 5607SOL     OW28279   2.596   2.538  13.326 -0.2447 -0.4279 -0.0574
 5607SOL    HW128280   2.533   2.504  13.389 -1.8676 -1.6593 -2.3621
 5607SOL    HW228281   2.561   2.618  13.287 -1.1875 -1.2662 -0.9065
 5608SOL     OW28282   1.550   1.090   8.500 -0.0131  0.0477 -0.3232
 5608SOL    HW128283   1.630   1.135   8.528  0.2243 -1.0965  0.8863
 5608SOL    HW228284   1.580   1.061   8.414  1.0964  0.0251  0.0647
 5609SOL     OW28285   1.337   0.222  10.881  0.0081 -0.0256  0.1021
 5609SOL    HW128286   1.411   0.276  10.853 -1.1342 -0.6997 -4.1335
 5609SOL    HW228287   1.269   0.289  10.895 -0.6205 -0.1827 -2.1987
 5610SOL     OW28288   4.466   1.120   6.208  0.2093  0.0356 -0.2591
 5610SOL    HW128289   4.470   1.045   6.149  3.9164 -1.3423  1.7423
 5610SOL    HW228290   4.556   1.154   6.203  0.3376 -0.1546  0.8792
 5611SOL     OW28291   4.216   0.854   6.185 -0.0083 -0.3626 -0.7339
 5611SOL    HW128292   4.170   0.937   6.200 -1.7788 -1.0847 -2.1183
 5611SOL    HW228293   4.275   0.868   6.111  0.9229  0.2985  0.1376
 5612SOL     OW28294   1.806   2.281   1.929 -0.3790  0.1010 -0.7701
 5612SOL    HW128295   1.843   2.195   1.906  0.1286 -0.0385  0.5448
 5612SOL    HW228296   1.863   2.302   2.003 -1.6066 -2.7313  0.9714
 5613SOL     OW28297   2.263   1.160  14.217  0.2283 -0.6866  0.2517
 5613SOL    HW128298   2.280   1.224  14.287  1.1255 -1.8589  1.1049
 5613SOL    HW228299   2.167   1.166  14.220  0.3512  2.2669 -1.6813
 5614SOL     OW28300   2.913   2.337  15.461  0.4235  0.3121  0.5146
 5614SOL    HW128301   2.916   2.368  15.552  1.7679  0.7383  0.3167
 5614SOL    HW228302   2.898   2.243  15.469  1.8139 -0.3702 -4.7816
 5615SOL     OW28303   0.505   4.222   9.829  0.1427 -0.1291 -0.2771
 5615SOL    HW128304   0.543   4.184   9.750  0.4308  1.1428 -0.7548
 5615SOL    HW228305   0.422   4.253   9.792  0.3708  1.2659  0.3503
 5616SOL     OW28306   4.115   3.005   7.688  0.2859 -0.3626  0.1690
 5616SOL    HW128307   4.197   2.957   7.701  2.3806  3.3595  0.6505
 5616SOL    HW228308   4.154   3.077   7.640  1.7390 -0.4100  1.2783
 5617SOL     OW28309   3.510   3.465   3.018  0.5441  0.5434  0.2667
 5617SOL    HW128310   3.439   3.428   3.070  1.1597  0.9313  1.3892
 5617SOL    HW228311   3.474   3.447   2.931 -0.3023  0.6642  0.5925
 5618SOL     OW28312   0.673   4.438   1.085  0.3700 -0.3556  0.1151
 5618SOL    HW128313   0.719   4.396   1.013  1.7248  1.2647  0.0123
 5618SOL    HW228314   0.589   4.450   1.041  0.9479  1.0701 -0.6358
 5619SOL     OW28315   1.261   4.546   7.392 -1.5457 -0.2152  0.4894
 5619SOL    HW128316   1.225   4.634   7.402  0.3487  0.4443  1.5908
 5619SOL    HW228317   1.305   4.527   7.475  1.6437 -0.1652 -1.1795
 5620SOL     OW28318   2.640   4.068  11.482 -0.3289 -0.3065 -0.1384
 5620SOL    HW128319   2.552   4.081  11.446 -0.2583  0.1768 -0.1322
 5620SOL    HW228320   2.609   4.049  11.571 -0.4810  1.1267  0.1023
 5621SOL     OW28321   1.300   2.595   7.659  0.4057  0.3783  0.2364
 5621SOL    HW128322   1.300   2.676   7.607  3.9725  0.9708  1.1697
 5621SOL    HW228323   1.213   2.563   7.634  0.6443 -1.5177  1.8214
 5622SOL     OW28324   0.752   0.981   8.041  0.1884  0.3047  0.4652
 5622SOL    HW128325   0.784   0.892   8.029  0.3851  0.6635 -1.7698
 5622SOL    HW228326   0.823   1.023   8.090  0.5419  0.4570 -0.1774
 5623SOL     OW28327   0.648   2.908   4.252  0.0007 -0.3661 -0.0170
 5623SOL    HW128328   0.711   2.934   4.319  0.1566 -2.0869  0.5112
 5623SOL    HW228329   0.673   2.977   4.191  1.1747 -1.0641 -0.3061
 5624SOL     OW28330   1.122   1.695   8.177  0.1133  0.1477  0.1507
 5624SOL    HW128331   1.181   1.682   8.103 -1.0523 -0.8293 -0.6095
 5624SOL    HW228332   1.135   1.787   8.196  0.1988 -0.0278  0.9259
 5625SOL     OW28333   4.621   0.657   3.806  0.1405 -0.3682 -0.1215
 5625SOL    HW128334   4.663   0.606   3.876 -2.7423 -2.3356  0.2038
 5625SOL    HW228335   4.682   0.637   3.736 -0.6395 -0.6053 -0.7323
 5626SOL     OW28336   4.179   0.623  10.135  0.4043 -0.1593  0.4604
 5626SOL    HW128337   4.255   0.680  10.150  0.1410  0.5980 -1.0726
 5626SOL    HW228338   4.211   0.562  10.069 -2.3004 -2.0989  0.9751
 5627SOL     OW28339   0.521   0.940   7.571  0.5911 -0.0637 -0.0794
 5627SOL    HW128340   0.492   0.921   7.482  0.1867 -1.4210  0.3333
 5627SOL    HW228341   0.444   0.977   7.613  1.2951 -0.4026  1.5241
 5628SOL     OW28342   4.718   4.032   6.289 -0.2189  0.3649  0.7783
 5628SOL    HW128343   0.090   4.016   6.288 -0.4979 -1.1285 -0.9816
 5628SOL    HW228344   4.698   4.031   6.383  1.6562 -0.5913  1.1689
 5629SOL     OW28345   3.252   2.169   8.710 -1.0555  0.8815 -0.0578
 5629SOL    HW128346   3.296   2.085   8.723 -2.5375  0.0161 -0.6215
 5629SOL    HW228347   3.211   2.159   8.624 -0.6645  3.9571 -0.6172
 5630SOL     OW28348   0.756   3.779   3.814  0.3827 -0.3687 -0.4914
 5630SOL    HW128349   0.799   3.859   3.785 -1.0925 -0.4323 -2.7778
 5630SOL    HW228350   0.677   3.826   3.839  0.8499  1.4851 -2.5508
 5631SOL     OW28351   3.857   0.095   7.945 -0.6209  0.2992 -0.0631
 5631SOL    HW128352   3.824   0.041   7.874 -0.1970 -0.4048  0.2762
 5631SOL    HW228353   3.931   0.042   7.975  0.5244  2.0172  0.2048
 5632SOL     OW28354   4.548   2.288   6.970 -0.2132 -0.0056 -0.4117
 5632SOL    HW128355   4.566   2.298   6.876  1.8053 -1.8093 -0.2150
 5632SOL    HW228356   4.528   2.195   6.971  0.3125 -0.1287 -0.9860
 5633SOL     OW28357   0.368   0.637   3.460 -0.6111 -0.1896  0.1484
 5633SOL    HW128358   0.456   0.621   3.425 -0.6360 -0.8575  0.3791
 5633SOL    HW228359   0.319   0.661   3.382  0.2569  1.1374  0.0119
 5634SOL     OW28360   4.652   2.201   5.241  0.4988 -0.5727 -0.3551
 5634SOL    HW128361   4.708   2.128   5.213 -0.1304 -0.5023 -1.8112
 5634SOL    HW228362   4.704   2.268   5.196  2.1366 -2.2856 -1.0115
 5635SOL     OW28363   3.007   0.339   8.484 -0.0541  0.3024  0.5637
 5635SOL    HW128364   2.963   0.298   8.410  1.9057 -1.6391  0.4625
 5635SOL    HW228365   3.076   0.281   8.516 -0.8853 -0.4561  0.9873
 5636SOL     OW28366   2.505   2.328   3.828 -0.2700  0.1218 -0.2520
 5636SOL    HW128367   2.566   2.273   3.878 -3.5687 -1.3977  2.0657
 5636SOL    HW228368   2.538   2.326   3.738 -0.6180 -1.5374 -0.3258
 5637SOL     OW28369   3.451   0.058   1.359 -0.1235 -0.3212 -0.5378
 5637SOL    HW128370   3.449   0.153   1.371 -2.3162 -0.7804  2.7492
 5637SOL    HW228371   3.536   0.051   1.316  0.4060 -0.3812  0.5357
 5638SOL     OW28372   2.116   0.821  15.371  0.2799  0.5574 -0.6076
 5638SOL    HW128373   2.149   0.847  15.285 -0.7296  0.0184 -1.1653
 5638SOL    HW228374   2.167   0.741  15.389 -2.9930 -1.4746 -0.3464
 5639SOL     OW28375   2.354   1.656   2.839 -0.1090  0.5859 -0.6450
 5639SOL    HW128376   2.383   1.692   2.755  2.6345 -1.4619 -0.5562
 5639SOL    HW228377   2.313   1.577   2.804 -0.1922 -0.9794  2.9928
 5640SOL     OW28378   2.384   2.053  17.633 -0.1726 -0.0858 -0.1866
 5640SOL    HW128379   2.467   2.097  17.620  0.6565 -1.0022  1.9421
 5640SOL    HW228380   2.418   1.965  17.648 -3.7195 -1.0714  2.1376
 5641SOL     OW28381   2.797   1.259  11.770 -0.0319  0.3348  0.7817
 5641SOL    HW128382   2.871   1.297  11.819  1.6557 -1.5663 -0.3200
 5641SOL    HW228383   2.796   1.305  11.686  1.9004  0.0406  0.6036
 5642SOL     OW28384   2.999   2.925   6.472 -0.1072  0.2383 -0.3523
 5642SOL    HW128385   3.000   3.020   6.462  1.3519 -0.0860 -3.2821
 5642SOL    HW228386   3.088   2.890   6.466 -0.1920  0.0437 -0.4557
 5643SOL     OW28387   3.434   3.363   6.137 -0.0880  0.2847 -0.1810
 5643SOL    HW128388   3.489   3.353   6.059 -2.5624 -0.6017 -1.8244
 5643SOL    HW228389   3.373   3.433   6.112  0.7128  0.8089 -0.6860
 5644SOL     OW28390   2.134   0.470   3.502  0.3401  0.1940 -0.0034
 5644SOL    HW128391   2.110   0.388   3.459 -0.6402 -0.4165  1.7035
 5644SOL    HW228392   2.214   0.444   3.548  0.1718 -0.4820 -0.0961
 5645SOL     OW28393   2.277   1.293   7.505  0.2378 -0.3833 -0.0363
 5645SOL    HW128394   2.235   1.217   7.546 -0.3694  0.9118  1.7386
 5645SOL    HW228395   2.201   1.343   7.476  1.5668  1.6004 -0.0954
 5646SOL     OW28396   0.263   3.300   5.515  0.1221 -0.4917 -0.7101
 5646SOL    HW128397   0.200   3.233   5.542  2.0336 -2.4334 -1.1139
 5646SOL    HW228398   0.339   3.243   5.504  0.0542 -0.4882 -1.2234
 5647SOL     OW28399   1.985   2.305   2.109 -0.8356  0.0559  0.1964
 5647SOL    HW128400   2.025   2.226   2.074  0.6685  0.2813  1.4023
 5647SOL    HW228401   2.054   2.336   2.168 -0.7878  3.2683 -1.5102
 5648SOL     OW28402   2.192   1.859   4.887  0.0797  0.2258 -0.9768
 5648SOL    HW128403   2.247   1.804   4.942 -1.3130  1.4764  1.6753
 5648SOL    HW228404   2.232   1.944   4.907 -0.6254  0.1037  1.0132
 5649SOL     OW28405   4.278   0.710   5.687 -0.3813 -0.3515  0.3837
 5649SOL    HW128406   4.255   0.799   5.712  0.6148  0.4067 -1.3794
 5649SOL    HW228407   4.191   0.673   5.678  0.5482 -2.5490  0.3292
 5650SOL     OW28408   2.412   4.699   0.926  0.5291 -0.2210  0.5006
 5650SOL    HW128409   2.323   4.704   0.893  0.3730  0.0848  0.9681
 5650SOL    HW228410   2.440   0.065   0.951 -1.6867  0.2459  1.2567
 5651SOL     OW28411   2.888   3.349  17.547  0.5951 -0.0964  0.6630
 5651SOL    HW128412   2.974   3.390  17.538  0.6486 -0.6279 -1.1682
 5651SOL    HW228413   2.918   3.287  17.614 -1.3974 -1.3782  0.3704
 5652SOL     OW28414   0.420   1.147  13.401  0.2491 -0.0349 -0.6874
 5652SOL    HW128415   0.495   1.102  13.360 -0.4541 -1.1237 -0.7757
 5652SOL    HW228416   0.467   1.217  13.446  0.4248  0.2319 -1.2802
 5653SOL     OW28417   2.575   2.446   5.642 -0.6295 -0.0935  0.0574
 5653SOL    HW128418   2.638   2.382   5.675 -1.0614 -0.4741  0.1287
 5653SOL    HW228419   2.559   2.405   5.557  2.9834 -1.1427 -0.1147
 5654SOL     OW28420   3.049   4.518   5.399  0.6644  0.2711  0.0236
 5654SOL    HW128421   3.052   4.534   5.305  0.5496 -0.4374 -0.0996
 5654SOL    HW228422   3.100   4.593   5.430  0.5060  1.3052 -2.2013
 5655SOL     OW28423   3.051   2.181   1.465 -0.1677  0.0241  0.5565
 5655SOL    HW128424   3.095   2.100   1.491  0.2571 -0.8508 -2.9268
 5655SOL    HW228425   3.070   2.241   1.537 -0.9288  1.8727 -0.8048
 5656SOL     OW28426   0.184   0.857   7.001  0.3433 -0.2905  0.1397
 5656SOL    HW128427   0.245   0.931   7.005 -1.2864  0.9460  1.9756
 5656SOL    HW228428   0.196   0.833   6.909  2.0726  0.1014  0.2713
 5657SOL     OW28429   0.684   0.770   4.535 -0.2600 -0.6326 -0.0417
 5657SOL    HW128430   0.725   0.703   4.589  3.3422  0.0202 -1.9533
 5657SOL    HW228431   0.732   0.750   4.455 -0.0414 -1.0324  0.1934
 5658SOL     OW28432   4.254   0.487   3.217  0.3368 -0.1941 -0.2329
 5658SOL    HW128433   4.167   0.515   3.243  1.0068  2.4898 -0.9040
 5658SOL    HW228434   4.278   0.557   3.157 -1.1975  1.6450  1.3274
 5659SOL     OW28435   0.602   3.238   4.868 -0.4995 -0.1249 -0.0725
 5659SOL    HW128436   0.589   3.179   4.943  1.2982 -0.6634 -0.1895
 5659SOL    HW228437   0.539   3.308   4.884 -0.3774 -0.4453  1.8497
 5660SOL     OW28438   3.691   0.671  13.265 -0.1962 -0.0073 -0.1486
 5660SOL    HW128439   3.646   0.587  13.269 -0.0562 -0.0160  1.1527
 5660SOL    HW228440   3.751   0.652  13.337  0.6773 -0.8508 -1.0876
 5661SOL     OW28441   1.030   3.289   0.816 -0.0281  0.4004 -0.0723
 5661SOL    HW128442   0.995   3.211   0.773 -0.0593 -1.3004  3.0966
 5661SOL    HW228443   1.084   3.321   0.744 -2.4219  0.0218 -2.0618
 5662SOL     OW28444   2.560   0.215   6.586  0.0147 -0.9190  0.4199
 5662SOL    HW128445   2.504   0.278   6.632  0.2247 -0.6442  0.3039
 5662SOL    HW228446   2.493   0.156   6.552 -0.8703  0.9620 -1.0847
 5663SOL     OW28447   2.175   0.542  16.870  0.0093  0.0153 -0.2074
 5663SOL    HW128448   2.177   0.627  16.826  0.5862  0.3258  0.4196
 5663SOL    HW228449   2.134   0.482  16.808  1.2719 -1.7563  0.6692
 5664SOL     OW28450   0.438   3.484  12.371  0.0053 -0.1981  0.1138
 5664SOL    HW128451   0.495   3.550  12.410 -2.9003  0.4884  3.1792
 5664SOL    HW228452   0.478   3.484  12.284 -1.6707  1.8162 -0.6730
 5665SOL     OW28453   4.621   0.083   3.011 -0.5180  0.2762 -0.2289
 5665SOL    HW128454   4.531   0.051   3.020  0.8042 -2.7386  2.5340
 5665SOL    HW228455   4.641   0.048   2.925 -0.6295 -0.5465  0.0762
 5666SOL     OW28456   0.566   4.484   9.487  0.3682  0.1729  0.0333
 5666SOL    HW128457   0.502   4.414   9.473 -0.2701  0.3425  2.1055
 5666SOL    HW228458   0.517   4.520   9.561  0.6603  1.3315 -0.3447
 5667SOL     OW28459   3.323   1.366   7.031  0.2738 -0.2494 -0.0867
 5667SOL    HW128460   3.344   1.427   6.960  0.8073 -0.2167  0.0985
 5667SOL    HW228461   3.414   1.336   7.042  0.0792 -0.7839  0.0881
 5668SOL     OW28462   1.115   0.391  15.727 -0.3055  0.3574 -0.0163
 5668SOL    HW128463   1.078   0.305  15.707  2.1115 -0.6076 -0.3797
 5668SOL    HW228464   1.187   0.358  15.782  0.7813  0.5134 -1.3649
 5669SOL     OW28465   2.767   2.013  11.834  0.0594 -0.3204 -0.3774
 5669SOL    HW128466   2.816   1.968  11.903  0.4193 -1.0753 -1.1219
 5669SOL    HW228467   2.828   2.064  11.780  0.5549  0.4612  0.9010
 5670SOL     OW28468   3.559   4.416   0.190 -0.4325  0.7876  0.7817
 5670SOL    HW128469   3.552   4.331   0.233 -0.9957  0.5720  0.2696
 5670SOL    HW228470   3.566   4.385   0.100  1.0558 -2.2131  1.9136
 5671SOL     OW28471   2.920   0.450   2.977 -0.0198 -0.1462 -0.3647
 5671SOL    HW128472   2.986   0.393   3.016  0.0657  0.0076 -0.2892
 5671SOL    HW228473   2.851   0.389   2.950 -0.5970  1.6324 -2.9004
 5672SOL     OW28474   1.296   4.231  15.696  0.1190 -0.4409 -0.3836
 5672SOL    HW128475   1.265   4.203  15.783 -0.3461  0.9874 -0.0876
 5672SOL    HW228476   1.244   4.168  15.646 -0.4177 -1.8491  1.9356
 5673SOL     OW28477   3.373   2.503   6.361 -0.8164  0.2345 -0.4512
 5673SOL    HW128478   3.368   2.443   6.435  0.7521  0.7850  0.0997
 5673SOL    HW228479   3.302   2.561   6.387 -0.6642 -0.2553  1.0112
 5674SOL     OW28480   1.245   2.025  16.247 -0.0816 -0.5278 -0.0901
 5674SOL    HW128481   1.283   1.979  16.322  3.8060  1.3319 -0.9753
 5674SOL    HW228482   1.157   1.986  16.238  0.5819 -2.5313  1.9642
 5675SOL     OW28483   1.840   0.898  15.352 -0.8859  0.3089 -0.6253
 5675SOL    HW128484   1.934   0.900  15.370 -0.7081 -0.3197 -1.4916
 5675SOL    HW228485   1.837   0.887  15.257 -2.1043  0.8814 -0.6453
 5676SOL     OW28486   1.846   2.208   7.784  0.0016  0.2942 -0.4155
 5676SOL    HW128487   1.806   2.234   7.701 -1.3873  3.6505  1.2746
 5676SOL    HW228488   1.767   2.177   7.829 -0.1620  1.1021 -0.1399
 5677SOL     OW28489   0.582   2.940   5.439 -0.4069  0.2547 -0.1400
 5677SOL    HW128490   0.675   2.959   5.438 -0.4412  0.4668  0.6785
 5677SOL    HW228491   0.587   2.860   5.492  1.2211  0.0183 -0.6506
 5678SOL     OW28492   4.719   3.552   9.030 -0.2926 -0.0947 -0.3875
 5678SOL    HW128493   0.036   3.507   9.104 -3.0703 -0.8269  0.6738
 5678SOL    HW228494   0.061   3.621   9.019  0.5592 -0.9034 -0.4140
 5679SOL     OW28495   2.884   2.324   0.267  0.4634  0.2090  0.0521
 5679SOL    HW128496   2.819   2.353   0.332 -1.8968  0.4248 -2.4161
 5679SOL    HW228497   2.929   2.406   0.245 -0.1502 -0.2844 -3.0600
 5680SOL     OW28498   2.756   0.609   0.237  0.0952  0.3070  0.2516
 5680SOL    HW128499   2.821   0.612   0.307  2.1348  0.4786 -1.6486
 5680SOL    HW228500   2.795   0.647   0.158  0.3543  1.4906  0.9500
 5681SOL     OW28501   0.211   2.912  15.283  0.2575  0.2380 -0.3095
 5681SOL    HW128502   0.273   2.846  15.253 -1.2237 -0.4518 -1.8486
 5681SOL    HW228503   0.260   2.990  15.256  1.4969  0.1802  1.7745
 5682SOL     OW28504   1.732   0.226  16.248  0.3050  0.0212  0.1337
 5682SOL    HW128505   1.713   0.149  16.301  1.0078 -0.7989 -0.8051
 5682SOL    HW228506   1.781   0.190  16.174  2.7397  1.5663  1.0031
 5683SOL     OW28507   0.425   4.580   1.679 -0.1826 -0.5236 -0.0311
 5683SOL    HW128508   0.440   4.668   1.712 -1.0296 -0.4704  0.2156
 5683SOL    HW228509   0.501   4.563   1.623  0.5345 -1.5230  1.2349
 5684SOL     OW28510   1.366   0.354   1.615 -0.2826 -0.0740  0.6190
 5684SOL    HW128511   1.295   0.412   1.586 -1.3693 -1.6750  0.0312
 5684SOL    HW228512   1.327   0.296   1.679  0.2760 -1.4171 -0.2437
 5685SOL     OW28513   1.751   1.962   4.062 -0.2633  0.9446  0.1078
 5685SOL    HW128514   1.668   1.959   4.109  1.4206  1.5365  3.1037
 5685SOL    HW228515   1.783   2.049   4.084 -0.3476  0.9993  0.0165
 5686SOL     OW28516   2.386   3.106  11.446 -0.1372  0.0403 -0.1916
 5686SOL    HW128517   2.295   3.086  11.467  0.3410 -2.7868 -0.7673
 5686SOL    HW228518   2.363   3.109  11.353  0.8423 -1.9154 -0.4865
 5687SOL     OW28519   3.677   0.006  13.210 -0.1855  0.3374  0.4023
 5687SOL    HW128520   3.607   4.679  13.168 -0.0749 -0.3502  1.0258
 5687SOL    HW228521   3.654   0.089  13.168 -0.7844  0.5289  1.1060
 5688SOL     OW28522   2.710   2.333  15.855  1.1256  1.0130  0.4027
 5688SOL    HW128523   2.723   2.347  15.949  1.6756  0.1519  0.4567
 5688SOL    HW228524   2.630   2.280  15.854  1.5224  0.3805  1.4916
 5689SOL     OW28525   0.365   3.704   7.055  0.0221 -0.1793  0.1443
 5689SOL    HW128526   0.375   3.797   7.072  2.5019 -0.5130  0.4824
 5689SOL    HW228527   0.453   3.674   7.033  0.3723  0.4112  0.7495
 5690SOL     OW28528   3.181   1.747   4.198 -0.5950 -0.1494 -0.1403
 5690SOL    HW128529   3.186   1.668   4.253  1.3306  0.4764  0.5776
 5690SOL    HW228530   3.163   1.801   4.275  1.5411 -0.4049  0.5307
 5691SOL     OW28531   0.212   3.066  14.418 -0.2156 -0.4492 -0.1247
 5691SOL    HW128532   0.155   3.142  14.408 -0.7265 -0.8181 -0.0126
 5691SOL    HW228533   0.299   3.102  14.402  1.0953 -2.0985  3.4269
 5692SOL     OW28534   0.926   2.258   4.459  0.2164  0.1168  0.1942
 5692SOL    HW128535   0.966   2.187   4.409  0.0912 -0.1048  0.4069
 5692SOL    HW228536   0.835   2.238   4.441  1.3772 -1.8602 -3.4147
 5693SOL     OW28537   0.401   1.371   6.850  0.1892  0.7058 -0.1234
 5693SOL    HW128538   0.470   1.306   6.841  1.7033  1.9924  2.3023
 5693SOL    HW228539   0.423   1.421   6.771  0.0506  0.1248 -0.5285
 5694SOL     OW28540   0.410   3.992   5.280  0.6107 -0.7435  0.3199
 5694SOL    HW128541   0.456   4.027   5.357  0.9860 -1.5136  0.4402
 5694SOL    HW228542   0.427   4.070   5.227 -2.8039 -0.5049 -0.4174
 5695SOL     OW28543   1.142   4.332   4.368 -0.7043 -0.0385 -0.1010
 5695SOL    HW128544   1.075   4.278   4.326  0.5159 -1.1748 -0.6018
 5695SOL    HW228545   1.143   4.412   4.315  0.9672  0.9904  1.4599
 5696SOL     OW28546   1.653   0.841  12.326 -0.2036 -0.0048 -0.3280
 5696SOL    HW128547   1.630   0.900  12.398 -1.2428  1.2375 -1.6767
 5696SOL    HW228548   1.593   0.767  12.320  1.0472 -0.9955 -0.5769
 5697SOL     OW28549   0.064   3.647  14.124 -0.6741  0.4771 -0.4581
 5697SOL    HW128550   0.152   3.677  14.148 -0.2505 -0.4071 -0.9061
 5697SOL    HW228551   0.089   3.555  14.116 -1.1715  0.1635  1.5476
 5698SOL     OW28552   3.788   3.847   3.465  0.2045  0.3303 -0.0560
 5698SOL    HW128553   3.717   3.782   3.459  0.9684 -0.4625 -0.5126
 5698SOL    HW228554   3.793   3.870   3.372 -1.5581 -0.9720 -0.4824
 5699SOL     OW28555   2.734   2.779   7.090  0.1870  0.4358  0.3509
 5699SOL    HW128556   2.723   2.854   7.149 -1.7399 -0.5626  1.2603
 5699SOL    HW228557   2.757   2.822   7.007  0.8306  1.6332  1.1480
 5700SOL     OW28558   0.004   2.879   2.110 -0.0088  0.4222  0.1923
 5700SOL    HW128559   4.705   2.966   2.144 -0.4946  0.5931 -0.5584
 5700SOL    HW228560   4.686   2.825   2.178  0.5866 -1.2776 -0.7966
 5701SOL     OW28561   4.197   0.662  13.280 -0.5061 -0.8705  1.0439
 5701SOL    HW128562   4.220   0.727  13.213 -1.0972 -1.3539  0.3721
 5701SOL    HW228563   4.249   0.695  13.353 -1.3319  1.0302  0.7642
 5702SOL     OW28564   3.805   4.139   6.108  0.2646 -0.3223 -0.1168
 5702SOL    HW128565   3.886   4.112   6.150 -1.1296 -0.8640  2.2256
 5702SOL    HW228566   3.794   4.232   6.128  2.8174 -0.0735  0.0818
 5703SOL     OW28567   0.567   0.331  14.058 -0.4031 -0.2268  0.2297
 5703SOL    HW128568   0.475   0.325  14.032 -0.1927 -3.1730  0.1374
 5703SOL    HW228569   0.566   0.348  14.152  1.3597 -2.7429  0.7058
 5704SOL     OW28570   0.249   0.496   6.793 -0.1085 -0.6552 -0.0002
 5704SOL    HW128571   0.296   0.564   6.745 -1.3944  0.5474  0.4696
 5704SOL    HW228572   0.316   0.479   6.859  0.6553 -0.9861 -0.8575
 5705SOL     OW28573   3.516   1.068   0.274 -0.5549 -0.5809  0.1113
 5705SOL    HW128574   3.495   1.152   0.315  0.9986  0.3878 -1.0604
 5705SOL    HW228575   3.498   1.091   0.183 -0.8962  1.2329  0.6481
 5706SOL     OW28576   0.413   0.381   8.149  0.1751  0.3761  0.7645
 5706SOL    HW128577   0.331   0.429   8.135 -0.4286  0.2471  4.0427
 5706SOL    HW228578   0.371   0.300   8.179  2.6386 -1.3365 -0.3874
 5707SOL     OW28579   1.638   2.719  11.102 -0.3320  0.0284 -0.3750
 5707SOL    HW128580   1.552   2.678  11.094  0.3993 -1.2322 -1.6529
 5707SOL    HW228581   1.698   2.645  11.113  1.1301  1.0818 -1.2339
 5708SOL     OW28582   2.930   2.299  13.675  0.0421 -0.2800  0.0353
 5708SOL    HW128583   2.924   2.214  13.718 -0.9283  0.0325  0.5164
 5708SOL    HW228584   3.014   2.298  13.629  0.4990  0.3990  0.8613
 5709SOL     OW28585   1.616   0.511   4.554 -0.2829 -0.6204 -0.3863
 5709SOL    HW128586   1.665   0.566   4.615  0.2809 -1.7827  0.2137
 5709SOL    HW228587   1.680   0.441   4.545  1.1394  1.0527 -3.2438
 5710SOL     OW28588   1.356   4.606   5.203 -0.6993 -0.4022  0.3516
 5710SOL    HW128589   1.315   4.537   5.150  2.2956 -1.3973 -0.6510
 5710SOL    HW228590   1.443   4.600   5.164 -1.1701  0.6518 -0.8431
 5711SOL     OW28591   1.632   2.495   6.887 -0.1643 -0.9218  0.2622
 5711SOL    HW128592   1.720   2.531   6.881 -0.3836 -0.3658  0.3800
 5711SOL    HW228593   1.661   2.404   6.885  2.4450 -0.0970  0.8947
 5712SOL     OW28594   1.736   3.665   0.816  0.4940 -0.4956  0.0727
 5712SOL    HW128595   1.664   3.608   0.790  0.5842 -0.9208  0.7715
 5712SOL    HW228596   1.797   3.596   0.842  0.4207 -0.8842 -0.7741
 5713SOL     OW28597   2.941   3.609   0.686 -0.0840  0.0711  0.6740
 5713SOL    HW128598   2.846   3.603   0.694 -0.0097 -2.1919 -0.2153
 5713SOL    HW228599   2.971   3.598   0.777  0.6331 -3.7426 -0.0084
 5714SOL     OW28600   0.448   0.475   3.222  0.8126  0.2528  0.6618
 5714SOL    HW128601   0.366   0.427   3.208  0.1825  1.4061  0.4285
 5714SOL    HW228602   0.497   0.397   3.247  2.9624  1.4999  0.3258
 5715SOL     OW28603   3.531   4.449   5.769 -0.4958  0.1514 -0.1582
 5715SOL    HW128604   3.473   4.439   5.693  0.9220  0.1471 -1.2525
 5715SOL    HW228605   3.496   4.396   5.840  3.9193  2.1525  3.4488
 5716SOL     OW28606   0.048   1.562  11.692  0.4445 -0.5878 -0.0485
 5716SOL    HW128607   4.685   1.530  11.661 -0.4212  0.3698  1.3345
 5716SOL    HW228608   0.103   1.487  11.669  2.4952  0.7774  0.4891
 5717SOL     OW28609   0.383   2.541   7.088  0.2359  0.1612 -0.0707
 5717SOL    HW128610   0.303   2.529   7.038 -0.8478  1.3373  1.3532
 5717SOL    HW228611   0.345   2.552   7.175 -2.1446  0.2630 -1.1228
 5718SOL     OW28612   2.371   3.078   5.311 -0.5419  0.9834  0.3416
 5718SOL    HW128613   2.415   3.043   5.233 -1.3419 -1.2385  0.8627
 5718SOL    HW228614   2.437   3.110   5.372 -0.3226  1.1038  0.0389
 5719SOL     OW28615   4.617   2.286   9.935  0.1205  0.0566  0.5859
 5719SOL    HW128616   4.528   2.260   9.957 -0.2233  0.6562 -0.1081
 5719SOL    HW228617   4.611   2.382   9.930  1.5327  0.1015 -0.1406
 5720SOL     OW28618   3.637   1.091  16.531 -0.5355 -0.3191 -0.5203
 5720SOL    HW128619   3.710   1.057  16.582  0.0976 -1.6015 -2.2797
 5720SOL    HW228620   3.648   1.186  16.532  0.1706 -0.4123  0.1871
 5721SOL     OW28621   2.277   1.224  10.509  0.6968  0.0240  0.1511
 5721SOL    HW128622   2.330   1.301  10.488  1.8984 -0.6174  0.8161
 5721SOL    HW228623   2.265   1.247  10.601 -0.3447 -0.6928  0.1919
 5722SOL     OW28624   1.694   3.286   5.824  0.0809 -0.6771 -0.3308
 5722SOL    HW128625   1.678   3.192   5.817  0.1793 -0.8315  1.5165
 5722SOL    HW228626   1.604   3.316   5.839  0.4411  0.2141  0.0856
 5723SOL     OW28627   1.030   1.651   2.502  0.7050 -0.0543  0.0785
 5723SOL    HW128628   0.940   1.645   2.535  1.2516 -0.9601  1.3969
 5723SOL    HW228629   1.042   1.567   2.458  1.0213  1.7622 -3.3524
 5724SOL     OW28630   1.612   2.355   3.067 -0.1575  0.1181 -0.4131
 5724SOL    HW128631   1.694   2.404   3.068 -0.5502  0.7693  0.0975
 5724SOL    HW228632   1.553   2.429   3.057  0.2354  0.6104  0.9460
 5725SOL     OW28633   4.498   2.179  12.874  0.0415  0.4457  0.5120
 5725SOL    HW128634   4.496   2.207  12.966 -0.5536  0.6364  0.4383
 5725SOL    HW228635   4.541   2.254  12.833 -2.7256  1.8041  0.0682
 5726SOL     OW28636   3.080   3.662   6.360 -0.7743 -0.5302 -0.1000
 5726SOL    HW128637   3.032   3.713   6.425 -0.1724  0.4858 -0.4510
 5726SOL    HW228638   3.077   3.714   6.280 -0.7059 -2.0280 -1.0632
 5727SOL     OW28639   1.637   4.468   7.501 -0.1606  0.0106 -0.3886
 5727SOL    HW128640   1.699   4.535   7.527 -0.0423  0.7488 -2.5344
 5727SOL    HW228641   1.563   4.512   7.542  0.7618  0.3327  0.9059
 5728SOL     OW28642   4.627   4.444   8.395 -0.0683 -0.2337  0.0798
 5728SOL    HW128643   4.705   4.463   8.446  0.7988 -0.5948 -1.1077
 5728SOL    HW228644   4.631   4.349   8.402  2.7666 -0.1951 -1.1466
 5729SOL     OW28645   1.480   2.831   6.662  0.6938 -0.1070 -0.5368
 5729SOL    HW128646   1.558   2.840   6.606  1.5585 -2.5944  0.2488
 5729SOL    HW228647   1.421   2.774   6.611  2.2893 -2.7760  0.5898
 5730SOL     OW28648   3.672   1.876  16.287  0.5689  0.6193  0.3237
 5730SOL    HW128649   3.765   1.895  16.291  0.6207  0.3708  0.3381
 5730SOL    HW228650   3.672   1.847  16.196  0.2024  0.4012  0.3910
 5731SOL     OW28651   3.303   2.288   2.972  0.3453 -0.1440 -0.2644
 5731SOL    HW128652   3.272   2.281   2.882  0.0650 -0.3452 -0.1531
 5731SOL    HW228653   3.321   2.194   2.981 -0.7479 -0.5056 -1.9986
 5732SOL     OW28654   1.013   0.925   7.752 -0.4238  0.5866 -0.3168
 5732SOL    HW128655   1.038   0.970   7.833 -1.5149 -0.8157  0.7858
 5732SOL    HW228656   0.918   0.913   7.754 -0.4048  0.1882 -1.7054
 5733SOL     OW28657   1.593   2.599   4.846  0.4263  0.0298  0.1567
 5733SOL    HW128658   1.578   2.582   4.753  1.5678  0.4080 -0.0967
 5733SOL    HW228659   1.529   2.539   4.883  1.5135 -1.4065 -0.2977
 5734SOL     OW28660   1.430   2.675   1.431  0.9917 -1.1538  0.2181
 5734SOL    HW128661   1.452   2.646   1.519 -0.2374  1.2410  1.3136
 5734SOL    HW228662   1.373   2.751   1.438 -0.1088 -2.2286  3.0769
 5735SOL     OW28663   0.335   0.294  16.435  0.2195 -0.5048  0.1913
 5735SOL    HW128664   0.361   0.340  16.355  0.1581 -2.0204 -0.6914
 5735SOL    HW228665   0.397   0.222  16.443  0.0820 -0.4193  2.0111
 5736SOL     OW28666   2.120   0.878   9.011 -0.6086 -0.0205  0.4072
 5736SOL    HW128667   2.199   0.841   8.972  1.1340  1.9265  2.0216
 5736SOL    HW228668   2.147   0.858   9.101  0.7509  0.8176  0.1929
 5737SOL     OW28669   3.994   1.608   6.798 -0.3994 -0.2530  0.5760
 5737SOL    HW128670   3.989   1.644   6.887  2.4279 -1.2102  1.0978
 5737SOL    HW228671   4.024   1.689   6.756 -0.5933  0.0025  0.9242
 5738SOL     OW28672   0.600   4.498   9.090  0.0623  0.0691 -0.4343
 5738SOL    HW128673   0.600   4.412   9.131 -0.3164  1.1379  1.8547
 5738SOL    HW228674   0.537   4.547   9.144 -2.2806 -0.1742 -2.9577
 5739SOL     OW28675   3.828   2.511   4.468 -0.0704  0.0035 -0.5961
 5739SOL    HW128676   3.913   2.470   4.483 -0.9273 -1.4345  0.2326
 5739SOL    HW228677   3.852   2.603   4.480  1.1135 -0.2544 -0.9389
 5740SOL     OW28678   0.699   3.239   1.560  0.3342  0.5071 -0.0708
 5740SOL    HW128679   0.666   3.320   1.521 -0.0336  0.0868 -0.6349
 5740SOL    HW228680   0.617   3.190   1.562  0.3160  0.5242 -0.4487
 5741SOL     OW28681   1.654   0.183   5.441  0.3071 -0.3755  0.2353
 5741SOL    HW128682   1.708   0.261   5.437 -0.1694 -0.0302  0.5560
 5741SOL    HW228683   1.715   0.113   5.419 -0.0473 -0.5632 -0.1544
 5742SOL     OW28684   0.675   0.119  10.457  0.5438  0.3964 -0.2563
 5742SOL    HW128685   0.706   0.190  10.514  0.1851 -0.1619  0.6339
 5742SOL    HW228686   0.598   0.156  10.414 -0.7291  0.8142  2.3387
 5743SOL     OW28687   1.387   3.857   6.970 -0.0272 -0.0696 -0.4571
 5743SOL    HW128688   1.422   3.842   6.883  0.8911  0.3916 -0.1675
 5743SOL    HW228689   1.326   3.928   6.955 -1.3693 -0.6308  2.4039
 5744SOL     OW28690   0.102   3.345   8.184 -0.2034  0.1203 -0.1311
 5744SOL    HW128691   0.160   3.414   8.217 -0.4481  0.6339 -0.7815
 5744SOL    HW228692   0.170   3.285   8.153  0.5961  1.0971 -0.2977
 5745SOL     OW28693   2.488   2.152   6.953  0.0955 -0.0690 -0.1725
 5745SOL    HW128694   2.495   2.188   6.865  2.3075 -1.3645 -0.5314
 5745SOL    HW228695   2.413   2.094   6.942 -1.2820  1.3525  1.8421
 5746SOL     OW28696   2.329   4.016   2.841  0.2956 -0.4420 -0.4463
 5746SOL    HW128697   2.293   4.019   2.752  0.2935  2.2582 -0.3576
 5746SOL    HW228698   2.375   4.100   2.853 -3.5969  1.5704  0.4240
 5747SOL     OW28699   3.068   3.110   7.298 -0.1411 -0.2281 -0.1756
 5747SOL    HW128700   3.043   3.061   7.376 -2.9002  2.5668  0.7239
 5747SOL    HW228701   3.158   3.084   7.284 -0.4826  0.1496 -2.9835
 5748SOL     OW28702   3.892   4.604   1.911  0.4825  0.5215  0.4955
 5748SOL    HW128703   3.875   4.580   2.002 -0.5232 -1.1291 -0.1276
 5748SOL    HW228704   3.859   4.693   1.921  0.2422  0.4745  0.1186
 5749SOL     OW28705   3.454   1.487   7.971 -0.0853  0.1933 -0.3324
 5749SOL    HW128706   3.378   1.528   8.013  2.0721  1.7793  1.9985
 5749SOL    HW228707   3.416   1.456   7.888  1.0207 -0.2518 -0.6775
 5750SOL     OW28708   1.233   1.320   7.171 -0.2735 -0.2013  0.4380
 5750SOL    HW128709   1.323   1.287   7.179 -0.4741 -1.8502 -3.8218
 5750SOL    HW228710   1.258   1.399   7.122  3.1252 -0.7178  1.3574
 5751SOL     OW28711   4.269   3.604   4.233 -0.4093  0.4277  0.4988
 5751SOL    HW128712   4.198   3.658   4.266 -0.4858 -0.6992  2.2170
 5751SOL    HW228713   4.334   3.615   4.303 -2.1077  1.7863  1.8734
 5752SOL     OW28714   3.859   2.775   3.445 -0.3528  0.1057  0.4610
 5752SOL    HW128715   3.938   2.821   3.473 -0.2184  1.4823 -2.0754
 5752SOL    HW228716   3.853   2.817   3.359 -1.1678  0.9521  0.9306
 5753SOL     OW28717   0.844   3.319   6.375 -0.3413  0.3357  0.0618
 5753SOL    HW128718   0.935   3.311   6.404 -0.9366 -3.4835  0.8004
 5753SOL    HW228719   0.801   3.314   6.460  0.5587  1.2841  0.5696
 5754SOL     OW28720   0.846   4.679   4.943  0.1294  0.0939 -0.0941
 5754SOL    HW128721   0.805   0.010   5.010  1.2448 -1.8015  2.1037
 5754SOL    HW228722   0.938   4.700   4.960  0.5644 -0.5326 -1.6973
 5755SOL     OW28723   2.434   0.460   9.006  0.0052 -0.6159 -0.0277
 5755SOL    HW128724   2.448   0.524   9.075 -1.0937 -1.6671  1.1618
 5755SOL    HW228725   2.399   0.384   9.052 -0.4551 -1.0722 -1.1044
 5756SOL     OW28726   0.284   2.344   2.096 -0.2080  0.1487  0.2594
 5756SOL    HW128727   0.349   2.409   2.070  0.1122 -0.0861  0.4750
 5756SOL    HW228728   0.201   2.389   2.082 -0.6453 -0.9243 -0.6539
 5757SOL     OW28729   1.468   0.917  15.836 -0.4240 -0.0722 -0.3565
 5757SOL    HW128730   1.477   0.993  15.778 -1.7552 -0.1016 -0.6052
 5757SOL    HW228731   1.422   0.962  15.907  1.0826 -1.0519  1.2341
 5758SOL     OW28732   4.625   4.712   7.725 -0.0223  0.4838 -0.0299
 5758SOL    HW128733   4.668   4.705   7.640 -3.6257 -0.9310 -1.6851
 5758SOL    HW228734   4.689   4.664   7.778 -0.3318 -0.8559 -0.8690
 5759SOL     OW28735   3.438   4.607  10.719  0.5406  0.2064  0.0185
 5759SOL    HW128736   3.363   4.637  10.667  0.8506  0.6216 -0.1944
 5759SOL    HW228737   3.484   4.688  10.737 -1.5641  1.5311 -0.5253
 5760SOL     OW28738   0.117   3.798   1.494  0.6013 -1.0866  0.2974
 5760SOL    HW128739   0.200   3.827   1.454  0.4066  0.6930  1.1791
 5760SOL    HW228740   0.054   3.798   1.421  0.8556  1.3326  0.0675
 5761SOL     OW28741   1.924   4.091   5.257 -0.6384 -0.2499 -0.0393
 5761SOL    HW128742   1.993   4.125   5.200  0.1355 -1.1778  0.3351
 5761SOL    HW228743   1.971   4.051   5.330 -1.4065 -0.4554  0.3493
 5762SOL     OW28744   0.950   3.319   3.956  0.3318 -0.6586 -0.2655
 5762SOL    HW128745   0.953   3.228   3.928  1.8787 -0.2092 -1.5387
 5762SOL    HW228746   0.907   3.356   3.879 -0.8152 -0.4450  0.4694
 5763SOL     OW28747   2.560   3.918  14.804  0.2767 -0.5355 -0.3771
 5763SOL    HW128748   2.617   3.919  14.727  0.4880 -5.4842 -0.3069
 5763SOL    HW228749   2.613   3.962  14.870  1.2277 -2.6041  0.2476
 5764SOL     OW28750   3.112   1.111   8.199 -0.1747 -0.5059  0.2197
 5764SOL    HW128751   3.020   1.083   8.192 -0.0665 -1.0156  0.8086
 5764SOL    HW228752   3.157   1.081   8.120 -1.1434 -0.4928 -0.3362
 5765SOL     OW28753   3.075   2.163  14.700  0.1291 -0.4790  0.5825
 5765SOL    HW128754   3.018   2.150  14.777 -0.7347 -0.8004 -0.1104
 5765SOL    HW228755   3.025   2.223  14.644  1.5778  1.8422  1.7547
 5766SOL     OW28756   4.664   0.671   7.805  0.3389  0.6052 -0.2921
 5766SOL    HW128757   4.650   0.622   7.724  0.0772 -0.1813  0.2405
 5766SOL    HW228758   4.614   0.748   7.776 -1.3756 -0.5598 -0.4044
 5767SOL     OW28759   3.190   4.222  10.470 -0.1777  0.2902 -0.0569
 5767SOL    HW128760   3.220   4.298  10.421 -1.7457  1.5577  0.9688
 5767SOL    HW228761   3.198   4.145  10.413  0.0973  0.9031 -0.8391
 5768SOL     OW28762   1.055   4.569   6.389 -0.3770 -0.1924 -0.7002
 5768SOL    HW128763   1.131   4.595   6.441  0.2807  0.6772 -2.0851
 5768SOL    HW228764   0.989   4.636   6.406  0.7920  1.0351 -1.0036
 5769SOL     OW28765   3.868   3.542   8.618 -0.4214  0.1796  0.1607
 5769SOL    HW128766   3.849   3.575   8.706 -1.4209  0.1727 -0.0597
 5769SOL    HW228767   3.826   3.456   8.621 -2.6041  1.2776  0.8376
 5770SOL     OW28768   1.418   2.957   7.197 -0.2067  0.6898  0.4264
 5770SOL    HW128769   1.493   2.932   7.250 -0.0072  2.6120  1.0302
 5770SOL    HW228770   1.348   2.904   7.237 -2.0224  1.9491 -1.0568
 5771SOL     OW28771   0.539   0.444   2.429 -0.0545 -0.2681 -0.2114
 5771SOL    HW128772   0.614   0.425   2.486 -2.3080 -1.3829  2.3944
 5771SOL    HW228773   0.472   0.410   2.489  0.8394  0.9193  1.4880
 5772SOL     OW28774   4.555   3.864   0.527 -0.0791  0.6677  0.0744
 5772SOL    HW128775   4.574   3.916   0.605  3.4344  0.1523 -0.4008
 5772SOL    HW228776   4.536   3.932   0.463 -0.9187 -0.4565 -0.8855
 5773SOL     OW28777   1.947   2.449  12.177 -0.2285 -0.3250 -0.1566
 5773SOL    HW128778   1.991   2.377  12.132  3.2077  1.5618  0.1955
 5773SOL    HW228779   1.879   2.398  12.222 -1.4626  1.1745 -0.3127
 5774SOL     OW28780   3.985   4.184   4.066 -0.4351  0.1693 -0.1169
 5774SOL    HW128781   4.028   4.115   4.015 -0.1869 -0.4006  0.8734
 5774SOL    HW228782   3.992   4.148   4.154  0.8195  1.1610  0.1809
 5775SOL     OW28783   1.298   1.354   9.707 -0.4197 -1.0233  0.1292
 5775SOL    HW128784   1.337   1.274   9.673 -1.7057 -2.4439  1.9471
 5775SOL    HW228785   1.226   1.321   9.761  0.7002 -0.6646  1.8604
 5776SOL     OW28786   1.552   1.627   2.370  0.4001  0.2978 -0.2298
 5776SOL    HW128787   1.583   1.568   2.301  1.6356 -1.0590  1.4498
 5776SOL    HW228788   1.546   1.563   2.442  1.9233  0.3148 -0.0866
 5777SOL     OW28789   3.724   1.765  16.049  0.2881  0.3643  0.4986
 5777SOL    HW128790   3.668   1.751  15.973 -0.3654 -1.2224  1.2824
 5777SOL    HW228791   3.732   1.672  16.067  0.5477  0.5284  1.2277
 5778SOL     OW28792   3.611   2.838  17.318  0.4330  0.3627 -0.5432
 5778SOL    HW128793   3.574   2.751  17.301  0.4369  0.3849 -0.6661
 5778SOL    HW228794   3.531   2.886  17.295  1.3670  1.4065 -1.6000
 5779SOL     OW28795   4.620   3.693  12.140 -0.2803 -0.1257 -0.0921
 5779SOL    HW128796   4.611   3.771  12.194  1.8611  0.9844 -1.3116
 5779SOL    HW228797   4.643   3.738  12.058  1.5008  2.3226  1.7741
 5780SOL     OW28798   4.300   1.212   6.648  0.6979  0.3084 -0.0084
 5780SOL    HW128799   4.299   1.227   6.554 -2.3078 -2.1608 -0.3780
 5780SOL    HW228800   4.293   1.304   6.674 -0.5807  0.2861 -0.3172
 5781SOL     OW28801   0.108   4.629   4.042  0.1137 -0.0853 -0.2929
 5781SOL    HW128802   0.085   4.597   3.955  0.1511  1.9321 -1.0579
 5781SOL    HW228803   0.068   4.561   4.096  2.3461  0.8177  2.5516
 5782SOL     OW28804   3.541   4.195   2.608  0.2093  0.6744  0.0543
 5782SOL    HW128805   3.544   4.281   2.566  0.9786  0.3333 -0.6013
 5782SOL    HW228806   3.456   4.151   2.603 -0.1772  1.3896  0.3901
 5783SOL     OW28807   1.193   4.580   8.854  0.3506 -0.3712 -0.2457
 5783SOL    HW128808   1.285   4.596   8.876 -0.3382  2.8871  0.2076
 5783SOL    HW228809   1.156   4.525   8.922  0.3576 -0.9088 -0.6735
 5784SOL     OW28810   1.675   2.775   7.949  0.3767 -0.2724  0.9331
 5784SOL    HW128811   1.589   2.767   7.992 -0.3247  0.2025 -0.3851
 5784SOL    HW228812   1.714   2.690   7.972 -1.0750 -1.4646 -1.0207
 5785SOL     OW28813   3.758   3.585   1.325  0.0958 -0.8219  0.7076
 5785SOL    HW128814   3.779   3.652   1.260 -1.6628 -1.5476 -0.6005
 5785SOL    HW228815   3.728   3.637   1.400  0.0865 -1.7523  1.3550
 5786SOL     OW28816   1.127   3.641   8.901 -0.2380 -0.0246  0.6069
 5786SOL    HW128817   1.172   3.668   8.981  0.0265  1.2019  0.0351
 5786SOL    HW228818   1.162   3.706   8.841 -2.3959  0.9956  0.4738
 5787SOL     OW28819   3.079   0.635   9.543  0.8474  0.3087 -0.7232
 5787SOL    HW128820   2.994   0.652   9.503 -0.3785 -1.1335  1.2401
 5787SOL    HW228821   3.070   0.545   9.576 -2.0861  0.2101 -1.7380
 5788SOL     OW28822   0.577   4.658   7.097  0.2435  0.4934  0.0731
 5788SOL    HW128823   0.548   4.579   7.053 -0.0168  0.3794  0.4515
 5788SOL    HW228824   0.532   4.644   7.180 -1.6205  0.5834 -0.9361
 5789SOL     OW28825   0.012   3.471   9.988 -0.6044  0.1939 -0.0245
 5789SOL    HW128826   0.098   3.501   9.960 -0.7140 -0.1176 -0.6895
 5789SOL    HW228827   0.019   3.487  10.083  0.6237  1.3757 -0.3143
 5790SOL     OW28828   0.581   0.867  16.673  0.0046  0.4702  0.8158
 5790SOL    HW128829   0.662   0.850  16.722  0.1489  1.7238  1.0123
 5790SOL    HW228830   0.526   0.797  16.708 -0.3530  0.3469 -0.0004
 5791SOL     OW28831   2.347   4.424   7.158  0.1098  0.7072  0.0994
 5791SOL    HW128832   2.394   4.343   7.140  0.5184  0.2629  3.0560
 5791SOL    HW228833   2.415   4.468   7.209  0.1682 -2.2061  2.5185
 5792SOL     OW28834   1.213   1.886   3.340  0.3656 -0.2367  0.2505
 5792SOL    HW128835   1.273   1.927   3.402  0.1800  1.6348 -0.8333
 5792SOL    HW228836   1.222   1.793   3.362  0.2615  0.0284  1.4248
 5793SOL     OW28837   4.644   1.974  15.611 -0.1524 -0.0243  0.0209
 5793SOL    HW128838   4.580   1.924  15.559  1.5233  0.5687 -2.6060
 5793SOL    HW228839   4.590   2.016  15.678  0.0615 -0.8205  0.6814
 5794SOL     OW28840   1.046   4.224   6.725  0.1570 -0.4021  0.5148
 5794SOL    HW128841   0.962   4.178   6.733  0.8351 -1.8770 -0.7130
 5794SOL    HW228842   1.013   4.310   6.699 -0.4310 -0.8621 -0.2473
 5795SOL     OW28843   3.079   0.052  13.393 -0.1266 -0.0241 -0.5379
 5795SOL    HW128844   3.167   0.076  13.425 -0.3816 -2.0851  1.7301
 5795SOL    HW228845   3.048   0.141  13.378  0.3574  0.5448  1.8168
 5796SOL     OW28846   3.023   3.928   8.358 -0.4757 -0.3317 -0.0064
 5796SOL    HW128847   3.010   3.844   8.401 -1.8472 -0.1155 -0.0025
 5796SOL    HW228848   3.047   3.893   8.272 -0.7801 -2.6807  0.8751
 5797SOL     OW28849   2.211   0.642   5.108 -0.3885  0.1481 -0.2696
 5797SOL    HW128850   2.163   0.566   5.140  0.5173 -0.2302  0.2077
 5797SOL    HW228851   2.191   0.637   5.015 -0.1094  2.3801 -0.4668
 5798SOL     OW28852   0.934   0.837   3.135 -0.2998  0.4375  0.1876
 5798SOL    HW128853   0.982   0.758   3.159 -0.8896 -0.1664 -0.6319
 5798SOL    HW228854   0.980   0.876   3.060 -0.3794 -1.5216 -0.8735
 5799SOL     OW28855   3.617   3.693   7.013 -0.1884  0.7664 -0.1154
 5799SOL    HW128856   3.575   3.657   7.091  2.7432  0.4178  1.3064
 5799SOL    HW228857   3.704   3.703   7.051 -0.4886  0.0228  0.7663
 5800SOL     OW28858   0.086   1.541   2.909  0.1096  0.0225  0.3285
 5800SOL    HW128859   0.082   1.472   2.975 -1.4225  1.6025  1.8896
 5800SOL    HW228860   0.136   1.613   2.948  0.1102  0.1409  0.1098
 5801SOL     OW28861   1.291   1.559  13.563 -0.6049  0.0725 -0.1399
 5801SOL    HW128862   1.229   1.594  13.627 -0.1234  0.2683  0.2206
 5801SOL    HW228863   1.359   1.535  13.626  0.8504  2.9891 -0.6500
 5802SOL     OW28864   4.721   0.339   9.422  0.3506  0.4356 -0.0418
 5802SOL    HW128865   0.015   0.434   9.425 -0.6280  0.6373 -1.3077
 5802SOL    HW228866   4.639   0.319   9.465  0.7967  1.3148  1.2221
 5803SOL     OW28867   1.517   3.001   7.811 -0.0200 -0.3638  0.6208
 5803SOL    HW128868   1.611   3.007   7.797  0.4506 -0.3134  3.8223
 5803SOL    HW228869   1.492   3.077   7.863 -0.2925  0.7882 -1.1820
 5804SOL     OW28870   2.026   0.821  17.168 -0.1507  0.1823  0.1473
 5804SOL    HW128871   2.066   0.895  17.214 -1.2971  0.9396 -0.0593
 5804SOL    HW228872   2.098   0.797  17.110  0.5016  0.6434  0.7613
 5805SOL     OW28873   3.820   1.136   2.820  0.0459  0.1878 -0.4224
 5805SOL    HW128874   3.904   1.137   2.773  0.7457 -1.7765  0.7979
 5805SOL    HW228875   3.775   1.065   2.775 -2.7312  2.0476 -0.5849
 5806SOL     OW28876   2.096   3.534   4.486 -0.0520  0.1256 -0.0067
 5806SOL    HW128877   2.145   3.467   4.533 -1.5167 -1.7545 -1.1977
 5806SOL    HW228878   2.154   3.610   4.490  0.8003 -0.5690  0.9295
 5807SOL     OW28879   2.126   3.628   9.701  0.1107 -0.0875 -0.2918
 5807SOL    HW128880   2.090   3.568   9.767  0.9289 -2.5963 -2.1267
 5807SOL    HW228881   2.080   3.597   9.623 -0.8486 -1.7940  0.9501
 5808SOL     OW28882   0.648   0.610   9.190 -0.0752 -0.1997  0.3176
 5808SOL    HW128883   0.690   0.663   9.258  1.0375  0.7264 -1.0870
 5808SOL    HW228884   0.721   0.568   9.144 -0.7268  2.8935 -3.4511
 5809SOL     OW28885   2.895   3.176   9.975 -0.2398 -0.2378 -0.2629
 5809SOL    HW128886   2.904   3.272   9.979  2.7870 -0.4515 -1.8168
 5809SOL    HW228887   2.804   3.153   9.992 -0.6313  1.5805  0.1112
 5810SOL     OW28888   3.266   4.003   6.540  0.2720 -0.1341  0.5334
 5810SOL    HW128889   3.292   3.968   6.626  0.1508 -1.0777  0.1935
 5810SOL    HW228890   3.183   3.962   6.516  0.8674  0.1247 -1.9406
 5811SOL     OW28891   1.205   0.883   5.303  0.4470  0.6186 -0.3967
 5811SOL    HW128892   1.284   0.915   5.259 -0.5419  0.1878 -2.4720
 5811SOL    HW228893   1.198   0.939   5.381 -1.0230 -0.4590  0.2396
 5812SOL     OW28894   2.345   2.354  12.179  0.4664  0.0148  0.0391
 5812SOL    HW128895   2.309   2.268  12.201 -0.4663  0.7846  1.5030
 5812SOL    HW228896   2.306   2.407  12.247  0.3244  0.3992 -0.3416
 5813SOL     OW28897   3.987   3.213   1.431  0.9633 -0.3802  0.2582
 5813SOL    HW128898   4.054   3.202   1.498 -0.8766 -0.4217  2.0600
 5813SOL    HW228899   3.920   3.165   1.480 -0.4628  0.2812 -1.0426
 5814SOL     OW28900   0.002   3.077   0.370  0.3059  0.0315 -0.0087
 5814SOL    HW128901   0.092   3.051   0.390  0.2452 -0.8891 -0.8779
 5814SOL    HW228902   0.020   3.166   0.341 -2.1627  0.9351  1.2700
 5815SOL     OW28903   3.807   3.858   3.194 -0.6084  0.0134 -0.2425
 5815SOL    HW128904   3.885   3.912   3.206  0.4051 -1.4105 -0.3038
 5815SOL    HW228905   3.828   3.815   3.111 -1.4340 -0.3955 -0.2349
 5816SOL     OW28906   1.394   2.482   6.743 -0.0141 -0.1149 -0.2842
 5816SOL    HW128907   1.473   2.504   6.793  0.0394 -0.7159 -0.1003
 5816SOL    HW228908   1.413   2.535   6.665 -0.8444  1.2188  0.4040
 5817SOL     OW28909   2.495   1.322   9.655  0.2330  0.2934  0.5942
 5817SOL    HW128910   2.440   1.307   9.578  2.3379  1.5732 -1.1624
 5817SOL    HW228911   2.557   1.250   9.647  1.9105  1.6085  1.7992
 5818SOL     OW28912   4.319   1.624   2.675  0.2551 -0.4345 -0.0258
 5818SOL    HW128913   4.382   1.583   2.733  0.3423  1.2248  1.0571
 5818SOL    HW228914   4.374   1.676   2.616  0.3022 -0.5947 -0.1216
 5819SOL     OW28915   4.504   1.280   3.777 -0.0160  0.0506 -0.1206
 5819SOL    HW128916   4.594   1.252   3.794  0.4964 -1.0736 -4.6562
 5819SOL    HW228917   4.514   1.339   3.702  1.0104 -0.5850 -0.4707
 5820SOL     OW28918   0.616   3.827   9.749 -0.7464  0.0254 -0.0129
 5820SOL    HW128919   0.671   3.849   9.824 -2.8234  3.1007  0.6043
 5820SOL    HW228920   0.692   3.797   9.700 -1.3389 -0.4770 -0.6368
 5821SOL     OW28921   4.168   0.587   3.809 -0.2126  0.1994 -0.1610
 5821SOL    HW128922   4.236   0.624   3.753 -0.3871 -0.3260 -0.7155
 5821SOL    HW228923   4.159   0.497   3.776  0.1527 -0.0736  0.4803
 5822SOL     OW28924   3.875   1.234   5.305  0.2529  0.2484  0.0683
 5822SOL    HW128925   3.828   1.223   5.387  1.5502 -1.9294  0.5211
 5822SOL    HW228926   3.867   1.148   5.263  2.3096 -1.0686  2.3458
 5823SOL     OW28927   0.988   3.936  15.353 -0.2496  0.0878 -0.4740
 5823SOL    HW128928   1.005   3.889  15.271 -0.5409 -2.4459  0.9137
 5823SOL    HW228929   0.907   3.976  15.321 -1.1606 -0.7438  0.7791
 5824SOL     OW28930   2.030   2.263  17.106 -0.8880  0.6177  0.4204
 5824SOL    HW128931   2.057   2.189  17.052 -1.1508 -0.5271  1.8740
 5824SOL    HW228932   2.113   2.300  17.134 -0.8013  0.6478  0.1251
 5825SOL     OW28933   3.875   1.422   3.365 -0.5268  0.2259 -0.1783
 5825SOL    HW128934   3.862   1.331   3.392  1.9475 -0.2864 -0.7476
 5825SOL    HW228935   3.959   1.456   3.395 -0.4976 -0.5090  0.5833
 5826SOL     OW28936   0.788   1.508   1.156  0.1525  0.6406 -0.1546
 5826SOL    HW128937   0.766   1.533   1.066 -1.1450  0.7981  0.2046
 5826SOL    HW228938   0.739   1.427   1.167 -0.5247  1.1165  0.3217
 5827SOL     OW28939   2.116   1.543  12.662  0.2209  0.8127 -0.0413
 5827SOL    HW128940   2.112   1.554  12.757 -2.4041  0.9179 -0.1683
 5827SOL    HW228941   2.122   1.635  12.634  1.0950  1.0110  0.8152
 5828SOL     OW28942   3.978   0.337   8.464 -0.7055 -0.0937 -0.0632
 5828SOL    HW128943   3.971   0.282   8.386  0.8651 -0.0702 -0.2180
 5828SOL    HW228944   4.065   0.324   8.502  0.7265  0.0426 -3.2744
 5829SOL     OW28945   2.698   2.506   7.364  0.0394 -0.7152 -0.2938
 5829SOL    HW128946   2.759   2.494   7.291  2.4500  0.9480  1.4529
 5829SOL    HW228947   2.749   2.549   7.433 -2.2135 -0.6128  1.2975
 5830SOL     OW28948   0.837   3.858   8.375  0.7487 -0.2378 -0.4272
 5830SOL    HW128949   0.840   3.953   8.363 -0.8582 -0.0689  0.5610
 5830SOL    HW228950   0.752   3.830   8.340 -0.7731  2.3106  1.2958
 5831SOL     OW28951   0.131   3.680   2.357  0.2123  0.0979 -0.1690
 5831SOL    HW128952   0.156   3.685   2.265  0.4908 -0.9731 -0.1476
 5831SOL    HW228953   0.207   3.720   2.400  0.0512  1.8374 -1.4781
 5832SOL     OW28954   0.364   3.527  14.799  0.1705  0.5568  0.3323
 5832SOL    HW128955   0.348   3.621  14.794  1.3822  0.7196 -0.4929
 5832SOL    HW228956   0.403   3.517  14.712 -1.9929 -0.9503 -0.4639
 5833SOL     OW28957   2.595   1.846  15.278  0.5793  0.3886  0.6232
 5833SOL    HW128958   2.620   1.763  15.318  1.1048 -0.2637 -1.0559
 5833SOL    HW228959   2.507   1.820  15.250  2.1868 -0.4942 -3.6258
 5834SOL     OW28960   0.459   4.174   5.035  0.0294  0.5204  0.7865
 5834SOL    HW128961   0.503   4.106   4.984  1.8211 -0.0040  3.0530
 5834SOL    HW228962   0.523   4.244   5.026 -1.7324  2.3515  2.2695
 5835SOL     OW28963   0.631   0.634   9.776 -0.4853 -0.0346  0.3303
 5835SOL    HW128964   0.572   0.562   9.801  0.4093 -0.7298  0.4493
 5835SOL    HW228965   0.566   0.699   9.749 -0.1799 -0.7369 -2.0916
 5836SOL     OW28966   0.381   0.773   4.282 -0.4622 -0.1740  0.2003
 5836SOL    HW128967   0.413   0.701   4.335 -0.7717 -2.4432 -2.6768
 5836SOL    HW228968   0.317   0.723   4.231 -1.5720  0.2116  1.2311
 5837SOL     OW28969   2.883   0.570   7.049  0.3535 -0.0537 -0.0511
 5837SOL    HW128970   2.831   0.650   7.052  0.5914  0.0781  0.5792
 5837SOL    HW228971   2.809   0.517   7.079 -1.2100  0.9010 -2.2352
 5838SOL     OW28972   3.637   2.379   6.578 -0.6529 -0.3646 -0.2128
 5838SOL    HW128973   3.702   2.440   6.544  2.6634 -2.8564  1.6554
 5838SOL    HW228974   3.642   2.395   6.672 -0.4980 -0.4442 -0.2077
 5839SOL     OW28975   3.581   1.295   5.337 -0.2359 -0.6092 -0.1426
 5839SOL    HW128976   3.629   1.313   5.256 -0.8009 -2.9259 -0.9794
 5839SOL    HW228977   3.620   1.356   5.401  1.0626 -1.1485 -0.4135
 5840SOL     OW28978   0.454   1.806  13.120 -0.2798  0.1798 -0.1577
 5840SOL    HW128979   0.528   1.758  13.083 -0.3447  0.4667 -0.6543
 5840SOL    HW228980   0.400   1.730  13.143 -0.2503  0.1094 -0.3234
 5841SOL     OW28981   2.856   1.110  17.093  0.3634 -0.3213  0.4777
 5841SOL    HW128982   2.855   1.203  17.074 -0.4517 -0.7446 -1.6333
 5841SOL    HW228983   2.768   1.088  17.063  0.5822  0.2872 -0.6224
 5842SOL     OW28984   3.574   2.224   7.590  0.9634 -0.0951  0.7735
 5842SOL    HW128985   3.612   2.196   7.507  2.4367  0.2124  1.3280
 5842SOL    HW228986   3.604   2.146   7.638  1.0649 -0.0142  0.8423
 5843SOL     OW28987   2.979   3.462   9.033 -0.0452 -0.0815  0.0554
 5843SOL    HW128988   2.907   3.421   8.986 -0.5702  1.0751 -0.1525
 5843SOL    HW228989   2.952   3.475   9.124  1.4847  2.2100  0.1883
 5844SOL     OW28990   0.779   0.166  13.142  0.2877  0.7011 -0.3062
 5844SOL    HW128991   0.694   0.208  13.131 -0.5102 -1.3056 -1.8542
 5844SOL    HW228992   0.830   0.242  13.170 -0.1597  0.8459  0.1411
 5845SOL     OW28993   3.711   3.948  10.397 -0.8366 -0.2513 -0.4117
 5845SOL    HW128994   3.723   3.904  10.482 -0.6199 -1.2754 -0.9680
 5845SOL    HW228995   3.738   3.872  10.345 -1.3199 -2.2153  2.1790
 5846SOL     OW28996   0.537   0.166   6.837 -0.0399  0.1102 -0.2842
 5846SOL    HW128997   0.555   0.167   6.931 -1.9324  2.9671  0.0383
 5846SOL    HW228998   0.561   0.075   6.821 -1.2720 -0.6863  2.4634
 5847SOL     OW28999   1.987   0.812   8.560 -0.1548 -0.4325  0.2022
 5847SOL    HW129000   1.951   0.778   8.642  2.5565 -1.2017  1.0635
 5847SOL    HW229001   1.978   0.741   8.496 -2.5589  2.0794 -2.2588
 5848SOL     OW29002   3.577   4.510  10.486 -0.2998 -0.5531 -0.3208
 5848SOL    HW129003   3.667   4.539  10.466 -1.0815  1.6655 -0.6853
 5848SOL    HW229004   3.568   4.551  10.572 -2.0738  0.8098 -1.1378
 5849SOL     OW29005   0.602   0.713   2.080 -0.8536 -0.4634 -0.4347
 5849SOL    HW129006   0.686   0.675   2.106 -1.8123 -2.2657 -0.0215
 5849SOL    HW229007   0.540   0.698   2.151  1.0808  0.8772  1.5392
 5850SOL     OW29008   3.347   1.856   6.570  0.1876  0.2136 -0.6059
 5850SOL    HW129009   3.267   1.819   6.607  0.1547  0.0173 -0.8722
 5850SOL    HW229010   3.363   1.933   6.625 -1.2434 -0.0836  0.2242
 5851SOL     OW29011   0.847   1.758  15.552 -0.2768 -0.2228  0.1642
 5851SOL    HW129012   0.883   1.679  15.591  0.7950 -0.8010 -2.0305
 5851SOL    HW229013   0.875   1.746  15.462 -0.9712  1.3693 -0.2766
 5852SOL     OW29014   0.329   4.393   2.504  0.2946 -0.0089  0.3929
 5852SOL    HW129015   0.350   4.397   2.411 -0.5546 -0.2211  0.1890
 5852SOL    HW229016   0.260   4.326   2.502 -0.3763  0.7312 -1.2925
 5853SOL     OW29017   4.133   0.971   6.512  0.1965  0.5600  0.7950
 5853SOL    HW129018   4.124   1.026   6.435 -1.0941 -0.5008  0.1862
 5853SOL    HW229019   4.134   0.886   6.467 -2.4191  1.4868 -0.9856
 5854SOL     OW29020   1.709   1.088  11.357  0.5365  0.0626 -0.2113
 5854SOL    HW129021   1.675   1.049  11.437  0.6062  1.4682  0.4875
 5854SOL    HW229022   1.803   1.090  11.376  0.2492 -2.8284  1.5388
 5855SOL     OW29023   1.566   3.953   9.587 -0.2512 -0.2218  0.3613
 5855SOL    HW129024   1.574   3.857   9.588 -0.0066 -0.1944  1.6310
 5855SOL    HW229025   1.544   3.964   9.680 -0.3653  0.1192  0.2927
 5856SOL     OW29026   2.729   2.591   7.960 -0.1058 -0.0088 -0.2697
 5856SOL    HW129027   2.825   2.592   7.956 -0.0346  0.5748  1.3750
 5856SOL    HW229028   2.716   2.659   8.026  0.1130  0.6865 -0.9415
 5857SOL     OW29029   1.692   1.144  13.712 -0.1889 -0.5143  0.0036
 5857SOL    HW129030   1.716   1.090  13.636 -0.8716 -0.9507  0.1031
 5857SOL    HW229031   1.695   1.083  13.785  0.5889 -0.3112  0.1498
 5858SOL     OW29032   3.193   1.645  15.309 -0.6053  0.0568 -0.1176
 5858SOL    HW129033   3.154   1.559  15.293 -0.0524  0.0522 -1.4795
 5858SOL    HW229034   3.253   1.635  15.383  1.0120  0.0032 -1.4270
 5859SOL     OW29035   0.164   2.441   5.199  0.2950  0.0283  0.0264
 5859SOL    HW129036   0.154   2.408   5.109  1.5186 -1.2180  0.3425
 5859SOL    HW229037   0.259   2.453   5.203  0.3323 -0.0453 -0.5701
 5860SOL     OW29038   0.468   1.747   3.798 -0.0612 -0.7749  0.0945
 5860SOL    HW129039   0.458   1.733   3.704 -0.8892 -0.7243  0.1787
 5860SOL    HW229040   0.564   1.751   3.794 -0.0828  1.2861  1.9114
 5861SOL     OW29041   3.146   2.311   8.913  0.1294  0.7043  0.4247
 5861SOL    HW129042   3.109   2.245   8.972 -0.4004  1.7474  1.2609
 5861SOL    HW229043   3.187   2.260   8.844  1.1897  0.7683  0.9979
 5862SOL     OW29044   3.318   0.345  16.724 -0.0718  0.4543 -0.1760
 5862SOL    HW129045   3.238   0.307  16.688  0.2738 -2.3423  1.9582
 5862SOL    HW229046   3.355   0.260  16.750  0.5145  1.1751  1.3018
 5863SOL     OW29047   0.379   3.669  11.215 -0.5096  0.3857  0.0165
 5863SOL    HW129048   0.423   3.754  11.218 -1.8741  1.1211 -0.6453
 5863SOL    HW229049   0.365   3.656  11.309  3.2558 -2.0655  0.2483
 5864SOL     OW29050   1.356   2.666   6.510 -0.5010  0.0247  0.1863
 5864SOL    HW129051   1.261   2.672   6.494 -1.0732  0.6374  3.8259
 5864SOL    HW229052   1.385   2.706   6.428 -1.3991 -2.0820 -1.1699
 5865SOL     OW29053   0.028   3.742   0.407  0.2871  0.0092 -0.4847
 5865SOL    HW129054   0.089   3.755   0.479 -1.5326  0.7175  0.9442
 5865SOL    HW229055   4.674   3.788   0.443  0.5173  0.4897 -0.6208
 5866SOL     OW29056   3.624   2.230   0.724 -0.0043 -0.5014  0.1413
 5866SOL    HW129057   3.588   2.220   0.635 -2.2253  0.3821  0.9291
 5866SOL    HW229058   3.684   2.156   0.726 -0.7794 -1.0712  2.1613
 5867SOL     OW29059   1.528   4.051   3.229 -0.3940 -0.1105 -0.3734
 5867SOL    HW129060   1.615   4.032   3.262 -0.9078 -0.5923  0.6848
 5867SOL    HW229061   1.533   4.141   3.261  0.2550 -0.7856  1.3983
 5868SOL     OW29062   0.584   1.721   5.157  0.2976 -0.5138 -0.0430
 5868SOL    HW129063   0.679   1.723   5.171  0.6310  1.2285 -2.5606
 5868SOL    HW229064   0.578   1.632   5.125  0.7844 -0.2149 -0.9813
 5869SOL     OW29065   1.542   2.416   4.111 -0.1293  0.3719 -0.0393
 5869SOL    HW129066   1.471   2.383   4.166 -0.1919 -0.9142 -0.9004
 5869SOL    HW229067   1.550   2.355   4.037 -1.8537 -1.4682  1.3026
 5870SOL     OW29068   2.027   0.142   6.629 -0.9694 -0.2920 -0.1951
 5870SOL    HW129069   1.973   0.079   6.581  0.2973 -0.7743 -1.0065
 5870SOL    HW229070   2.093   0.087   6.671  0.7561  1.9533  0.0548
 5871SOL     OW29071   1.617   4.547   5.100  0.2526 -0.0808  0.5652
 5871SOL    HW129072   1.647   4.470   5.149  1.1607  0.3385  0.6723
 5871SOL    HW229073   1.605   4.517   5.010  1.9655  0.9348 -0.0059
 5872SOL     OW29074   2.949   4.031   0.093 -0.0484  1.0973  0.0930
 5872SOL    HW129075   2.865   4.000   0.058  0.9327 -1.5528  0.0939
 5872SOL    HW229076   2.926   4.062   0.180  1.2383 -1.5330  1.3885
 5873SOL     OW29077   4.710   3.836  17.626  0.2628  0.0694  0.2739
 5873SOL    HW129078   4.620   3.840  17.657  0.3584  0.6427  0.4776
 5873SOL    HW229079   0.027   3.916  17.660  0.7379 -0.6929  1.5268
 5874SOL     OW29080   3.783   2.194   6.767 -0.0004  0.4899  0.2627
 5874SOL    HW129081   3.801   2.280   6.805 -0.1154  0.4568  0.3913
 5874SOL    HW229082   3.742   2.215   6.683 -1.4164  1.3293  1.1621
 5875SOL     OW29083   2.079   4.181   2.742  0.2234  0.2830  0.0587
 5875SOL    HW129084   1.986   4.162   2.740 -0.4374  3.5533 -1.5361
 5875SOL    HW229085   2.114   4.139   2.663 -0.7027  0.3198 -0.3656
 5876SOL     OW29086   4.025   1.979  13.754  0.2266  0.5108  0.1508
 5876SOL    HW129087   4.017   1.900  13.700 -0.8806  0.1277  0.8783
 5876SOL    HW229088   3.957   1.974  13.821 -0.4871 -2.5072 -0.7791
 5877SOL     OW29089   3.636   4.143   4.502  0.1280 -0.3154 -0.4660
 5877SOL    HW129090   3.581   4.132   4.425  0.7335  0.6844 -1.0402
 5877SOL    HW229091   3.641   4.238   4.518 -0.2950 -0.1803 -1.1386
 5878SOL     OW29092   0.872   0.990  10.144  0.4762  0.2769 -0.0959
 5878SOL    HW129093   0.897   0.912  10.193 -1.2583  0.5826  1.3019
 5878SOL    HW229094   0.914   1.052  10.203 -0.2404  0.7790 -0.1063
 5879SOL     OW29095   1.678   3.221   2.430  0.8080  0.1097 -0.0657
 5879SOL    HW129096   1.627   3.231   2.349 -1.1716  0.4892  1.2375
 5879SOL    HW229097   1.765   3.189   2.405  1.6503  0.9174  1.8519
 5880SOL     OW29098   2.662   2.047   1.293 -0.1589  0.4617  0.0089
 5880SOL    HW129099   2.600   2.034   1.365 -0.1315 -1.3061 -0.2959
 5880SOL    HW229100   2.708   2.124   1.327  0.2791  0.3455 -0.3256
 5881SOL     OW29101   3.017   2.548  11.879 -0.1887  0.0542  0.1360
 5881SOL    HW129102   2.924   2.528  11.891  0.3615 -0.9516  2.7411
 5881SOL    HW229103   3.053   2.465  11.847 -1.6281 -0.4106 -0.2981
 5882SOL     OW29104   2.402   4.240   2.664 -0.3341 -0.1427 -0.4135
 5882SOL    HW129105   2.327   4.211   2.612 -0.7661  0.8597 -0.3594
 5882SOL    HW229106   2.477   4.251   2.605 -0.6467 -1.6292 -1.0957
 5883SOL     OW29107   1.688   4.094   2.938 -0.4002 -0.2045 -0.7179
 5883SOL    HW129108   1.751   4.117   3.006  0.2987 -1.0444 -1.0890
 5883SOL    HW229109   1.669   4.003   2.961  0.2318  0.0291  0.7370
 5884SOL     OW29110   2.946   2.048  13.851 -0.5072 -0.1238  0.0103
 5884SOL    HW129111   2.866   1.996  13.849 -0.9130  0.5723 -1.6610
 5884SOL    HW229112   2.982   2.037  13.940  0.8900  2.2161 -0.2582
 5885SOL     OW29113   1.968   2.232   5.568  0.3507  0.3345  0.5642
 5885SOL    HW129114   1.986   2.275   5.652  1.2082  1.0892 -0.0154
 5885SOL    HW229115   1.878   2.263   5.557  1.4834  2.9669 -1.1994
 5886SOL     OW29116   4.310   0.157   7.563  0.4629  0.0895  0.4582
 5886SOL    HW129117   4.387   0.201   7.527 -0.1245  2.3304  1.8995
 5886SOL    HW229118   4.251   0.231   7.553  0.0645 -0.4334 -0.9611
 5887SOL     OW29119   2.226   3.005  14.040 -0.1030  0.2252 -0.2045
 5887SOL    HW129120   2.201   3.066  13.971  0.9228 -1.2185 -1.8604
 5887SOL    HW229121   2.139   3.006  14.080  0.6452  0.5805  1.4053
 5888SOL     OW29122   2.807   2.262   1.369 -0.0998 -0.4015 -0.4949
 5888SOL    HW129123   2.890   2.229   1.404  0.2347 -0.6117 -1.4702
 5888SOL    HW229124   2.836   2.300   1.285  0.8938  1.7491  0.8068
 5889SOL     OW29125   3.781   1.035   1.627 -0.4818 -0.5298 -0.1269
 5889SOL    HW129126   3.694   1.021   1.589 -1.0696  2.1880  0.2000
 5889SOL    HW229127   3.789   1.129   1.643  0.5844 -0.5171 -0.7703
 5890SOL     OW29128   3.001   2.771   3.676  0.1017 -0.2669  0.1978
 5890SOL    HW129129   2.962   2.760   3.589  0.4031  1.1913 -0.1169
 5890SOL    HW229130   3.070   2.706   3.665 -0.0046 -0.4005  0.3233
 5891SOL     OW29131   2.780   2.123   9.227 -0.7000  0.1730  0.4463
 5891SOL    HW129132   2.715   2.091   9.164  1.0858  2.9798 -2.8061
 5891SOL    HW229133   2.766   2.077   9.310  0.4314  0.2441  0.6715
 5892SOL     OW29134   2.168   2.849  17.635 -0.1704  0.1809 -0.1356
 5892SOL    HW129135   2.191   2.799  17.557  2.7962  2.0992 -0.4685
 5892SOL    HW229136   2.227   2.817   0.012  1.6454  2.2642 -0.7547
 5893SOL     OW29137   4.437   3.213   4.849  0.3319 -0.0873  0.0730
 5893SOL    HW129138   4.526   3.236   4.875 -0.5930  3.3247  0.1757
 5893SOL    HW229139   4.405   3.227   4.938 -0.3035  0.7682 -0.2926
 5894SOL     OW29140   2.196   3.759   0.057 -0.3799  0.0672  0.1310
 5894SOL    HW129141   2.156   3.680   0.020  1.5427 -1.2788  0.9923
 5894SOL    HW229142   2.123   3.785   0.113  0.8839 -1.2476  2.3575
 5895SOL     OW29143   3.823   1.256   5.686 -0.4481  0.0924  0.0012
 5895SOL    HW129144   3.823   1.179   5.630 -0.0826 -0.8509  1.3055
 5895SOL    HW229145   3.733   1.244   5.718  0.5254 -0.3558  2.5900
 5896SOL     OW29146   0.319   0.813   8.336 -0.0832 -0.0955  0.0822
 5896SOL    HW129147   0.318   0.891   8.393  0.9782  1.4668 -2.0400
 5896SOL    HW229148   0.334   0.744   8.400 -0.6679  0.5068  0.8770
 5897SOL     OW29149   2.133   3.234   4.403 -0.1580  0.1925  0.2861
 5897SOL    HW129150   2.088   3.304   4.355  0.7446  1.6107  1.5101
 5897SOL    HW229151   2.086   3.160   4.365  0.5957 -0.2347  0.1765
 5898SOL     OW29152   2.496   0.807   7.687 -0.0830  0.5262 -1.0654
 5898SOL    HW129153   2.412   0.853   7.687 -0.4530 -0.1499 -1.4218
 5898SOL    HW229154   2.552   0.861   7.743 -1.2110  1.9030 -1.2686
 5899SOL     OW29155   2.092   1.005   7.289  0.3810 -0.2179 -0.3505
 5899SOL    HW129156   2.019   0.969   7.238 -0.2976  0.3478  0.2314
 5899SOL    HW229157   2.040   1.057   7.350  0.2058 -0.4790 -0.2773
 5900SOL     OW29158   2.542   3.830   8.417 -0.1462  0.4398 -0.2777
 5900SOL    HW129159   2.603   3.779   8.469 -2.2639  0.0916  1.8544
 5900SOL    HW229160   2.496   3.880   8.484  1.7569 -1.4567  2.4353
 5901SOL     OW29161   2.346   0.026   7.499 -0.4983  0.5900 -0.2212
 5901SOL    HW129162   2.280   4.715   7.560  1.3023  0.5345  1.6866
 5901SOL    HW229163   2.349   0.113   7.538 -0.3040  0.2001  0.6205
 5902SOL     OW29164   1.619   1.031  14.641 -0.1128 -0.5423 -0.2408
 5902SOL    HW129165   1.669   1.102  14.681 -3.7658  0.4377  2.6127
 5902SOL    HW229166   1.680   0.962  14.617 -0.5249 -0.2277 -2.1834
 5903SOL     OW29167   1.313   4.635   3.446  0.2758  0.0973 -0.2028
 5903SOL    HW129168   1.301   0.004   3.422 -1.5486 -0.2935 -0.7671
 5903SOL    HW229169   1.222   4.616   3.470 -0.3148  2.5303 -0.5685
 5904SOL     OW29170   4.699   2.777  11.125 -0.8377 -0.1635  0.5602
 5904SOL    HW129171   0.050   2.720  11.147 -1.6028  0.4761  4.6748
 5904SOL    HW229172   0.016   2.809  11.044  1.3231  0.1418  1.7350
 5905SOL     OW29173   3.728   1.446   9.392 -0.4904  0.2320 -0.4916
 5905SOL    HW129174   3.769   1.360   9.391 -1.8196 -0.4058 -0.7625
 5905SOL    HW229175   3.656   1.444   9.455  1.6785  1.0033  2.0119
 5906SOL     OW29176   3.533   3.372   8.196  0.1731  0.1153  0.0504
 5906SOL    HW129177   3.447   3.334   8.177  0.2485 -1.3522  2.5889
 5906SOL    HW229178   3.511   3.457   8.234 -0.9894  0.5241 -1.5544
 5907SOL     OW29179   2.164   2.729   9.794 -0.0193 -0.1694 -0.7574
 5907SOL    HW129180   2.118   2.735   9.878  0.0877 -0.4322 -0.6788
 5907SOL    HW229181   2.123   2.649   9.762  1.1607 -0.7360 -0.8700
 5908SOL     OW29182   0.024   0.765   2.915  0.6828 -0.3886  0.2021
 5908SOL    HW129183   0.076   0.771   2.835 -0.4831  1.2955 -0.4236
 5908SOL    HW229184   0.085   0.722   2.975  1.3540 -0.3252 -0.4380
 5909SOL     OW29185   4.651   4.151   3.887  0.3918 -0.2597  0.0383
 5909SOL    HW129186   4.721   4.191   3.939 -1.5042 -1.4805  3.5361
 5909SOL    HW229187   4.649   4.068   3.934 -0.6375  0.9942  2.2072
 5910SOL     OW29188   1.764   0.787   3.156  0.0207  0.0865  0.1303
 5910SOL    HW129189   1.762   0.882   3.164 -1.5618 -0.0142  0.9486
 5910SOL    HW229190   1.695   0.777   3.090 -0.7809  0.7127  0.8762
 5911SOL     OW29191   2.593   2.100  12.514 -0.4260  0.3920  0.4574
 5911SOL    HW129192   2.556   2.147  12.439 -0.9655  2.7000  2.1726
 5911SOL    HW229193   2.688   2.113  12.505 -0.6992  2.4497  0.6739
 5912SOL     OW29194   4.307   0.825   3.306  0.0279 -0.0839  0.0058
 5912SOL    HW129195   4.265   0.852   3.225 -1.2478 -0.6164  0.4770
 5912SOL    HW229196   4.275   0.888   3.371 -1.7701 -2.7729  1.7398
 5913SOL     OW29197   1.755   4.128  10.501 -0.5109 -0.5941 -1.1355
 5913SOL    HW129198   1.733   4.211  10.460 -0.3374  0.8542  1.6655
 5913SOL    HW229199   1.787   4.083  10.423 -1.2238 -2.2655 -0.4695
 5914SOL     OW29200   4.319   0.826  11.460  0.1770  0.0444 -0.4680
 5914SOL    HW129201   4.395   0.768  11.466  0.2830  0.0008 -2.1481
 5914SOL    HW229202   4.253   0.773  11.415  0.6399 -0.7095 -0.2600
 5915SOL     OW29203   0.022   1.175   3.717 -0.3959 -0.2402 -0.3909
 5915SOL    HW129204   0.080   1.171   3.793  0.8162  0.5895 -1.2668
 5915SOL    HW229205   0.087   1.183   3.647 -0.4803  1.9606 -0.2274
 5916SOL     OW29206   1.659   4.620   2.331  0.6658  0.0156  0.3437
 5916SOL    HW129207   1.680   4.526   2.329 -0.6718 -0.2610 -1.2017
 5916SOL    HW229208   1.583   4.617   2.272  0.2009 -0.6586  0.9755
 5917SOL     OW29209   4.675   2.407   5.703  0.0041  0.3135 -0.4935
 5917SOL    HW129210   4.580   2.406   5.689  0.1731  0.9571 -1.7326
 5917SOL    HW229211   4.695   2.318   5.674 -1.3433  0.1322 -0.8763
 5918SOL     OW29212   3.202   0.675  17.645 -0.4349  0.2082 -0.0627
 5918SOL    HW129213   3.197   0.771  17.640 -0.8288  0.3004  2.2896
 5918SOL    HW229214   3.295   0.664  17.664 -0.3085  2.1415  0.4708
 5919SOL     OW29215   3.924   0.694   2.984  0.0691  0.0941 -0.2707
 5919SOL    HW129216   3.834   0.727   2.981 -0.0733 -0.0528  3.1990
 5919SOL    HW229217   3.931   0.616   2.929 -1.7635 -0.3567  0.1376
 5920SOL     OW29218   0.209   2.809   8.293  0.0105  0.1532  0.4766
 5920SOL    HW129219   0.211   2.856   8.376  0.1064  1.0573 -0.0383
 5920SOL    HW229220   0.283   2.851   8.250  1.1990 -1.7808  0.6448
 5921SOL     OW29221   1.956   2.657   4.360 -0.2643 -0.9561 -0.1473
 5921SOL    HW129222   1.867   2.625   4.353 -0.5251 -0.1493 -0.5446
 5921SOL    HW229223   1.964   2.687   4.450  0.4544 -0.6556 -0.3033
 5922SOL     OW29224   2.279   1.114   4.854  0.2434 -0.2890 -0.0146
 5922SOL    HW129225   2.259   1.059   4.778  0.0675  2.2567 -1.8243
 5922SOL    HW229226   2.254   1.202   4.826  0.3736  0.0696  0.9936
 5923SOL     OW29227   4.431   4.412  16.910  0.4366  0.3890 -0.3247
 5923SOL    HW129228   4.401   4.487  16.961 -0.3895 -1.1573  1.4610
 5923SOL    HW229229   4.460   4.454  16.829 -0.5378  2.1779  0.2581
 5924SOL     OW29230   4.661   2.039   2.737  0.5007 -0.1505 -0.5348
 5924SOL    HW129231   4.679   1.947   2.756  1.1806  0.2745  0.9163
 5924SOL    HW229232   4.623   2.042   2.650  1.4680  0.4670 -0.9328
 5925SOL     OW29233   3.057   4.664   1.013  0.3604 -0.2220  0.5049
 5925SOL    HW129234   3.123   4.681   1.080  1.8807  2.5850 -1.6889
 5925SOL    HW229235   3.096   4.586   0.972 -0.8642  0.0067 -1.0995
 5926SOL     OW29236   0.992   4.668  10.043  0.4603  0.3562 -0.0853
 5926SOL    HW129237   1.026   4.592  10.090  2.0122  1.3067  0.3191
 5926SOL    HW229238   0.901   4.638  10.042  0.0871  1.5118 -1.5186
 5927SOL     OW29239   2.050   2.161  11.762  0.3079 -0.1016  0.2457
 5927SOL    HW129240   1.956   2.177  11.751  0.7972  3.5648  1.4313
 5927SOL    HW229241   2.061   2.088  11.702 -0.3420 -0.9906  1.2147
 5928SOL     OW29242   2.151   3.601   6.595  0.5395  0.2464 -0.5512
 5928SOL    HW129243   2.143   3.644   6.510  0.1748  1.1058 -0.0824
 5928SOL    HW229244   2.071   3.621   6.643 -0.6236 -2.4084 -1.4191
 5929SOL     OW29245   1.020   1.487   9.190  0.0492 -0.2351 -0.0097
 5929SOL    HW129246   1.101   1.490   9.242 -0.4597  1.8205  0.6533
 5929SOL    HW229247   0.979   1.560   9.236  1.4515  0.0198  0.8395
 5930SOL     OW29248   4.326   3.602  10.789  0.4029  0.8470  0.4426
 5930SOL    HW129249   4.419   3.625  10.793  0.8623 -1.1062  0.8975
 5930SOL    HW229250   4.278   3.677  10.824 -2.1208  0.1698 -1.5957
 5931SOL     OW29251   1.265   0.095  14.979 -0.2638  0.2284  0.2515
 5931SOL    HW129252   1.322   0.082  14.903  0.2724 -1.8566  0.9969
 5931SOL    HW229253   1.223   0.009  14.983 -2.3591  1.2885  1.0779
 5932SOL     OW29254   3.276   4.084   6.229 -0.2769  0.3816 -0.4300
 5932SOL    HW129255   3.361   4.091   6.186 -0.3336  1.5318 -0.3693
 5932SOL    HW229256   3.218   4.087   6.153  0.7625  0.4728 -1.2016
 5933SOL     OW29257   2.302   2.683  12.185 -0.1024 -0.7654 -0.3806
 5933SOL    HW129258   2.315   2.677  12.280  0.1051 -2.3834 -0.5203
 5933SOL    HW229259   2.278   2.776  12.181 -0.0828 -0.7681 -0.5754
 5934SOL     OW29260   1.004   2.813   0.785 -0.3274 -0.1124 -0.9511
 5934SOL    HW129261   1.034   2.801   0.695  0.3317  0.9307 -0.8639
 5934SOL    HW229262   0.948   2.736   0.790 -0.2375 -0.0605  1.1020
 5935SOL     OW29263   0.312   3.305   8.663  0.1945 -0.1739  0.0316
 5935SOL    HW129264   0.333   3.309   8.757  2.0432 -1.0193 -0.3314
 5935SOL    HW229265   0.234   3.250   8.658  0.5338 -0.8621  2.0507
 5936SOL     OW29266   3.125   2.675   4.336  0.0779  0.3545 -0.4903
 5936SOL    HW129267   3.119   2.581   4.349  1.0722  0.1785 -1.2416
 5936SOL    HW229268   3.036   2.698   4.361  0.1607  0.7558 -0.5591
 5937SOL     OW29269   0.242   3.530   4.226 -0.2777  0.1497 -0.3840
 5937SOL    HW129270   0.161   3.486   4.252  0.4056 -0.1565  1.2085
 5937SOL    HW229271   0.241   3.515   4.132 -0.2071  1.2021 -0.5613
 5938SOL     OW29272   0.250   3.041   0.440  0.1666 -0.4193 -0.0912
 5938SOL    HW129273   0.283   2.953   0.423 -2.2068 -1.2321 -0.5554
 5938SOL    HW229274   0.295   3.071   0.519  1.0901 -0.6299 -0.5401
 5939SOL     OW29275   2.105   0.210   3.107  0.5031  0.4179 -0.3523
 5939SOL    HW129276   2.074   0.297   3.084  0.3199 -0.1788 -2.3524
 5939SOL    HW229277   2.116   0.179   3.017  2.6889  0.3296 -0.0492
 5940SOL     OW29278   3.243   4.526   2.522 -0.2575 -0.5132 -0.0941
 5940SOL    HW129279   3.237   4.604   2.578 -3.7373  0.0619 -1.2250
 5940SOL    HW229280   3.208   4.566   2.442  2.7673 -2.8484 -2.6092
 5941SOL     OW29281   0.883   3.179  12.619  0.0732  0.4776  0.1091
 5941SOL    HW129282   0.951   3.116  12.641 -1.4999 -0.6513  1.7560
 5941SOL    HW229283   0.827   3.132  12.558 -0.2167 -0.2062  0.9045
 5942SOL     OW29284   1.582   0.035   5.649  0.4217  0.7986 -0.5811
 5942SOL    HW129285   1.598   0.086   5.569 -0.1094  0.5973 -0.8137
 5942SOL    HW229286   1.489   0.016   5.643  1.4312 -3.9140 -1.4895
 5943SOL     OW29287   3.384   4.713  15.056  0.2437 -0.1982  0.0940
 5943SOL    HW129288   3.423   4.703  15.143  1.1183  1.0138 -0.1676
 5943SOL    HW229289   3.294   0.016  15.075  0.2871 -1.7031  2.3371
 5944SOL     OW29290   3.891   1.279   1.493  0.1439 -0.2591 -0.3668
 5944SOL    HW129291   3.836   1.355   1.511 -0.6076 -1.2329  1.4555
 5944SOL    HW229292   3.927   1.291   1.405  0.5141 -1.3507 -0.3652
 5945SOL     OW29293   4.291   0.638   9.500  0.2807 -0.1016  0.6441
 5945SOL    HW129294   4.386   0.629   9.502  0.4753  1.5657 -1.1369
 5945SOL    HW229295   4.272   0.546   9.515 -0.6948 -0.2881 -1.7046
 5946SOL     OW29296   0.443   3.156   1.542 -0.0955  0.1035 -0.0279
 5946SOL    HW129297   0.355   3.178   1.510  0.1104 -0.2987 -0.8520
 5946SOL    HW229298   0.429   3.077   1.594  1.3482 -1.5898 -2.2388
 5947SOL     OW29299   1.472   4.325   1.226 -0.9235  0.5218 -0.1325
 5947SOL    HW129300   1.382   4.295   1.242 -0.0527 -0.9137  2.1171
 5947SOL    HW229301   1.463   4.416   1.199 -4.5225 -0.0804 -0.9367
 5948SOL     OW29302   1.752   3.338  17.231 -0.2793  0.1796  0.5854
 5948SOL    HW129303   1.813   3.289  17.175  0.0003 -0.6435  1.6147
 5948SOL    HW229304   1.695   3.265  17.254 -1.4390  1.4212  1.6090
 5949SOL     OW29305   3.494   2.917   3.635 -0.6532 -0.2139 -0.1719
 5949SOL    HW129306   3.577   2.926   3.683 -0.1880 -0.7547 -0.8567
 5949SOL    HW229307   3.454   2.850   3.690  2.4509 -1.6315  0.3909
 5950SOL     OW29308   0.510   3.193   5.477 -0.2397  0.0499 -0.1481
 5950SOL    HW129309   0.512   3.107   5.436  1.2622  0.1716 -0.3347
 5950SOL    HW229310   0.551   3.243   5.407  1.0590 -0.4930  0.2200
 5951SOL     OW29311   4.438   1.118  11.216 -0.1114 -0.0092  0.1102
 5951SOL    HW129312   4.512   1.131  11.275 -0.5347  1.9931  0.1795
 5951SOL    HW229313   4.435   1.022  11.214 -2.8694  0.0385  3.4489
 5952SOL     OW29314   1.180   3.322  11.498  0.1058 -0.2406  0.2308
 5952SOL    HW129315   1.236   3.372  11.439  0.4086 -1.3836 -0.4416
 5952SOL    HW229316   1.093   3.348  11.467  0.7707  0.3684 -1.1240
 5953SOL     OW29317   2.442   0.141   3.199  0.7713 -0.0134 -0.5350
 5953SOL    HW129318   2.470   0.213   3.142 -3.0592  0.5439 -1.7189
 5953SOL    HW229319   2.453   0.065   3.141  1.0108 -0.4774  0.1253
 5954SOL     OW29320   3.114   1.142  14.805  0.1218  0.0411 -0.0134
 5954SOL    HW129321   3.103   1.048  14.787  0.9653  0.2447 -1.5576
 5954SOL    HW229322   3.047   1.143  14.873 -1.4021  1.7497 -1.5713
 5955SOL     OW29323   3.887   3.806   1.201 -0.4353 -0.4299 -0.1807
 5955SOL    HW129324   3.962   3.801   1.143 -1.3121 -0.1745 -1.3478
 5955SOL    HW229325   3.920   3.865   1.269 -0.9269 -2.4269  1.7671
 5956SOL     OW29326   1.492   0.059   6.869  0.2353 -0.0109 -0.0647
 5956SOL    HW129327   1.501   4.701   6.920  0.7676  0.4599  0.5910
 5956SOL    HW229328   1.435   0.037   6.795 -1.5524  1.3386  0.9015
 5957SOL     OW29329   0.680   2.790   8.214 -0.3438 -0.1106  0.1673
 5957SOL    HW129330   0.738   2.819   8.144  2.6288 -3.3448  1.2666
 5957SOL    HW229331   0.721   2.824   8.294 -0.3646 -0.1779  0.2065
 5958SOL     OW29332   4.542   0.972  15.541 -0.9161 -0.0357  0.3142
 5958SOL    HW129333   4.552   0.946  15.450  1.7899  2.6365 -0.1144
 5958SOL    HW229334   4.629   0.975  15.581 -0.6558 -1.8762 -0.1200
 5959SOL     OW29335   1.604   4.357   2.838  0.2264 -0.1820 -0.1628
 5959SOL    HW129336   1.685   4.405   2.820  0.4274  0.7730  3.2523
 5959SOL    HW229337   1.628   4.308   2.916  0.4361  0.0886 -0.0556
 5960SOL     OW29338   1.518   0.356  10.732 -0.9985  0.5750  0.4810
 5960SOL    HW129339   1.586   0.296  10.702 -1.1044  0.4304  0.5250
 5960SOL    HW229340   1.476   0.380  10.650  1.8077  1.1781 -0.7781
 5961SOL     OW29341   2.931   1.815  13.366 -0.4767  0.2895 -0.2117
 5961SOL    HW129342   2.877   1.884  13.405  2.2943  0.7988  2.7566
 5961SOL    HW229343   2.945   1.755  13.440  1.3408  2.0942  0.9306
 5962SOL     OW29344   3.939   1.547  11.612 -0.3294  0.5479  0.3962
 5962SOL    HW129345   3.942   1.467  11.561  1.2262 -0.0762  1.4780
 5962SOL    HW229346   4.020   1.595  11.593  0.6811 -1.3830 -0.0864
 5963SOL     OW29347   4.540   2.834   2.826 -0.5177 -0.2143 -0.6168
 5963SOL    HW129348   4.497   2.758   2.787 -1.0871 -0.0339 -0.3358
 5963SOL    HW229349   4.507   2.904   2.770 -3.7130  0.0061  1.5576
 5964SOL     OW29350   0.756   3.984  10.601  0.4665 -0.0872  0.6787
 5964SOL    HW129351   0.789   3.956  10.516 -2.0638  1.5549 -0.8517
 5964SOL    HW229352   0.785   3.911  10.655  3.1602  0.9207  0.5783
 5965SOL     OW29353   1.341   3.017   1.804  0.0101 -0.2726  0.6619
 5965SOL    HW129354   1.425   3.021   1.759 -0.5428  0.5663 -0.2862
 5965SOL    HW229355   1.312   3.103   1.772 -3.5223 -3.1255 -3.7518
 5966SOL     OW29356   1.217   2.108   9.231  0.0768  0.1253 -0.2282
 5966SOL    HW129357   1.305   2.134   9.206  0.2629  0.6534  0.9975
 5966SOL    HW229358   1.151   2.156   9.181 -0.2478 -1.8786 -1.7239
 5967SOL     OW29359   3.196   0.148   8.546 -0.5262 -0.4606  0.0186
 5967SOL    HW129360   3.176   0.063   8.586  0.0787 -0.1546  0.9572
 5967SOL    HW229361   3.241   0.129   8.464  0.4212  0.2485  0.3838
 5968SOL     OW29362   1.399   1.341  13.320 -0.2335 -0.0584  0.6101
 5968SOL    HW129363   1.424   1.331  13.412  1.2719  0.3330  0.2411
 5968SOL    HW229364   1.387   1.251  13.291  0.3455  0.1211 -0.1643
 5969SOL     OW29365   3.025   3.200   7.032 -0.2577  0.3540  0.8143
 5969SOL    HW129366   3.030   3.162   7.120 -0.1547 -0.2020  0.5701
 5969SOL    HW229367   3.050   3.291   7.049  0.2979 -0.0216  1.9796
 5970SOL     OW29368   4.068   3.452   4.505 -0.3105 -0.8707  0.5955
 5970SOL    HW129369   4.036   3.505   4.578  2.0670 -0.1193  1.1095
 5970SOL    HW229370   4.115   3.382   4.550  2.2264  0.6713  0.3309
 5971SOL     OW29371   1.120   1.637   6.012  0.6186  0.2918 -0.0189
 5971SOL    HW129372   1.096   1.640   5.919  1.2561  0.8321 -0.1637
 5971SOL    HW229373   1.068   1.559   6.029 -1.4772  1.8118  0.6037
 5972SOL     OW29374   0.227   1.513   0.047 -0.4909 -0.8445 -0.1468
 5972SOL    HW129375   0.193   1.522   0.136  1.1068 -0.6472  0.4344
 5972SOL    HW229376   0.182   1.581  17.688  1.4610  1.0013  0.6091
 5973SOL     OW29377   2.103   1.311   7.872 -0.2356  0.4860 -0.4764
 5973SOL    HW129378   2.032   1.371   7.894  0.3713  1.1451 -0.3448
 5973SOL    HW229379   2.054   1.228   7.867  1.7476 -0.8517  2.9297
 5974SOL     OW29380   2.596   2.543  17.662  0.5235 -0.4312  0.3888
 5974SOL    HW129381   2.537   2.618  17.654  2.3106  0.7791 -1.7306
 5974SOL    HW229382   2.664   2.578   0.028 -0.1827  0.5290  0.6549
 5975SOL     OW29383   2.365   3.135   3.713 -0.5546  0.1520  0.4334
 5975SOL    HW129384   2.377   3.089   3.796 -1.5648  2.5700  1.9397
 5975SOL    HW229385   2.357   3.060   3.655 -0.3341 -0.1728  0.8279
 5976SOL     OW29386   4.293   3.338  14.228 -0.4351  0.3684 -0.6449
 5976SOL    HW129387   4.200   3.318  14.212 -0.8849  0.8494  1.3930
 5976SOL    HW229388   4.293   3.399  14.302  0.8581  0.0463 -0.3890
 5977SOL     OW29389   1.225   0.420   5.635 -0.6465 -0.0652  0.0873
 5977SOL    HW129390   1.211   0.335   5.678  0.0933 -0.4437 -0.4271
 5977SOL    HW229391   1.174   0.415   5.555  0.0333 -2.0731 -0.2109
 5978SOL     OW29392   2.749   2.948  13.344 -0.1287 -0.0178  0.7055
 5978SOL    HW129393   2.688   2.904  13.285  1.3723  0.0760 -0.9187
 5978SOL    HW229394   2.740   2.893  13.422  1.1742  2.1412  2.3651
 5979SOL     OW29395   4.537   4.261   4.457 -0.3342  0.2735 -0.5682
 5979SOL    HW129396   4.596   4.217   4.518 -0.4768  0.3484 -0.3779
 5979SOL    HW229397   4.527   4.193   4.390 -0.9746  0.4462 -0.6558
 5980SOL     OW29398   0.499   4.282  11.422  0.2575 -0.2195 -0.1115
 5980SOL    HW129399   0.579   4.230  11.423  1.1843  1.2289  1.4821
 5980SOL    HW229400   0.526   4.361  11.375 -1.0177  0.2327 -0.0849
 5981SOL     OW29401   3.416   0.104   9.040  0.0118 -0.1022 -0.2146
 5981SOL    HW129402   3.410   0.008   9.042 -1.7415  0.0146  0.0866
 5981SOL    HW229403   3.488   0.127   8.981 -1.3420  1.5246 -1.2323
 5982SOL     OW29404   4.485   1.416   7.378 -0.0064 -0.1423  0.3577
 5982SOL    HW129405   4.491   1.381   7.467 -0.3543  0.0767  0.4688
 5982SOL    HW229406   4.529   1.346   7.330 -1.0937  1.0728 -2.4105
 5983SOL     OW29407   1.218   0.516   1.250 -0.4046  0.2034  0.4552
 5983SOL    HW129408   1.157   0.584   1.221  0.1897  0.4931 -0.0966
 5983SOL    HW229409   1.155   0.443   1.256 -1.2643  0.8726 -0.3884
 5984SOL     OW29410   2.338   2.130  10.482 -0.8068  0.1962 -0.2332
 5984SOL    HW129411   2.384   2.211  10.462 -1.6016  0.0989 -2.3914
 5984SOL    HW229412   2.385   2.062  10.434 -1.2162 -2.5350  3.2427
 5985SOL     OW29413   4.435   0.358   3.904 -0.1175  0.3102  0.0271
 5985SOL    HW129414   4.497   0.338   3.833 -0.9392  1.6512 -1.0712
 5985SOL    HW229415   4.356   0.369   3.852  0.1119 -0.9971 -0.6167
 5986SOL     OW29416   0.697   1.874   2.677 -0.2460  0.3611  0.1403
 5986SOL    HW129417   0.791   1.860   2.669  0.1947  2.8054  1.0120
 5986SOL    HW229418   0.677   1.822   2.755 -2.5192  0.2559 -0.5103
 5987SOL     OW29419   3.113   0.810   2.223  0.1046 -0.3209  0.6592
 5987SOL    HW129420   3.196   0.763   2.231 -0.3686 -1.2939 -0.2334
 5987SOL    HW229421   3.100   0.840   2.313  1.4833 -0.4302  0.8967
 5988SOL     OW29422   0.427   0.469   9.186  0.2051  0.0180  0.7021
 5988SOL    HW129423   0.400   0.465   9.277  0.1131 -0.7284  0.6397
 5988SOL    HW229424   0.511   0.515   9.192 -0.0346  0.0225  3.6568
 5989SOL     OW29425   1.990   0.153   1.671  0.6892 -0.3437  0.6088
 5989SOL    HW129426   1.920   0.217   1.688  0.2950 -0.6526  0.1302
 5989SOL    HW229427   2.052   0.183   1.738  1.3723 -0.7137  0.1428
 5990SOL     OW29428   2.396   0.887   5.838 -0.4672  0.0971  0.1131
 5990SOL    HW129429   2.375   0.803   5.797 -0.7199  0.7803 -1.1649
 5990SOL    HW229430   2.321   0.902   5.895 -0.0451 -0.5920  0.8499
 5991SOL     OW29431   2.202   1.682   1.932  0.7459 -0.2797  0.1855
 5991SOL    HW129432   2.235   1.639   2.011 -1.1955  1.5135  1.9440
 5991SOL    HW229433   2.286   1.684   1.885 -0.1949 -0.1418 -1.5064
 5992SOL     OW29434   1.536   1.621   1.502 -0.3879 -0.0985  0.0335
 5992SOL    HW129435   1.607   1.556   1.500 -1.1947 -0.9524 -0.5898
 5992SOL    HW229436   1.494   1.596   1.585  0.8771  1.2282  1.0761
 5993SOL     OW29437   0.278   2.360   3.713 -0.2431  0.5422  0.3561
 5993SOL    HW129438   0.228   2.278   3.704 -0.8853  1.1356 -1.5810
 5993SOL    HW229439   0.281   2.374   3.808  1.2022  0.6152  0.2969
 5994SOL     OW29440   1.783   4.337   5.641 -0.2772  0.4837  0.3303
 5994SOL    HW129441   1.808   4.246   5.627 -0.4730  0.4272  0.3486
 5994SOL    HW229442   1.689   4.326   5.623 -0.2149 -1.0365  0.9518
 5995SOL     OW29443   0.263   1.159   2.807 -0.0763 -0.2709 -0.4157
 5995SOL    HW129444   0.241   1.175   2.715 -2.3307 -0.5350  0.0708
 5995SOL    HW229445   0.175   1.138   2.841 -0.2482  2.2043  0.6922
 5996SOL     OW29446   2.608   1.191   7.116  0.6327 -0.2428 -0.4149
 5996SOL    HW129447   2.597   1.281   7.084 -0.1551 -0.0216  0.4621
 5996SOL    HW229448   2.570   1.214   7.201 -0.1839 -1.5750 -0.4363
 5997SOL     OW29449   1.548   3.889   6.011 -0.0355  0.1053  0.1024
 5997SOL    HW129450   1.566   3.799   6.040 -1.3056  0.0472  0.6961
 5997SOL    HW229451   1.523   3.871   5.920 -0.1468  1.5457 -0.1559
 5998SOL     OW29452   3.001   1.122  13.624  0.1755 -0.1554 -0.4160
 5998SOL    HW129453   2.926   1.162  13.668  1.4560 -0.3106  1.9300
 5998SOL    HW229454   2.966   1.038  13.595  0.0790 -0.4691  0.5873
 5999SOL     OW29455   2.666   2.976   7.242  0.3892 -0.1637  0.7318
 5999SOL    HW129456   2.700   3.015   7.323 -1.3486 -0.1861  1.4764
 5999SOL    HW229457   2.574   2.960   7.266 -0.6004  1.6458 -1.8450
 6000SOL     OW29458   4.150   3.067  14.150  0.1389  0.1844 -0.6281
 6000SOL    HW129459   4.112   3.067  14.237 -1.0448  1.0656 -1.1406
 6000SOL    HW229460   4.117   3.152  14.119 -0.2780  0.3692  0.3177
 6001SOL     OW29461   0.868   0.459   9.882  0.1513 -0.7793  0.3871
 6001SOL    HW129462   0.777   0.433   9.871  0.4213 -1.6868  0.2738
 6001SOL    HW229463   0.877   0.464   9.977 -0.4854  1.4336  0.3294
 6002SOL     OW29464   4.628   1.000   8.765 -0.8796  0.0711  0.1212
 6002SOL    HW129465   4.666   0.940   8.701 -0.3547  0.3934  0.1323
 6002SOL    HW229466   4.583   0.942   8.826  1.0370  0.1404  1.5860
 6003SOL     OW29467   4.252   1.456  11.576  0.9019  0.8650  0.6385
 6003SOL    HW129468   4.290   1.526  11.628  2.3379  0.1408  0.5593
 6003SOL    HW229469   4.246   1.500  11.491  2.4929 -1.6780 -0.8200
 6004SOL     OW29470   3.749   3.284   8.671 -0.4464 -0.2517 -0.2319
 6004SOL    HW129471   3.780   3.194   8.677  2.0453  0.4641 -1.9617
 6004SOL    HW229472   3.728   3.299   8.763 -0.0852  0.3585 -0.2480
 6005SOL     OW29473   0.027   0.219   7.822  0.4603  0.3262  0.0912
 6005SOL    HW129474   4.703   0.287   7.774  1.5410  1.5858  0.8363
 6005SOL    HW229475   4.709   0.140   7.786 -0.1001  0.8242 -0.3543
 6006SOL     OW29476   3.440   2.937   7.623 -0.0301  0.2296  0.4227
 6006SOL    HW129477   3.415   2.929   7.715  1.1202  0.4492  0.7547
 6006SOL    HW229478   3.534   2.952   7.639  0.7398 -3.4935 -0.6509
 6007SOL     OW29479   3.846   0.584   0.979  0.3483 -0.8177 -0.1055
 6007SOL    HW129480   3.904   0.577   0.903  0.1756 -0.6341 -0.2544
 6007SOL    HW229481   3.890   0.651   1.032 -1.0005 -0.4698  0.5702
 6008SOL     OW29482   1.019   4.014   9.155 -0.5550  0.4690  0.2214
 6008SOL    HW129483   0.961   4.086   9.131 -0.2495  0.7853  0.4268
 6008SOL    HW229484   1.109   4.047   9.161 -0.2531 -0.3566  0.2034
 6009SOL     OW29485   0.667   0.212   9.897 -0.3954 -0.1613 -0.0798
 6009SOL    HW129486   0.664   0.156   9.975 -0.4207  0.6485  0.5080
 6009SOL    HW229487   0.712   0.156   9.834 -0.1778  0.6468 -0.6274
 6010SOL     OW29488   3.954   4.695   5.998  0.4274  0.1513 -0.7881
 6010SOL    HW129489   3.887   0.040   6.010  0.3426  0.2325 -1.7210
 6010SOL    HW229490   3.903   4.617   5.977 -0.9967  1.4178 -2.0928
 6011SOL     OW29491   4.710   4.461   1.646  0.4121 -0.3034  0.2827
 6011SOL    HW129492   0.020   4.534   1.700  0.5844  0.2183 -0.5216
 6011SOL    HW229493   0.046   4.394   1.681 -2.4915 -2.0764  1.7237
 6012SOL     OW29494   2.816   1.780  15.534  0.1082  0.2372 -0.0331
 6012SOL    HW129495   2.773   1.850  15.584  0.4464 -0.9754  1.9484
 6012SOL    HW229496   2.796   1.708  15.594  1.1810 -0.3283 -0.3652
 6013SOL     OW29497   2.591   4.261   4.123  0.4491  0.6866 -0.6982
 6013SOL    HW129498   2.530   4.268   4.196  0.8909  0.1683 -0.2661
 6013SOL    HW229499   2.570   4.169   4.106  1.8928 -0.3509  2.9952
 6014SOL     OW29500   3.731   2.020   5.600 -0.1108 -0.2660 -0.3979
 6014SOL    HW129501   3.680   1.950   5.559 -1.0917  0.8664 -1.1205
 6014SOL    HW229502   3.720   1.991   5.691 -0.3304  0.8080 -0.0779
 6015SOL     OW29503   2.321   0.180   3.461 -0.3431 -0.2834  0.0844
 6015SOL    HW129504   2.391   0.161   3.522  0.4316 -0.5120 -0.8682
 6015SOL    HW229505   2.369   0.178   3.378 -0.3803  1.6863  0.0192
 6016SOL     OW29506   3.536   0.404   1.030  0.5045 -0.7500 -0.2306
 6016SOL    HW129507   3.445   0.426   1.049 -0.0399 -1.3701 -2.1605
 6016SOL    HW229508   3.590   0.427   1.106  1.4501 -0.7533 -0.8905
 6017SOL     OW29509   2.666   1.632   1.175 -0.1749 -0.5462 -0.0253
 6017SOL    HW129510   2.586   1.684   1.166 -0.5193 -1.1070 -0.1772
 6017SOL    HW229511   2.676   1.644   1.269 -0.8901 -0.7270  0.0743
 6018SOL     OW29512   4.136   1.296   4.863 -0.3727 -0.6908 -0.0992
 6018SOL    HW129513   4.193   1.233   4.907  0.7895  1.5603  1.6730
 6018SOL    HW229514   4.088   1.231   4.813  1.9989 -1.7433 -1.0008
 6019SOL     OW29515   1.324   2.966   9.373  0.1782  0.3110  0.1141
 6019SOL    HW129516   1.376   2.887   9.384 -0.0222 -0.0203 -1.3556
 6019SOL    HW229517   1.341   2.989   9.282  0.5115  2.9734  0.8430
 6020SOL     OW29518   4.150   3.758   3.794  0.1522  0.4404  0.1829
 6020SOL    HW129519   4.095   3.701   3.739  1.2373  0.1527 -0.6036
 6020SOL    HW229520   4.185   3.698   3.860 -1.3590  0.5224  1.0580
 6021SOL     OW29521   2.099   1.020   8.382 -0.3046  0.4714  0.5032
 6021SOL    HW129522   2.191   0.998   8.401 -0.5945 -2.1194 -1.1212
 6021SOL    HW229523   2.051   0.960   8.439 -1.1172  1.4353  0.8268
 6022SOL     OW29524   4.680   0.683  15.110 -0.1020  0.7093  0.0728
 6022SOL    HW129525   0.005   0.623  15.052  0.8347  1.0765  0.4542
 6022SOL    HW229526   4.593   0.649  15.090 -0.6123  1.9154  0.2470
 6023SOL     OW29527   4.669   0.015   9.327  0.5656 -0.2723  0.3036
 6023SOL    HW129528   4.642   4.656   9.369  2.6492 -0.7698  0.6812
 6023SOL    HW229529   4.718   0.057   9.398  0.8340  0.0015 -0.0455
 6024SOL     OW29530   0.573   3.314  14.778  0.3467  0.1174  0.2560
 6024SOL    HW129531   0.603   3.336  14.690  1.4134 -0.6565  0.4143
 6024SOL    HW229532   0.657   3.292  14.818 -0.2518 -0.5854  1.1325
 6025SOL     OW29533   2.961   2.405   1.782 -0.3597 -0.2713 -0.2708
 6025SOL    HW129534   3.033   2.423   1.722 -0.7654 -0.0549 -0.6921
 6025SOL    HW229535   2.897   2.472   1.756 -0.5302 -0.2117  0.2886
 6026SOL     OW29536   4.364   2.002  14.178 -0.3173 -0.3859  0.3313
 6026SOL    HW129537   4.312   2.020  14.100 -2.1402 -0.1606  1.5993
 6026SOL    HW229538   4.299   1.981  14.245  0.8239  0.8153  1.8090
 6027SOL     OW29539   2.160   3.318   9.003 -0.4939  0.4595 -0.1542
 6027SOL    HW129540   2.230   3.376   8.976  0.9304 -0.9805  0.4348
 6027SOL    HW229541   2.199   3.268   9.075 -0.6486  0.4993 -0.0428
 6028SOL     OW29542   2.378   2.952   3.933  0.6859  0.7080  0.4361
 6028SOL    HW129543   2.356   3.005   4.010 -1.7303 -1.0338  0.9538
 6028SOL    HW229544   2.410   2.874   3.978 -1.5618  0.1030  0.9898
 6029SOL     OW29545   1.648   0.769   3.433  0.2374  0.1977 -0.4178
 6029SOL    HW129546   1.713   0.734   3.372 -1.1464 -2.0682 -0.6063
 6029SOL    HW229547   1.567   0.730   3.399  0.5735 -0.7996 -0.0853
 6030SOL     OW29548   1.299   2.839   4.424  0.4654 -0.9798 -0.4324
 6030SOL    HW129549   1.240   2.913   4.417  0.1489 -1.2351 -0.4886
 6030SOL    HW229550   1.360   2.860   4.494 -1.6199  0.6595  0.8650
 6031SOL     OW29551   1.882   0.923   5.571 -0.0262 -0.2539 -0.2791
 6031SOL    HW129552   1.799   0.898   5.612  1.2515 -3.8207  0.0943
 6031SOL    HW229553   1.853   1.003   5.526 -3.4366 -0.5956  1.3359
 6032SOL     OW29554   1.184   3.045   2.056 -0.3323 -0.9807 -0.3688
 6032SOL    HW129555   1.174   3.139   2.041  0.2834 -0.7721  0.5462
 6032SOL    HW229556   1.251   3.013   1.996  0.1586 -0.3492 -0.1456
 6033SOL     OW29557   4.037   0.186   8.219  0.2097  0.3451 -0.2874
 6033SOL    HW129558   4.076   0.114   8.170 -3.3222 -0.8181 -1.4196
 6033SOL    HW229559   4.038   0.256   8.154  1.2637  0.8493  0.2805
 6034SOL     OW29560   3.343   3.462   2.769  0.2465 -0.0692 -0.2109
 6034SOL    HW129561   3.267   3.504   2.811 -0.0140  0.9814 -1.7515
 6034SOL    HW229562   3.378   3.539   2.725  1.8779  0.0497  1.3209
 6035SOL     OW29563   2.558   2.643   4.703 -0.2312 -0.3536  0.2333
 6035SOL    HW129564   2.596   2.568   4.748 -0.3895 -0.9622 -0.6419
 6035SOL    HW229565   2.620   2.712   4.726  0.4514 -0.3637 -1.5813
 6036SOL     OW29566   2.611   0.159   7.198  0.0003  0.8512  0.5961
 6036SOL    HW129567   2.664   0.096   7.149  0.8447  3.1431 -1.4043
 6036SOL    HW229568   2.612   0.121   7.286  1.0330  0.5692  0.4660
 6037SOL     OW29569   4.523   2.368   4.780 -0.5488  0.1250 -0.0221
 6037SOL    HW129570   4.457   2.340   4.717 -0.2484 -2.2919  0.7610
 6037SOL    HW229571   4.497   2.460   4.791  1.7381  0.7162  0.3200
 6038SOL     OW29572   4.014   0.842   7.683 -0.7942 -0.0910 -0.1585
 6038SOL    HW129573   3.960   0.916   7.710 -0.6619  0.0641 -0.3230
 6038SOL    HW229574   3.954   0.790   7.630 -2.9259  0.9474  1.2482
 6039SOL     OW29575   2.939   0.545   0.764 -0.0140 -0.3942 -0.5056
 6039SOL    HW129576   2.913   0.539   0.673 -1.2768 -0.4390 -0.1359
 6039SOL    HW229577   2.852   0.564   0.799  0.2210  0.9276 -0.6439
 6040SOL     OW29578   1.766   2.625   0.128  0.5180  0.0803 -0.1228
 6040SOL    HW129579   1.840   2.566   0.119  1.3632  1.3066 -1.2922
 6040SOL    HW229580   1.763   2.664   0.040 -0.1250 -1.9411 -1.0112
 6041SOL     OW29581   4.672   2.626   0.168  0.0516 -0.5629  0.6228
 6041SOL    HW129582   0.019   2.672   0.214 -1.3807 -0.0223  2.2725
 6041SOL    HW229583   4.601   2.657   0.224  1.1531  0.5645  1.3751
 6042SOL     OW29584   4.690   3.755  16.753  0.4182 -0.5870 -0.0269
 6042SOL    HW129585   4.719   3.807  16.828  2.4879  0.2619 -1.4004
 6042SOL    HW229586   4.718   3.822  16.690 -1.0945 -0.4483 -0.5647
 6043SOL     OW29587   0.175   4.359   7.035 -0.4148  0.6165  0.2641
 6043SOL    HW129588   0.157   4.361   7.129 -1.7906 -0.5591  0.0274
 6043SOL    HW229589   0.198   4.449   7.016 -0.4372  0.2235 -1.5665
 6044SOL     OW29590   2.990   3.688   5.005  0.1538  0.0949  0.3261
 6044SOL    HW129591   3.067   3.745   5.000 -0.8475  1.4366 -0.1833
 6044SOL    HW229592   2.924   3.731   4.950 -0.5054 -0.7922  0.4249
 6045SOL     OW29593   0.887   4.524   8.419 -0.1582  0.0246 -0.2072
 6045SOL    HW129594   0.867   4.598   8.362 -1.1887 -0.1300 -0.0346
 6045SOL    HW229595   0.913   4.569   8.499  0.2423  0.6361 -0.6827
 6046SOL     OW29596   1.043   3.019  12.782  0.2436 -0.6123 -0.1179
 6046SOL    HW129597   1.070   2.944  12.730 -1.5552 -2.0165  0.9556
 6046SOL    HW229598   0.950   3.002  12.797 -0.0063  0.7689 -0.1079
 6047SOL     OW29599   3.198   2.177   2.735 -0.2070 -0.0405  0.1541
 6047SOL    HW129600   3.230   2.213   2.652 -0.9914 -1.0542 -0.5746
 6047SOL    HW229601   3.236   2.091   2.718 -0.9803 -0.4863  0.7427
 6048SOL     OW29602   1.399   0.330   7.342  0.0124 -0.1796  0.3627
 6048SOL    HW129603   1.378   0.279   7.420  1.5304  0.3407  1.1133
 6048SOL    HW229604   1.418   0.262   7.277 -2.9004 -1.4800  0.8828
 6049SOL     OW29605   0.400   2.462   9.044  0.1016  0.3946 -0.2121
 6049SOL    HW129606   0.363   2.433   9.128  0.4066 -0.0151 -0.2221
 6049SOL    HW229607   0.492   2.469   9.069  0.4186  0.6467 -1.4988
 6050SOL     OW29608   0.024   2.989   8.076  0.1442  0.4388  0.0813
 6050SOL    HW129609   4.720   2.897   8.075  1.4813  0.0498  0.6050
 6050SOL    HW229610   0.047   3.001   7.984  0.5643 -0.4183  0.0742
 6051SOL     OW29611   3.636   1.566   3.605  0.1033 -0.6206 -0.3676
 6051SOL    HW129612   3.545   1.593   3.619  0.1708  0.0860 -1.3013
 6051SOL    HW229613   3.631   1.475   3.633 -1.2102  0.1405  1.8895
 6052SOL     OW29614   1.836   2.242  10.638  0.1684 -0.0314  0.8546
 6052SOL    HW129615   1.893   2.198  10.575 -0.5234  0.9519 -0.4628
 6052SOL    HW229616   1.756   2.243  10.586  2.0138  1.6844 -1.9570
 6053SOL     OW29617   1.432   1.425  11.058  0.0970  0.3524  0.1944
 6053SOL    HW129618   1.442   1.517  11.033  0.3965 -0.1795 -1.6078
 6053SOL    HW229619   1.506   1.415  11.118 -0.2571  2.3487  0.9897
 6054SOL     OW29620   4.122   2.655  12.665  0.3994 -0.3264  0.3946
 6054SOL    HW129621   4.213   2.678  12.644  0.7635 -0.0670  2.2845
 6054SOL    HW229622   4.100   2.599  12.590  0.4603 -1.4731  1.2328
 6055SOL     OW29623   2.669   4.009   9.080  0.3815  0.1090  0.1849
 6055SOL    HW129624   2.597   4.047   9.030 -1.5351 -1.4373  1.7909
 6055SOL    HW229625   2.711   4.081   9.127  0.8989  0.4421 -0.7883
 6056SOL     OW29626   2.842   4.187   3.209  0.2185 -0.2728 -0.3027
 6056SOL    HW129627   2.938   4.190   3.208  0.1675  1.8266  0.8273
 6056SOL    HW229628   2.815   4.216   3.122  0.2136  1.8428  0.4079
 6057SOL     OW29629   1.857   3.170   3.652  0.2099 -0.2677 -0.0021
 6057SOL    HW129630   1.796   3.143   3.720 -0.5444 -0.3943 -0.7317
 6057SOL    HW229631   1.830   3.262   3.641 -0.8280 -0.5256  0.3829
 6058SOL     OW29632   2.819   4.275   6.143 -0.4859 -0.4710  0.3258
 6058SOL    HW129633   2.862   4.207   6.194  0.8541 -0.8441 -1.3057
 6058SOL    HW229634   2.802   4.233   6.059 -0.3434 -1.6402  0.8926
 6059SOL     OW29635   3.200   3.838   4.982 -0.2281  0.3435  0.0081
 6059SOL    HW129636   3.223   3.906   5.045 -0.3906  0.3002  0.1163
 6059SOL    HW229637   3.263   3.859   4.913  0.9515 -3.4863 -0.1018
 6060SOL     OW29638   3.200   1.202   6.155  0.7914  0.8127 -0.5262
 6060SOL    HW129639   3.174   1.288   6.120  3.0047  2.0822  0.9425
 6060SOL    HW229640   3.118   1.167   6.192  2.2547 -2.0748 -0.0316
 6061SOL     OW29641   3.912   0.542   2.696  0.1882  0.2645  0.0649
 6061SOL    HW129642   3.991   0.489   2.689 -1.4376 -2.2333  0.8425
 6061SOL    HW229643   3.939   0.634   2.691  2.8048 -0.6813 -2.4444
 6062SOL     OW29644   1.891   0.291   6.817  0.0565 -0.4025  0.5770
 6062SOL    HW129645   1.861   0.236   6.889  1.2620  0.7634  1.9760
 6062SOL    HW229646   1.934   0.231   6.755 -0.1814 -0.9971  0.9867
 6063SOL     OW29647   1.787   3.026   7.866  0.4344  0.0315 -0.4548
 6063SOL    HW129648   1.799   3.050   7.958 -0.4016 -1.0415 -0.0708
 6063SOL    HW229649   1.765   2.934   7.880 -3.8678  0.5349 -3.9503
 6064SOL     OW29650   4.611   4.336   7.403  0.3526 -0.3519 -0.1013
 6064SOL    HW129651   4.583   4.339   7.495 -1.2601  0.8499 -0.6404
 6064SOL    HW229652   4.603   4.429   7.381  0.9087 -0.4748 -0.8434
 6065SOL     OW29653   3.243   3.831   7.998 -0.4334  0.0005 -0.2432
 6065SOL    HW129654   3.272   3.920   8.018  2.2699 -0.7481 -0.8237
 6065SOL    HW229655   3.326   3.783   8.003 -0.5316 -0.1734 -0.2692
 6066SOL     OW29656   0.215   3.356  12.345  0.6244 -0.1577 -0.2922
 6066SOL    HW129657   0.306   3.384  12.346  1.5678 -3.1213 -3.3917
 6066SOL    HW229658   0.227   3.277  12.398 -0.0727  0.4059  0.7109
 6067SOL     OW29659   0.551   1.035   8.222  0.4206  0.1857  0.6875
 6067SOL    HW129660   0.582   0.989   8.299 -1.1802  0.6635  1.6089
 6067SOL    HW229661   0.623   1.028   8.159  0.5860  0.5079  0.8389
 6068SOL     OW29662   4.505   2.639   4.761  0.0012  0.1477 -0.2425
 6068SOL    HW129663   4.598   2.653   4.775 -0.0431 -0.0702  0.2762
 6068SOL    HW229664   4.506   2.630   4.666  0.9745 -0.9873 -0.1239
 6069SOL     OW29665   1.169   3.140   2.832  0.3758  0.4748  0.2958
 6069SOL    HW129666   1.103   3.126   2.899 -0.8859  1.3307 -0.7530
 6069SOL    HW229667   1.211   3.054   2.831  1.1728  0.8560  1.6557
 6070SOL     OW29668   0.653   4.306   7.944 -0.6958 -0.1608  0.3298
 6070SOL    HW129669   0.717   4.242   7.975  0.1482  0.0043 -1.0904
 6070SOL    HW229670   0.707   4.371   7.899 -3.2081  0.7013 -1.4328
 6071SOL     OW29671   0.159   3.629   4.569 -0.0481 -0.2234 -0.3328
 6071SOL    HW129672   0.239   3.576   4.571  0.0030 -0.1589 -0.6649
 6071SOL    HW229673   0.189   3.715   4.600  0.7174 -1.0095  1.0836
 6072SOL     OW29674   1.597   0.150  14.990  0.0303  0.2372  0.4416
 6072SOL    HW129675   1.549   0.209  14.932 -0.1859 -0.7299 -0.3523
 6072SOL    HW229676   1.681   0.139  14.945  0.5537  2.3652  0.8962
 6073SOL     OW29677   3.706   0.490  14.648  0.1812  0.4444  0.4761
 6073SOL    HW129678   3.684   0.397  14.639  2.9365 -0.2133  0.2574
 6073SOL    HW229679   3.648   0.527  14.714 -0.1826  0.8057 -0.0507
 6074SOL     OW29680   0.907   1.720   8.460  0.2550 -0.7322  0.3298
 6074SOL    HW129681   0.943   1.791   8.406 -0.9917  0.8533  1.5742
 6074SOL    HW229682   0.898   1.771   8.540 -0.8076 -2.3959  1.2714
 6075SOL     OW29683   0.565   3.691  12.076 -0.2754  0.4220  0.1835
 6075SOL    HW129684   0.477   3.720  12.100  0.0658  2.2961 -0.8156
 6075SOL    HW229685   0.572   3.600  12.102  2.4286  0.7461  0.6479
 6076SOL     OW29686   4.256   4.221  14.278  0.3830  0.1993  0.3905
 6076SOL    HW129687   4.230   4.277  14.204 -2.3700  0.2383  1.3882
 6076SOL    HW229688   4.177   4.168  14.283  1.3448 -1.4056 -1.1516
 6077SOL     OW29689   0.131   1.962   4.277 -0.0530  0.4123 -0.0728
 6077SOL    HW129690   0.118   1.921   4.192 -0.0608  1.6323 -0.6591
 6077SOL    HW229691   0.133   2.047   4.234 -1.1027 -0.3701 -1.6897
 6078SOL     OW29692   2.342   2.091   1.959 -0.8902  0.2825  0.4788
 6078SOL    HW129693   2.330   2.174   1.913  0.1916 -0.3148 -0.8938
 6078SOL    HW229694   2.266   2.080   2.015 -1.4268 -0.3440 -0.3746
 6079SOL     OW29695   3.351   1.682   0.207  0.1005 -0.4980  0.2509
 6079SOL    HW129696   3.402   1.604   0.184  0.2234 -0.2293 -0.3568
 6079SOL    HW229697   3.372   1.742   0.136 -0.0882  1.1537  1.5988
 6080SOL     OW29698   1.929   3.485   0.845 -0.2050 -0.2911  0.2373
 6080SOL    HW129699   1.963   3.428   0.914 -2.7383 -0.3798  1.3928
 6080SOL    HW229700   1.979   3.448   0.772 -1.4738 -2.2283  0.3297
 6081SOL     OW29701   4.211   2.380  15.804 -0.3552  0.1366  0.4090
 6081SOL    HW129702   4.228   2.440  15.877  0.2106 -0.6098  0.8812
 6081SOL    HW229703   4.150   2.439  15.759  1.7077  2.4419  0.6529
 6082SOL     OW29704   2.601   2.400   3.109 -0.0231  0.0515 -0.1579
 6082SOL    HW129705   2.593   2.434   3.020  1.1213  1.5357  0.3166
 6082SOL    HW229706   2.597   2.305   3.097 -1.8498  0.4745 -3.0373
 6083SOL     OW29707   2.336   3.726   2.592  0.2239 -0.0331 -0.4147
 6083SOL    HW129708   2.354   3.648   2.539 -1.8430 -1.6689  1.2790
 6083SOL    HW229709   2.297   3.679   2.667 -1.0572 -0.6563 -1.4694
 6084SOL     OW29710   0.198   1.114   7.266  0.6850 -0.0182 -0.0686
 6084SOL    HW129711   0.199   1.181   7.197 -0.8340 -0.8339 -0.8884
 6084SOL    HW229712   0.106   1.107   7.291  0.8754 -0.4157  0.5097
 6085SOL     OW29713   2.120   0.238  10.564 -0.4034 -0.6717 -0.1624
 6085SOL    HW129714   2.119   0.244  10.660 -0.2169 -0.6600 -0.1611
 6085SOL    HW229715   2.194   0.290  10.530  0.1828 -2.5316 -1.7051
 6086SOL     OW29716   1.058   1.634   0.798  0.8608 -0.1317  0.0865
 6086SOL    HW129717   1.108   1.715   0.789  0.3982  0.1201 -0.2184
 6086SOL    HW229718   1.007   1.645   0.717 -0.5183 -2.4942  0.6324
 6087SOL     OW29719   3.028   0.181   2.865  0.3307  0.0538  0.0968
 6087SOL    HW129720   2.943   0.137   2.857 -1.6398  3.4532  2.2308
 6087SOL    HW229721   3.027   0.207   2.957 -0.5221  0.8061 -0.1227
 6088SOL     OW29722   2.188   0.728  11.459 -0.1598 -0.0199 -0.4367
 6088SOL    HW129723   2.228   0.808  11.494  0.5393 -0.7216  0.3495
 6088SOL    HW229724   2.263   0.678  11.427  1.0626  1.8272 -0.4788
 6089SOL     OW29725   1.717   4.164   4.811 -0.0374  0.3443 -0.1164
 6089SOL    HW129726   1.698   4.074   4.838  0.5424  0.8404  1.9376
 6089SOL    HW229727   1.652   4.172   4.741  0.6362  1.6360 -0.5949
 6090SOL     OW29728   1.896   1.810   4.862  0.3025 -0.0467 -0.2010
 6090SOL    HW129729   1.985   1.806   4.825  1.1718 -0.6138  1.9809
 6090SOL    HW229730   1.913   1.815   4.956 -1.7325 -0.9369  0.2069
 6091SOL     OW29731   3.252   1.764   4.616  0.1323 -0.1009  0.4080
 6091SOL    HW129732   3.281   1.830   4.679 -0.1793 -0.0051  0.4528
 6091SOL    HW229733   3.318   1.698   4.636  1.0541  0.1414 -1.8273
 6092SOL     OW29734   1.044   2.417  15.382 -0.3074 -0.3637  0.0428
 6092SOL    HW129735   0.980   2.445  15.316  0.7517  1.9149 -0.0158
 6092SOL    HW229736   0.993   2.371  15.449 -0.1883 -2.4378 -1.2773
 6093SOL     OW29737   0.769   1.033   2.907 -0.3276 -0.3618 -0.2682
 6093SOL    HW129738   0.745   0.941   2.892 -3.0398  0.0434  1.5341
 6093SOL    HW229739   0.862   1.034   2.926 -1.0217 -1.5266  3.2618
 6094SOL     OW29740   4.116   1.359   7.319  0.0341 -0.1426  0.0458
 6094SOL    HW129741   4.100   1.406   7.401  0.9924 -0.3998  0.3759
 6094SOL    HW229742   4.030   1.320   7.301 -0.0532  0.6908 -1.3255
 6095SOL     OW29743   3.603   2.130  16.959  0.8181 -0.3764 -0.4573
 6095SOL    HW129744   3.645   2.044  16.950  1.0531 -0.1249 -1.6359
 6095SOL    HW229745   3.678   2.189  16.962 -0.1704  0.8133  0.9348
 6096SOL     OW29746   1.420   1.185   6.878 -0.2021  0.0499  0.3763
 6096SOL    HW129747   1.460   1.185   6.792  1.4208 -2.4954  1.1419
 6096SOL    HW229748   1.375   1.101   6.890 -0.2847 -0.0656 -0.8233
 6097SOL     OW29749   3.425   3.340  15.619  0.5601 -0.2139 -0.0216
 6097SOL    HW129750   3.348   3.313  15.569  1.3912  2.1872 -2.6114
 6097SOL    HW229751   3.392   3.345  15.708 -1.7431 -0.1743 -0.8788
 6098SOL     OW29752   2.756   0.601   5.266 -0.2534 -0.1096 -0.6120
 6098SOL    HW129753   2.685   0.655   5.302  0.4025  1.5707 -1.8513
 6098SOL    HW229754   2.824   0.667   5.279  0.4709 -1.2056  1.1727
 6099SOL     OW29755   2.732   0.390   7.216  0.2253  0.4640 -0.8012
 6099SOL    HW129756   2.700   0.435   7.294 -0.1981 -1.9648  0.4208
 6099SOL    HW229757   2.672   0.320   7.194  2.5238 -1.6084 -0.4655
 6100SOL     OW29758   2.585   4.417   3.117 -0.2220 -0.8778  0.1188
 6100SOL    HW129759   2.567   4.477   3.189 -1.6779  0.4465 -1.3757
 6100SOL    HW229760   2.513   4.355   3.119 -1.3721  0.3688 -3.7044
 6101SOL     OW29761   3.237   0.670   5.118 -0.3015 -0.8069  0.0670
 6101SOL    HW129762   3.145   0.661   5.096 -0.9989 -0.4313  2.8766
 6101SOL    HW229763   3.248   0.621   5.200 -0.1829 -0.7495  0.0848
 6102SOL     OW29764   3.447   1.791   6.913  0.2930  0.1116 -0.2296
 6102SOL    HW129765   3.504   1.858   6.875  1.8093 -1.3440 -0.5172
 6102SOL    HW229766   3.379   1.851   6.945 -1.2272 -2.0121  0.5598
 6103SOL     OW29767   3.367   4.607   0.822  0.0270  0.0581  0.4278
 6103SOL    HW129768   3.305   4.551   0.868 -0.3483  1.3933  1.5412
 6103SOL    HW229769   3.439   4.602   0.884  0.2358 -1.1686  0.0850
 6104SOL     OW29770   1.461   1.032  14.428  0.1738  0.1622 -0.2403
 6104SOL    HW129771   1.519   1.061  14.498  0.4035 -3.2620  0.9477
 6104SOL    HW229772   1.526   1.000  14.365  1.1853  1.4571  0.1495
 6105SOL     OW29773   2.460   1.003  15.012 -0.1177  0.0855 -0.0473
 6105SOL    HW129774   2.369   0.975  15.009 -0.7626  2.1950 -0.1999
 6105SOL    HW229775   2.465   1.007  14.916  0.1063 -1.0005 -0.0853
 6106SOL     OW29776   1.355   3.664  11.526 -0.4088  0.1050  0.6766
 6106SOL    HW129777   1.369   3.591  11.466  3.2436 -0.7467  2.5636
 6106SOL    HW229778   1.318   3.611  11.597 -0.1725 -1.9331 -0.7440
 6107SOL     OW29779   3.205   4.037   3.445 -0.1969 -0.1763  0.2658
 6107SOL    HW129780   3.126   4.060   3.494 -0.4981 -3.1118  1.1440
 6107SOL    HW229781   3.273   4.020   3.510  0.3180 -1.6268 -0.6560
 6108SOL     OW29782   3.961   0.502  13.728 -0.0985 -0.0493  0.0814
 6108SOL    HW129783   3.947   0.531  13.638 -1.1925  0.2061  0.3362
 6108SOL    HW229784   3.901   0.556  13.780 -0.2762 -1.5798  1.4527
 6109SOL     OW29785   1.642   2.473  10.628  0.4472 -0.7791 -0.3030
 6109SOL    HW129786   1.707   2.543  10.626 -2.2318  1.6442 -2.6330
 6109SOL    HW229787   1.619   2.472  10.721  0.4446  1.1639 -0.2694
 6110SOL     OW29788   1.036   1.978   9.393  0.5873  0.4316  0.3991
 6110SOL    HW129789   1.099   2.011   9.328  0.9309  0.3852  0.7069
 6110SOL    HW229790   1.025   2.053   9.452  0.0559  0.5142  0.1942
 6111SOL     OW29791   2.426   2.835   6.530  0.9811 -0.0935  0.2632
 6111SOL    HW129792   2.508   2.786   6.540  1.0379  0.6892  3.4342
 6111SOL    HW229793   2.455   2.926   6.530  0.0689  0.1986 -0.9337
 6112SOL     OW29794   2.083   4.390   7.131  0.0746 -0.2797  0.0106
 6112SOL    HW129795   2.168   4.432   7.141 -0.5248  0.8433  0.3805
 6112SOL    HW229796   2.115   4.300   7.123  4.2029  1.2005 -0.2479
 6113SOL     OW29797   3.687   4.312   2.051 -0.2936  0.0879  0.1034
 6113SOL    HW129798   3.593   4.330   2.050 -0.4892 -0.7831  1.3611
 6113SOL    HW229799   3.725   4.387   2.096 -0.7532  1.2381 -1.4455
 6114SOL     OW29800   0.424   1.418   5.325  0.1869  0.1597  0.0224
 6114SOL    HW129801   0.448   1.336   5.283  0.8722  0.7553 -0.7509
 6114SOL    HW229802   0.398   1.469   5.248 -3.1825  0.8005  1.5818
 6115SOL     OW29803   1.081   3.824   7.352 -0.2359 -0.4062 -0.3306
 6115SOL    HW129804   1.132   3.780   7.284  2.2517  1.3085  0.4395
 6115SOL    HW229805   1.095   3.763   7.425 -0.5789  2.5254  2.1675
 6116SOL     OW29806   3.755   1.258   8.883  0.0806 -0.2271  0.8442
 6116SOL    HW129807   3.735   1.195   8.814  0.8190 -0.2830  0.6855
 6116SOL    HW229808   3.703   1.220   8.954  0.7059  0.0200  1.4329
 6117SOL     OW29809   3.520   4.090   2.288  0.1677 -0.7115 -0.5585
 6117SOL    HW129810   3.465   4.123   2.216 -1.4299 -2.3554 -0.0764
 6117SOL    HW229811   3.455   4.072   2.356  0.5359 -0.7147 -0.2083
 6118SOL     OW29812   3.697   4.034  15.122 -0.0213 -0.4362 -0.6839
 6118SOL    HW129813   3.702   4.120  15.165  2.6236 -1.7767  1.6852
 6118SOL    HW229814   3.773   4.035  15.064  0.6815  2.9788  0.2826
 6119SOL     OW29815   1.121   0.052   4.515  0.0885 -0.4997  0.1506
 6119SOL    HW129816   1.201   0.099   4.537 -0.6741  0.1234  1.5694
 6119SOL    HW229817   1.131   4.700   4.575 -0.5963 -0.2334  0.5923
 6120SOL     OW29818   2.328   3.948   1.900 -0.7348 -0.3573 -0.1994
 6120SOL    HW129819   2.318   3.868   1.848  1.0834 -0.1499 -0.8407
 6120SOL    HW229820   2.237   3.972   1.921 -1.0527 -0.8131 -1.0472
 6121SOL     OW29821   1.092   4.462   7.215  0.0962 -0.1321  0.3486
 6121SOL    HW129822   1.155   4.483   7.284  2.5441 -0.0759 -1.8861
 6121SOL    HW229823   1.064   4.554   7.207  1.4478  0.4392  2.1002
 6122SOL     OW29824   2.387   2.969   7.932 -0.4505 -0.2025 -0.2135
 6122SOL    HW129825   2.447   2.980   8.005  0.0925  0.2001 -0.7159
 6122SOL    HW229826   2.312   2.976   7.991  0.0252  0.1950  0.3411
 6123SOL     OW29827   3.795   2.216  14.989 -0.8297 -0.0506  0.2835
 6123SOL    HW129828   3.858   2.165  15.039 -0.2876 -0.4032 -0.7667
 6123SOL    HW229829   3.804   2.180  14.900 -0.5936  0.4884  0.0879
 6124SOL     OW29830   1.616   2.145   1.356 -0.4383  0.0765 -0.5339
 6124SOL    HW129831   1.604   2.180   1.444 -1.8696 -0.7263 -0.4035
 6124SOL    HW229832   1.643   2.054   1.361  0.0997  0.2937  0.4271
 6125SOL     OW29833   4.161   4.024   3.572 -0.1721  0.1108  0.7834
 6125SOL    HW129834   4.186   3.954   3.511 -1.3146  0.5643 -0.1970
 6125SOL    HW229835   4.245   4.052   3.607  0.6680 -0.8058 -0.5243
 6126SOL     OW29836   4.475   3.930   1.797  0.0797  0.0548 -0.1392
 6126SOL    HW129837   4.390   3.899   1.830 -0.3107  1.0328 -0.2054
 6126SOL    HW229838   4.516   3.857   1.752  0.7066  0.3166  0.0073
 6127SOL     OW29839   0.797   2.809   7.581  0.3941  0.1483  0.2091
 6127SOL    HW129840   0.718   2.828   7.632 -0.2043  0.4531 -0.8200
 6127SOL    HW229841   0.809   2.893   7.535 -1.0900 -0.5886 -1.5221
 6128SOL     OW29842   2.478   1.225   5.880 -0.0062  0.6746  0.7393
 6128SOL    HW129843   2.507   1.268   5.800  0.4449  0.2898  0.6962
 6128SOL    HW229844   2.408   1.169   5.846  0.7342  0.6067 -0.6572
 6129SOL     OW29845   0.827   2.285   2.374 -0.2384 -0.5869  0.5577
 6129SOL    HW129846   0.786   2.371   2.367 -3.5199 -2.2898 -0.8582
 6129SOL    HW229847   0.813   2.243   2.289  1.4161  0.4477 -0.2436
 6130SOL     OW29848   0.772   4.040   5.364  0.1663 -0.2929  0.0464
 6130SOL    HW129849   0.721   3.963   5.390 -2.6174  2.1806  1.8624
 6130SOL    HW229850   0.845   4.007   5.311  0.9099  3.3167 -1.1241
 6131SOL     OW29851   0.354   3.061   7.567 -0.3238 -0.2851 -0.2623
 6131SOL    HW129852   0.432   3.102   7.528 -0.4412  1.6638  1.5867
 6131SOL    HW229853   0.349   3.126   7.637 -1.4909  0.0438 -0.6451
 6132SOL     OW29854   0.410   0.094  13.539  0.3275 -0.2208  0.0235
 6132SOL    HW129855   0.342   0.030  13.562  0.1930  0.3493  1.2307
 6132SOL    HW229856   0.352   0.165  13.512 -1.3797 -1.1757  1.1112
 6133SOL     OW29857   3.812   3.520   1.896 -0.4378 -0.0093 -0.0072
 6133SOL    HW129858   3.813   3.602   1.946  0.7356 -1.5143  2.4619
 6133SOL    HW229859   3.851   3.547   1.813  0.1695  1.6185  0.8002
 6134SOL     OW29860   2.883   4.711  12.007 -0.2295  0.3214  0.2224
 6134SOL    HW129861   2.941   0.064  12.020 -0.0874  0.3544 -0.6061
 6134SOL    HW229862   2.821   0.013  11.939  0.1964 -1.5065 -0.8197
 6135SOL     OW29863   4.363   3.674   6.232 -0.0729 -0.7726  0.0030
 6135SOL    HW129864   4.380   3.582   6.208  1.7038 -0.1071 -1.3375
 6135SOL    HW229865   4.331   3.669   6.322 -1.8368  3.2469 -0.4306
 6136SOL     OW29866   2.689   4.155  14.873 -0.1708 -0.3718  0.4952
 6136SOL    HW129867   2.761   4.214  14.897  0.3879  0.1149 -2.3712
 6136SOL    HW229868   2.691   4.170  14.779  0.1385  0.7536  0.6815
 6137SOL     OW29869   0.492   1.843   4.239 -0.1672 -0.4737  0.2561
 6137SOL    HW129870   0.549   1.779   4.197  0.8394  0.2160  0.5796
 6137SOL    HW229871   0.407   1.805   4.215  0.2697  0.0435 -2.1165
 6138SOL     OW29872   2.936   4.249   5.132  0.0114  0.5525 -0.2307
 6138SOL    HW129873   2.994   4.184   5.172  1.6991  1.6528 -0.8900
 6138SOL    HW229874   2.922   4.208   5.046 -0.6790 -1.3624  0.7926
 6139SOL     OW29875   4.397   2.725   5.093 -0.2021 -0.6358  0.0607
 6139SOL    HW129876   4.456   2.658   5.059  0.6845  0.5842 -0.7926
 6139SOL    HW229877   4.452   2.794   5.129 -2.0694  1.3796 -0.8513
 6140SOL     OW29878   0.796   4.554  11.990  0.5800 -0.6292 -0.1911
 6140SOL    HW129879   0.862   4.532  12.055 -0.5636  0.9052  1.4844
 6140SOL    HW229880   0.840   4.625  11.942  0.4015  1.0643  2.1481
 6141SOL     OW29881   3.865   2.114   5.375  0.3029 -0.1308  0.3068
 6141SOL    HW129882   3.803   2.096   5.305 -0.2571 -1.1915  1.0859
 6141SOL    HW229883   3.820   2.079   5.452 -0.9723  1.4697  0.2919
 6142SOL     OW29884   2.851   4.022   0.650 -0.5229  0.5399  0.4576
 6142SOL    HW129885   2.801   3.970   0.714  0.1781 -0.8180 -0.1080
 6142SOL    HW229886   2.891   4.095   0.697 -2.4736  0.1311  2.8030
 6143SOL     OW29887   1.882   3.277   4.182  0.0271 -0.3047  0.5335
 6143SOL    HW129888   1.852   3.227   4.106  0.6995 -1.2866  0.9100
 6143SOL    HW229889   1.891   3.363   4.139 -0.9777  0.1128  1.1724
 6144SOL     OW29890   0.032   1.261  11.921  0.0907 -0.6253 -0.1561
 6144SOL    HW129891   0.102   1.326  11.918  0.9198 -1.5154 -0.1215
 6144SOL    HW229892   0.064   1.202  11.989 -2.2787  0.6054  2.0243
 6145SOL     OW29893   3.886   1.724   3.860  0.1277  0.1239  0.2534
 6145SOL    HW129894   3.801   1.680   3.873  0.1794 -0.1445 -0.3214
 6145SOL    HW229895   3.857   1.785   3.792  3.4103  1.6962  0.2625
 6146SOL     OW29896   4.690   2.621   2.567 -0.3331  0.0454 -0.9044
 6146SOL    HW129897   4.669   2.582   2.652  0.5596  0.8060 -0.3368
 6146SOL    HW229898   4.604   2.623   2.526 -0.1171  3.3824 -1.1374
 6147SOL     OW29899   0.256   0.019   5.297  0.3674 -0.1182  0.1588
 6147SOL    HW129900   0.223   4.674   5.237 -3.8972  1.8357  0.3649
 6147SOL    HW229901   0.248   0.100   5.247 -0.3778  1.0155  2.1457
 6148SOL     OW29902   1.946   1.037   3.566  0.2637  0.0550 -0.0881
 6148SOL    HW129903   1.925   0.980   3.640 -0.4992 -2.1838 -2.0713
 6148SOL    HW229904   2.035   1.066   3.585  1.2136 -2.3692 -0.9192
 6149SOL     OW29905   3.835   2.229  15.974 -0.3492 -0.3283 -0.4159
 6149SOL    HW129906   3.848   2.135  15.967 -0.3189 -0.3316 -0.3151
 6149SOL    HW229907   3.893   2.261  16.044  0.0661 -1.2827 -0.3225
 6150SOL     OW29908   4.281   2.385   7.462  0.1895 -0.0290  0.1882
 6150SOL    HW129909   4.347   2.411   7.526  0.8945 -0.0454 -0.5371
 6150SOL    HW229910   4.339   2.335   7.404  0.7764 -0.5171  1.1927
 6151SOL     OW29911   1.413   2.667   5.645  0.0388  0.3514  0.0538
 6151SOL    HW129912   1.330   2.665   5.693  0.0487  1.8584  0.1342
 6151SOL    HW229913   1.387   2.651   5.554  2.3408 -0.8956 -0.3673
 6152SOL     OW29914   0.901   3.547  15.328  0.2655 -0.5127 -0.2824
 6152SOL    HW129915   0.850   3.503  15.396  0.9421  0.5327  0.9076
 6152SOL    HW229916   0.988   3.521  15.358  1.0723  1.1745 -1.1851
 6153SOL     OW29917   2.221   1.870   3.385 -0.2729 -0.6025  0.1009
 6153SOL    HW129918   2.314   1.855   3.370 -0.0166  0.8661  0.3154
 6153SOL    HW229919   2.227   1.942   3.446  0.3850 -0.9363  0.4286
 6154SOL     OW29920   0.366   4.506   4.902  0.4848  0.6193  0.0542
 6154SOL    HW129921   0.296   4.467   4.954 -0.7198  2.6856 -0.0451
 6154SOL    HW229922   0.391   4.431   4.848  1.1602 -0.6299  2.0880
 6155SOL     OW29923   3.193   0.456   2.444 -0.1345  0.1458 -0.4991
 6155SOL    HW129924   3.196   0.403   2.524 -1.3392 -0.1809 -0.6632
 6155SOL    HW229925   3.284   0.461   2.416 -0.5486  1.7768 -1.5467
 6156SOL     OW29926   1.236   0.606   8.498  0.3917 -0.1991  0.1106
 6156SOL    HW129927   1.313   0.556   8.470  0.8480  0.5663 -0.0073
 6156SOL    HW229928   1.237   0.687   8.447 -0.2886 -0.6370 -0.5863
 6157SOL     OW29929   1.204   2.319   3.604 -0.3592 -0.3391 -0.6208
 6157SOL    HW129930   1.140   2.252   3.581  3.5205 -4.6434  1.3279
 6157SOL    HW229931   1.195   2.368   3.521  0.5575 -1.8256 -1.5892
 6158SOL     OW29932   4.008   2.091  15.118  0.0715  0.1325  0.2134
 6158SOL    HW129933   4.079   2.030  15.099  0.9064  1.7760 -1.9228
 6158SOL    HW229934   4.033   2.120  15.207 -1.1787 -0.2471  0.6835
 6159SOL     OW29935   2.858   2.581  13.348  0.3394  0.2311 -0.0061
 6159SOL    HW129936   2.767   2.554  13.336 -0.2791  1.3674  2.2323
 6159SOL    HW229937   2.860   2.604  13.441 -1.4132 -1.7023  0.5207
 6160SOL     OW29938   2.321   2.197   5.212  0.7585 -0.0392 -0.2615
 6160SOL    HW129939   2.333   2.289   5.188  0.2689  0.1643  0.2973
 6160SOL    HW229940   2.305   2.197   5.306  1.4224 -0.4819 -0.1507
 6161SOL     OW29941   1.725   4.647   8.841 -0.3064 -0.2165  0.2433
 6161SOL    HW129942   1.817   4.648   8.869  0.0108 -1.9489 -0.7381
 6161SOL    HW229943   1.733   4.609   8.753 -0.3131 -2.2294  1.1199
 6162SOL     OW29944   1.701   1.811   0.074  0.2687 -0.1990 -0.1607
 6162SOL    HW129945   1.626   1.767   0.113  0.0201 -0.0182 -0.4384
 6162SOL    HW229946   1.734   1.756   0.004  0.3290 -0.7939  0.3337
 6163SOL     OW29947   2.265   2.709   7.241  0.1557  0.3481 -0.1917
 6163SOL    HW129948   2.335   2.662   7.197 -0.1802 -1.2967  1.0328
 6163SOL    HW229949   2.309   2.790   7.267 -0.2155  0.6780 -0.5823
 6164SOL     OW29950   3.128   1.154   2.760 -0.1379 -0.1783  0.1695
 6164SOL    HW129951   3.221   1.169   2.746 -0.6486  0.4431 -2.6632
 6164SOL    HW229952   3.103   1.231   2.810 -1.1943 -3.0437  4.1002
 6165SOL     OW29953   3.708   3.661   4.206 -0.1762 -0.2619  0.3273
 6165SOL    HW129954   3.780   3.604   4.233  0.8323  1.0268  0.4012
 6165SOL    HW229955   3.630   3.606   4.208 -2.0968  2.4899  0.5747
 6166SOL     OW29956   0.166   2.093   3.686 -0.2427 -0.2186  0.6633
 6166SOL    HW129957   0.225   2.045   3.744  1.2299 -0.2380 -0.8623
 6166SOL    HW229958   0.186   2.069   3.596  1.0282  1.1277  0.5853
 6167SOL     OW29959   2.569   1.435  10.885  0.2799 -0.2742  0.0622
 6167SOL    HW129960   2.532   1.355  10.922  0.5172 -0.8724 -0.9771
 6167SOL    HW229961   2.567   1.399  10.796  1.5280 -1.6423  0.5822
 6168SOL     OW29962   0.863   2.648  17.285 -0.5870  0.3425 -0.1104
 6168SOL    HW129963   0.878   2.667  17.377  1.7653 -2.7334  0.1429
 6168SOL    HW229964   0.782   2.698  17.275 -2.0393 -1.7679  1.1696
 6169SOL     OW29965   2.653   3.055  11.501 -0.2352 -0.4754  0.4113
 6169SOL    HW129966   2.568   3.098  11.513 -1.6661 -2.7294 -1.6436
 6169SOL    HW229967   2.639   2.977  11.447  1.0716 -0.5313  0.1533
 6170SOL     OW29968   0.124   3.206  15.223 -0.7072  0.1565  0.6883
 6170SOL    HW129969   0.201   3.150  15.210 -1.1288 -0.5355  1.1416
 6170SOL    HW229970   0.167   3.267  15.282 -1.9321 -1.3660  3.1386
 6171SOL     OW29971   0.003   4.558  14.455 -0.0977  0.6483  0.1155
 6171SOL    HW129972   0.019   4.493  14.524 -0.5531 -1.8989 -2.1748
 6171SOL    HW229973   0.052   4.523  14.381  0.9859  0.0997  1.0872
 6172SOL     OW29974   4.114   0.982   5.404 -0.1594  0.0509  0.0866
 6172SOL    HW129975   4.142   0.895   5.375  0.5644  0.0763  0.7173
 6172SOL    HW229976   4.196   1.003   5.448  0.0229  0.4163 -0.4250
 6173SOL     OW29977   4.206   4.472   5.268  0.1024 -0.2879 -0.4930
 6173SOL    HW129978   4.162   4.533   5.208  0.6866 -0.2626 -0.8932
 6173SOL    HW229979   4.134   4.461   5.330  0.1898 -0.2781 -0.3916
 6174SOL     OW29980   1.772   2.203   2.284  0.2486  0.0843 -0.0616
 6174SOL    HW129981   1.714   2.148   2.232 -0.6921  0.9967  0.0021
 6174SOL    HW229982   1.845   2.227   2.227  2.3442 -4.6693  0.6683
 6175SOL     OW29983   2.703   3.588  14.441  0.3444 -0.1100  0.3727
 6175SOL    HW129984   2.637   3.533  14.483 -0.7442  0.9083 -0.0226
 6175SOL    HW229985   2.647   3.635  14.379 -0.3200 -1.4758 -0.0788
 6176SOL     OW29986   1.535   4.491   9.424 -0.4229 -0.5110 -0.1061
 6176SOL    HW129987   1.481   4.413   9.434 -0.7100 -0.2593  0.2925
 6176SOL    HW229988   1.556   4.506   9.331 -2.0962 -0.5322 -0.4751
 6177SOL     OW29989   2.585   1.344  10.644 -0.3633 -0.1928  0.4304
 6177SOL    HW129990   2.656   1.388  10.597 -0.2344 -0.9406 -0.0633
 6177SOL    HW229991   2.515   1.359  10.582 -0.2641 -0.2858  0.2979
 6178SOL     OW29992   1.820   1.267  10.236  0.1145  0.1711  0.7748
 6178SOL    HW129993   1.823   1.283  10.330  0.7389 -0.8062  0.9235
 6178SOL    HW229994   1.815   1.353  10.193  0.9046 -0.1448  0.0392
 6179SOL     OW29995   1.430   2.934   2.285 -0.8323 -0.1032 -0.2694
 6179SOL    HW129996   1.428   3.028   2.265 -0.6256  0.3875  2.0559
 6179SOL    HW229997   1.485   2.909   2.211 -1.2030  1.8601 -1.2056
 6180SOL     OW29998   4.687   4.260   7.749 -0.4369 -1.0378  0.2432
 6180SOL    HW129999   0.045   4.211   7.768  1.3802  0.4558 -3.7957
 6180SOL    HW230000   4.643   4.251   7.834 -1.0693  0.0394  0.0230
 6181SOL     OW30001   3.059   0.415   4.438  0.3806  0.2460  0.0734
 6181SOL    HW130002   3.047   0.379   4.350 -1.2422  0.0322  0.3837
 6181SOL    HW230003   2.996   0.363   4.486  0.0308  0.9905  0.4237
 6182SOL     OW30004   3.336   2.550  16.277  0.1429  0.2454 -0.4033
 6182SOL    HW130005   3.353   2.495  16.201 -0.3852 -1.0206  0.3867
 6182SOL    HW230006   3.274   2.614  16.241 -0.3922  0.1904  0.4242
 6183SOL     OW30007   0.173   1.137  13.580 -0.0176  0.2514 -0.3292
 6183SOL    HW130008   0.266   1.149  13.596  0.0731  0.6570 -1.1747
 6183SOL    HW230009   0.171   1.077  13.505  0.1135  0.5840 -0.5954
 6184SOL     OW30010   1.275   1.986  16.527 -0.3245  0.2337  0.0958
 6184SOL    HW130011   1.196   2.033  16.556 -0.4281 -1.8836  3.3007
 6184SOL    HW230012   1.348   2.025  16.575  0.4251 -1.5347  0.3922
 6185SOL     OW30013   2.598   0.237   7.483 -0.0859 -0.1195 -0.1379
 6185SOL    HW130014   2.506   0.258   7.467  0.4140  1.8819 -0.4849
 6185SOL    HW230015   2.640   0.317   7.450 -0.5048 -0.1793 -0.8273
 6186SOL     OW30016   0.776   3.773   8.742  0.4288  0.4729 -0.2495
 6186SOL    HW130017   0.725   3.851   8.759 -0.6801 -0.3414  0.1433
 6186SOL    HW230018   0.709   3.725   8.692 -0.7689  1.0466  0.8188
 6187SOL     OW30019   1.084   1.526   4.391  0.3083  0.3753 -0.1192
 6187SOL    HW130020   1.100   1.506   4.483 -0.2438  0.6002  0.0270
 6187SOL    HW230021   1.175   1.520   4.362  0.2243 -0.4497 -0.2018
 6188SOL     OW30022   0.594   0.642   5.772  0.0828  0.4032 -0.4159
 6188SOL    HW130023   0.645   0.673   5.847  0.8311 -1.3771 -0.1868
 6188SOL    HW230024   0.520   0.615   5.827  1.1480 -0.0782  0.7723
 6189SOL     OW30025   4.296   4.547   0.741 -0.3444  0.5992 -0.1752
 6189SOL    HW130026   4.259   4.582   0.661 -1.2908  1.4032  0.6177
 6189SOL    HW230027   4.223   4.563   0.801 -1.4072 -1.0066 -1.0331
 6190SOL     OW30028   1.213   4.211   1.270  0.0319  0.3547 -0.2670
 6190SOL    HW130029   1.228   4.124   1.307  1.2046  0.4936 -0.4301
 6190SOL    HW230030   1.168   4.189   1.188 -3.1018 -1.8122  2.0258
 6191SOL     OW30031   3.780   4.565   7.581 -0.1575  0.0076 -0.0003
 6191SOL    HW130032   3.704   4.620   7.600 -0.7400 -0.9453  0.4394
 6191SOL    HW230033   3.847   4.632   7.595  1.9722 -1.6795 -2.1999
 6192SOL     OW30034   4.716   3.171   4.393 -0.1868  0.3531  0.8638
 6192SOL    HW130035   4.667   3.091   4.409  1.3501 -0.4265  1.6473
 6192SOL    HW230036   0.049   3.135   4.324 -0.6773  0.7643  0.2583
 6193SOL     OW30037   2.129   3.425   5.048  0.1942 -0.2917 -0.2178
 6193SOL    HW130038   2.101   3.473   4.970 -1.1882  1.8385  1.5608
 6193SOL    HW230039   2.071   3.348   5.046  0.6252 -0.5298 -3.3658
 6194SOL     OW30040   1.839   2.435  17.004 -0.5055 -0.1887  0.3333
 6194SOL    HW130041   1.771   2.368  17.016  0.2704 -1.0995 -0.3464
 6194SOL    HW230042   1.912   2.384  17.038  0.0555 -1.7883 -3.1973
 6195SOL     OW30043   4.006   0.072   3.742  0.0520  0.8904 -0.4587
 6195SOL    HW130044   4.079   0.096   3.799 -1.5177 -0.0896  1.9578
 6195SOL    HW230045   4.017   4.704   3.715  1.2763  0.4907  1.3950
 6196SOL     OW30046   0.501   3.911  14.838 -0.6498  0.4927 -1.0086
 6196SOL    HW130047   0.556   3.839  14.809 -0.0511  1.3887 -2.1285
 6196SOL    HW230048   0.416   3.871  14.821 -0.6224 -0.1716  0.4329
 6197SOL     OW30049   0.990   2.262   2.900 -0.3112  0.0315  1.0294
 6197SOL    HW130050   0.895   2.272   2.898 -0.1503  1.2519 -1.1319
 6197SOL    HW230051   1.014   2.330   2.837 -0.8515 -0.2168  0.5495
 6198SOL     OW30052   1.308   2.440  16.959 -0.2016 -0.1011 -0.0010
 6198SOL    HW130053   1.311   2.535  16.954  0.4660 -0.0329  1.5746
 6198SOL    HW230054   1.243   2.428  17.028  0.0505  3.1047  0.7963
 6199SOL     OW30055   2.796   3.261  16.354 -0.2208 -0.2728  0.1823
 6199SOL    HW130056   2.891   3.247  16.360 -0.1203  0.4206  0.2943
 6199SOL    HW230057   2.774   3.329  16.418  1.1168  0.6593 -0.3360
 6200SOL     OW30058   0.886   3.989   3.691 -0.1324  0.5813  0.3099
 6200SOL    HW130059   0.813   3.973   3.631 -1.3400  2.3725  1.2640
 6200SOL    HW230060   0.959   4.013   3.634  1.5569  1.5178  2.8566
 6201SOL     OW30061   1.204   0.471   2.762  0.0963 -0.3466  0.4354
 6201SOL    HW130062   1.232   0.511   2.680 -1.6336 -0.1069 -0.0560
 6201SOL    HW230063   1.161   0.545   2.806 -3.4665 -1.6052 -0.8946
 6202SOL     OW30064   1.980   2.516  13.257 -0.3538 -0.0502  0.2805
 6202SOL    HW130065   1.940   2.577  13.318  0.5678  2.1524 -1.3132
 6202SOL    HW230066   2.063   2.513  13.304  0.0485 -1.1249 -0.4856
 6203SOL     OW30067   3.477   0.015   2.701  0.3003  0.3211  0.2299
 6203SOL    HW130068   3.394   4.722   2.745 -0.0534 -0.0849 -0.5694
 6203SOL    HW230069   3.537   4.672   2.737  0.8694 -0.2520 -1.7248
 6204SOL     OW30070   1.209   1.090   3.330 -0.4699 -0.1089 -0.6742
 6204SOL    HW130071   1.117   1.068   3.315 -0.3778 -0.5014 -0.6705
 6204SOL    HW230072   1.243   1.035   3.402 -0.0138  0.1662 -0.6795
 6205SOL     OW30073   1.423   3.307  14.769 -0.2397  0.0754 -0.1496
 6205SOL    HW130074   1.359   3.237  14.752  0.1039 -0.0867 -0.7935
 6205SOL    HW230075   1.409   3.370  14.697 -1.2268  1.0165  0.8681
 6206SOL     OW30076   1.439   2.246   6.833 -0.7030 -0.4228 -0.4754
 6206SOL    HW130077   1.410   2.179   6.771 -2.2589 -0.1573 -0.0464
 6206SOL    HW230078   1.403   2.322   6.788  0.1082  1.5911  2.2673
 6207SOL     OW30079   3.734   1.174   9.480  0.3578 -0.2089 -0.1167
 6207SOL    HW130080   3.814   1.135   9.516 -0.2835 -0.8071  0.6667
 6207SOL    HW230081   3.687   1.090   9.482 -1.6225  0.8625 -1.7675
 6208SOL     OW30082   0.179   0.801   3.296  0.4631 -0.3071 -0.4480
 6208SOL    HW130083   0.253   0.832   3.244 -1.3102  0.4219 -2.5898
 6208SOL    HW230084   0.157   0.716   3.259 -1.8815 -1.0357  2.6757
 6209SOL     OW30085   2.421   4.707   6.168  0.3501  0.3168  0.4791
 6209SOL    HW130086   2.327   4.721   6.181  0.6832  1.9302  1.0874
 6209SOL    HW230087   2.426   4.623   6.212  2.2949  0.8199  1.1899
 6210SOL     OW30088   0.668   4.621   3.231 -0.3213 -0.1143  0.1554
 6210SOL    HW130089   0.601   4.642   3.167 -0.2094  1.8759  0.7145
 6210SOL    HW230090   0.630   4.658   3.310 -1.3150  2.0100 -1.3370
 6211SOL     OW30091   1.185   1.323  13.036 -0.6452  0.0161 -0.3366
 6211SOL    HW130092   1.183   1.316  13.131 -1.9010 -0.5722 -0.4040
 6211SOL    HW230093   1.229   1.241  13.015  0.4446  1.0314 -2.0729
 6212SOL     OW30094   1.596   1.283   0.659 -0.3401  0.2815 -0.0700
 6212SOL    HW130095   1.679   1.248   0.627 -0.9483 -0.9287 -0.2877
 6212SOL    HW230096   1.617   1.372   0.687 -0.4588  0.4055 -0.3724
 6213SOL     OW30097   2.829   4.608   3.361 -0.3541  0.9715  0.3422
 6213SOL    HW130098   2.888   4.581   3.291 -0.0022 -0.5302  1.2008
 6213SOL    HW230099   2.878   4.587   3.441 -2.9180 -2.0681  1.1507
 6214SOL     OW30100   1.939   3.267   2.342  0.3288  0.2175  0.5898
 6214SOL    HW130101   1.947   3.361   2.327  0.9667 -0.0796 -0.9899
 6214SOL    HW230102   2.007   3.262   2.408  1.5798 -0.5175 -0.7490
 6215SOL     OW30103   3.448   2.055   7.819 -0.3084 -0.7772  0.2864
 6215SOL    HW130104   3.402   2.079   7.738  2.3451  1.6274 -0.5464
 6215SOL    HW230105   3.534   2.039   7.781 -0.5385 -1.5151  0.0921
 6216SOL     OW30106   3.865   0.375   2.092  0.3746  0.0612 -0.4268
 6216SOL    HW130107   3.829   0.398   2.006 -1.4459  1.6004  0.7494
 6216SOL    HW230108   3.806   0.302   2.110  0.4947 -0.2935 -1.4988
 6217SOL     OW30109   3.877   0.900   6.770  0.4041  0.3601  0.1874
 6217SOL    HW130110   3.884   0.862   6.683 -1.7926 -0.7039  0.4715
 6217SOL    HW230111   3.960   0.873   6.809  1.3327  1.4120 -1.0679
 6218SOL     OW30112   0.838   1.281   8.126 -0.2789  0.5687 -0.4120
 6218SOL    HW130113   0.821   1.296   8.033  1.9159 -0.1514 -0.9354
 6218SOL    HW230114   0.835   1.372   8.157  1.7340  0.5802 -0.2383
 6219SOL     OW30115   4.272   3.465  10.544  0.3003 -0.0353 -0.2614
 6219SOL    HW130116   4.261   3.491  10.635 -1.7953 -0.7185 -0.3155
 6219SOL    HW230117   4.360   3.428  10.550 -0.0406 -0.7718  0.2212
 6220SOL     OW30118   2.057   4.426   2.874 -0.0985  0.4231 -0.0101
 6220SOL    HW130119   2.050   4.346   2.821  1.6383  0.8506 -0.8877
 6220SOL    HW230120   1.986   4.486   2.850 -2.0615 -1.6684  0.5528
 6221SOL     OW30121   3.010   3.224   6.373 -0.0560  0.4823  0.3594
 6221SOL    HW130122   3.002   3.252   6.464 -0.2115 -1.8087  1.0393
 6221SOL    HW230123   2.979   3.298   6.321 -0.9792 -0.1461  0.0221
 6222SOL     OW30124   0.534   3.149   4.583 -0.0745 -0.0194  0.0764
 6222SOL    HW130125   0.529   3.210   4.509 -1.1813 -2.7042 -2.0576
 6222SOL    HW230126   0.557   3.217   4.647 -0.0714  1.4504 -1.4679
 6223SOL     OW30127   1.603   0.128   7.504  0.3288 -0.5103  0.4765
 6223SOL    HW130128   1.508   0.140   7.508  0.0588 -2.6655  0.4323
 6223SOL    HW230129   1.607   0.082   7.588  0.8076  0.4247  0.9727
 6224SOL     OW30130   4.529   1.906   8.483 -0.1762  0.3466 -0.1990
 6224SOL    HW130131   4.445   1.869   8.458 -0.2930  0.5928 -0.1717
 6224SOL    HW230132   4.589   1.848   8.436 -0.0177  0.8276 -0.5940
 6225SOL     OW30133   3.714   4.228   0.906 -0.5340 -0.0979  0.0807
 6225SOL    HW130134   3.768   4.298   0.869 -1.3008  0.9019  0.8538
 6225SOL    HW230135   3.770   4.151   0.903  0.3115  0.4950  0.8980
 6226SOL     OW30136   2.444   2.707   4.411 -0.0619  0.2734 -0.2422
 6226SOL    HW130137   2.430   2.680   4.502 -0.1840  1.1509  0.0051
 6226SOL    HW230138   2.512   2.649   4.377 -0.3332 -0.7552  0.9585
 6227SOL     OW30139   3.178   1.777   5.703  0.6010 -0.0926 -0.4893
 6227SOL    HW130140   3.176   1.685   5.675  3.7505  0.8874 -4.0395
 6227SOL    HW230141   3.241   1.770   5.775  0.1180 -0.9484 -0.1545
 6228SOL     OW30142   0.818   3.572  11.641 -0.0684 -0.7458  0.3136
 6228SOL    HW130143   0.765   3.628  11.583  1.8343  0.2982 -0.4214
 6228SOL    HW230144   0.767   3.574  11.722 -2.1312 -0.4424 -0.9905
 6229SOL     OW30145   0.163   4.352   7.305 -0.7208 -0.0326  0.1782
 6229SOL    HW130146   0.096   4.347   7.373 -0.0227 -0.8823  0.8015
 6229SOL    HW230147   0.215   4.272   7.317  0.6901  0.8466 -0.0265
 6230SOL     OW30148   4.015   4.596   2.912  0.0199  0.1551 -0.3758
 6230SOL    HW130149   3.993   4.662   2.978 -0.1250  0.2338 -0.5045
 6230SOL    HW230150   4.106   4.579   2.938  1.0541  2.3130 -2.6226
 6231SOL     OW30151   1.259   4.328  12.506  0.0110 -0.6130  0.2685
 6231SOL    HW130152   1.335   4.269  12.501  0.5525  0.2014 -1.0476
 6231SOL    HW230153   1.228   4.305  12.593  0.6492 -0.2779  0.5893
 6232SOL     OW30154   1.680   3.263   6.951 -0.4732 -0.4086 -0.4946
 6232SOL    HW130155   1.688   3.168   6.964 -1.4070 -0.4347 -0.0615
 6232SOL    HW230156   1.612   3.281   7.017  1.9698  2.3133  1.2591
 6233SOL     OW30157   1.789   1.169  12.984  0.9013  0.5771 -0.4929
 6233SOL    HW130158   1.843   1.243  13.012 -0.9268  1.3444  0.9843
 6233SOL    HW230159   1.708   1.217  12.967  0.5967 -0.4698 -1.9672
 6234SOL     OW30160   3.953   3.180  12.004 -0.3834  0.5335 -0.2008
 6234SOL    HW130161   4.039   3.178  11.963 -0.3790  0.0378 -0.1663
 6234SOL    HW230162   3.905   3.107  11.965 -2.2448  1.5701  0.1556
 6235SOL     OW30163   1.708   2.764   8.312  0.5826 -0.0322  0.0067
 6235SOL    HW130164   1.724   2.678   8.272 -2.8456 -0.3522 -0.6647
 6235SOL    HW230165   1.690   2.727   8.399  2.1674  0.7130  0.6527
 6236SOL     OW30166   0.220   2.959   8.530 -0.2827 -0.5086  0.4001
 6236SOL    HW130167   0.174   3.043   8.526  0.5086 -0.0846  0.2414
 6236SOL    HW230168   0.311   2.987   8.524 -0.9486  1.9476  1.5683
 6237SOL     OW30169   1.419   0.346  17.469 -0.4427  0.2896  0.8096
 6237SOL    HW130170   1.458   0.434  17.477  1.1131 -0.1659 -1.5798
 6237SOL    HW230171   1.415   0.345  17.373  1.4900 -0.4010  0.7267
 6238SOL     OW30172   3.519   3.601   9.163 -0.0977 -0.2038 -0.0098
 6238SOL    HW130173   3.442   3.615   9.219 -1.0026  1.0879 -1.5588
 6238SOL    HW230174   3.553   3.519   9.197 -0.6294  0.6736  2.6076
 6239SOL     OW30175   1.706   1.849   2.435 -0.2498  0.5090 -0.7433
 6239SOL    HW130176   1.708   1.796   2.515 -0.0244  2.6171  0.6536
 6239SOL    HW230177   1.632   1.802   2.396 -1.2114 -0.2884  2.0322
 6240SOL     OW30178   1.194   0.463   9.254 -0.3866  0.3086 -0.0617
 6240SOL    HW130179   1.213   0.513   9.334  0.8734 -0.5281  0.1710
 6240SOL    HW230180   1.125   0.403   9.282 -0.0485 -0.4066 -0.7717
 6241SOL     OW30181   4.400   0.099  13.608 -0.3976  0.2982 -0.4910
 6241SOL    HW130182   4.392   0.103  13.513  1.0184  0.2815 -0.6136
 6241SOL    HW230183   4.323   0.048  13.634 -0.8696  0.5885 -1.3083
 6242SOL     OW30184   3.617   0.795   3.392 -0.7856 -0.3908  0.4429
 6242SOL    HW130185   3.663   0.713   3.375  1.1669  0.8481 -0.2464
 6242SOL    HW230186   3.527   0.776   3.364 -0.2304 -0.4326 -1.2810
 6243SOL     OW30187   3.094   1.994  15.485  0.2186  0.4986  0.0236
 6243SOL    HW130188   3.039   1.931  15.438  1.2623  0.3877 -1.0542
 6243SOL    HW230189   3.126   2.035  15.404 -0.9117 -1.2023 -1.2972
 6244SOL     OW30190   4.459   3.976   4.467 -0.6938  0.1904 -0.4920
 6244SOL    HW130191   4.391   3.977   4.535  0.3595  2.5751  0.5141
 6244SOL    HW230192   4.526   3.920   4.506 -1.6452 -0.9881 -0.5502
 6245SOL     OW30193   0.793   3.186   2.517 -0.0700  0.0870  0.4779
 6245SOL    HW130194   0.837   3.105   2.545 -0.3748 -0.2893 -0.1206
 6245SOL    HW230195   0.736   3.211   2.589  0.4390 -0.8402  1.2050
 6246SOL     OW30196   1.028   1.737   0.034 -0.4630  0.5575 -0.0441
 6246SOL    HW130197   1.081   1.663   0.063 -0.2646  1.8154  2.8668
 6246SOL    HW230198   0.937   1.709   0.045 -0.8343  1.3127 -1.2178
 6247SOL     OW30199   3.637   1.294   3.734 -0.5435  0.5009 -0.3414
 6247SOL    HW130200   3.678   1.220   3.779  1.0025 -0.3359 -3.1579
 6247SOL    HW230201   3.557   1.250   3.706 -0.4973 -0.9267  1.7591
 6248SOL     OW30202   3.665   2.663   8.181  0.2235  0.4045  0.1342
 6248SOL    HW130203   3.595   2.726   8.164 -1.2625 -1.7102 -1.6674
 6248SOL    HW230204   3.745   2.716   8.181  0.9491 -0.6878 -1.8837
 6249SOL     OW30205   0.517   2.925  12.353  0.2197 -0.4964  0.6025
 6249SOL    HW130206   0.567   2.953  12.276 -0.8380 -0.5660 -0.0997
 6249SOL    HW230207   0.427   2.906  12.328  0.5611  0.6979 -1.5457
 6250SOL     OW30208   1.899   3.966   7.885 -0.4105 -0.3516 -0.1912
 6250SOL    HW130209   1.878   3.896   7.823  1.3464 -1.2384  0.1967
 6250SOL    HW230210   1.972   3.925   7.932 -0.6847 -1.5916 -0.8537
 6251SOL     OW30211   2.749   0.057   5.862  0.5757  0.6335  0.1963
 6251SOL    HW130212   2.765   0.006   5.783 -2.9229 -1.8453  1.0867
 6251SOL    HW230213   2.653   0.063   5.863  0.5241 -0.3505  0.7741
 6252SOL     OW30214   1.203   2.472   3.389  0.0896  0.0413 -0.0772
 6252SOL    HW130215   1.196   2.458   3.295 -1.2449 -0.1355  0.0495
 6252SOL    HW230216   1.275   2.534   3.398  1.1415 -0.9687 -1.6414
 6253SOL     OW30217   0.158   1.836   7.731 -0.2640  0.2191  0.2299
 6253SOL    HW130218   0.187   1.918   7.693  0.6820  0.4471  1.4362
 6253SOL    HW230219   0.193   1.770   7.672 -0.6349  0.5311 -0.3316
 6254SOL     OW30220   4.335   2.048  16.849 -0.0130 -0.0969  0.1993
 6254SOL    HW130221   4.336   2.098  16.767 -1.5844  1.1846  0.9685
 6254SOL    HW230222   4.293   1.964  16.830 -2.0603  1.2990 -1.5064
 6255SOL     OW30223   1.309   3.552  13.334 -0.5726 -0.1952 -0.4520
 6255SOL    HW130224   1.239   3.616  13.343 -0.5036 -0.3886  1.4444
 6255SOL    HW230225   1.338   3.537  13.424  0.7462  1.6649 -0.5711
 6256SOL     OW30226   1.658   2.819  14.333 -0.0346  0.1239 -0.3910
 6256SOL    HW130227   1.577   2.844  14.289 -1.0312 -2.1264  0.1708
 6256SOL    HW230228   1.659   2.726  14.311 -0.4729  0.1012 -0.3178
 6257SOL     OW30229   0.790   0.419   2.535 -0.4258  0.2637 -0.2419
 6257SOL    HW130230   0.808   0.387   2.623  0.2556 -1.8717 -1.1487
 6257SOL    HW230231   0.873   0.405   2.489 -0.5714 -1.5137  0.0317
 6258SOL     OW30232   1.570   2.402   1.889 -0.1106  0.8976 -0.1978
 6258SOL    HW130233   1.628   2.474   1.915  0.8574 -0.4063  1.2837
 6258SOL    HW230234   1.641   2.339   1.875  1.4577  2.2818  1.5131
 6259SOL     OW30235   2.880   2.048   0.231  0.7077  0.5071  0.1617
 6259SOL    HW130236   2.910   2.059   0.141  1.1476 -2.8745 -0.1237
 6259SOL    HW230237   2.871   2.138   0.261  2.0851  0.0710  1.8744
 6260SOL     OW30238   2.864   0.629  13.638 -0.5346  0.1194 -0.1902
 6260SOL    HW130239   2.933   0.580  13.593  1.4144  1.4128  1.3614
 6260SOL    HW230240   2.840   0.564  13.705 -1.8021  1.0011  0.1933
 6261SOL     OW30241   3.995   4.705   4.190  0.1306  0.1059 -0.0372
 6261SOL    HW130242   4.030   4.616   4.192  1.4008  0.5675 -1.8224
 6261SOL    HW230243   3.972   4.707   4.097  0.4431 -3.1077 -0.1741
 6262SOL     OW30244   3.621   2.680   7.387  0.1448 -0.5927  0.2260
 6262SOL    HW130245   3.536   2.674   7.344  0.0821  0.4433  0.2149
 6262SOL    HW230246   3.598   2.632   7.466 -0.0301 -2.2226 -0.8255
 6263SOL     OW30247   0.423   4.255   1.657  0.7177  0.0756  0.4580
 6263SOL    HW130248   0.363   4.285   1.725  1.2369 -1.5072  1.5927
 6263SOL    HW230249   0.446   4.166   1.683 -0.7272  0.0099  1.5254
 6264SOL     OW30250   0.015   2.593  14.883  0.0506 -0.4702  0.0702
 6264SOL    HW130251   4.720   2.683  14.853  1.1599 -0.4184 -0.4188
 6264SOL    HW230252   4.665   2.553  14.835 -0.0125  1.1637 -1.2160
 6265SOL     OW30253   3.155   4.485   6.190 -0.2074  0.4440  0.5660
 6265SOL    HW130254   3.069   4.525   6.182 -1.7082 -2.0007  4.7805
 6265SOL    HW230255   3.208   4.535   6.127 -3.0558  2.3219 -0.3156
 6266SOL     OW30256   0.037   4.433  12.505  0.4119  0.0542  0.1368
 6266SOL    HW130257   4.678   4.384  12.509  0.1236  0.5282  0.0990
 6266SOL    HW230258   4.719   4.517  12.486  0.6312  0.1407  0.0452
 6267SOL     OW30259   2.395   3.537   8.502 -0.0709  0.0957  0.1288
 6267SOL    HW130260   2.384   3.616   8.556  0.9687  1.0757 -1.0973
 6267SOL    HW230261   2.305   3.504   8.512  0.4885 -1.4218  0.0729
 6268SOL     OW30262   3.343   1.760   9.683 -0.5968 -0.0197  0.3579
 6268SOL    HW130263   3.370   1.701   9.754  0.2103  0.3032  0.3251
 6268SOL    HW230264   3.251   1.738   9.669 -0.3972 -1.1258  0.7167
 6269SOL     OW30265   0.281   0.850   2.884 -0.1568  0.3136  0.0461
 6269SOL    HW130266   0.317   0.884   2.966  0.1113  0.3068 -0.0679
 6269SOL    HW230267   0.274   0.929   2.831 -1.2144 -0.8013 -1.4897
 6270SOL     OW30268   0.033   4.264   9.145 -0.0340  0.5469 -0.5334
 6270SOL    HW130269   0.064   4.278   9.055 -2.1319  1.4974 -1.1072
 6270SOL    HW230270   0.072   4.341   9.187  0.3163 -0.7073  1.4101
 6271SOL     OW30271   1.567   0.201   2.167 -0.2035 -0.3047 -0.1211
 6271SOL    HW130272   1.510   0.178   2.094  0.6479 -1.9713 -0.2567
 6271SOL    HW230273   1.570   0.297   2.171  0.1188 -0.2128 -2.4495
 6272SOL     OW30274   3.279   0.052   2.145  0.0242 -0.3152 -0.1262
 6272SOL    HW130275   3.264   0.113   2.217 -0.5413 -2.2474  1.3750
 6272SOL    HW230276   3.313   0.107   2.074 -0.4942  1.2333  0.8419
 6273SOL     OW30277   0.301   2.817   8.774 -0.1298  0.0696  0.5832
 6273SOL    HW130278   0.262   2.872   8.706  0.1962  0.9032  1.0723
 6273SOL    HW230279   0.385   2.788   8.740 -0.1826 -0.3522  0.8053
 6274SOL     OW30280   1.069   1.859   4.758 -0.7804 -0.0470  0.1868
 6274SOL    HW130281   1.115   1.926   4.807 -0.8283 -1.0419  1.5922
 6274SOL    HW230282   1.090   1.884   4.668 -0.3346 -1.1657 -0.0181
 6275SOL     OW30283   4.138   0.276   4.944  0.2623  0.7525  0.0329
 6275SOL    HW130284   4.195   0.206   4.976 -0.3042  0.6051  0.7334
 6275SOL    HW230285   4.091   0.224   4.879 -0.9847  0.7016  0.9746
 6276SOL     OW30286   2.612   2.471   3.360  0.0210 -0.2628 -0.5689
 6276SOL    HW130287   2.595   2.448   3.269  0.0154 -0.9737 -0.3926
 6276SOL    HW230288   2.708   2.471   3.356  0.0974  0.1298  1.1758
 6277SOL     OW30289   2.801   4.495   6.326  0.2286  0.0638  0.2658
 6277SOL    HW130290   2.794   4.454   6.240  0.0295  0.8113 -0.0781
 6277SOL    HW230291   2.772   4.430   6.389  0.7990 -0.2811  0.1734
 6278SOL     OW30292   1.429   4.581   1.184  0.4287  0.0937 -0.4802
 6278SOL    HW130293   1.448   4.592   1.277  0.4920 -1.0938 -0.3606
 6278SOL    HW230294   1.521   4.586   1.156  0.7119 -2.0336  0.1161
 6279SOL     OW30295   1.763   0.859  13.415 -0.1787 -0.4950 -0.1272
 6279SOL    HW130296   1.807   0.915  13.479 -3.8393  0.8151  1.2362
 6279SOL    HW230297   1.841   0.815  13.381 -0.2453  0.5052 -1.5924
 6280SOL     OW30298   4.033   3.523  10.425 -0.0942 -0.5408  0.4499
 6280SOL    HW130299   4.031   3.592  10.491 -2.4043 -0.3707  0.2175
 6280SOL    HW230300   4.117   3.486  10.452  0.9207  3.2816  2.4930
 6281SOL     OW30301   2.857   2.952  16.396  0.1216 -0.8926  0.1655
 6281SOL    HW130302   2.874   2.949  16.302 -0.1956 -0.8541  0.1055
 6281SOL    HW230303   2.768   2.989  16.396  0.8400  0.8161  0.9334
 6282SOL     OW30304   0.689   1.042   3.565  0.2385  0.2442  0.4297
 6282SOL    HW130305   0.618   1.016   3.623 -1.2676  1.0410 -1.0757
 6282SOL    HW230306   0.727   0.955   3.550 -2.3812 -0.6858 -0.7199
 6283SOL     OW30307   2.555   3.555   0.366 -0.1048 -0.5975 -0.6060
 6283SOL    HW130308   2.585   3.502   0.440 -1.6498 -1.3789 -0.5253
 6283SOL    HW230309   2.609   3.632   0.380  0.6056 -1.7816  3.4019
 6284SOL     OW30310   4.179   1.855   2.428 -0.2676 -0.0165  0.0077
 6284SOL    HW130311   4.132   1.793   2.485 -0.8502  0.4342  0.0154
 6284SOL    HW230312   4.101   1.871   2.374  0.1781  0.4086 -0.5051
 6285SOL     OW30313   2.129   3.614   8.859 -0.4563 -0.0997  0.5590
 6285SOL    HW130314   2.195   3.603   8.927 -1.7768 -0.3191  1.7952
 6285SOL    HW230315   2.060   3.664   8.902 -0.7599 -1.1392  1.2786
 6286SOL     OW30316   1.652   2.283  10.439  0.1758  0.5327 -0.2030
 6286SOL    HW130317   1.587   2.225  10.479  0.3672  0.7287  0.3759
 6286SOL    HW230318   1.638   2.360  10.494  0.3039 -1.0974  2.0915
 6287SOL     OW30319   4.227   1.485   3.266 -0.1034 -0.1551  0.1267
 6287SOL    HW130320   4.151   1.438   3.234  1.2390 -1.6220 -0.9036
 6287SOL    HW230321   4.249   1.410   3.322 -0.9725 -1.1646 -0.8919
 6288SOL     OW30322   0.122   3.065   5.285  0.4242  0.3447  0.7285
 6288SOL    HW130323   0.044   3.019   5.253 -2.0711  3.1661  2.6651
 6288SOL    HW230324   0.121   3.052   5.380  0.5777  2.2866  0.9940
 6289SOL     OW30325   0.674   1.808   5.861 -0.3468 -0.2874 -0.1933
 6289SOL    HW130326   0.681   1.869   5.788 -0.5220  0.1007  0.1150
 6289SOL    HW230327   0.612   1.856   5.916 -0.3356  0.5789 -0.9427
 6290SOL     OW30328   3.713   3.222   1.568 -0.4626 -0.0787 -0.4589
 6290SOL    HW130329   3.700   3.307   1.525 -0.3053 -0.2951 -0.9356
 6290SOL    HW230330   3.668   3.164   1.507  1.5012  0.1216 -2.1099
 6291SOL     OW30331   2.607   4.411  11.041 -0.1365 -0.0335 -0.0842
 6291SOL    HW130332   2.516   4.395  11.066 -0.4781  0.5494 -0.9742
 6291SOL    HW230333   2.590   4.478  10.976 -1.9360 -0.8102 -0.3987
 6292SOL     OW30334   3.853   1.870  13.936 -0.2003 -0.1633 -0.0403
 6292SOL    HW130335   3.760   1.886  13.921 -0.2751  0.9488  1.6412
 6292SOL    HW230336   3.851   1.775  13.947 -1.8025 -0.1449 -0.2086
 6293SOL     OW30337   2.329   1.524   2.402 -0.2741 -0.0086  0.1317
 6293SOL    HW130338   2.286   1.467   2.467 -0.1484  1.6271  1.6283
 6293SOL    HW230339   2.412   1.477   2.391 -1.2240 -1.7615  0.4259
 6294SOL     OW30340   4.262   2.128  14.521 -0.1869 -0.0016  0.3178
 6294SOL    HW130341   4.234   2.219  14.509  0.6274  0.1478 -0.4516
 6294SOL    HW230342   4.218   2.085  14.448  1.1889  0.2837 -0.6795
 6295SOL     OW30343   2.947   2.860   8.019 -0.0242  0.1216 -0.8466
 6295SOL    HW130344   2.867   2.841   8.068  1.4780 -0.4721  1.3983
 6295SOL    HW230345   3.005   2.879   8.093  2.2486 -1.4922 -2.2344
 6296SOL     OW30346   3.523   0.553   4.920 -0.7754  0.2570 -0.3984
 6296SOL    HW130347   3.463   0.583   4.852 -2.9108 -1.7235  0.6232
 6296SOL    HW230348   3.489   0.612   4.987 -2.1202 -0.4247 -0.4875
 6297SOL     OW30349   3.825   2.925  17.029 -0.0395 -0.4401  0.2483
 6297SOL    HW130350   3.892   2.939  16.963 -0.2249  2.5883  0.7026
 6297SOL    HW230351   3.769   2.859  16.987  0.1390 -0.2211 -0.3334
 6298SOL     OW30352   2.087   0.142   2.061  0.0590 -0.0914 -0.3696
 6298SOL    HW130353   2.110   0.210   1.997  1.7042 -0.1598  0.1491
 6298SOL    HW230354   1.992   0.150   2.061  0.0600  0.0590 -2.2677
 6299SOL     OW30355   1.844   3.025  10.055  0.2098 -0.3158  0.2366
 6299SOL    HW130356   1.879   2.938  10.033  2.0166  0.4544  0.0987
 6299SOL    HW230357   1.758   2.996  10.085 -0.3325  2.2372  1.1121
 6300SOL     OW30358   3.673   1.592   3.986 -0.1602  0.3762 -0.5971
 6300SOL    HW130359   3.649   1.500   3.984 -1.3576  0.6576  1.1039
 6300SOL    HW230360   3.615   1.615   4.059  1.2543 -0.2038  0.7064
 6301SOL     OW30361   4.141   2.011  16.243 -0.5424  0.6892  0.0725
 6301SOL    HW130362   4.077   1.941  16.255 -0.7017  0.9136  0.5563
 6301SOL    HW230363   4.216   1.957  16.220  1.2065  2.6555  1.1906
 6302SOL     OW30364   4.540   0.434   8.562  0.5550 -0.5777 -0.4403
 6302SOL    HW130365   4.453   0.436   8.601  1.1023 -1.9794  0.8500
 6302SOL    HW230366   4.585   0.468   8.639 -0.6380 -0.5906  0.2630
 6303SOL     OW30367   3.451   2.546   4.152 -0.0763 -0.2008 -0.2040
 6303SOL    HW130368   3.492   2.527   4.236 -0.9485 -1.1682  0.0074
 6303SOL    HW230369   3.487   2.629   4.121  0.5505 -1.1393 -1.9729
 6304SOL     OW30370   1.930   0.720   0.369  0.0535 -0.6700 -0.4067
 6304SOL    HW130371   1.891   0.633   0.360 -0.5580 -0.6367  1.8228
 6304SOL    HW230372   1.945   0.743   0.278  1.1403  0.5112  0.0721
 6305SOL     OW30373   3.317   1.054   5.573 -0.0837  0.3191 -0.6789
 6305SOL    HW130374   3.261   1.008   5.511 -1.3788 -0.5673  1.1361
 6305SOL    HW230375   3.287   1.144   5.563  1.6947  0.5649 -3.4983
 6306SOL     OW30376   2.364   1.870  12.928  0.2952  0.4503  0.1399
 6306SOL    HW130377   2.446   1.896  12.971 -0.5555 -0.9918  2.6476
 6306SOL    HW230378   2.382   1.778  12.909  2.6131  1.2420 -1.5304
 6307SOL     OW30379   3.571   1.403   2.113 -0.1797  0.2222  0.3376
 6307SOL    HW130380   3.621   1.420   2.033 -0.5399  2.5463  0.6048
 6307SOL    HW230381   3.490   1.360   2.085  0.2178 -0.4013  0.1533
 6308SOL     OW30382   3.878   3.736  17.043 -0.4482  0.6815 -0.2912
 6308SOL    HW130383   3.818   3.691  17.103  1.5829  0.3538  1.4747
 6308SOL    HW230384   3.838   3.737  16.956 -0.2170 -0.7132 -0.4184
 6309SOL     OW30385   1.822   4.629   2.037 -0.2982  0.5689 -0.0663
 6309SOL    HW130386   1.834   4.624   2.132 -1.7566  0.6953  0.1254
 6309SOL    HW230387   1.810   0.001   2.042  2.4844  0.7123  3.9642
 6310SOL     OW30388   0.442   0.348   5.085  0.1976  0.6478 -0.2157
 6310SOL    HW130389   0.407   0.428   5.045 -0.0245  1.1033  0.8932
 6310SOL    HW230390   0.450   0.368   5.178  1.0558 -1.0740  0.0815
 6311SOL     OW30391   2.902   2.113   4.700 -0.2119  0.5527 -0.0205
 6311SOL    HW130392   2.980   2.142   4.652 -0.7728  1.1730 -0.5608
 6311SOL    HW230393   2.834   2.098   4.634 -0.5238  2.6886 -0.1684
 6312SOL     OW30394   4.492   1.137   7.909  0.2190 -0.6901  0.2633
 6312SOL    HW130395   4.585   1.154   7.894  0.4242 -0.8698  1.3546
 6312SOL    HW230396   4.495   1.041   7.912  0.5074 -0.6553  1.0517
 6313SOL     OW30397   3.692   2.379   8.243 -0.3235 -0.4253  0.0591
 6313SOL    HW130398   3.694   2.475   8.239  1.3247 -0.3746  2.0270
 6313SOL    HW230399   3.598   2.374   8.224 -0.3027  3.7064 -1.2271
 6314SOL     OW30400   1.521   2.455   3.756 -0.2504  0.2938  0.2007
 6314SOL    HW130401   1.524   2.374   3.805 -0.5858  0.7625  1.0050
 6314SOL    HW230402   1.567   2.520   3.809 -0.6430  0.4530  0.3499
 6315SOL     OW30403   1.018   4.183   7.759 -0.7966  0.4764  0.9610
 6315SOL    HW130404   0.970   4.260   7.789  0.2429  0.8148  1.7595
 6315SOL    HW230405   0.951   4.119   7.735 -0.3836  0.6335 -0.6511
 6316SOL     OW30406   1.504   4.220   9.120 -0.1702 -0.0799  0.7126
 6316SOL    HW130407   1.498   4.313   9.100  0.0668  0.0083  1.0527
 6316SOL    HW230408   1.537   4.230   9.210  2.0553  2.9031 -0.4566
 6317SOL     OW30409   0.257   4.539  11.431 -0.4096  0.0550  0.3446
 6317SOL    HW130410   0.298   4.491  11.503  1.4671 -0.1143 -0.8485
 6317SOL    HW230411   0.223   4.619  11.471 -0.6367 -0.3706  0.9988
 6318SOL     OW30412   3.918   4.008   0.456 -0.3045 -0.7254  0.4549
 6318SOL    HW130413   3.942   4.085   0.404 -1.4972 -0.3194  0.5169
 6318SOL    HW230414   3.974   4.022   0.532  2.1142 -1.3348 -1.1979
 6319SOL     OW30415   1.117   4.074  15.553 -0.2426  0.1610  0.2393
 6319SOL    HW130416   1.149   4.124  15.478 -0.3692 -1.0700 -0.6308
 6319SOL    HW230417   1.080   4.004  15.499  2.4481  0.4138 -1.9456
 6320SOL     OW30418   3.220   2.317   3.564 -0.0087  0.1094  0.2702
 6320SOL    HW130419   3.158   2.314   3.637  0.8610  0.5085  1.0284
 6320SOL    HW230420   3.279   2.245   3.587 -1.7968 -2.0152 -1.9563
 6321SOL     OW30421   3.006   1.864   6.010 -0.5967  0.8207 -0.4800
 6321SOL    HW130422   3.006   1.848   6.105 -0.0507  0.4931 -0.5355
 6321SOL    HW230423   3.090   1.823   5.989 -0.8619 -0.4491  0.8898
 6322SOL     OW30424   0.956   0.922   3.531 -0.4095 -0.4423  0.4086
 6322SOL    HW130425   0.946   0.890   3.620 -0.3885  0.5860  0.7796
 6322SOL    HW230426   0.984   0.842   3.485  3.1825 -0.8979  3.4123
 6323SOL     OW30427   0.149   0.645   7.454  0.4925  0.5512  0.3176
 6323SOL    HW130428   0.227   0.623   7.504  0.5160 -1.4619 -0.6097
 6323SOL    HW230429   0.185   0.678   7.371  0.9046  1.5561  0.8915
 6324SOL     OW30430   4.657   1.326   9.098  0.3601 -0.0683  0.1225
 6324SOL    HW130431   4.577   1.275   9.081 -0.2627  0.8382  0.3322
 6324SOL    HW230432   4.623   1.375   9.172  0.4016  0.8061 -0.4425
 6325SOL     OW30433   0.086   3.607   0.725 -0.2971  0.3070 -0.7391
 6325SOL    HW130434   4.716   3.611   0.703  0.3217  1.1709 -3.2059
 6325SOL    HW230435   0.119   3.693   0.699 -0.0140  1.4555  3.4274
 6326SOL     OW30436   1.245   4.230  16.039 -0.3523 -0.3367 -0.5338
 6326SOL    HW130437   1.152   4.233  16.063 -0.3400  0.6728 -0.5949
 6326SOL    HW230438   1.291   4.166  16.093  0.0826 -0.0058 -0.5118
 6327SOL     OW30439   3.441   2.625   5.051  0.3137  0.0762 -0.1675
 6327SOL    HW130440   3.463   2.587   4.966 -0.4802 -0.9822  0.0929
 6327SOL    HW230441   3.428   2.543   5.099  2.1622 -0.9139 -1.3469
 6328SOL     OW30442   1.763   0.043  17.595 -0.7633 -0.2228  0.2931
 6328SOL    HW130443   1.687   4.721  17.634 -1.0668  0.8244  0.8889
 6328SOL    HW230444   1.800   0.084  17.674  0.3603 -1.3526  0.3469
 6329SOL     OW30445   3.858   0.647   8.663 -0.2875 -0.3745 -0.2818
 6329SOL    HW130446   3.948   0.647   8.628 -0.8728 -1.2629 -1.7806
 6329SOL    HW230447   3.837   0.739   8.677 -1.5445 -0.6912 -0.1061
 6330SOL     OW30448   2.720   4.149  17.537 -0.0097  0.1678 -0.0486
 6330SOL    HW130449   2.713   4.058  17.565 -1.8215 -0.5017 -2.6643
 6330SOL    HW230450   2.628   4.173  17.547 -0.1448 -0.5284  0.3465
 6331SOL     OW30451   1.226   1.571  14.591 -0.0370 -0.0008  0.0169
 6331SOL    HW130452   1.255   1.637  14.528 -1.5244 -1.3611 -2.0649
 6331SOL    HW230453   1.174   1.628  14.648 -1.0555 -1.0811  0.1664
 6332SOL     OW30454   1.048   3.679   3.323 -0.5523 -0.5127  0.0295
 6332SOL    HW130455   1.058   3.610   3.388 -0.8490 -0.9182 -0.3481
 6332SOL    HW230456   1.101   3.739   3.374 -1.8470  1.4699 -0.9603
 6333SOL     OW30457   0.855   2.592   2.097 -0.0130  1.0572 -0.3388
 6333SOL    HW130458   0.896   2.540   2.166  1.3938  2.8318  0.1436
 6333SOL    HW230459   0.874   2.543   2.017  1.9032  1.9976 -0.4567
 6334SOL     OW30460   3.419   4.289   0.594  0.5058  0.3401 -0.1987
 6334SOL    HW130461   3.330   4.254   0.593  1.1483 -1.2136 -3.1204
 6334SOL    HW230462   3.440   4.285   0.687  3.1800  1.7230 -0.7462
 6335SOL     OW30463   2.237   0.208  13.021 -0.7859 -0.0200  0.0054
 6335SOL    HW130464   2.167   0.158  12.979 -1.1290  1.2843 -0.9823
 6335SOL    HW230465   2.187   0.276  13.066 -0.4517  0.4810 -0.3813
 6336SOL     OW30466   1.113   3.532   6.544  0.3366 -0.7396  0.0533
 6336SOL    HW130467   1.092   3.458   6.601 -0.7116 -0.7800 -0.3736
 6336SOL    HW230468   1.191   3.504   6.497  0.5175  0.3898 -0.3111
 6337SOL     OW30469   1.376   1.086   7.410 -0.2552  0.2507  0.3890
 6337SOL    HW130470   1.309   1.035   7.454  0.8062 -1.5384 -0.0653
 6337SOL    HW230471   1.314   1.144   7.365 -0.8562  1.5474  2.8806
 6338SOL     OW30472   1.048   4.084   5.212 -0.2145  0.2997 -0.7128
 6338SOL    HW130473   1.000   4.001   5.215  0.8264 -0.4012 -2.7872
 6338SOL    HW230474   1.097   4.073   5.130  2.0899 -0.3206  0.7395
 6339SOL     OW30475   4.032   2.005  14.058 -0.0974 -0.1852 -0.2015
 6339SOL    HW130476   3.969   1.948  14.014  0.1652  0.3293 -1.2362
 6339SOL    HW230477   4.100   2.011  13.991  1.2756 -0.6226  1.1710
 6340SOL     OW30478   3.201   0.115   3.309  0.5410 -0.1798  0.1773
 6340SOL    HW130479   3.252   0.092   3.387  2.9234 -1.0903 -1.6707
 6340SOL    HW230480   3.267   0.182   3.294 -1.1894  1.3407 -0.6864
 6341SOL     OW30481   2.490   0.964  10.681 -0.1177 -0.1836 -0.2414
 6341SOL    HW130482   2.412   0.975  10.735 -1.6334  0.1134 -2.5211
 6341SOL    HW230483   2.555   1.009  10.735  1.2171 -0.7611 -1.3491
 6342SOL     OW30484   2.187   4.465   8.696 -0.1911  0.1812  0.3648
 6342SOL    HW130485   2.229   4.549   8.712  1.1494 -0.7128  1.5243
 6342SOL    HW230486   2.141   4.459   8.780  1.4076  0.6666  1.2580
 6343SOL     OW30487   2.510   4.046   3.770  0.2682 -0.6180  0.7196
 6343SOL    HW130488   2.441   4.033   3.706  1.3204  0.1097 -0.5870
 6343SOL    HW230489   2.573   3.980   3.741  0.0001 -0.6836  0.2858
 6344SOL     OW30490   0.305   2.931   1.575  0.2602 -0.0555 -0.5918
 6344SOL    HW130491   0.309   2.910   1.668 -0.7820  0.4645 -0.4342
 6344SOL    HW230492   0.216   2.965   1.578  0.7612  1.2422 -0.4942
 6345SOL     OW30493   3.741   3.277   8.321  0.0003 -0.0316  0.0527
 6345SOL    HW130494   3.678   3.305   8.254 -1.6268  0.5874  1.8277
 6345SOL    HW230495   3.752   3.362   8.364 -0.3392  0.6036 -1.1174
 6346SOL     OW30496   3.010   1.341   5.738 -0.3252  0.1423 -0.0971
 6346SOL    HW130497   3.000   1.247   5.752 -0.4140 -0.3723 -3.5783
 6346SOL    HW230498   2.945   1.380   5.796 -1.5663  1.7032 -2.5324
 6347SOL     OW30499   3.140   2.937   8.177 -1.1110 -0.4125  0.2128
 6347SOL    HW130500   3.161   2.927   8.270 -1.1693 -1.2423  0.1323
 6347SOL    HW230501   3.188   3.018   8.158 -1.3150 -0.1816  0.6839
 6348SOL     OW30502   1.074   0.749  11.738  0.0363 -0.0809 -0.2988
 6348SOL    HW130503   1.005   0.692  11.704 -0.2661 -0.9165  1.6967
 6348SOL    HW230504   1.101   0.717  11.824  2.1806 -0.8786 -1.2763
 6349SOL     OW30505   0.845   0.671   5.019 -0.4616 -0.3535 -0.2521
 6349SOL    HW130506   0.825   0.673   5.112 -1.7551  0.5733 -0.5528
 6349SOL    HW230507   0.868   0.580   4.998  0.9022  0.0222 -0.3839
 6350SOL     OW30508   3.471   1.770   7.448  0.4845  0.4713  0.4800
 6350SOL    HW130509   3.418   1.850   7.460 -1.3401 -0.2577 -2.7170
 6350SOL    HW230510   3.447   1.758   7.356 -0.8679  0.2546  0.8589
 6351SOL     OW30511   1.903   1.775   3.618  0.5247  0.2332  0.0089
 6351SOL    HW130512   1.984   1.801   3.661 -1.0458 -1.9949  4.3453
 6351SOL    HW230513   1.849   1.744   3.691  1.1838  1.2562  0.9190
 6352SOL     OW30514   1.739   1.422   1.389 -0.3929 -0.3922  0.5487
 6352SOL    HW130515   1.818   1.368   1.389 -0.0014  0.1877 -0.1102
 6352SOL    HW230516   1.771   1.485   1.325  0.1823 -1.2530 -0.0159
 6353SOL     OW30517   2.191   0.639   2.496  1.1642  0.6741  0.3050
 6353SOL    HW130518   2.168   0.716   2.549 -0.4125 -0.1020  0.7306
 6353SOL    HW230519   2.122   0.637   2.429  1.3117  1.4396  0.1326
 6354SOL     OW30520   4.124   1.725   6.087 -0.4769 -0.1610  0.7826
 6354SOL    HW130521   4.202   1.766   6.047 -0.6657 -1.1229 -0.5767
 6354SOL    HW230522   4.101   1.787   6.156  1.1657  1.3073  0.0245
 6355SOL     OW30523   1.884   4.022  10.729 -0.4705 -1.0380  0.6293
 6355SOL    HW130524   1.841   4.055  10.650  0.5858  2.6829  1.5861
 6355SOL    HW230525   1.946   4.093  10.749 -1.7862  0.4332 -0.5492
 6356SOL     OW30526   2.653   1.036   3.079 -0.1940  0.0972 -0.8924
 6356SOL    HW130527   2.658   1.010   2.987  1.6618 -0.9101 -0.5145
 6356SOL    HW230528   2.590   1.108   3.077 -0.4417 -0.1276 -1.2896
 6357SOL     OW30529   2.090   2.305   4.022  0.5010 -0.0721  0.3139
 6357SOL    HW130530   2.097   2.211   4.041 -0.3513 -0.3686 -0.8351
 6357SOL    HW230531   2.151   2.337   4.088  0.0348 -0.4924  0.9523
 6358SOL     OW30532   2.282   2.549   2.139  0.2941  0.2517 -0.3210
 6358SOL    HW130533   2.326   2.633   2.154 -3.1010  1.4990  2.5138
 6358SOL    HW230534   2.362   2.503   2.113 -1.3590 -2.0384 -1.3532
 6359SOL     OW30535   0.683   1.961   5.624  0.0999  0.5620  0.5002
 6359SOL    HW130536   0.593   1.993   5.624 -0.6110 -1.4369 -2.5074
 6359SOL    HW230537   0.728   2.026   5.570  1.1425 -0.3332  0.2947
 6360SOL     OW30538   2.173   1.620   9.354 -0.9554  0.1706 -0.0022
 6360SOL    HW130539   2.081   1.641   9.368 -0.8542  0.4711  0.2073
 6360SOL    HW230540   2.207   1.699   9.396 -1.5173  0.5308 -0.2325
 6361SOL     OW30541   1.429   2.540  11.460 -0.1513  0.1117  0.4593
 6361SOL    HW130542   1.511   2.587  11.472  0.0699  0.7532 -3.4660
 6361SOL    HW230543   1.458   2.461  11.416  0.5845 -0.3434  1.7564
 6362SOL     OW30544   3.093   3.507  12.881  0.3892  0.0581 -0.8375
 6362SOL    HW130545   3.135   3.513  12.795  0.5013  0.9374 -0.7222
 6362SOL    HW230546   3.074   3.414  12.890  0.4292  0.0858 -0.4530
 6363SOL     OW30547   2.090   0.209   5.517  0.5728 -0.6747 -0.3231
 6363SOL    HW130548   2.063   0.117   5.517 -1.7203 -0.0035  0.6676
 6363SOL    HW230549   2.010   0.258   5.496 -1.3135 -2.5747  2.4615
 6364SOL     OW30550   4.512   3.061   7.584 -0.1641 -0.5671  0.0429
 6364SOL    HW130551   4.583   3.061   7.519  1.9021  2.4039  2.2688
 6364SOL    HW230552   4.546   3.014   7.660  0.9572 -1.2338 -0.8723
 6365SOL     OW30553   4.688   0.996   3.158 -0.4571  0.7153  0.4779
 6365SOL    HW130554   4.691   1.007   3.253  0.0152 -1.8378  0.7440
 6365SOL    HW230555   0.011   0.913   3.144 -2.3438 -0.3856  0.8894
 6366SOL     OW30556   0.463   2.795   7.332  1.1183 -0.3421  1.0423
 6366SOL    HW130557   0.404   2.720   7.333  1.8111 -0.8955  0.4641
 6366SOL    HW230558   0.545   2.756   7.301  0.4650 -1.4840  0.7513
 6367SOL     OW30559   1.245   4.120   6.535  0.2688 -0.2682 -0.1738
 6367SOL    HW130560   1.306   4.118   6.610 -0.2860 -0.7759  0.2671
 6367SOL    HW230561   1.161   4.143   6.574  1.6708 -0.9372  3.2621
 6368SOL     OW30562   3.568   4.316   3.788 -0.0760 -0.3493 -1.1223
 6368SOL    HW130563   3.519   4.234   3.784 -0.0810 -0.5195  2.1561
 6368SOL    HW230564   3.611   4.309   3.874 -2.2222 -0.9644 -0.0923
 6369SOL     OW30565   1.255   2.933   8.610 -0.2578 -1.0780  0.5083
 6369SOL    HW130566   1.172   2.975   8.587  0.1154 -1.3173 -1.2518
 6369SOL    HW230567   1.271   2.989   8.686 -0.4897 -0.1690 -0.1154
 6370SOL     OW30568   3.324   3.680   7.373 -0.2409 -0.3709  0.4468
 6370SOL    HW130569   3.355   3.745   7.310  0.8415  0.9174  2.2974
 6370SOL    HW230570   3.401   3.623   7.379 -0.6492 -1.0459 -0.8602
 6371SOL     OW30571   2.952   0.286   3.413  0.8976  0.7488 -0.0073
 6371SOL    HW130572   2.960   0.255   3.503  1.2838  0.4455 -0.1453
 6371SOL    HW230573   3.019   0.240   3.362  0.4485 -0.1280  0.1926
 6372SOL     OW30574   3.722   1.291  11.511 -0.3773  0.0854  0.7308
 6372SOL    HW130575   3.700   1.199  11.521 -2.2528  0.5577  0.8114
 6372SOL    HW230576   3.818   1.285  11.518 -0.4276 -0.7824  0.6112
 6373SOL     OW30577   0.399   1.770   3.142  0.0559 -0.3843 -0.3159
 6373SOL    HW130578   0.463   1.840   3.134  0.7982 -0.9792  0.3921
 6373SOL    HW230579   0.373   1.755   3.051  0.3184 -0.1820 -0.4234
 6374SOL     OW30580   1.672   1.773   9.361  0.5544  0.2092  0.3580
 6374SOL    HW130581   1.692   1.859   9.398 -1.2003  0.5574  0.4877
 6374SOL    HW230582   1.746   1.721   9.392  0.2298 -1.9167 -2.4700
 6375SOL     OW30583   3.863   1.422   5.080 -0.4297 -0.3115 -0.0215
 6375SOL    HW130584   3.947   1.465   5.092 -0.5493 -0.5999  1.7994
 6375SOL    HW230585   3.858   1.345   5.136  0.1977 -0.5727 -0.3193
 6376SOL     OW30586   3.338   4.299   9.256  0.8100  0.1245 -0.2018
 6376SOL    HW130587   3.365   4.380   9.298 -1.0873 -0.6343  2.5384
 6376SOL    HW230588   3.374   4.224   9.305 -0.4699  1.0468  2.1961
 6377SOL     OW30589   1.397   2.286   1.306 -0.3298  0.1459 -0.1381
 6377SOL    HW130590   1.388   2.300   1.400 -1.5066 -0.1794 -0.1989
 6377SOL    HW230591   1.477   2.233   1.304 -1.0211 -0.9057  0.3727
 6378SOL     OW30592   2.448   4.213  16.255  0.1474  0.6982 -0.4103
 6378SOL    HW130593   2.444   4.260  16.338  1.0880 -0.1445  0.1091
 6378SOL    HW230594   2.384   4.269  16.211 -1.0888 -0.2174  0.2366
 6379SOL     OW30595   1.253   3.713   7.149 -0.3662  0.1443 -0.3268
 6379SOL    HW130596   1.312   3.724   7.224 -1.5452  2.3457  0.2774
 6379SOL    HW230597   1.306   3.742   7.075 -0.6865  1.8824  0.1432
 6380SOL     OW30598   1.965   4.716   7.422 -0.9038  0.6636 -0.4924
 6380SOL    HW130599   1.958   4.621   7.434  1.2858  0.5389 -0.1980
 6380SOL    HW230600   1.947   0.026   7.510  0.6927  1.4944 -0.4635
 6381SOL     OW30601   3.027   2.023  17.689  0.7410 -0.5317  0.4322
 6381SOL    HW130602   3.108   1.978  17.664  0.5726 -0.7241  0.2287
 6381SOL    HW230603   3.015   2.083  17.615  2.3620  0.4825  0.9962
 6382SOL     OW30604   0.551   3.480   7.249 -0.6524 -0.1090  0.5747
 6382SOL    HW130605   0.609   3.434   7.310  1.3470  0.8451 -0.6104
 6382SOL    HW230606   0.611   3.498   7.177 -0.7919  1.0791  0.7457
 6383SOL     OW30607   1.073   2.775  17.181 -0.0052  0.1246  0.4067
 6383SOL    HW130608   0.999   2.722  17.210 -0.2338  0.1977 -0.0435
 6383SOL    HW230609   1.150   2.729  17.214 -1.2412 -2.0672  0.2455
 6384SOL     OW30610   3.362   1.149   6.375  0.6446  0.1303 -0.6245
 6384SOL    HW130611   3.381   1.242   6.388 -2.3800  0.4113  1.8010
 6384SOL    HW230612   3.302   1.159   6.301 -0.1906 -0.7286 -0.0732
 6385SOL     OW30613   3.910   3.044   2.732  0.4715  0.0011  1.1459
 6385SOL    HW130614   3.888   3.126   2.775 -0.0777  0.6747 -0.4060
 6385SOL    HW230615   3.822   3.006   2.722 -0.5979  2.4978  0.9991
 6386SOL     OW30616   1.915   1.163   6.201  0.7349  0.3933  0.1199
 6386SOL    HW130617   1.993   1.154   6.255  0.9753  0.7508 -0.1711
 6386SOL    HW230618   1.926   1.075   6.164 -1.3076  1.4499 -3.0113
 6387SOL     OW30619   0.966   3.435   2.091 -0.1731 -0.8048  0.3843
 6387SOL    HW130620   0.935   3.413   2.179 -2.5584  1.1303  0.0339
 6387SOL    HW230621   0.961   3.531   2.091  0.6690 -0.7596 -2.5581
 6388SOL     OW30622   2.141   3.316  10.190  0.0813  0.1697  0.4180
 6388SOL    HW130623   2.163   3.377  10.261 -3.8446  0.2464  1.5969
 6388SOL    HW230624   2.151   3.239  10.246 -1.0083  0.2783  0.7645
 6389SOL     OW30625   1.369   1.042  16.626 -0.2371 -0.2543  0.2733
 6389SOL    HW130626   1.411   1.077  16.705 -0.5711  1.0304 -0.1065
 6389SOL    HW230627   1.289   1.013  16.669  0.5968 -2.3369  0.3892
 6390SOL     OW30628   0.906   0.430   3.186 -0.2127  0.2395 -0.1889
 6390SOL    HW130629   0.983   0.422   3.129 -0.2010 -0.4293 -0.0701
 6390SOL    HW230630   0.937   0.398   3.270  1.1188 -0.0125 -0.7711
 6391SOL     OW30631   1.567   1.022   7.070  0.5188  0.6580  0.1184
 6391SOL    HW130632   1.592   0.940   7.028 -2.6708  0.0794 -0.6412
 6391SOL    HW230633   1.516   1.064   7.001  0.0900  0.7396  0.4893
 6392SOL     OW30634   0.399   0.466   0.705 -0.8223 -0.0253 -0.1812
 6392SOL    HW130635   0.427   0.377   0.728 -1.7727 -0.5159 -0.9130
 6392SOL    HW230636   0.452   0.479   0.627  0.8844  1.2702  1.2131
 6393SOL     OW30637   2.358   2.376  15.296 -0.2956  0.0682 -0.1060
 6393SOL    HW130638   2.375   2.423  15.378 -2.0692  0.8040 -0.1585
 6393SOL    HW230639   2.270   2.408  15.280 -1.0599 -2.1309 -0.3879
 6394SOL     OW30640   2.789   1.381  12.913  0.8782 -0.0056  0.5468
 6394SOL    HW130641   2.732   1.349  12.983 -4.0067  0.6728 -3.1678
 6394SOL    HW230642   2.864   1.413  12.965 -0.3003  0.5549  1.9015
 6395SOL     OW30643   1.280   2.231   6.127  0.0298 -0.2236 -0.0490
 6395SOL    HW130644   1.201   2.179   6.113  0.2282 -0.6751  0.5258
 6395SOL    HW230645   1.308   2.251   6.037 -3.9933 -0.6048 -1.3939
 6396SOL     OW30646   2.839   3.469  14.020 -0.1139 -0.0988 -0.3728
 6396SOL    HW130647   2.912   3.441  13.964 -0.3719  0.3916 -0.9540
 6396SOL    HW230648   2.770   3.444  13.959  0.9585  0.4599 -1.8247
 6397SOL     OW30649   1.286   3.689   7.488 -0.0636 -0.2003  0.2750
 6397SOL    HW130650   1.325   3.604   7.510 -4.5331 -2.9028 -2.1533
 6397SOL    HW230651   1.233   3.705   7.566 -3.3520 -1.2660 -1.7191
 6398SOL     OW30652   1.562   4.235   3.505 -0.0961  0.3822  0.4111
 6398SOL    HW130653   1.614   4.280   3.572  1.5569  0.2552 -0.7756
 6398SOL    HW230654   1.619   4.242   3.428  0.3599  1.0115  0.8002
 6399SOL     OW30655   3.469   4.569   2.230  0.0980  0.0484  0.1446
 6399SOL    HW130656   3.446   4.510   2.159 -0.1595 -1.0161  1.1135
 6399SOL    HW230657   3.466   4.661   2.203  0.0387  0.6904  2.3340
 6400SOL     OW30658   2.120   1.501   6.604  0.3797 -0.2541  0.1254
 6400SOL    HW130659   2.182   1.428   6.598  0.4691 -0.1500 -0.2410
 6400SOL    HW230660   2.183   1.572   6.617  0.4046 -0.3038  0.2745
 6401SOL     OW30661   1.804   1.530   2.768  0.3574 -0.1387  0.5133
 6401SOL    HW130662   1.887   1.570   2.795  1.8090 -2.0375 -1.2316
 6401SOL    HW230663   1.747   1.599   2.734 -1.6034 -1.7995  0.4255
 6402SOL     OW30664   2.696   0.811   3.528  0.3283 -0.0248  0.7669
 6402SOL    HW130665   2.674   0.815   3.435 -0.0106  0.7120  0.8859
 6402SOL    HW230666   2.693   0.902   3.558 -1.1709  1.1514 -2.9516
 6403SOL     OW30667   1.462   2.354  10.850  0.1999  0.2426  0.2958
 6403SOL    HW130668   1.435   2.412  10.921  1.6608 -0.9721  1.8230
 6403SOL    HW230669   1.541   2.319  10.891 -0.7566 -1.9288  0.2622
 6404SOL     OW30670   1.363   4.246   5.884 -0.2237 -0.5166 -0.0617
 6404SOL    HW130671   1.303   4.318   5.864  0.0600 -0.1645  0.3481
 6404SOL    HW230672   1.307   4.169   5.883 -0.7706 -0.1077 -0.7518
 6405SOL     OW30673   1.003   4.416  13.878 -0.1810  0.2072  0.0808
 6405SOL    HW130674   1.035   4.467  13.804  0.9285  0.2584  0.5952
 6405SOL    HW230675   0.989   4.486  13.942 -0.9784  0.0616  0.0648
 6406SOL     OW30676   0.369   2.362   1.761 -0.1744 -0.5014 -0.4847
 6406SOL    HW130677   0.360   2.291   1.824  0.0552  1.7281  2.0252
 6406SOL    HW230678   0.455   2.400   1.774 -0.4706 -0.2698  0.7712
 6407SOL     OW30679   3.915   1.875   2.722 -0.4925 -0.0859 -0.9707
 6407SOL    HW130680   3.972   1.820   2.668  0.4964  0.1035 -0.1268
 6407SOL    HW230681   3.844   1.916   2.672 -1.2687 -1.1258 -0.7030
 6408SOL     OW30682   3.182   3.843   7.030 -0.1272  0.1128  0.2535
 6408SOL    HW130683   3.173   3.934   7.003 -0.0198  0.6515  2.0134
 6408SOL    HW230684   3.267   3.856   7.073  0.1495  1.1214 -0.5845
 6409SOL     OW30685   2.514   3.831   3.486  0.2509 -0.7776 -0.0625
 6409SOL    HW130686   2.585   3.887   3.453 -1.0617  0.4643 -0.8018
 6409SOL    HW230687   2.565   3.753   3.506  0.3035 -0.9700 -0.9193
 6410SOL     OW30688   3.281   1.567  13.665 -0.2947  0.0097  0.3194
 6410SOL    HW130689   3.373   1.577  13.640 -0.2725 -0.0030  0.3938
 6410SOL    HW230690   3.295   1.598  13.755 -0.0299 -1.2010  0.6964
 6411SOL     OW30691   0.654   2.702   3.366  0.0735  0.2665 -0.0531
 6411SOL    HW130692   0.571   2.747   3.383 -0.4162 -1.0391  1.0178
 6411SOL    HW230693   0.705   2.749   3.433  0.7328  0.6848 -0.8545
 6412SOL     OW30694   2.383   0.024   4.730 -0.1853 -0.1610  0.1844
 6412SOL    HW130695   2.337   4.702   4.659  0.4619 -1.8413  0.7998
 6412SOL    HW230696   2.398   0.106   4.683 -1.6861  0.4607  0.8173
 6413SOL     OW30697   2.565   0.667   1.871 -0.0266  0.4238 -0.3028
 6413SOL    HW130698   2.601   0.588   1.913  3.5821  1.8531 -0.6911
 6413SOL    HW230699   2.647   0.710   1.847 -0.2179 -0.3151 -2.2362
 6414SOL     OW30700   0.530   3.907   3.010  0.1149  0.3849  0.4264
 6414SOL    HW130701   0.578   3.982   2.975 -1.2502  1.5073  0.9555
 6414SOL    HW230702   0.439   3.934   3.003  0.1610  0.0160 -1.4221
 6415SOL     OW30703   4.192   4.605   0.499 -0.4074  0.1938  0.1844
 6415SOL    HW130704   4.139   4.668   0.451 -1.1252  0.8776  1.8830
 6415SOL    HW230705   4.282   4.620   0.469 -0.8825  1.5602 -0.5548
 6416SOL     OW30706   3.352   3.298   7.069  0.2181 -0.1346 -0.2473
 6416SOL    HW130707   3.262   3.323   7.089  0.5779  2.3702 -1.6322
 6416SOL    HW230708   3.360   3.340   6.983 -0.5676 -0.2785 -0.3894
 6417SOL     OW30709   1.302   0.672   7.449 -0.1633  0.3100  0.5516
 6417SOL    HW130710   1.387   0.691   7.408 -1.4066  2.0417 -1.2566
 6417SOL    HW230711   1.247   0.702   7.376 -0.5048 -1.0494  0.2500
 6418SOL     OW30712   1.098   2.479  13.799  0.3703  0.0748  0.1074
 6418SOL    HW130713   1.059   2.394  13.780 -1.3721  0.8844  0.0691
 6418SOL    HW230714   1.026   2.535  13.768  0.4456 -0.3344 -0.8207
 6419SOL     OW30715   3.361   1.694  13.884 -0.1077  0.2913  0.0300
 6419SOL    HW130716   3.290   1.716  13.945  0.8213  2.2522  0.4062
 6419SOL    HW230717   3.429   1.677  13.950 -0.5739  0.2436  0.5017
 6420SOL     OW30718   0.489   1.546   6.672  0.4859 -0.1986 -0.2189
 6420SOL    HW130719   0.489   1.630   6.625  2.5088 -0.2898 -0.3471
 6420SOL    HW230720   0.564   1.517   6.620  1.0286  1.5613 -0.4073
 6421SOL     OW30721   0.951   3.479   7.307 -0.5998 -0.2754  0.0702
 6421SOL    HW130722   1.038   3.462   7.342 -0.1202  1.7736 -0.1068
 6421SOL    HW230723   0.923   3.398   7.349  1.7557 -1.2812 -0.2966
 6422SOL     OW30724   0.230   3.576   2.983 -0.2158 -0.2869  0.3213
 6422SOL    HW130725   0.322   3.594   2.963 -0.7892  1.9260 -0.3510
 6422SOL    HW230726   0.222   3.481   2.989 -1.7781 -0.1739 -0.1455
 6423SOL     OW30727   0.386   4.592   9.720  0.2620  0.0083 -0.2519
 6423SOL    HW130728   0.354   4.536   9.790 -0.2246  1.4934  0.7231
 6423SOL    HW230729   0.306   4.613   9.671 -0.0044 -0.1266  0.1224
 6424SOL     OW30730   3.454   2.224  13.167 -0.9297 -0.3889  0.0120
 6424SOL    HW130731   3.446   2.242  13.074  2.3373  0.9834 -0.0025
 6424SOL    HW230732   3.472   2.312  13.201  1.7181 -1.2124  0.7633
 6425SOL     OW30733   0.369   0.239   7.532 -0.0725  0.0678 -0.2737
 6425SOL    HW130734   0.433   0.282   7.475  1.5621 -1.8775  0.0969
 6425SOL    HW230735   0.418   0.174   7.582 -0.6587 -0.2216 -0.0714
 6426SOL     OW30736   2.631   0.989   7.828 -0.5931 -0.0197 -0.2306
 6426SOL    HW130737   2.720   0.981   7.863 -1.2571  0.7731  1.6272
 6426SOL    HW230738   2.645   1.044   7.751  0.4756  3.3107  2.3400
 6427SOL     OW30739   2.515   0.715   0.118 -0.2868  0.4579 -0.0561
 6427SOL    HW130740   2.506   0.727   0.023 -2.2736 -0.2714  0.0280
 6427SOL    HW230741   2.601   0.676   0.132  0.2208  1.1156 -1.3521
 6428SOL     OW30742   4.463   2.406   0.313  0.1513  0.4215  0.2664
 6428SOL    HW130743   4.446   2.437   0.224  0.2007 -1.4878 -0.4170
 6428SOL    HW230744   4.434   2.315   0.317  1.1916  0.0755  0.0504
 6429SOL     OW30745   1.351   1.860   2.220 -0.3544  0.0090  0.6677
 6429SOL    HW130746   1.313   1.918   2.286 -0.9003 -0.2785  0.6103
 6429SOL    HW230747   1.386   1.789   2.274 -2.1335 -1.8291 -0.5818
 6430SOL     OW30748   3.073   1.492  14.772 -0.2610  0.4164  0.2520
 6430SOL    HW130749   3.135   1.432  14.731  0.6762  1.6075 -0.0601
 6430SOL    HW230750   3.071   1.558  14.702 -1.0967  0.3831  0.2462
 6431SOL     OW30751   4.531   3.498   8.503  0.2530  0.6320 -0.4289
 6431SOL    HW130752   4.594   3.568   8.484  0.4593  1.4601  3.2777
 6431SOL    HW230753   4.538   3.433   8.433  0.8361  0.9761 -0.6983
 6432SOL     OW30754   0.528   3.792  10.387 -0.1410  0.1930  0.0363
 6432SOL    HW130755   0.590   3.738  10.436 -0.7444 -0.2444  0.3242
 6432SOL    HW230756   0.470   3.823  10.457  0.0030  0.0144  0.2373
 6433SOL     OW30757   2.005   1.198   6.957 -0.7345  0.3866  0.2805
 6433SOL    HW130758   1.958   1.187   6.874  2.3620 -0.3760 -1.3848
 6433SOL    HW230759   2.042   1.111   6.974 -0.3106  0.2682 -1.2735
 6434SOL     OW30760   3.671   1.914  13.198  0.1856  0.3896 -0.1010
 6434SOL    HW130761   3.756   1.954  13.212  0.1085  0.0752  1.2543
 6434SOL    HW230762   3.677   1.876  13.110 -2.5419  0.5357 -0.3517
 6435SOL     OW30763   2.136   0.656   3.166 -0.3973  0.7544  0.0015
 6435SOL    HW130764   2.089   0.720   3.221 -3.6730 -2.0905  0.4694
 6435SOL    HW230765   2.226   0.686   3.182  0.4221 -3.0180  2.4152
 6436SOL     OW30766   2.560   2.457   2.160  0.0656 -0.5291 -0.3113
 6436SOL    HW130767   2.594   2.369   2.173 -1.3276 -0.7365  1.9661
 6436SOL    HW230768   2.636   2.503   2.124 -0.9771  1.0037 -0.5779
 6437SOL     OW30769   2.257   0.031  12.132 -0.1869  0.4765 -0.6136
 6437SOL    HW130770   2.242   4.660  12.148 -0.2213  0.0396 -3.2442
 6437SOL    HW230771   2.185   0.070  12.181 -1.6559 -1.7973 -0.9397
 6438SOL     OW30772   0.717   1.457   6.903  0.0741 -0.3015 -0.6683
 6438SOL    HW130773   0.701   1.391   6.970  1.2839 -1.3130 -1.3770
 6438SOL    HW230774   0.686   1.415   6.822 -2.0848  1.4589 -0.7669
 6439SOL     OW30775   4.484   4.044   6.790 -0.6851 -0.3162 -0.2966
 6439SOL    HW130776   4.552   3.976   6.793 -1.9568 -1.4941  1.9665
 6439SOL    HW230777   4.403   4.004   6.821  0.7157 -1.5886  1.7878
 6440SOL     OW30778   0.857   1.960   0.619 -0.5135  0.0950 -0.2358
 6440SOL    HW130779   0.774   1.995   0.651  0.8094  2.2092  0.9188
 6440SOL    HW230780   0.914   2.009   0.679 -0.7169 -0.2028  0.1939
 6441SOL     OW30781   2.920   1.140  14.980  0.4905 -0.3728  0.5500
 6441SOL    HW130782   2.919   1.110  15.071  0.0148 -1.5221  0.1676
 6441SOL    HW230783   2.852   1.207  14.983 -0.2226 -1.0252 -0.8674
 6442SOL     OW30784   1.519   3.485   2.472 -0.6693 -0.5955  0.1846
 6442SOL    HW130785   1.513   3.567   2.521  0.5184  0.3513 -1.2735
 6442SOL    HW230786   1.465   3.511   2.397  0.9148 -0.2835 -0.8553
 6443SOL     OW30787   3.194   1.933   8.183 -0.4280  0.0610 -0.3556
 6443SOL    HW130788   3.138   1.972   8.116 -0.5429  0.3485 -0.0935
 6443SOL    HW230789   3.271   1.922   8.127  0.0794  0.4409  0.2592
 6444SOL     OW30790   3.056   2.615   4.992 -0.1021 -0.0171 -0.4336
 6444SOL    HW130791   3.054   2.639   4.900  0.9662 -0.1638 -0.4959
 6444SOL    HW230792   3.085   2.697   5.031  1.6976 -1.2898  0.9623
 6445SOL     OW30793   3.274   0.212   3.968  0.0357  0.3512 -0.1742
 6445SOL    HW130794   3.225   0.140   3.928  0.8613 -0.7043  0.7381
 6445SOL    HW230795   3.296   0.260   3.888  0.0815 -0.2301 -0.5087
 6446SOL     OW30796   0.270   2.463   1.178 -0.2140 -0.3925 -0.0402
 6446SOL    HW130797   0.290   2.487   1.269 -0.0078 -3.8652  0.8137
 6446SOL    HW230798   0.260   2.369   1.193 -0.2643 -0.3180  0.4048
 6447SOL     OW30799   2.367   3.483  15.917 -0.6337 -0.3807 -0.0660
 6447SOL    HW130800   2.331   3.402  15.954 -1.5589 -0.4744 -1.1656
 6447SOL    HW230801   2.286   3.526  15.890 -0.5065  0.7998  1.4164
 6448SOL     OW30802   4.644   2.151   3.861  0.2855 -0.0260 -0.4757
 6448SOL    HW130803   0.006   2.143   3.816  1.4459  1.9847  1.3511
 6448SOL    HW230804   4.586   2.181   3.791  1.2504  0.7622 -0.9382
 6449SOL     OW30805   4.481   1.343  11.895  0.4311 -0.2792  0.2276
 6449SOL    HW130806   4.573   1.325  11.912  0.6888 -0.2639 -1.1394
 6449SOL    HW230807   4.486   1.435  11.869  2.2041 -0.6952 -0.9266
 6450SOL     OW30808   3.803   2.945   8.122 -0.1456 -0.2141 -0.1918
 6450SOL    HW130809   3.863   2.906   8.058  0.9457 -0.4078  0.9453
 6450SOL    HW230810   3.829   3.036   8.105  0.9294 -0.2264  1.3890
 6451SOL     OW30811   3.372   0.626   9.965  0.0538  0.2917  0.1365
 6451SOL    HW130812   3.427   0.700   9.938 -1.7979  1.5859 -0.0631
 6451SOL    HW230813   3.393   0.621  10.059  1.4095 -0.8527 -0.2267
 6452SOL     OW30814   0.845   3.644   0.635 -0.1352  0.0732  0.2648
 6452SOL    HW130815   0.818   3.555   0.615 -1.2798  0.2103  1.1920
 6452SOL    HW230816   0.826   3.699   0.559  4.3394  0.4003 -0.5876
 6453SOL     OW30817   1.237   1.204   4.172 -0.2121  0.0796  0.2422
 6453SOL    HW130818   1.145   1.215   4.148 -0.4707 -0.7033  0.8444
 6453SOL    HW230819   1.265   1.155   4.095 -1.8101 -0.0154 -0.2748
 6454SOL     OW30820   1.030   3.942   4.668  0.5321  0.3057  0.2349
 6454SOL    HW130821   0.969   3.962   4.597 -0.9650  0.0262  1.4175
 6454SOL    HW230822   0.968   3.953   4.740 -0.6108 -1.5621 -0.4490
 6455SOL     OW30823   2.732   1.895   5.202  0.3428 -0.0895  0.1645
 6455SOL    HW130824   2.825   1.917   5.216  0.6300 -0.9079 -0.4634
 6455SOL    HW230825   2.700   1.930   5.285 -1.5068  0.9097 -0.9884
 6456SOL     OW30826   1.657   4.248   6.868  0.5577  0.6805  0.3856
 6456SOL    HW130827   1.685   4.208   6.950  0.5023  0.7753  0.4514
 6456SOL    HW230828   1.735   4.250   6.814 -0.2079 -0.5901 -0.7466
 6457SOL     OW30829   1.943   2.560   8.545  0.1394  0.4432  0.7319
 6457SOL    HW130830   1.925   2.564   8.640  0.3616 -0.7741  0.8150
 6457SOL    HW230831   1.996   2.481   8.537 -0.1662  0.4226 -0.9547
 6458SOL     OW30832   4.268   3.935  14.455 -0.2270  0.0378 -0.2337
 6458SOL    HW130833   4.295   3.933  14.363  1.8840  0.2272  0.3979
 6458SOL    HW230834   4.175   3.953  14.441  0.5634  2.7065 -2.0453
 6459SOL     OW30835   3.455   0.695   8.934 -0.5125  0.5259  0.3446
 6459SOL    HW130836   3.449   0.787   8.958  0.3957  0.9209 -0.9799
 6459SOL    HW230837   3.457   0.704   8.839  0.2041  0.0980  0.3150
 6460SOL     OW30838   1.443   2.085   4.981  0.4801 -0.3050 -0.0273
 6460SOL    HW130839   1.470   2.112   4.894  0.8529 -2.1263 -0.4783
 6460SOL    HW230840   1.525   2.082   5.030  0.0655  1.0925  0.7441
 6461SOL     OW30841   3.860   0.937   9.039  0.2178 -0.5015  0.0953
 6461SOL    HW130842   3.883   1.012   8.984  0.4023 -1.6003 -1.3510
 6461SOL    HW230843   3.939   0.886   9.059  1.8356  1.3477 -1.4975
 6462SOL     OW30844   2.645   1.981  15.713 -0.3791 -0.4332 -0.6787
 6462SOL    HW130845   2.643   1.913  15.780  0.9409  1.4920  1.3673
 6462SOL    HW230846   2.735   2.012  15.727 -0.4379 -0.6080  0.0815
 6463SOL     OW30847   0.092   3.442   1.466  0.2921  0.1804 -0.0878
 6463SOL    HW130848   0.144   3.487   1.400 -0.6688  2.1116  0.5002
 6463SOL    HW230849   0.013   3.496   1.472 -0.6693 -1.0708 -1.4944
 6464SOL     OW30850   3.275   1.544   3.385 -0.0445  0.4525  0.1027
 6464SOL    HW130851   3.312   1.530   3.472  0.7273  0.3607 -0.2372
 6464SOL    HW230852   3.223   1.622   3.404  0.3276  0.9424 -0.8747
 6465SOL     OW30853   1.403   0.719   2.347  0.0662  0.1044 -0.0831
 6465SOL    HW130854   1.466   0.736   2.417 -0.0300  0.7653 -0.1525
 6465SOL    HW230855   1.434   0.770   2.272 -3.0824 -0.3233 -1.6691
 6466SOL     OW30856   3.327   4.268   6.631 -0.4598 -0.4452  0.3526
 6466SOL    HW130857   3.266   4.317   6.686  1.2561 -0.0850  1.9395
 6466SOL    HW230858   3.273   4.203   6.586 -0.5341  0.3071 -0.6349
 6467SOL     OW30859   0.540   3.390   8.242  0.2622 -0.2295 -0.0987
 6467SOL    HW130860   0.561   3.321   8.304 -0.5545 -0.2405  0.1777
 6467SOL    HW230861   0.521   3.468   8.295  2.4000  0.1357  0.1053
 6468SOL     OW30862   0.096   1.787   8.302 -0.0949 -0.0518 -0.4355
 6468SOL    HW130863   0.003   1.792   8.280 -0.1317  0.3536 -0.1879
 6468SOL    HW230864   0.108   1.693   8.286  0.3771  0.0755 -0.8313
 6469SOL     OW30865   1.566   2.597   2.704 -0.3694 -0.2749  0.3859
 6469SOL    HW130866   1.610   2.537   2.643  2.3050  0.9371  1.1525
 6469SOL    HW230867   1.496   2.642   2.655  0.5247 -0.2907 -0.9265
 6470SOL     OW30868   0.789   1.392  17.126 -0.0762 -0.2197 -0.7224
 6470SOL    HW130869   0.741   1.314  17.096  0.7698 -0.4844 -1.3702
 6470SOL    HW230870   0.817   1.426  17.042 -1.5773 -0.7482 -1.4492
 6471SOL     OW30871   0.861   3.906  10.381 -0.3900 -0.3086  0.2262
 6471SOL    HW130872   0.874   3.821  10.340  1.0566  0.0078  0.0326
 6471SOL    HW230873   0.947   3.947  10.374 -1.7506  2.5076 -0.0133
 6472SOL     OW30874   3.841   1.896   2.976  0.1237 -0.2012  0.0280
 6472SOL    HW130875   3.884   1.904   2.891 -2.2207  0.3693 -1.0750
 6472SOL    HW230876   3.774   1.964   2.973 -0.3270 -0.5240  2.4332
 6473SOL     OW30877   3.932   0.177   5.143 -0.2599  0.1080 -0.1181
 6473SOL    HW130878   4.002   0.242   5.142 -0.7205  0.5980 -0.7950
 6473SOL    HW230879   3.856   0.226   5.112 -0.7821 -0.6417 -0.0242
 6474SOL     OW30880   2.922   2.072   2.551 -0.3047 -0.3300 -0.5346
 6474SOL    HW130881   2.853   2.006   2.547 -0.4596 -0.3855  2.5217
 6474SOL    HW230882   2.980   2.022   2.494 -0.7385 -0.7109 -0.6492
 6475SOL     OW30883   1.328   3.432   6.403 -0.5933  0.0083 -0.3044
 6475SOL    HW130884   1.278   3.410   6.324  0.5891 -1.1528 -0.7420
 6475SOL    HW230885   1.361   3.344   6.424 -1.5664 -0.4712 -0.7431
 6476SOL     OW30886   3.782   3.459   9.230  0.0633  0.5318  0.1807
 6476SOL    HW130887   3.876   3.464   9.249  0.5337 -1.1795 -1.6548
 6476SOL    HW230888   3.740   3.490   9.310 -0.1810  0.3459  0.1255
 6477SOL     OW30889   4.350   1.824   5.913 -0.1512  0.0699 -0.2230
 6477SOL    HW130890   4.340   1.917   5.933  2.6679  0.0632  1.1046
 6477SOL    HW230891   4.432   1.812   5.865 -0.0296  0.6668 -0.1726
 6478SOL     OW30892   0.361   1.034   4.791  0.4007 -0.5208  0.6151
 6478SOL    HW130893   0.437   0.993   4.752  0.9307 -0.7388  1.8598
 6478SOL    HW230894   0.300   0.969   4.756 -2.6178  1.0809  2.8145
 6479SOL     OW30895   2.388   2.848   9.163  0.0649  0.3614 -0.1369
 6479SOL    HW130896   2.422   2.902   9.092 -1.2545  0.1783 -0.9076
 6479SOL    HW230897   2.296   2.867   9.146  0.4383  0.8304 -1.6570
 6480SOL     OW30898   2.757   2.161   3.304 -0.1061 -0.1216 -0.4227
 6480SOL    HW130899   2.827   2.212   3.264 -0.3208  0.0155 -0.6280
 6480SOL    HW230900   2.709   2.134   3.226  0.4878 -2.7418  0.1441
 6481SOL     OW30901   4.386   0.640   3.663 -0.1463 -0.5650  0.0501
 6481SOL    HW130902   4.428   0.599   3.588  2.1394  0.4242  0.7933
 6481SOL    HW230903   4.461   0.624   3.719 -0.5975 -1.1423  0.4866
 6482SOL     OW30904   3.170   0.427   8.029  0.2865  0.2915  0.1489
 6482SOL    HW130905   3.206   0.344   7.997  1.0712  0.2136  1.2370
 6482SOL    HW230906   3.230   0.455   8.098  0.6794  3.1173 -1.3379
 6483SOL     OW30907   0.226   2.280   7.946  0.4829  0.2193 -0.0645
 6483SOL    HW130908   0.168   2.209   7.919  2.1460 -1.3785  0.5438
 6483SOL    HW230909   0.307   2.236   7.973  0.4700  0.1437 -0.1476
 6484SOL     OW30910   4.708   0.055  14.872  0.0377 -0.6666 -0.2353
 6484SOL    HW130911   0.061   0.041  14.814  0.4659  0.3666  0.0687
 6484SOL    HW230912   0.026   0.068  14.957 -2.4586  0.0698  0.8228
 6485SOL     OW30913   2.641   1.364   4.349  0.5895  0.2875 -0.4351
 6485SOL    HW130914   2.654   1.438   4.408 -0.9309  0.6428 -0.5471
 6485SOL    HW230915   2.590   1.306   4.406 -0.0353  0.8075 -0.4632
 6486SOL     OW30916   0.288   4.411   4.553  0.4759  0.3540 -0.0807
 6486SOL    HW130917   0.279   4.489   4.607  1.8233 -0.5072  1.4210
 6486SOL    HW230918   0.213   4.423   4.495  1.5430 -0.6225 -1.6773
 6487SOL     OW30919   2.831   3.204   3.633  0.1962 -0.6060  0.0806
 6487SOL    HW130920   2.740   3.178   3.618  0.2499 -1.5833  1.3879
 6487SOL    HW230921   2.864   3.156   3.557  0.7512  1.5642 -1.0409
 6488SOL     OW30922   0.876   2.935  10.504 -0.5713  0.3942  0.1302
 6488SOL    HW130923   0.819   2.863  10.532  0.1145  0.2162  1.0451
 6488SOL    HW230924   0.925   2.963  10.580  2.2213  0.8221 -1.8295
 6489SOL     OW30925   0.536   4.527  11.320  0.7006  0.1679  0.2205
 6489SOL    HW130926   0.555   4.611  11.278 -1.5350  0.1882 -0.7617
 6489SOL    HW230927   0.443   4.529  11.341  1.1757  1.5027  2.2685
 6490SOL     OW30928   0.091   0.489  11.476  0.3896 -0.1396 -0.2460
 6490SOL    HW130929   0.103   0.479  11.382 -0.7406  0.7281 -0.4952
 6490SOL    HW230930   0.009   0.440  11.483  0.6729 -0.6369 -0.4515
 6491SOL     OW30931   0.747   0.323   8.228 -1.0915 -0.3462 -0.5916
 6491SOL    HW130932   0.703   0.401   8.260  2.0825  0.8902  0.7335
 6491SOL    HW230933   0.798   0.353   8.152 -3.1094 -0.7854 -2.1100
 6492SOL     OW30934   4.292   3.166   2.959  0.4225 -0.3084 -0.0490
 6492SOL    HW130935   4.259   3.232   2.898  0.1568 -1.6188 -1.3285
 6492SOL    HW230936   4.241   3.086   2.946 -1.2247  1.1530 -2.5711
 6493SOL     OW30937   1.343   4.641   5.504  0.5519 -0.3289  0.0430
 6493SOL    HW130938   1.361   4.622   5.412  0.4666 -0.4688  0.0556
 6493SOL    HW230939   1.345   4.551   5.535  0.2954 -0.8787 -1.5422
 6494SOL     OW30940   4.563   1.233   8.669 -0.2858 -0.3495  0.2335
 6494SOL    HW130941   4.595   1.156   8.717  1.4224 -0.2168 -0.6784
 6494SOL    HW230942   4.636   1.295   8.676 -0.2428 -0.7699  3.4607
 6495SOL     OW30943   3.672   0.002   5.983 -0.5688  0.8190  0.4390
 6495SOL    HW130944   3.671   4.641   5.937  0.5031  0.6035  0.8116
 6495SOL    HW230945   3.617   0.059   5.929 -0.9500 -1.6662 -1.7598
 6496SOL     OW30946   0.533   1.108   2.750  0.2454  0.0824 -0.3539
 6496SOL    HW130947   0.604   1.108   2.814 -0.6466  0.0915  0.6335
 6496SOL    HW230948   0.449   1.111   2.796  0.6767 -2.8069  0.5982
 6497SOL     OW30949   3.203   2.677  11.711  0.1912 -0.7654 -0.4814
 6497SOL    HW130950   3.231   2.763  11.743  2.8044 -1.2388 -1.4887
 6497SOL    HW230951   3.139   2.646  11.776 -1.1600  1.2375 -0.8743
 6498SOL     OW30952   3.105   3.054   6.133 -0.1622  0.1493 -0.0007
 6498SOL    HW130953   3.199   3.070   6.133  0.0542 -1.0983 -0.7482
 6498SOL    HW230954   3.068   3.101   6.207 -1.2378 -1.9639  0.8096
 6499SOL     OW30955   1.410   4.425  16.224  0.1813 -0.4991 -0.1779
 6499SOL    HW130956   1.327   4.442  16.179 -0.4395 -0.7743  0.8507
 6499SOL    HW230957   1.388   4.447  16.315 -1.1254  1.1264 -0.8902
 6500SOL     OW30958   1.350   3.468   0.393  0.2313 -0.1906  0.2696
 6500SOL    HW130959   1.444   3.461   0.378  0.6046  0.4225  2.2923
 6500SOL    HW230960   1.329   3.545   0.342  0.7952  0.2072  0.6323
 6501SOL     OW30961   3.301   1.711   8.619 -0.3111 -0.2116  0.1580
 6501SOL    HW130962   3.250   1.697   8.539  1.6341  0.3600 -1.1888
 6501SOL    HW230963   3.379   1.755   8.584 -0.1475  0.8292  1.8116
 6502SOL     OW30964   2.678   3.926  17.670  0.2560  0.3128  0.1708
 6502SOL    HW130965   2.586   3.955  17.674 -0.6629 -2.4962 -0.4932
 6502SOL    HW230966   2.674   3.832  17.654 -2.3627  0.2866  0.8037
 6503SOL     OW30967   0.755   3.643   6.713  0.1341 -0.0543 -0.5631
 6503SOL    HW130968   0.844   3.647   6.678  0.1544  0.9628 -0.3827
 6503SOL    HW230969   0.700   3.714   6.680  0.1476  0.4966  0.6019
 6504SOL     OW30970   2.078   2.100   8.055  0.2659 -0.1728  0.0258
 6504SOL    HW130971   2.113   2.015   8.031 -2.7882 -1.1049 -1.0511
 6504SOL    HW230972   2.058   2.136   7.969 -1.6714  1.9569  1.3689
 6505SOL     OW30973   4.417   3.767   8.051  0.2666 -0.4691  0.0004
 6505SOL    HW130974   4.461   3.766   7.966  1.3661 -1.2221  0.5867
 6505SOL    HW230975   4.332   3.799   8.020 -0.6191 -1.6806  1.1840
 6506SOL     OW30976   4.416   0.744  12.335  0.1666 -0.1680  0.3759
 6506SOL    HW130977   4.417   0.820  12.394 -1.0714  1.7604 -2.0914
 6506SOL    HW230978   4.418   0.784  12.248  2.4702  0.3290  0.6663
 6507SOL     OW30979   2.353   0.936  13.064 -0.5129  0.4876 -0.2662
 6507SOL    HW130980   2.364   0.856  13.116  0.1595  0.9069  0.2276
 6507SOL    HW230981   2.290   0.910  12.996 -0.7052  1.1284 -0.3295
 6508SOL     OW30982   3.629   4.062   8.344 -0.4363 -0.6637  0.6790
 6508SOL    HW130983   3.697   4.001   8.313 -0.0789  0.6382 -1.0874
 6508SOL    HW230984   3.604   4.022   8.427  1.9041 -1.6208  0.9279
 6509SOL     OW30985   1.023   4.192  15.807 -0.0732  0.0434  0.2728
 6509SOL    HW130986   1.033   4.172  15.714  1.9786  1.2099  0.2434
 6509SOL    HW230987   0.952   4.133  15.831  0.4058 -0.2370  0.9745
 6510SOL     OW30988   4.085   0.999   7.056 -0.0918 -0.3235 -0.2722
 6510SOL    HW130989   4.070   1.059   6.983  0.4460  0.8390  0.5697
 6510SOL    HW230990   4.066   0.918   7.009  1.3142 -0.2061 -1.0668
 6511SOL     OW30991   3.739   3.813   8.504 -0.5848 -0.5762  0.3860
 6511SOL    HW130992   3.733   3.741   8.566  0.5869 -2.1389 -1.3109
 6511SOL    HW230993   3.738   3.886   8.567  1.3268 -2.0246  2.0575
 6512SOL     OW30994   1.314   0.806   2.755 -0.4787 -0.0267 -0.3870
 6512SOL    HW130995   1.391   0.837   2.708 -0.6878 -1.8902 -1.9491
 6512SOL    HW230996   1.282   0.746   2.688 -1.6650  1.3027 -1.0083
 6513SOL     OW30997   2.021   4.445   0.757 -0.5510 -0.3519 -0.7507
 6513SOL    HW130998   2.077   4.424   0.683  1.8411  2.9264  0.1373
 6513SOL    HW230999   2.082   4.502   0.804  0.8452 -0.7329 -2.1354
 6514SOL     OW31000   0.617   3.975   3.553 -0.0924 -0.4015  0.4517
 6514SOL    HW131001   0.635   3.952   3.462 -1.0976 -0.1346  0.1845
 6514SOL    HW231002   0.585   4.066   3.547  0.7781  0.0131  2.0370
 6515SOL     OW31003   0.378   2.602   6.104  0.3427  0.0914 -0.1167
 6515SOL    HW131004   0.389   2.658   6.027  0.5947 -1.2243 -1.0431
 6515SOL    HW231005   0.463   2.568   6.130 -0.2369 -1.0733  0.2377
 6516SOL     OW31006   1.598   2.314  16.986  0.5133  0.5872  0.1948
 6516SOL    HW131007   1.535   2.360  16.930 -0.7472 -0.9535  0.3326
 6516SOL    HW231008   1.548   2.244  17.028  2.0222 -1.4655 -1.4285
 6517SOL     OW31009   3.752   1.288   4.041  0.2950 -0.3872  0.5033
 6517SOL    HW131010   3.711   1.218   4.092 -0.2711 -0.1766  0.3362
 6517SOL    HW231011   3.814   1.322   4.106  0.1760 -2.3720  1.6758
 6518SOL     OW31012   3.687   0.863   5.456 -0.3524 -0.3279  0.1097
 6518SOL    HW131013   3.618   0.895   5.397 -1.1695  2.3669  2.5122
 6518SOL    HW231014   3.745   0.805   5.407 -0.7453 -0.8679  0.2956
 6519SOL     OW31015   3.681   0.610  14.304  0.0262 -0.5568 -0.0817
 6519SOL    HW131016   3.748   0.655  14.356 -0.0600  0.9594 -1.2808
 6519SOL    HW231017   3.742   0.540  14.280 -0.7228 -1.0173 -0.6266
 6520SOL     OW31018   2.672   0.261   3.002  0.4266 -0.1794 -0.2034
 6520SOL    HW131019   2.621   0.341   3.014 -1.4101 -1.3535 -0.3114
 6520SOL    HW231020   2.653   0.239   2.911  1.3045 -0.4219 -0.3297
 6521SOL     OW31021   2.578   2.408   6.987  0.1203  0.4970 -0.2396
 6521SOL    HW131022   2.651   2.377   6.933  0.4613  1.0364 -0.0913
 6521SOL    HW231023   2.536   2.322   6.989  1.2984 -0.0985 -0.8858
 6522SOL     OW31024   3.591   3.458   2.109  0.1868  0.2725 -0.1875
 6522SOL    HW131025   3.515   3.439   2.163 -0.5132  1.3688 -0.8040
 6522SOL    HW231026   3.622   3.541   2.146  0.2478 -0.6387  1.8304
 6523SOL     OW31027   2.301   4.665   8.828 -0.1679 -0.3743  0.5024
 6523SOL    HW131028   2.272   4.715   8.905 -3.6377  0.0705 -1.0808
 6523SOL    HW231029   2.395   4.658   8.845  0.2733 -0.7252 -2.0689
 6524SOL     OW31030   1.205   0.922   6.632 -0.0734  0.5849  0.3486
 6524SOL    HW131031   1.240   0.947   6.546  1.8573 -0.2831  0.8776
 6524SOL    HW231032   1.128   0.873   6.603  0.1244  0.7054 -0.3756
 6525SOL     OW31033   0.457   3.766   1.787 -0.6361  0.4354  0.1670
 6525SOL    HW131034   0.497   3.751   1.872  2.4132  0.5724 -1.2279
 6525SOL    HW231035   0.481   3.693   1.730 -2.3399  0.1832 -0.2308
 6526SOL     OW31036   2.622   4.072   8.073 -0.1475  0.7354  0.2716
 6526SOL    HW131037   2.631   3.979   8.092 -2.5247 -0.1149 -2.7604
 6526SOL    HW231038   2.527   4.083   8.075  0.1862  2.9660  2.8847
 6527SOL     OW31039   1.186   0.634   5.219 -0.1641 -0.7760 -0.2090
 6527SOL    HW131040   1.278   0.629   5.194 -0.8404 -1.9174 -2.5063
 6527SOL    HW231041   1.191   0.717   5.266  1.8109 -0.8585 -0.2751
 6528SOL     OW31042   3.979   1.773  16.191  0.6364  0.4518  0.8718
 6528SOL    HW131043   3.941   1.744  16.108 -0.9516 -2.5657  2.6541
 6528SOL    HW231044   3.940   1.704  16.243  0.0353  0.4236  0.3901
 6529SOL     OW31045   0.251   2.564   7.924 -0.8161 -1.0141  0.1506
 6529SOL    HW131046   0.266   2.577   8.017  3.7793 -0.2338 -0.6953
 6529SOL    HW231047   0.261   2.470   7.931 -0.2916 -1.0311 -0.7835
 6530SOL     OW31048   2.730   1.539   4.931 -0.4370 -0.3402 -0.1009
 6530SOL    HW131049   2.764   1.572   5.014 -2.3350 -1.0000  0.9368
 6530SOL    HW231050   2.647   1.496   4.952 -0.8419 -1.2611 -3.6097
 6531SOL     OW31051   4.515   3.198   7.052  0.3509  0.0713 -0.5092
 6531SOL    HW131052   4.439   3.153   7.088  0.9437 -1.6418 -1.4333
 6531SOL    HW231053   4.524   3.286   7.088  1.9125 -0.4059  0.2547
 6532SOL     OW31054   2.553   3.885   2.647  0.1445  0.0306 -0.1850
 6532SOL    HW131055   2.476   3.833   2.624 -1.0323  2.4630 -1.7062
 6532SOL    HW231056   2.516   3.957   2.698 -1.6752 -0.8356 -0.2854
 6533SOL     OW31057   0.644   2.173   1.149 -0.0963  0.5147 -0.3219
 6533SOL    HW131058   0.616   2.095   1.101 -0.3316  0.3896  0.0161
 6533SOL    HW231059   0.732   2.184   1.112 -0.2711  0.2607 -0.8083
 6534SOL     OW31060   0.668   0.775   3.571  0.3975 -0.1140  0.5355
 6534SOL    HW131061   0.721   0.699   3.593 -0.6067 -0.6648  1.0287
 6534SOL    HW231062   0.619   0.749   3.493  0.1372  0.4653  0.5012
 6535SOL     OW31063   1.961   2.985   3.987 -0.2799 -0.0357 -0.1579
 6535SOL    HW131064   2.038   3.040   3.975 -0.6023  0.2618 -0.8616
 6535SOL    HW231065   1.950   2.995   4.082  0.0954 -2.0953  0.0979
 6536SOL     OW31066   0.244   1.833   2.498  0.0406 -0.1063 -0.5040
 6536SOL    HW131067   0.313   1.892   2.469 -1.6918  1.8409 -0.6894
 6536SOL    HW231068   0.299   1.770   2.544  0.3401 -0.2626 -1.0809
 6537SOL     OW31069   3.568   2.154  16.033  0.0846 -0.1940  0.4868
 6537SOL    HW131070   3.660   2.176  16.020  0.5566 -1.3916  1.7842
 6537SOL    HW231071   3.546   2.148  15.940  2.7564 -2.7240  0.0279
 6538SOL     OW31072   4.162   3.175   2.007 -0.4422 -0.5913 -0.3470
 6538SOL    HW131073   4.182   3.268   1.994 -2.0776 -0.1152  0.5809
 6538SOL    HW231074   4.230   3.155   2.072  0.4854 -2.8851 -2.0153
 6539SOL     OW31075   4.146   2.673   7.436  0.2967  0.3272  0.3063
 6539SOL    HW131076   4.217   2.735   7.448  0.8750 -0.2945  0.0769
 6539SOL    HW231077   4.192   2.599   7.397 -0.8383 -0.8148  1.1610
 6540SOL     OW31078   3.015   0.951  11.830 -1.1813 -0.0063  0.2170
 6540SOL    HW131079   3.109   0.954  11.846 -1.0573 -2.5770 -0.0941
 6540SOL    HW231080   2.985   0.962  11.920 -0.0213 -0.6194  0.6723
 6541SOL     OW31081   2.477   2.949   2.363 -0.0614 -0.4149  0.1705
 6541SOL    HW131082   2.571   2.935   2.348  0.0716 -0.7225  1.2752
 6541SOL    HW231083   2.445   2.906   2.284  0.4223  0.0892 -0.2923
 6542SOL     OW31084   1.055   1.038   6.991 -0.3236 -0.4281  0.5086
 6542SOL    HW131085   0.981   0.983   6.969 -0.3410 -0.4138  0.5316
 6542SOL    HW231086   1.034   1.047   7.084  0.8771  2.2276  0.5365
 6543SOL     OW31087   3.825   4.040  12.194  0.2625  0.3413 -0.2026
 6543SOL    HW131088   3.854   3.965  12.245 -2.3582 -0.5713 -0.0573
 6543SOL    HW231089   3.790   3.995  12.117 -2.2375 -0.2059  1.2728
 6544SOL     OW31090   2.785   0.447   9.752 -0.1203 -0.2540  0.0328
 6544SOL    HW131091   2.737   0.527   9.731  1.7701  0.4839 -1.5259
 6544SOL    HW231092   2.781   0.402   9.668  0.8468 -0.4547  0.0931
 6545SOL     OW31093   0.267   4.324   9.746 -0.0572  0.7720 -0.2578
 6545SOL    HW131094   0.214   4.294   9.672  0.1551 -1.0489  0.3238
 6545SOL    HW231095   0.207   4.370   9.805  2.7444  0.4197  2.8563
 6546SOL     OW31096   2.716   1.494   8.842 -0.1122  0.0640  0.0551
 6546SOL    HW131097   2.649   1.473   8.907 -0.3388  0.5212 -0.0348
 6546SOL    HW231098   2.664   1.547   8.782 -1.0068  0.1231  0.8827
 6547SOL     OW31099   0.274   3.572   6.803  0.4234 -0.3570 -0.1904
 6547SOL    HW131100   0.346   3.508   6.806 -0.8819 -1.8204 -0.2186
 6547SOL    HW231101   0.291   3.621   6.883 -3.0922  0.7184 -0.1007
 6548SOL     OW31102   3.321   2.670   8.313 -0.1625  0.0034  0.0290
 6548SOL    HW131103   3.225   2.668   8.319 -0.0349  0.4475  2.0792
 6548SOL    HW231104   3.350   2.660   8.403  1.4165  0.9159 -0.3664
 6549SOL     OW31105   1.628   3.005   6.089 -0.2122  0.1792  0.4931
 6549SOL    HW131106   1.594   2.935   6.033  0.1689  1.0717 -0.8559
 6549SOL    HW231107   1.717   2.973   6.099  0.3919  1.0305 -2.2384
 6550SOL     OW31108   4.332   2.298   3.385 -0.0628 -0.0118  0.3489
 6550SOL    HW131109   4.422   2.330   3.375  0.3891 -1.9482 -1.8628
 6550SOL    HW231110   4.337   2.213   3.429 -4.6206  0.5200  1.9159
 6551SOL     OW31111   4.305   3.995   0.812 -0.3486  0.1428 -0.0762
 6551SOL    HW131112   4.400   3.995   0.797 -0.5641  0.5460 -1.4631
 6551SOL    HW231113   4.303   3.997   0.907  2.0371  0.6068 -0.0265
 6552SOL     OW31114   3.176   1.853   2.506  0.2219  0.2756  0.2801
 6552SOL    HW131115   3.119   1.776   2.516  0.7495  0.0661  1.6847
 6552SOL    HW231116   3.224   1.839   2.424 -1.8954  1.6598 -1.2081
 6553SOL     OW31117   0.023   1.829   4.980  1.0298 -0.2430  0.1449
 6553SOL    HW131118   0.094   1.893   4.986  0.8579  0.0726 -1.2637
 6553SOL    HW231119   4.685   1.882   4.927  0.9341 -1.5075 -0.9955
 6554SOL     OW31120   1.500   1.707   5.886  0.2867  0.1194  0.2497
 6554SOL    HW131121   1.555   1.688   5.962  0.5801  1.2155  0.3085
 6554SOL    HW231122   1.563   1.700   5.814  0.2964  0.8046  0.1958
 6555SOL     OW31123   2.871   2.572  13.677 -0.4783 -0.3979 -0.5018
 6555SOL    HW131124   2.938   2.591  13.743  0.5868  1.7213 -2.1690
 6555SOL    HW231125   2.892   2.480  13.659 -3.0356 -0.5514 -2.7185
 6556SOL     OW31126   3.468   1.649   5.208 -0.3229  0.4812 -0.0187
 6556SOL    HW131127   3.513   1.609   5.133  1.1621 -0.6061  1.4640
 6556SOL    HW231128   3.536   1.660   5.274 -0.0930 -1.8972  0.1203
 6557SOL     OW31129   2.409   3.968   5.862 -0.5010  0.4697  0.2853
 6557SOL    HW131130   2.404   4.003   5.951  1.7760 -0.1085  0.6332
 6557SOL    HW231131   2.428   3.875   5.880  0.0291  0.4997 -0.1333
 6558SOL     OW31132   0.054   2.653   4.542  0.4574 -0.1771  0.4306
 6558SOL    HW131133   0.047   2.645   4.637  0.1418 -3.1173  0.1553
 6558SOL    HW231134   4.699   2.606   4.511  1.1234  0.2446 -1.8764
 6559SOL     OW31135   3.354   2.919   5.338 -0.6184 -0.2927 -1.0437
 6559SOL    HW131136   3.326   3.006   5.366 -0.4814  0.1231 -2.1981
 6559SOL    HW231137   3.409   2.937   5.262  0.4016  2.6851  0.3790
 6560SOL     OW31138   3.718   3.367   8.940  0.0602 -0.0815 -0.6364
 6560SOL    HW131139   3.737   3.346   9.032 -0.2914  2.3418 -0.0080
 6560SOL    HW231140   3.786   3.433   8.927  0.0380 -0.5330 -3.0611
 6561SOL     OW31141   2.301   0.609  15.436 -0.3895  0.4730  0.1648
 6561SOL    HW131142   2.369   0.544  15.419 -2.0213 -0.8162 -1.5378
 6561SOL    HW231143   2.357   0.685  15.424 -0.5505  0.1779 -2.3806
 6562SOL     OW31144   0.905   0.522  11.194 -0.2436 -0.6820 -0.6339
 6562SOL    HW131145   0.902   0.427  11.200 -0.3193 -0.6301  0.1467
 6562SOL    HW231146   0.929   0.533  11.286  1.1019  0.5656 -1.1286
 6563SOL     OW31147   2.288   1.224  13.862 -0.3646 -0.2607 -0.0290
 6563SOL    HW131148   2.321   1.313  13.869 -1.6072  0.2827 -0.9843
 6563SOL    HW231149   2.309   1.188  13.948 -0.2685 -1.1621 -0.4316
 6564SOL     OW31150   2.973   3.546   8.077 -0.0791  0.1236 -0.1491
 6564SOL    HW131151   3.062   3.522   8.051  0.5913  0.5513  1.7479
 6564SOL    HW231152   2.927   3.516   7.998 -0.7041 -0.2501  0.3572
 6565SOL     OW31153   2.376   1.753   1.591  0.1812 -0.2396 -0.3905
 6565SOL    HW131154   2.391   1.786   1.679  3.5903  3.3858 -2.3425
 6565SOL    HW231155   2.289   1.722   1.616  0.0963  0.4715  0.1962
 6566SOL     OW31156   1.021   1.455   5.323 -0.3928  0.2326  0.4626
 6566SOL    HW131157   1.040   1.363   5.306 -0.6484  0.4685 -1.0290
 6566SOL    HW231158   1.109   1.495   5.322  0.4255 -1.6612 -2.0828
 6567SOL     OW31159   1.053   1.300   9.824 -0.0393 -0.1390 -0.6220
 6567SOL    HW131160   0.970   1.342   9.802 -0.5047 -0.3198  0.7591
 6567SOL    HW231161   1.012   1.215   9.840 -0.3877  0.3668  1.2345
 6568SOL     OW31162   1.598   0.618   9.183 -0.1249  0.0451  0.0765
 6568SOL    HW131163   1.558   0.671   9.251  0.3590  2.3859 -1.4510
 6568SOL    HW231164   1.660   0.680   9.143  1.1051  0.1111  2.0863
 6569SOL     OW31165   1.655   0.041  16.429 -0.1100  0.4944 -0.0802
 6569SOL    HW131166   1.675   4.680  16.388  0.3079  0.2487  0.6224
 6569SOL    HW231167   1.575   0.062  16.382 -1.3308  1.2221  2.3020
 6570SOL     OW31168   0.435   1.139  13.756  0.2048 -0.3514  0.0450
 6570SOL    HW131169   0.435   1.234  13.752  2.2189 -0.4773 -3.0193
 6570SOL    HW231170   0.524   1.132  13.790  0.0217  0.1903  0.6350
 6571SOL     OW31171   4.270   1.093   4.401 -0.2079 -0.0481 -0.0960
 6571SOL    HW131172   4.324   1.014   4.399  1.1862  0.8548  2.3027
 6571SOL    HW231173   4.330   1.162   4.373 -1.6839  1.1114 -0.4127
 6572SOL     OW31174   1.204   2.529   4.651 -0.1709 -0.0618  0.0134
 6572SOL    HW131175   1.223   2.622   4.640  0.7490 -0.1948  0.4590
 6572SOL    HW231176   1.158   2.533   4.735 -0.9735 -1.5388 -0.3499
 6573SOL     OW31177   4.566   0.375   2.285  0.2909  0.0236  0.0546
 6573SOL    HW131178   4.565   0.420   2.200  1.3448  0.6927  0.3957
 6573SOL    HW231179   4.477   0.339   2.288 -0.8580  3.0293  1.7236
 6574SOL     OW31180   1.576   2.774   3.590 -0.2843 -0.2066 -0.1360
 6574SOL    HW131181   1.650   2.789   3.531 -2.2398  2.4159 -1.9129
 6574SOL    HW231182   1.612   2.763   3.678  2.3474 -0.0698 -1.1822
 6575SOL     OW31183   3.496   2.097   8.333 -0.4596  0.2646  0.2083
 6575SOL    HW131184   3.545   2.141   8.402 -1.1456 -0.0700  0.9120
 6575SOL    HW231185   3.492   2.159   8.260 -2.1295  0.6621  0.6285
 6576SOL     OW31186   4.703   3.243   9.433  0.1615 -0.2058 -0.5320
 6576SOL    HW131187   4.706   3.188   9.511  1.2377 -0.6643 -0.8991
 6576SOL    HW231188   0.016   3.185   9.365 -0.9606 -3.4425  1.6586
 6577SOL     OW31189   2.895   0.500  12.892 -0.0256  0.2154  0.3571
 6577SOL    HW131190   2.940   0.581  12.918  1.0857 -0.2500 -0.1477
 6577SOL    HW231191   2.833   0.523  12.823  0.3520 -1.5603 -0.5616
 6578SOL     OW31192   0.822   4.668   2.974  0.0434  0.6320  0.3679
 6578SOL    HW131193   0.900   4.613   2.965 -0.7301 -0.4379  0.1716
 6578SOL    HW231194   0.811   4.689   3.067  2.2859  0.0014  0.7575
 6579SOL     OW31195   1.215   1.398   3.781  0.7182 -0.1947  0.0757
 6579SOL    HW131196   1.201   1.306   3.804  0.8240 -0.4325 -0.8135
 6579SOL    HW231197   1.309   1.403   3.798  0.7667  2.9580 -1.2069
 6580SOL     OW31198   2.368   0.292   5.409 -0.3658  0.3237 -0.4223
 6580SOL    HW131199   2.283   0.270   5.447 -0.3561 -0.0660 -0.6281
 6580SOL    HW231200   2.433   0.284   5.479 -1.4890  0.3202  0.6184
 6581SOL     OW31201   0.540   3.587   8.413  0.0590 -0.8754  0.5115
 6581SOL    HW131202   0.504   3.643   8.481  2.0026 -2.5353  2.9201
 6581SOL    HW231203   0.625   3.563   8.450  0.7605 -0.2846 -0.7227
 6582SOL     OW31204   1.555   3.670   8.521 -0.0550  0.1778 -0.2728
 6582SOL    HW131205   1.462   3.654   8.536  0.0977 -0.9028 -0.4350
 6582SOL    HW231206   1.592   3.663   8.610 -1.1949  0.3721  0.2123
 6583SOL     OW31207   0.427   2.658  17.039 -0.1931 -0.0231 -0.6711
 6583SOL    HW131208   0.381   2.706  17.108  0.3375  1.1782 -1.1511
 6583SOL    HW231209   0.480   2.730  17.005 -0.9333 -0.2782 -2.3980
 6584SOL     OW31210   1.306   0.037   9.157 -1.0298  0.0522  0.5448
 6584SOL    HW131211   1.392   0.079   9.164 -1.4995  1.3624 -1.7862
 6584SOL    HW231212   1.274   0.014   9.244 -0.0607  1.7385  1.3456
 6585SOL     OW31213   0.708   0.602  13.128  0.0279 -0.4666  0.3195
 6585SOL    HW131214   0.752   0.656  13.193 -0.8901  0.5817  0.0564
 6585SOL    HW231215   0.769   0.540  13.087 -0.1690 -0.6607  0.3222
 6586SOL     OW31216   2.334   1.481   7.236  0.2750  0.6109  0.4797
 6586SOL    HW131217   2.267   1.430   7.192  2.0414 -1.6545  0.3773
 6586SOL    HW231218   2.279   1.558   7.227 -0.7229  0.2282  3.3034
 6587SOL     OW31219   1.194   1.796  10.636 -0.1486 -0.1369 -0.5494
 6587SOL    HW131220   1.157   1.717  10.597  0.7955 -0.2335 -1.2431
 6587SOL    HW231221   1.120   1.851  10.663 -0.1060 -1.4729  2.2438
 6588SOL     OW31222   4.137   0.755  12.432  0.2139 -0.9303 -0.1468
 6588SOL    HW131223   4.228   0.737  12.408  0.5350  1.6490 -0.8857
 6588SOL    HW231224   4.118   0.804  12.352  1.7336 -1.2367 -0.7012
 6589SOL     OW31225   2.983   1.916   6.904 -0.4894 -0.3512 -0.0064
 6589SOL    HW131226   2.923   1.981   6.940 -2.5413 -2.1448 -0.1599
 6589SOL    HW231227   2.999   1.868   6.985  2.2172 -1.1134 -0.9798
 6590SOL     OW31228   2.477   3.268   3.441  0.2414 -0.2423  0.3209
 6590SOL    HW131229   2.416   3.198   3.417 -0.6877  0.0373  1.8570
 6590SOL    HW231230   2.538   3.203   3.476  0.6189 -0.8360 -1.4658
 6591SOL     OW31231   0.582   4.070   5.687 -0.1666  0.1996  0.1538
 6591SOL    HW131232   0.614   4.160   5.692 -0.8248  0.4633 -0.3536
 6591SOL    HW231233   0.632   4.032   5.759 -0.0413  1.6961  0.8561
 6592SOL     OW31234   0.865   1.036  17.252  0.0599 -0.1552 -0.5299
 6592SOL    HW131235   0.855   1.077  17.338  0.1624  0.3906 -0.7789
 6592SOL    HW231236   0.907   0.953  17.275  0.1477 -0.3096 -1.2546
 6593SOL     OW31237   1.644   3.675  11.582  0.8222  0.2753 -0.1658
 6593SOL    HW131238   1.633   3.676  11.487  1.4422  3.1495 -0.1905
 6593SOL    HW231239   1.569   3.727  11.611  0.2879 -1.3155  1.3306
 6594SOL     OW31240   4.395   4.397   8.202  0.0103  0.2978 -0.3430
 6594SOL    HW131241   4.333   4.470   8.212 -0.6596 -0.3174 -0.0170
 6594SOL    HW231242   4.465   4.415   8.265  1.6271  1.2577 -2.4402
 6595SOL     OW31243   0.364   0.663   7.981 -0.5095  0.0747 -0.7546
 6595SOL    HW131244   0.282   0.617   7.995  0.4616 -2.0940 -2.2507
 6595SOL    HW231245   0.343   0.753   8.008 -3.1347 -1.3477  1.8692
 6596SOL     OW31246   2.063   0.661  13.810 -0.0724 -0.5456  0.6936
 6596SOL    HW131247   2.137   0.673  13.751 -1.1343  0.0604 -0.5185
 6596SOL    HW231248   2.081   0.731  13.872  1.6116  0.4929 -0.9577
 6597SOL     OW31249   0.012   4.380  13.503 -0.6107  0.4636 -0.4524
 6597SOL    HW131250   4.718   4.410  13.592 -0.9183 -0.6419 -0.1411
 6597SOL    HW231251   4.651   4.344  13.473  0.0589 -0.9597 -0.5849
 6598SOL     OW31252   0.853   3.934   7.171  0.4638 -0.1795 -0.5324
 6598SOL    HW131253   0.862   4.018   7.215  1.3621  0.3339 -1.7175
 6598SOL    HW231254   0.935   3.924   7.123  0.7796  2.5455 -0.5152
 6599SOL     OW31255   4.141   0.834   7.362  0.4590  0.2753  0.1511
 6599SOL    HW131256   4.151   0.927   7.341  2.0909  0.2361  0.7500
 6599SOL    HW231257   4.218   0.822   7.418  1.1904 -0.6591 -1.0381
 6600SOL     OW31258   3.044   3.297   3.198  0.4151 -0.4839 -0.2269
 6600SOL    HW131259   3.054   3.392   3.205  0.3244 -0.4340 -0.8340
 6600SOL    HW231260   3.087   3.273   3.280 -2.1998  0.1456  1.3406
 6601SOL     OW31261   1.832   2.366  17.270 -0.0972 -0.0054  0.0600
 6601SOL    HW131262   1.913   2.330  17.235 -0.1714  0.6765 -0.8449
 6601SOL    HW231263   1.785   2.285  17.285 -2.1327  0.8197 -1.7484
 6602SOL     OW31264   3.599   0.733   2.529 -0.0365 -0.2823  0.2530
 6602SOL    HW131265   3.666   0.673   2.496 -0.8383 -1.0798  0.0561
 6602SOL    HW231266   3.570   0.770   2.446  3.4034 -0.1020 -0.8642
 6603SOL     OW31267   1.191   1.380   3.501 -0.4568 -0.4378 -0.1411
 6603SOL    HW131268   1.254   1.387   3.573 -1.8618 -1.4912  1.1946
 6603SOL    HW231269   1.120   1.324   3.534 -0.2613  0.4319  1.7494
 6604SOL     OW31270   0.065   0.520  13.262  0.1147  0.3655 -0.1301
 6604SOL    HW131271   0.014   0.563  13.331  0.3808 -2.5048  1.8384
 6604SOL    HW231272   0.024   0.542  13.178 -0.4750  2.9435  0.8399
 6605SOL     OW31273   0.521   0.118   9.505 -0.3978  0.6295 -0.6944
 6605SOL    HW131274   0.455   0.069   9.553 -0.1863  0.5253 -0.5097
 6605SOL    HW231275   0.599   0.105   9.559 -0.0605 -0.3839 -1.4344
 6606SOL     OW31276   3.715   0.285   5.021 -0.2990 -0.2302 -0.0329
 6606SOL    HW131277   3.621   0.265   5.021 -0.2339 -0.5330 -0.9054
 6606SOL    HW231278   3.724   0.360   5.079 -0.9224  0.6946 -1.1395
 6607SOL     OW31279   4.643   3.089   0.633 -0.0028  0.3478 -0.4776
 6607SOL    HW131280   4.661   3.085   0.539 -0.3014  2.6954 -0.6280
 6607SOL    HW231281   4.551   3.064   0.635  0.0805  0.1218  0.4313
 6608SOL     OW31282   1.402   3.167   0.226 -0.0947 -0.1836 -1.1148
 6608SOL    HW131283   1.468   3.226   0.262 -2.5488  0.8090  1.7647
 6608SOL    HW231284   1.456   3.118   0.164 -2.0947 -0.5824 -2.5497
 6609SOL     OW31285   4.454   4.548  13.064 -0.5623  0.0683 -0.1963
 6609SOL    HW131286   4.507   4.616  13.105 -0.5311 -0.6448  0.9212
 6609SOL    HW231287   4.513   4.473  13.054 -0.0676  0.2226  1.5528
 6610SOL     OW31288   1.435   2.511   5.088 -0.0757  0.1379  0.4230
 6610SOL    HW131289   1.459   2.448   5.156 -1.6039 -2.7699 -1.7221
 6610SOL    HW231290   1.488   2.581   5.126  0.3528 -0.8476  1.6462
 6611SOL     OW31291   1.808   0.210   4.207 -0.6104  0.1858 -0.3314
 6611SOL    HW131292   1.798   0.248   4.119 -0.5542 -0.0801 -0.4539
 6611SOL    HW231293   1.902   0.197   4.213 -0.6959 -0.4171 -0.2834
 6612SOL     OW31294   0.103   4.246   4.074 -0.6341 -0.3835 -0.5971
 6612SOL    HW131295   0.067   4.317   4.126  0.0674  0.9140 -1.8831
 6612SOL    HW231296   0.087   4.177   4.138 -0.7062  0.2547  0.0687
 6613SOL     OW31297   1.815   4.362   6.051  0.2667 -0.4820 -0.2020
 6613SOL    HW131298   1.745   4.300   6.031  0.0664 -0.2388 -0.2451
 6613SOL    HW231299   1.887   4.299   6.057  0.9689  0.5420  2.2527
 6614SOL     OW31300   1.056   3.344   8.964 -0.2183 -0.3630  0.0847
 6614SOL    HW131301   0.973   3.349   9.010 -0.3231 -3.4763  0.2738
 6614SOL    HW231302   1.065   3.435   8.938 -1.1532 -0.5447 -0.8409
 6615SOL     OW31303   2.290   1.722   7.964  0.4650  0.0115 -0.9504
 6615SOL    HW131304   2.279   1.650   7.902  0.7324  0.2307 -1.2522
 6615SOL    HW231305   2.202   1.759   7.955 -0.4863 -2.1254 -0.3952
 6616SOL     OW31306   2.397   2.978  16.586  0.2263  0.6664  0.3793
 6616SOL    HW131307   2.400   2.904  16.647 -0.4333 -0.6387 -1.1746
 6616SOL    HW231308   2.338   3.041  16.628 -0.3127 -0.2803  1.0497
 6617SOL     OW31309   0.833   3.924   9.466 -0.3008  0.1055 -0.1327
 6617SOL    HW131310   0.858   3.954   9.553 -0.5652 -0.9505  0.3069
 6617SOL    HW231311   0.897   3.858   9.440  3.4137  3.8306 -0.3347
 6618SOL     OW31312   0.554   3.107   7.016  0.0062  0.6453  0.1725
 6618SOL    HW131313   0.479   3.094   6.957 -0.3850 -0.4609  0.8989
 6618SOL    HW231314   0.620   3.137   6.954 -0.1466 -0.9138 -0.7593
 6619SOL     OW31315   2.490   2.293   3.548 -0.1541  0.1321  0.3100
 6619SOL    HW131316   2.500   2.366   3.486  1.8342  0.3773  0.9291
 6619SOL    HW231317   2.402   2.276   3.515 -0.4875 -1.4268  2.0193
 6620SOL     OW31318   4.660   0.388   1.424  0.1354  0.0816 -0.1593
 6620SOL    HW131319   4.583   0.332   1.428 -0.1442  0.4846  0.0755
 6620SOL    HW231320   4.711   0.347   1.495 -1.5291 -2.3366 -0.3465
 6621SOL     OW31321   0.979   1.530  15.638  0.1340 -0.2937 -0.3263
 6621SOL    HW131322   0.966   1.437  15.657  0.5105 -0.6960 -2.0445
 6621SOL    HW231323   1.058   1.525  15.584 -0.4843 -1.0782 -1.1514
 6622SOL     OW31324   3.313   0.208   9.288 -0.2400  0.2612 -0.3584
 6622SOL    HW131325   3.245   0.259   9.245  1.0811 -0.4465 -3.2721
 6622SOL    HW231326   3.355   0.175   9.209  0.7392 -1.7611  1.0247
 6623SOL     OW31327   4.351   3.701   3.580  0.1202 -0.5302  0.2973
 6623SOL    HW131328   4.296   3.696   3.658  0.2094  1.8516  0.5153
 6623SOL    HW231329   4.424   3.750   3.617 -0.0094 -0.7082  0.7814
 6624SOL     OW31330   1.388   0.858   5.605 -0.0511  0.2126 -0.2907
 6624SOL    HW131331   1.367   0.883   5.695  0.3448  1.4955 -0.5522
 6624SOL    HW231332   1.330   0.783   5.599  0.6245 -0.6726  3.6654
 6625SOL     OW31333   4.114   4.579   0.910  0.2164  0.1914 -0.5757
 6625SOL    HW131334   4.082   4.669   0.901 -0.2171 -0.0292 -1.2552
 6625SOL    HW231335   4.075   4.563   0.997  1.5716 -1.5942 -0.3097
 6626SOL     OW31336   3.417   2.659   6.859 -0.5056 -0.0558 -0.2007
 6626SOL    HW131337   3.322   2.662   6.844 -0.5819 -0.4503  0.2098
 6626SOL    HW231338   3.440   2.745   6.895  0.8226 -0.4642 -0.0877
 6627SOL     OW31339   4.556   0.050   5.607  0.2124 -0.2339  0.3607
 6627SOL    HW131340   4.647   0.078   5.593  0.6206 -1.3736  0.7283
 6627SOL    HW231341   4.560   4.679   5.628  0.2897  0.4117  3.2762
 6628SOL     OW31342   2.552   4.637   8.617 -0.0657  0.1675 -0.3193
 6628SOL    HW131343   2.550   4.545   8.591 -4.0359  0.2484 -0.2731
 6628SOL    HW231344   2.623   4.675   8.566  1.7414 -1.0456  1.2868
 6629SOL     OW31345   3.422   2.034   3.036 -0.6267 -0.0922 -0.5072
 6629SOL    HW131346   3.343   1.987   3.061  0.1775 -0.2619  1.7001
 6629SOL    HW231347   3.453   1.969   2.973  1.4920  0.2062  0.2114
 6630SOL     OW31348   2.613   0.528  15.633 -0.1680 -0.5633  0.1709
 6630SOL    HW131349   2.680   0.475  15.591  0.3482 -0.9987  1.5516
 6630SOL    HW231350   2.552   0.520  15.559  0.8025  1.6482 -0.8537
 6631SOL     OW31351   3.314   3.720   2.993 -0.4322  0.6685  0.3229
 6631SOL    HW131352   3.248   3.651   3.000 -1.9525  1.8671 -1.8720
 6631SOL    HW231353   3.323   3.753   3.082  0.3167  0.6805  0.2373
 6632SOL     OW31354   1.682   2.330   5.465 -0.1133 -0.4845 -0.1888
 6632SOL    HW131355   1.695   2.423   5.444  1.6054 -0.4243  1.1920
 6632SOL    HW231356   1.606   2.312   5.409 -1.4715  0.5653  1.3380
 6633SOL     OW31357   4.204   0.455  10.648  0.0017 -0.4609  0.1181
 6633SOL    HW131358   4.280   0.511  10.658  0.4012 -0.8878 -0.5868
 6633SOL    HW231359   4.190   0.475  10.556 -2.4149  0.7447  0.7394
 6634SOL     OW31360   3.421   0.863   3.777  0.0004  0.0149  0.5860
 6634SOL    HW131361   3.350   0.909   3.731  0.4005 -0.6211 -0.6597
 6634SOL    HW231362   3.434   0.911   3.859 -0.9811  2.3926 -0.6425
 6635SOL     OW31363   2.389   1.101  14.530 -0.2024 -0.0458  0.6794
 6635SOL    HW131364   2.478   1.107  14.565 -0.0285 -3.7451  0.9512
 6635SOL    HW231365   2.347   1.185  14.511 -0.7835 -0.4686  0.0857
 6636SOL     OW31366   1.303   1.434   4.274 -0.5333  0.1529 -0.0935
 6636SOL    HW131367   1.263   1.347   4.274  1.9741 -0.9987  0.0878
 6636SOL    HW231368   1.331   1.431   4.183 -1.5275 -1.1471 -0.3680
 6637SOL     OW31369   1.661   2.108   5.115  0.2148  0.5231 -0.1986
 6637SOL    HW131370   1.698   2.195   5.128 -0.4356  0.8877 -0.7767
 6637SOL    HW231371   1.706   2.059   5.184 -0.1332 -2.3620 -2.0465
 6638SOL     OW31372   2.463   2.119  15.207 -0.0077  0.1106 -0.1124
 6638SOL    HW131373   2.401   2.074  15.150 -1.1662 -0.6158  1.7116
 6638SOL    HW231374   2.414   2.178  15.264 -0.2938 -1.2950  1.0909
 6639SOL     OW31375   4.046   1.437   8.576  0.4001 -1.1303  0.0449
 6639SOL    HW131376   4.135   1.408   8.595  1.2316  0.4437 -1.5670
 6639SOL    HW231377   4.056   1.530   8.560 -1.0425 -0.9413  0.2091
 6640SOL     OW31378   0.323   3.930  15.301  0.1405  0.2603  0.3109
 6640SOL    HW131379   0.245   3.918  15.246 -0.5393  1.1454  1.0947
 6640SOL    HW231380   0.308   3.866  15.371 -0.5214  0.1737  0.0921
 6641SOL     OW31381   2.325   3.802  17.064  0.9540  0.5746  0.6208
 6641SOL    HW131382   2.367   3.719  17.090 -2.0375 -1.8157 -2.1909
 6641SOL    HW231383   2.364   3.849  17.137  1.5904  0.9188  0.0683
 6642SOL     OW31384   2.027   1.009  13.835  0.7756 -0.3540  0.5544
 6642SOL    HW131385   2.088   1.083  13.835 -0.1502  0.3964 -0.1701
 6642SOL    HW231386   2.084   0.949  13.884 -0.7524 -0.9353  1.5966
 6643SOL     OW31387   0.281   3.934   8.754 -0.0492  0.0509 -0.1429
 6643SOL    HW131388   0.335   3.974   8.822  2.0243 -0.7086 -1.3411
 6643SOL    HW231389   0.214   4.003   8.756  0.6205  0.6542  1.3020
 6644SOL     OW31390   1.177   4.400   0.319  0.0571  0.3606  0.3844
 6644SOL    HW131391   1.259   4.415   0.272  0.5713 -1.9879  0.5325
 6644SOL    HW231392   1.113   4.421   0.251 -0.3940  0.7451  0.9314
 6645SOL     OW31393   1.927   3.403  15.737 -0.5550  0.1836  0.1054
 6645SOL    HW131394   1.899   3.312  15.727  2.2213 -0.2527 -3.5865
 6645SOL    HW231395   1.909   3.432  15.647  2.9977  0.4902 -0.5169
 6646SOL     OW31396   2.101   0.868  16.263  0.6660 -0.1998 -0.6462
 6646SOL    HW131397   2.154   0.808  16.316  0.4648 -1.3143 -1.7022
 6646SOL    HW231398   2.101   0.932  16.334 -1.6393 -1.7699  0.8102
 6647SOL     OW31399   1.900   3.355   5.668 -0.7543  0.5039  0.1218
 6647SOL    HW131400   1.838   3.329   5.735  0.5019  0.5246  1.2838
 6647SOL    HW231401   1.982   3.340   5.714 -0.5692 -2.0702 -1.0547
 6648SOL     OW31402   1.384   3.983  11.860  0.6642 -0.1136  0.1770
 6648SOL    HW131403   1.387   3.955  11.951  0.0738 -0.7574 -0.0097
 6648SOL    HW231404   1.294   4.011  11.849  0.4462 -0.2253  1.7540
 6649SOL     OW31405   2.582   3.325  13.252  0.0699  0.0708  0.2344
 6649SOL    HW131406   2.568   3.341  13.158  0.2440 -1.2020 -0.0074
 6649SOL    HW231407   2.554   3.409  13.286  0.4950  0.9481 -1.5737
 6650SOL     OW31408   1.904   0.613  17.345 -0.9114  0.4415 -0.3339
 6650SOL    HW131409   1.926   0.693  17.297  1.5589  0.2169  0.4597
 6650SOL    HW231410   1.974   0.608  17.410 -1.2059 -1.5670 -0.1437
 6651SOL     OW31411   1.310   3.150   1.297 -1.0048  0.1303  0.6730
 6651SOL    HW131412   1.393   3.164   1.342  0.0925  0.6810 -1.4919
 6651SOL    HW231413   1.306   3.055   1.308 -0.8406 -0.0650 -0.9246
 6652SOL     OW31414   3.915   0.712   5.375  0.3056 -0.9684 -0.0344
 6652SOL    HW131415   3.907   0.693   5.281  1.7124  1.4740 -0.6564
 6652SOL    HW231416   4.009   0.702   5.389  0.3918 -1.8210 -1.1985
 6653SOL     OW31417   1.288   3.508   5.939  0.4850  0.1639 -0.3764
 6653SOL    HW131418   1.378   3.536   5.957  0.3301  1.0711 -1.0245
 6653SOL    HW231419   1.307   3.477   5.850  1.1232 -0.5552  0.0136
 6654SOL     OW31420   3.054   0.049   2.604  0.4754 -0.8532 -0.4099
 6654SOL    HW131421   2.963   0.073   2.623  1.1664  0.6064  1.0291
 6654SOL    HW231422   3.097   0.077   2.685 -0.4659 -0.4713 -0.0440
 6655SOL     OW31423   1.997   4.639  11.875  0.3126  0.0346 -0.6949
 6655SOL    HW131424   2.007   4.712  11.937  1.4433 -0.2097 -0.5907
 6655SOL    HW231425   1.998   4.561  11.930  1.4095  0.0821 -0.6530
 6656SOL     OW31426   0.852   3.252  10.624 -0.0022  0.1970  0.0644
 6656SOL    HW131427   0.881   3.204  10.702 -1.9783 -0.3321  0.4865
 6656SOL    HW231428   0.756   3.244  10.630 -0.1663  0.5811 -2.0511
 6657SOL     OW31429   2.904   1.845   6.288 -0.3531  0.3796  0.1549
 6657SOL    HW131430   2.821   1.800   6.271  0.6289 -1.3882 -0.0143
 6657SOL    HW231431   2.872   1.924   6.330 -1.8249 -0.2274  0.1776
 6658SOL     OW31432   1.961   1.779  15.394 -0.1341 -0.0646 -0.1130
 6658SOL    HW131433   1.958   1.802  15.486 -1.8901 -0.0188 -0.1781
 6658SOL    HW231434   2.056   1.785  15.389  0.1442 -3.6826  0.6126
 6659SOL     OW31435   1.882   0.585   2.486 -0.3141 -0.6718  0.3122
 6659SOL    HW131436   1.808   0.532   2.515  0.3257 -1.3433  0.7233
 6659SOL    HW231437   1.852   0.631   2.408  2.8785  0.3283 -0.3542
 6660SOL     OW31438   2.007   3.112  15.010  0.0163 -0.2552  0.2393
 6660SOL    HW131439   1.945   3.045  15.039 -3.0296  2.5971  0.3105
 6660SOL    HW231440   2.060   3.117  15.090  1.8546  2.1636 -1.1206
 6661SOL     OW31441   1.565   2.029  17.215 -0.0922 -0.1945 -0.7820
 6661SOL    HW131442   1.498   2.093  17.191  0.4227  0.2006 -1.1497
 6661SOL    HW231443   1.613   2.071  17.286 -1.5312 -0.7133  0.4856
 6662SOL     OW31444   2.728   0.136   8.770 -0.2361  0.7292 -0.0864
 6662SOL    HW131445   2.643   0.181   8.763  0.0096  1.2549  0.2701
 6662SOL    HW231446   2.734   0.111   8.678 -1.4002 -0.5143  0.1845
 6663SOL     OW31447   3.821   2.858   7.380  0.6481  0.0297 -0.0691
 6663SOL    HW131448   3.854   2.825   7.463 -0.3956 -3.3749 -0.9860
 6663SOL    HW231449   3.737   2.812   7.385  0.7888 -0.3108 -0.7431
 6664SOL     OW31450   2.946   0.657  13.184  0.0246  0.5270 -0.2410
 6664SOL    HW131451   2.992   0.680  13.104  1.0146  0.7935  0.3972
 6664SOL    HW231452   2.859   0.690  13.164  0.0657 -0.5438 -2.1721
 6665SOL     OW31453   1.033   3.404   4.425 -0.2580  0.2226  0.5550
 6665SOL    HW131454   0.996   3.483   4.464 -0.3514  0.9789 -1.0512
 6665SOL    HW231455   0.998   3.427   4.339  0.7011  0.0548  0.1187
 6666SOL     OW31456   2.170   4.452   6.077  0.3391  0.7066  0.3702
 6666SOL    HW131457   2.220   4.510   6.133  0.7253 -0.2852  1.0525
 6666SOL    HW231458   2.146   4.393   6.148 -3.3583  1.8026  0.0253
 6667SOL     OW31459   4.539   0.935  12.988  0.0483  0.3183  0.3252
 6667SOL    HW131460   4.591   0.975  13.058  0.6656 -1.4871  0.9066
 6667SOL    HW231461   4.599   0.958  12.917 -0.2125  1.0146  0.3322
 6668SOL     OW31462   2.745   0.325   2.688  0.5317  0.3808  0.1272
 6668SOL    HW131463   2.683   0.274   2.635 -1.9297  1.0991  2.2748
 6668SOL    HW231464   2.819   0.302   2.632 -1.0181 -2.4845 -0.7840
 6669SOL     OW31465   0.984   4.308   2.195 -0.4966 -0.4476  0.0999
 6669SOL    HW131466   0.894   4.289   2.171 -0.8922  2.1229 -0.4542
 6669SOL    HW231467   0.992   4.246   2.267 -0.7319 -0.1120  0.4134
 6670SOL     OW31468   2.523   3.740   7.488  0.3364  0.0529 -0.7656
 6670SOL    HW131469   2.491   3.830   7.493 -0.2060 -0.2155  0.6443
 6670SOL    HW231470   2.500   3.712   7.577 -2.3281  0.4851 -1.3250
 6671SOL     OW31471   2.897   1.548   3.334 -0.8035  0.3789 -0.6239
 6671SOL    HW131472   2.830   1.480   3.336 -1.6722  1.2078 -1.1317
 6671SOL    HW231473   2.914   1.571   3.425  0.5179 -0.4660 -0.6712
 6672SOL     OW31474   1.285   1.618   3.400  0.1208 -0.2044 -0.0757
 6672SOL    HW131475   1.296   1.525   3.420 -0.5429 -0.2721 -0.0222
 6672SOL    HW231476   1.366   1.630   3.350 -0.5483  1.0343 -0.8724
 6673SOL     OW31477   3.624   3.269   5.923  0.4345 -0.4983  0.2217
 6673SOL    HW131478   3.582   3.196   5.877  1.5920 -0.2874 -1.1683
 6673SOL    HW231479   3.652   3.330   5.855 -0.0739 -1.6365 -1.0062
 6674SOL     OW31480   1.944   1.427  11.459  0.1030  0.6844  0.2689
 6674SOL    HW131481   1.915   1.499  11.403 -0.7337 -0.2712 -0.5393
 6674SOL    HW231482   1.872   1.435  11.522 -0.3385  0.1411 -0.1601
 6675SOL     OW31483   0.388   1.430   2.826 -0.4155  0.2547  0.0276
 6675SOL    HW131484   0.482   1.413   2.821 -0.4775  0.0384 -0.3722
 6675SOL    HW231485   0.349   1.344   2.811 -1.8240  1.0455 -0.9629
 6676SOL     OW31486   3.418   4.412   2.036  0.3217 -0.2030  0.6200
 6676SOL    HW131487   3.336   4.441   1.997  0.8389 -0.2696 -0.5257
 6676SOL    HW231488   3.397   4.325   2.069  0.8176 -0.7686 -0.5337
 6677SOL     OW31489   1.465   0.249   8.943  0.4227 -0.1526  0.3190
 6677SOL    HW131490   1.381   0.204   8.941  0.5236 -0.3046 -0.4854
 6677SOL    HW231491   1.453   0.322   9.004  2.3752  1.6889 -1.4597
 6678SOL     OW31492   3.355   4.380   7.123 -0.8734 -0.5085 -0.3762
 6678SOL    HW131493   3.359   4.419   7.210 -0.0218  0.1250 -0.7088
 6678SOL    HW231494   3.449   4.380   7.105 -0.9602 -0.5867 -0.8267
 6679SOL     OW31495   0.824   1.841  13.989  0.1390 -0.2655  0.4343
 6679SOL    HW131496   0.777   1.898  13.928  1.0608 -1.4386 -1.3685
 6679SOL    HW231497   0.914   1.861  13.962 -0.4198  1.8471  0.1014
 6680SOL     OW31498   1.796   0.719   7.358  0.2830 -0.2356  0.2079
 6680SOL    HW131499   1.725   0.783   7.356 -1.0139 -1.6584  0.4917
 6680SOL    HW231500   1.860   0.750   7.293 -1.6584  1.3683 -0.9274
 6681SOL     OW31501   4.297   1.463   0.463  0.2613  0.0891 -0.0545
 6681SOL    HW131502   4.230   1.523   0.433 -0.6588 -0.4752  0.8765
 6681SOL    HW231503   4.261   1.421   0.541 -1.2227 -0.9109 -1.2764
 6682SOL     OW31504   2.472   1.888  12.666 -0.2067  0.0665  0.2758
 6682SOL    HW131505   2.498   1.963  12.612  0.4589 -0.1363  0.3242
 6682SOL    HW231506   2.521   1.911  12.744 -0.2181  0.2915  0.2179
 6683SOL     OW31507   0.682   0.779  10.216  0.3209  0.3731 -0.4364
 6683SOL    HW131508   0.656   0.835  10.289 -0.7051  0.0902 -0.5817
 6683SOL    HW231509   0.777   0.777  10.229  0.2958 -0.3450 -0.3429
 6684SOL     OW31510   3.461   1.611   4.732  0.5935 -0.1346 -0.0885
 6684SOL    HW131511   3.537   1.582   4.784 -0.0447  2.6068  2.3233
 6684SOL    HW231512   3.504   1.689   4.698 -3.4312  2.0490 -0.0550
 6685SOL     OW31513   3.932   2.881   6.732 -0.2775 -0.5046  0.1384
 6685SOL    HW131514   3.880   2.860   6.654 -1.8333  1.4124  0.6588
 6685SOL    HW231515   3.856   2.881   6.790  1.0016 -2.2681  1.8015
 6686SOL     OW31516   1.753   3.675  17.673  0.5360  0.4717  0.0743
 6686SOL    HW131517   1.726   3.725  17.596  1.7371  0.5079 -0.3214
 6686SOL    HW231518   1.726   3.732   0.054  0.1428 -1.2804  1.3165
 6687SOL     OW31519   3.655   3.156   6.624 -0.4364  0.2382  0.1994
 6687SOL    HW131520   3.643   3.160   6.719  1.0818  0.3841  0.3848
 6687SOL    HW231521   3.672   3.248   6.605  0.9889 -0.2398 -0.8566
 6688SOL     OW31522   2.302   4.378   9.444 -0.2886  0.4454  0.9193
 6688SOL    HW131523   2.388   4.411   9.416 -0.3449  1.5500  2.0326
 6688SOL    HW231524   2.332   4.364   9.534 -0.9965  0.0369  1.0876
 6689SOL     OW31525   0.776   3.067   7.856  0.3254 -0.0510 -0.1592
 6689SOL    HW131526   0.810   2.989   7.898 -2.4354 -1.1914 -0.0068
 6689SOL    HW231527   0.690   3.035   7.830 -0.5634 -0.5426  3.2933
 6690SOL     OW31528   4.423   0.445   0.185  0.1412 -0.2137 -0.2001
 6690SOL    HW131529   4.408   0.468   0.093  2.8592  1.2465 -0.2668
 6690SOL    HW231530   4.474   0.521   0.210 -0.7602  0.0782  0.7585
 6691SOL     OW31531   0.266   4.101   8.444  0.3901  0.4766 -0.8302
 6691SOL    HW131532   0.206   4.122   8.516  1.1598 -0.4493  0.0839
 6691SOL    HW231533   0.214   4.099   8.364 -0.8890 -0.2926  0.0302
 6692SOL     OW31534   0.536   1.305  17.516  0.0930 -0.1194 -0.4435
 6692SOL    HW131535   0.479   1.284  17.442 -0.4882 -1.8472  0.5087
 6692SOL    HW231536   0.579   1.379  17.472 -2.4740  1.2850 -0.5768
 6693SOL     OW31537   2.060   1.444   8.450  0.7390  0.3561  0.3759
 6693SOL    HW131538   2.103   1.423   8.367 -0.3234  1.4966 -0.4744
 6693SOL    HW231539   2.029   1.361   8.486 -0.3896  0.7627  0.3423
 6694SOL     OW31540   4.480   2.786   7.172 -0.0131 -0.4300  0.2554
 6694SOL    HW131541   4.460   2.714   7.112 -1.5167 -0.3871  0.6900
 6694SOL    HW231542   4.569   2.772   7.202  0.7733  2.0097 -0.9020
 6695SOL     OW31543   0.475   1.474   3.914 -0.0877  0.4381  0.2445
 6695SOL    HW131544   0.506   1.495   3.826 -0.2426  0.2569  0.1477
 6695SOL    HW231545   0.383   1.479   3.890  0.1371  3.1503 -0.0605
 6696SOL     OW31546   2.362   1.752   8.246  0.3441  0.8112 -0.6631
 6696SOL    HW131547   2.454   1.724   8.250  0.7223  2.1936  0.3275
 6696SOL    HW231548   2.346   1.737   8.153  0.8071 -1.5449 -0.3653
 6697SOL     OW31549   0.392   1.186   0.769  0.6378  0.4881  0.2561
 6697SOL    HW131550   0.325   1.174   0.836 -1.5796  2.2147 -1.6629
 6697SOL    HW231551   0.425   1.096   0.764  0.4171  0.3907  0.5694
 6698SOL     OW31552   2.924   0.699   0.055  0.5996  0.3839  0.9220
 6698SOL    HW131553   2.993   0.632   0.059  0.6317  0.2765 -1.2346
 6698SOL    HW231554   2.960   0.737  17.666 -2.8894  0.7042 -0.4642
 6699SOL     OW31555   2.797   1.688  13.751 -0.0680  0.1303 -0.2504
 6699SOL    HW131556   2.767   1.771  13.788 -2.1644 -2.1085  3.1017
 6699SOL    HW231557   2.887   1.680  13.781 -0.4277  0.5227  0.9535
 6700SOL     OW31558   0.162   3.458   1.983  0.2059  0.6895  0.1755
 6700SOL    HW131559   0.225   3.415   1.926  0.6279 -0.0191  1.1904
 6700SOL    HW231560   0.127   3.524   1.922 -1.7846 -0.1898  0.3641
 6701SOL     OW31561   1.645   1.519   6.089 -0.6369 -0.3007  0.1853
 6701SOL    HW131562   1.599   1.456   6.144 -2.0417 -1.7768 -2.6614
 6701SOL    HW231563   1.726   1.517   6.141 -1.4993  0.8848  1.5419
 6702SOL     OW31564   4.569   2.276   6.717 -0.1309  0.0290  0.0662
 6702SOL    HW131565   4.609   2.337   6.655  0.7074 -0.2031  0.3882
 6702SOL    HW231566   4.594   2.197   6.670 -1.4988  0.6769 -1.7584
 6703SOL     OW31567   0.787   4.030   7.780  0.2534  0.3202  0.2509
 6703SOL    HW131568   0.696   4.057   7.786 -0.1512 -0.7551 -0.9599
 6703SOL    HW231569   0.815   4.022   7.871  0.2814 -1.2793  0.0976
 6704SOL     OW31570   0.734   1.566   2.285  0.0968 -0.3801  0.6015
 6704SOL    HW131571   0.732   1.496   2.219  2.1218 -0.3609  0.5225
 6704SOL    HW231572   0.802   1.624   2.252  1.6266 -1.5384  1.7486
 6705SOL     OW31573   0.740   1.407  12.757  0.8159 -0.2362 -0.3019
 6705SOL    HW131574   0.830   1.386  12.781  1.5488  1.1708 -1.8920
 6705SOL    HW231575   0.712   1.323  12.719  0.5395 -0.8799  1.3171
 6706SOL     OW31576   3.729   1.059  10.077  0.1531 -0.2704  0.5207
 6706SOL    HW131577   3.737   1.138  10.025 -3.6410  0.0990  0.4998
 6706SOL    HW231578   3.814   1.021  10.054 -0.9151 -1.9885 -0.5510
 6707SOL     OW31579   1.228   0.614   6.820  0.3611  0.1215  0.5299
 6707SOL    HW131580   1.159   0.620   6.887 -1.7444 -2.7247 -1.4184
 6707SOL    HW231581   1.242   0.520   6.818  1.4283  0.2889  0.0661
 6708SOL     OW31582   0.038   2.490   7.208  0.4535 -0.7361 -0.1363
 6708SOL    HW131583   0.064   2.440   7.131  2.3916  0.8837 -0.5203
 6708SOL    HW231584   0.049   2.582   7.182 -0.7539 -0.8643 -1.0996
 6709SOL     OW31585   0.452   1.123  15.369  0.2594  0.2751 -0.6870
 6709SOL    HW131586   0.497   1.195  15.325 -0.7428  1.0444 -0.4469
 6709SOL    HW231587   0.428   1.069  15.294  0.8729 -0.1077 -0.6039
 6710SOL     OW31588   0.312   1.332   5.902 -0.1511 -0.7993  0.3999
 6710SOL    HW131589   0.277   1.275   5.970  1.3093 -0.7004  1.2358
 6710SOL    HW231590   0.317   1.415   5.950  1.1086  0.2929 -1.6078
 6711SOL     OW31591   0.428   4.014   2.681 -0.9267 -0.1042  0.0757
 6711SOL    HW131592   0.421   3.971   2.767 -1.1858 -1.0137 -0.3929
 6711SOL    HW231593   0.401   4.103   2.702 -1.2916 -0.2684  0.3263
 6712SOL     OW31594   1.108   4.507  13.628 -0.1595  0.4079 -0.3241
 6712SOL    HW131595   1.028   4.559  13.625 -1.2042 -1.0804  1.2647
 6712SOL    HW231596   1.126   4.491  13.536  1.0969  1.6985 -0.3108
 6713SOL     OW31597   1.492   3.189   2.668 -0.0861 -0.7436 -0.6134
 6713SOL    HW131598   1.407   3.215   2.634 -1.2011 -1.8928  1.3178
 6713SOL    HW231599   1.477   3.101   2.704  0.7289 -0.1994  1.0758
 6714SOL     OW31600   0.833   2.540   3.236 -0.3830  0.1039  0.0154
 6714SOL    HW131601   0.797   2.613   3.287 -0.0429  2.3120 -2.9630
 6714SOL    HW231602   0.766   2.472   3.246  3.1026 -3.0140  2.4555
 6715SOL     OW31603   2.063   0.208  13.392  0.0976  0.4011  0.1559
 6715SOL    HW131604   2.089   0.147  13.323  2.2682  1.8374 -0.2929
 6715SOL    HW231605   2.045   0.147  13.464 -2.6775  0.4795 -0.4650
 6716SOL     OW31606   1.221   0.456  17.119 -0.3359  0.2833 -0.1000
 6716SOL    HW131607   1.194   0.420  17.035  1.3370  0.4438 -0.7165
 6716SOL    HW231608   1.315   0.438  17.116 -0.2491  0.9522 -1.3946
 6717SOL     OW31609   3.530   4.703   1.055  0.7651  0.1285 -0.6385
 6717SOL    HW131610   3.617   4.675   1.026  0.6083 -0.8288 -0.1898
 6717SOL    HW231611   3.535   4.656   1.138  2.4120  0.7935 -0.3709
 6718SOL     OW31612   2.190   4.664   5.859 -0.2712  0.3484  0.0038
 6718SOL    HW131613   2.175   4.599   5.789 -0.2452 -0.6909  0.9635
 6718SOL    HW231614   2.145   4.629   5.935  1.4043  2.5586  2.0097
 6719SOL     OW31615   3.278   3.583   5.482  0.3542 -0.8974  0.2091
 6719SOL    HW131616   3.336   3.519   5.524  0.8133 -0.1519  0.7192
 6719SOL    HW231617   3.203   3.533   5.451 -1.5864  0.6112  2.5503
 6720SOL     OW31618   3.538   2.564   0.952 -0.3836  0.3263 -0.2010
 6720SOL    HW131619   3.536   2.581   1.046 -2.4238  1.4998 -0.4388
 6720SOL    HW231620   3.620   2.517   0.937 -0.8584 -0.5084 -0.1858
 6721SOL     OW31621   3.390   4.604   8.267  0.1994  0.0823  0.2101
 6721SOL    HW131622   3.483   4.582   8.259  0.0565 -0.3778 -0.1923
 6721SOL    HW231623   3.362   4.530   8.320 -0.0381  1.5815  2.1999
 6722SOL     OW31624   2.653   4.448   2.830 -0.0049 -1.3547  0.1363
 6722SOL    HW131625   2.573   4.460   2.778  0.6925  0.9332 -0.4249
 6722SOL    HW231626   2.634   4.461   2.923 -0.8456  0.9099 -0.3465
 6723SOL     OW31627   3.971   0.582   8.345  0.3755 -0.1525  0.0764
 6723SOL    HW131628   3.883   0.621   8.344  0.8118  0.7638 -1.5671
 6723SOL    HW231629   3.953   0.503   8.396  0.1482  0.1452  0.4668
 6724SOL     OW31630   4.198   2.549   4.995 -0.1049  0.0569  0.3493
 6724SOL    HW131631   4.256   2.618   5.026  1.1984  0.3385 -2.7311
 6724SOL    HW231632   4.126   2.567   5.056 -0.6171 -0.2375 -0.1692
 6725SOL     OW31633   1.244   3.167   5.718  0.0180 -0.0639  0.7047
 6725SOL    HW131634   1.320   3.126   5.674  0.2806 -0.0447  1.1413
 6725SOL    HW231635   1.292   3.219   5.782  0.8211 -1.0391  0.8915
 6726SOL     OW31636   3.378   1.169   8.266  0.1444 -0.3826 -0.7757
 6726SOL    HW131637   3.283   1.159   8.260  0.3906 -1.4139 -3.0675
 6726SOL    HW231638   3.403   1.255   8.298 -3.0382  0.1390  0.2419
 6727SOL     OW31639   0.462   1.853   6.609 -0.0208  0.4416 -0.0528
 6727SOL    HW131640   0.405   1.880   6.680  1.6678  1.3630  0.9427
 6727SOL    HW231641   0.549   1.878   6.639  0.1450  0.1819 -0.3131
 6728SOL     OW31642   0.629   2.097   7.954 -0.4582  0.1298  0.4921
 6728SOL    HW131643   0.606   2.074   7.864  2.4550  0.3808 -0.3278
 6728SOL    HW231644   0.629   2.009   7.991  0.3144  0.4494  1.2596
 6729SOL     OW31645   2.445   3.625  11.652 -0.2617  0.1808 -0.0986
 6729SOL    HW131646   2.457   3.567  11.728  3.0528 -0.5374 -1.1438
 6729SOL    HW231647   2.438   3.704  11.706 -3.6192 -1.4071  1.7628
 6730SOL     OW31648   3.654   3.036   3.210 -0.0321 -0.4490  0.2921
 6730SOL    HW131649   3.734   2.985   3.203 -0.7096 -1.4589 -0.1895
 6730SOL    HW231650   3.682   3.116   3.254 -0.4673 -0.4732  0.6097
 6731SOL     OW31651   0.041   3.050  12.033 -0.3857 -0.7487  0.6597
 6731SOL    HW131652   0.099   3.046  12.110  0.4162 -1.1596  0.0350
 6731SOL    HW231653   0.101   3.052  11.959  0.7594 -4.5613  1.4818
 6732SOL     OW31654   2.913   1.192  16.750  0.2274  0.8089 -0.1652
 6732SOL    HW131655   2.896   1.240  16.669  1.8796 -0.2629 -1.1504
 6732SOL    HW231656   2.987   1.136  16.723  0.5146  0.7802  0.6721
 6733SOL     OW31657   4.692   3.929   4.831 -0.4592  0.1451 -0.0262
 6733SOL    HW131658   4.618   3.961   4.883  1.0849  0.9905  1.6436
 6733SOL    HW231659   4.687   3.834   4.842 -0.5585  0.3868  2.0792
 6734SOL     OW31660   1.411   3.541   3.853  0.6699 -0.2551  0.7829
 6734SOL    HW131661   1.444   3.460   3.813  0.1350 -0.5378  0.9176
 6734SOL    HW231662   1.491   3.593   3.854  0.3229  0.3005 -3.0443
 6735SOL     OW31663   4.033   1.361   6.370 -0.1149 -0.0166  0.0096
 6735SOL    HW131664   3.940   1.371   6.389  0.1065  2.1432 -0.1254
 6735SOL    HW231665   4.071   1.408   6.444 -0.4334 -0.0405  0.1885
 6736SOL     OW31666   3.630   4.678   0.143 -0.2776 -0.5252  0.0202
 6736SOL    HW131667   3.680   4.653   0.066  2.4480  4.1558  0.2929
 6736SOL    HW231668   3.617   4.593   0.186  0.7911 -1.5684 -1.7109
 6737SOL     OW31669   2.122   1.666   1.666 -0.4549 -0.2473  0.0806
 6737SOL    HW131670   2.122   1.662   1.762  2.5390  0.3785  0.0919
 6737SOL    HW231671   2.037   1.626   1.649 -0.0314 -0.4893 -1.4597
 6738SOL     OW31672   0.989   4.399   1.470 -0.2878 -0.0856  0.5062
 6738SOL    HW131673   0.940   4.481   1.478  0.1701  0.2587 -0.2123
 6738SOL    HW231674   1.082   4.422   1.480  0.4862 -2.5911 -0.8006
 6739SOL     OW31675   1.022   1.357   2.432 -0.1829 -0.4999 -0.8286
 6739SOL    HW131676   0.971   1.327   2.357 -0.6911 -0.7718 -0.3643
 6739SOL    HW231677   0.950   1.354   2.494  0.7833  2.2762  0.4570
 6740SOL     OW31678   3.518   1.010   9.169 -0.2967  0.2708  0.0433
 6740SOL    HW131679   3.524   0.937   9.231  0.9255 -0.8012 -1.3276
 6740SOL    HW231680   3.581   1.074   9.201 -2.0505  1.8003  0.4172
 6741SOL     OW31681   1.500   0.603   5.268 -0.4373 -0.1076 -0.0290
 6741SOL    HW131682   1.546   0.676   5.311  0.2002 -0.6300  0.1860
 6741SOL    HW231683   1.495   0.544   5.343  0.9867  2.6015  2.2281
 6742SOL     OW31684   4.683   1.085  13.156  0.2310 -0.3841 -0.1538
 6742SOL    HW131685   0.054   1.106  13.147 -0.3514  2.0338 -0.5437
 6742SOL    HW231686   4.662   1.152  13.221  1.4996  2.0766 -2.2617
 6743SOL     OW31687   1.632   1.148   4.884 -0.6711 -0.3852  0.1621
 6743SOL    HW131688   1.611   1.151   4.978 -0.4972 -0.0734  0.1939
 6743SOL    HW231689   1.666   1.060   4.869  0.5164  0.1849 -0.5160
 6744SOL     OW31690   4.655   4.519   4.931 -0.2091 -0.0308 -0.2203
 6744SOL    HW131691   4.568   4.507   4.970  1.5539 -2.5042  2.9238
 6744SOL    HW231692   4.667   4.434   4.890  0.5102 -0.5206  0.9957
 6745SOL     OW31693   2.118   2.484   2.347  0.7638  0.5198 -0.0432
 6745SOL    HW131694   2.186   2.497   2.281  2.5873 -0.1660  1.7274
 6745SOL    HW231695   2.048   2.541   2.315 -0.6189 -0.7721  0.6634
 6746SOL     OW31696   3.465   2.738  12.269  0.4699 -0.1364 -0.0820
 6746SOL    HW131697   3.531   2.788  12.317  0.5718 -0.0719 -0.2919
 6746SOL    HW231698   3.415   2.706  12.344 -0.0088  0.5694 -0.1013
 6747SOL     OW31699   2.413   0.583   7.505 -0.4162  0.2636 -0.5263
 6747SOL    HW131700   2.505   0.559   7.510 -0.3296  0.2393 -2.1688
 6747SOL    HW231701   2.408   0.655   7.568  1.9453 -1.5010  1.6282
 6748SOL     OW31702   4.106   4.620   2.244 -0.2149  0.7762  0.1452
 6748SOL    HW131703   4.099   4.620   2.339 -0.2216 -0.6226  0.1519
 6748SOL    HW231704   4.066   4.701   2.213 -0.9927 -0.1704 -1.3453
 6749SOL     OW31705   0.699   2.132  10.299  0.3124 -0.4383  0.0624
 6749SOL    HW131706   0.682   2.211  10.351  1.2467 -1.1151  1.3980
 6749SOL    HW231707   0.749   2.166  10.224  1.9305 -1.2668  0.7598
 6750SOL     OW31708   2.198   4.563   3.969 -0.1111  0.2047 -0.1690
 6750SOL    HW131709   2.290   4.585   3.987 -0.0423  2.1126 -2.8435
 6750SOL    HW231710   2.200   4.592   3.878 -1.3456  2.5760  0.5687
 6751SOL     OW31711   2.494   2.390   1.427  0.5099 -0.3448 -0.0869
 6751SOL    HW131712   2.512   2.389   1.333  4.1435 -0.1421  0.5894
 6751SOL    HW231713   2.562   2.439   1.474  0.8405 -1.5977  0.7387
 6752SOL     OW31714   0.599   1.405   5.568 -0.0254 -0.1548 -0.4009
 6752SOL    HW131715   0.539   1.337   5.599 -0.3316  0.8064  1.0786
 6752SOL    HW231716   0.547   1.431   5.492  0.9651  0.0049 -1.0204
 6753SOL     OW31717   2.991   1.023  11.547 -0.0480 -0.1169  0.9368
 6753SOL    HW131718   2.931   1.095  11.568  1.9888  1.8122  0.2200
 6753SOL    HW231719   3.010   0.975  11.628 -0.7183  0.4577  1.4345
 6754SOL     OW31720   3.738   2.229   4.173 -0.5531  0.6963 -0.0200
 6754SOL    HW131721   3.698   2.162   4.228  2.1601 -1.3110 -0.4717
 6754SOL    HW231722   3.674   2.295   4.197 -3.5909 -1.8953 -1.0506
 6755SOL     OW31723   2.639   1.193   7.599 -0.5544  0.4562  0.1117
 6755SOL    HW131724   2.553   1.194   7.640 -0.8351 -0.9647 -0.4558
 6755SOL    HW231725   2.663   1.286   7.601  0.8762  0.0940 -0.6616
 6756SOL     OW31726   0.261   3.688  15.786 -0.6384  0.4483 -1.2010
 6756SOL    HW131727   0.229   3.666  15.698 -1.2815 -1.5248 -0.4525
 6756SOL    HW231728   0.328   3.623  15.806 -1.8651 -0.0946  1.1386
 6757SOL     OW31729   1.603   4.626   0.109 -0.4447 -0.5302  0.1328
 6757SOL    HW131730   1.555   4.707   0.127 -0.1061 -0.4396  0.6233
 6757SOL    HW231731   1.643   4.616   0.195 -2.8811  0.9340  1.4443
 6758SOL     OW31732   0.235   0.414   9.022  0.2473  0.0487  0.1128
 6758SOL    HW131733   0.299   0.435   9.090  1.1285 -0.3430 -0.6007
 6758SOL    HW231734   0.152   0.451   9.053  0.5061  0.5569  0.1913
 6759SOL     OW31735   4.404   2.254   4.065  0.1948 -0.2939 -0.2590
 6759SOL    HW131736   4.312   2.241   4.042  0.4726 -3.6939  0.6310
 6759SOL    HW231737   4.446   2.254   3.979  0.0040  0.2975 -0.3493
 6760SOL     OW31738   2.965   3.245   4.946 -0.3356  0.1936  0.1100
 6760SOL    HW131739   2.959   3.264   5.040 -0.5275  0.0509  0.1268
 6760SOL    HW231740   2.890   3.289   4.905  0.2115 -0.2255 -1.3154
 6761SOL     OW31741   4.367   3.192   3.216  0.1832 -0.4016  0.0153
 6761SOL    HW131742   4.334   3.173   3.128 -0.6334 -1.2004  0.4944
 6761SOL    HW231743   4.393   3.284   3.221  1.0138 -0.6211 -0.3692
 6762SOL     OW31744   2.790   0.897   5.997  0.0950  0.3034  0.7906
 6762SOL    HW131745   2.848   0.842   6.049 -0.4533 -0.2711  0.7900
 6762SOL    HW231746   2.733   0.825   5.970 -1.2841  0.4194  3.3886
 6763SOL     OW31747   2.043   3.270  14.462 -0.5931  0.2167 -0.1289
 6763SOL    HW131748   2.027   3.253  14.369 -0.0463 -1.9511  0.1567
 6763SOL    HW231749   2.093   3.190  14.479  1.4128  1.3643 -0.6392
 6764SOL     OW31750   0.807   1.714   3.237  0.5320 -0.0408 -0.0382
 6764SOL    HW131751   0.830   1.750   3.151 -1.6087  0.3145 -0.4674
 6764SOL    HW231752   0.769   1.787   3.285  3.6016  2.1851 -1.0156
 6765SOL     OW31753   2.489   1.931  14.152 -0.2050 -0.9896 -0.2668
 6765SOL    HW131754   2.551   1.926  14.224 -2.7505  2.6563  2.1107
 6765SOL    HW231755   2.431   2.001  14.182 -0.2668  0.4240 -3.6708
 6766SOL     OW31756   4.451   0.562  15.187  0.7699  0.0238 -0.0594
 6766SOL    HW131757   4.426   0.523  15.103 -0.4691 -0.9898  0.7738
 6766SOL    HW231758   4.363   0.593  15.210  0.5371 -0.5098 -0.2341
 6767SOL     OW31759   0.795   3.774   5.029 -0.0008 -0.0707 -0.1129
 6767SOL    HW131760   0.780   3.680   5.023  1.3692 -0.1689 -2.0749
 6767SOL    HW231761   0.710   3.801   5.064  0.3584 -2.2467  2.3621
 6768SOL     OW31762   4.499   2.885   6.351  0.0561 -0.2155  0.2563
 6768SOL    HW131763   4.496   2.919   6.440  2.2812  0.6221 -0.0037
 6768SOL    HW231764   4.568   2.819   6.358  0.2026 -0.1502 -0.4818
 6769SOL     OW31765   0.211   0.461   8.754 -0.1346 -0.0223  0.5061
 6769SOL    HW131766   0.289   0.496   8.711 -1.9995  3.3041 -0.1814
 6769SOL    HW231767   0.231   0.461   8.848 -3.5431 -3.8721  1.2462
 6770SOL     OW31768   0.771   2.422   5.146  0.7389  0.0917  0.0037
 6770SOL    HW131769   0.790   2.378   5.063 -0.7376 -0.2817 -0.1318
 6770SOL    HW231770   0.860   2.425   5.182  0.5397 -0.2518  0.5245
 6771SOL     OW31771   0.405   3.128   3.653  0.4866  0.1794 -0.5702
 6771SOL    HW131772   0.338   3.115   3.720  0.2831 -0.4631 -0.8885
 6771SOL    HW231773   0.447   3.207   3.686 -0.8753  0.9162 -0.6093
 6772SOL     OW31774   4.517   1.120   7.181  0.1163  0.1781  0.1290
 6772SOL    HW131775   4.548   1.037   7.146 -3.1132 -0.4979 -1.1279
 6772SOL    HW231776   4.427   1.092   7.197  0.4429 -0.5610  0.6878
 6773SOL     OW31777   3.203   1.387   5.131 -0.2859  0.7331 -0.3082
 6773SOL    HW131778   3.232   1.454   5.070 -0.5380  2.4220  1.4317
 6773SOL    HW231779   3.240   1.310   5.088 -1.3807  0.2014 -0.3103
 6774SOL     OW31780   4.705   3.795   8.142  1.1710 -0.2390 -0.2203
 6774SOL    HW131781   0.025   3.770   8.059 -0.4241 -3.0251 -0.1917
 6774SOL    HW231782   4.616   3.819   8.119  1.3172 -0.4305 -0.9896
 6775SOL     OW31783   2.724   3.741   1.771 -0.3176  0.8303 -0.4856
 6775SOL    HW131784   2.790   3.686   1.813  0.2075  1.4618 -0.4909
 6775SOL    HW231785   2.647   3.724   1.824  0.2172  0.1343  0.0681
 6776SOL     OW31786   3.777   0.079   4.328 -0.5263 -0.4014 -0.1569
 6776SOL    HW131787   3.870   0.065   4.313 -0.3279 -0.6888  1.3257
 6776SOL    HW231788   3.752   0.055   4.239  2.6206 -2.8358 -0.3768
 6777SOL     OW31789   1.783   1.301   1.785  0.5710 -0.5868 -0.8740
 6777SOL    HW131790   1.834   1.239   1.837 -0.3041 -1.2964 -0.8840
 6777SOL    HW231791   1.788   1.261   1.698  0.9353  1.3274 -1.7385
 6778SOL     OW31792   3.923   1.438   0.208  0.0355 -0.6074 -0.6386
 6778SOL    HW131793   3.898   1.501   0.276  1.2897  0.6560 -1.3613
 6778SOL    HW231794   3.889   1.353   0.236  0.7691 -1.2544 -1.7237
 6779SOL     OW31795   4.091   1.919   3.617 -0.2188 -0.1096 -0.2454
 6779SOL    HW131796   4.114   1.835   3.576 -1.4647 -0.5451 -0.0708
 6779SOL    HW231797   3.997   1.905   3.627  0.1362 -1.3775  1.2698
 6780SOL     OW31798   0.711   1.264   1.840 -0.1142 -0.0064 -0.0630
 6780SOL    HW131799   0.651   1.334   1.868 -0.1399  0.1631 -0.5455
 6780SOL    HW231800   0.728   1.214   1.919  0.5387  0.6968  0.2442
 6781SOL     OW31801   3.358   3.514   7.724 -0.1618  0.0673  0.0245
 6781SOL    HW131802   3.318   3.475   7.646 -0.4668  0.8073 -0.1944
 6781SOL    HW231803   3.345   3.608   7.712  0.4578 -0.1694 -2.4496
 6782SOL     OW31804   0.959   4.674   1.201  0.0776 -0.1916  0.6421
 6782SOL    HW131805   1.042   4.720   1.190 -0.2088 -0.0074 -0.7507
 6782SOL    HW231806   0.983   4.583   1.183 -1.0104  0.0717 -2.0720
 6783SOL     OW31807   2.012   2.996  14.321  0.0042  0.0199  0.1818
 6783SOL    HW131808   1.932   2.998  14.374 -0.3764 -0.4050 -0.3836
 6783SOL    HW231809   2.078   2.996  14.391  1.7532  0.6497 -1.4482
 6784SOL     OW31810   1.458   2.732   9.389 -0.0476 -0.3067 -0.1305
 6784SOL    HW131811   1.442   2.653   9.337 -1.7501 -0.2576  0.2992
 6784SOL    HW231812   1.517   2.705   9.459 -2.0220  0.2230  1.7533
 6785SOL     OW31813   2.425   1.845   4.334  0.1397  0.4845  0.3564
 6785SOL    HW131814   2.352   1.850   4.396 -1.6760  0.2684 -1.7623
 6785SOL    HW231815   2.421   1.761   4.289 -0.9313  0.0812  1.2190
 6786SOL     OW31816   4.066   1.815   8.225 -0.1474  0.2826  0.2563
 6786SOL    HW131817   4.092   1.868   8.150  2.2903 -1.3767 -0.0849
 6786SOL    HW231818   4.012   1.875   8.276 -1.8599 -3.8269  3.3196
 6787SOL     OW31819   4.257   0.235   2.890  0.0334 -0.0585 -0.5331
 6787SOL    HW131820   4.263   0.251   2.796  0.1497 -0.7182 -0.6368
 6787SOL    HW231821   4.285   0.324   2.915  0.8805 -0.3035 -0.5898
 6788SOL     OW31822   0.577   1.777   1.532  0.5146 -0.1483 -0.0377
 6788SOL    HW131823   0.650   1.735   1.486 -0.7168 -2.5628  0.1913
 6788SOL    HW231824   0.521   1.702   1.550 -1.6041  1.4322 -0.0745
 6789SOL     OW31825   0.323   0.195   5.576  0.5793 -0.2638 -0.3459
 6789SOL    HW131826   0.393   0.199   5.511  2.8987  0.7687  2.2482
 6789SOL    HW231827   0.324   0.284   5.610 -0.9842  0.1385 -1.3884
 6790SOL     OW31828   1.772   3.823   2.856  0.0042 -0.6866  0.4487
 6790SOL    HW131829   1.753   3.748   2.911  0.0080  0.7055  2.3557
 6790SOL    HW231830   1.840   3.788   2.799 -0.6537 -1.4205  0.1152
 6791SOL     OW31831   3.045   2.088   8.012 -0.3763  0.2579  0.0325
 6791SOL    HW131832   2.970   2.089   8.071 -0.3272 -0.1735  0.1039
 6791SOL    HW231833   3.009   2.078   7.923 -2.6592 -1.8872  1.2039
 6792SOL     OW31834   4.403   3.049   8.978 -0.3508  0.3273  0.1739
 6792SOL    HW131835   4.455   3.086   9.050  0.1876 -1.6152  0.7875
 6792SOL    HW231836   4.320   3.092   8.997  0.3586  1.5763  0.4438
 6793SOL     OW31837   1.893   1.572   9.393 -0.5400  0.1085  0.0539
 6793SOL    HW131838   1.919   1.496   9.443  0.3708 -1.2116 -2.4059
 6793SOL    HW231839   1.898   1.543   9.302 -3.2964 -1.2428  0.3447
 6794SOL     OW31840   0.406   3.360   3.208  0.0330 -0.7416 -0.4315
 6794SOL    HW131841   0.456   3.364   3.126  0.8375 -0.8194  0.0508
 6794SOL    HW231842   0.318   3.339   3.178 -0.4259 -0.5324  0.7698
 6795SOL     OW31843   1.884   1.115  14.720  0.0386  0.7236  0.1695
 6795SOL    HW131844   1.872   1.183  14.787 -1.4456  1.2330 -0.6056
 6795SOL    HW231845   1.922   1.049  14.778  0.9724  1.4355  0.3662
 6796SOL     OW31846   4.721   2.394   4.430 -0.6246  0.5595  0.1661
 6796SOL    HW131847   4.629   2.375   4.445 -0.9618  1.5598 -0.6048
 6796SOL    HW231848   0.056   2.337   4.481 -1.5701  1.0133  1.7285
 6797SOL     OW31849   3.939   4.682  13.293 -0.7171  0.6033  0.2097
 6797SOL    HW131850   3.950   0.016  13.370  0.1683 -2.0029  1.9693
 6797SOL    HW231851   3.848   4.703  13.271 -1.3628 -1.4806  0.8660
 6798SOL     OW31852   0.135   0.420   0.637 -0.3556  0.6495  0.2952
 6798SOL    HW131853   0.230   0.434   0.638 -0.4762  1.4125  1.7997
 6798SOL    HW231854   0.101   0.509   0.651  1.1423  1.0862  1.1601
 6799SOL     OW31855   3.637   1.965   7.634 -0.3642 -0.1973 -0.4156
 6799SOL    HW131856   3.648   2.000   7.546 -0.3024  2.9976  0.8474
 6799SOL    HW231857   3.671   1.876   7.623 -0.1506  0.0695 -1.8352
 6800SOL     OW31858   4.654   2.736   5.863 -0.1500  0.4832  0.0251
 6800SOL    HW131859   0.008   2.691   5.826  0.1468  0.1931  1.0038
 6800SOL    HW231860   4.696   2.757   5.946 -2.4443  0.2473  1.2253
 6801SOL     OW31861   3.114   1.452   3.170 -0.1263  0.1075 -0.4625
 6801SOL    HW131862   3.030   1.494   3.191 -0.0396  0.6445 -1.2023
 6801SOL    HW231863   3.156   1.450   3.256 -4.0372 -1.7138  1.4361
 6802SOL     OW31864   0.262   2.148   3.239 -0.0349  0.0594 -0.3654
 6802SOL    HW131865   0.208   2.181   3.168  0.7816 -0.7266 -1.3506
 6802SOL    HW231866   0.263   2.221   3.301 -1.1559 -0.0390 -0.2403
 6803SOL     OW31867   3.811   3.363  13.028  0.3618  0.0503 -0.1306
 6803SOL    HW131868   3.786   3.277  13.063  0.7976  0.0851  0.2605
 6803SOL    HW231869   3.731   3.412  13.046  1.3834  0.8993  2.0359
 6804SOL     OW31870   4.582   2.339  17.548  0.0599  0.5596  0.1668
 6804SOL    HW131871   4.586   2.434  17.540 -2.1303  0.5359 -1.4906
 6804SOL    HW231872   4.549   2.346  17.637  2.0510 -0.7667  0.9996
 6805SOL     OW31873   2.138   3.372   7.717  0.0665  0.2753  0.2469
 6805SOL    HW131874   2.182   3.454   7.739  0.8829  0.4219 -1.9665
 6805SOL    HW231875   2.105   3.346   7.803 -0.5573 -0.2302 -0.1451
 6806SOL     OW31876   1.810   4.536   6.305 -0.2992  0.4486  0.0759
 6806SOL    HW131877   1.826   4.487   6.224  1.3199  0.7174  0.2469
 6806SOL    HW231878   1.735   4.485   6.339 -0.8276  0.9058 -0.4079
 6807SOL     OW31879   4.264   0.637   1.962 -0.2416  0.3349 -0.2163
 6807SOL    HW131880   4.258   0.639   1.867 -0.7954 -1.3795 -0.2153
 6807SOL    HW231881   4.202   0.707   1.982 -0.6392  0.3920 -1.7000
 6808SOL     OW31882   1.039   3.655   7.004 -0.0570 -0.5803 -0.4443
 6808SOL    HW131883   1.097   3.690   7.072  2.3016 -2.7114 -1.3542
 6808SOL    HW231884   1.110   3.607   6.961 -0.0000  0.0629 -1.0519
 6809SOL     OW31885   1.237   4.629   0.451 -0.1131  0.1884 -0.1643
 6809SOL    HW131886   1.214   4.537   0.443 -0.7196  0.5473 -2.3882
 6809SOL    HW231887   1.322   4.642   0.410 -1.0932 -0.2007 -2.3171
 6810SOL     OW31888   4.625   1.180  13.581 -0.8631 -0.0544 -0.1902
 6810SOL    HW131889   4.719   1.165  13.573 -0.9353 -0.3758 -0.4413
 6810SOL    HW231890   4.593   1.120  13.648 -1.6742 -0.8209 -1.2564
 6811SOL     OW31891   0.772   3.595   9.105 -0.8028  0.3002  0.5435
 6811SOL    HW131892   0.769   3.690   9.109 -1.4104  0.2872  0.3837
 6811SOL    HW231893   0.677   3.583   9.109 -1.0557  1.8093 -0.9957
 6812SOL     OW31894   2.700   1.604   5.612  0.2978 -0.0933  0.4382
 6812SOL    HW131895   2.786   1.618   5.572 -0.0674  0.7529 -0.0558
 6812SOL    HW231896   2.676   1.681   5.663 -1.9732  0.0954 -0.9623
 6813SOL     OW31897   0.321   1.314   4.141 -0.1695  0.1543 -0.3469
 6813SOL    HW131898   0.357   1.402   4.136  1.8878 -0.6304  0.4663
 6813SOL    HW231899   0.392   1.269   4.187 -1.0819  0.3191  1.2328
 6814SOL     OW31900   3.323   4.408   7.693 -0.2119 -0.1323 -0.5258
 6814SOL    HW131901   3.408   4.393   7.652  0.3690  2.7414 -0.3631
 6814SOL    HW231902   3.269   4.457   7.632  0.9082  1.9893  0.1776
 6815SOL     OW31903   1.294   0.944  16.915 -0.1003  0.5989 -0.9508
 6815SOL    HW131904   1.366   0.977  16.967  0.8494 -0.9505 -1.2755
 6815SOL    HW231905   1.264   0.872  16.971 -0.5756  0.0016 -1.9558
 6816SOL     OW31906   3.121   1.348   8.296  0.2717  0.0783  0.6990
 6816SOL    HW131907   3.130   1.340   8.391 -3.1252 -1.4063  0.9043
 6816SOL    HW231908   3.114   1.258   8.263 -1.3302 -0.2350  1.8536
 6817SOL     OW31909   2.073   1.128   5.228 -0.1159  0.1653  0.4722
 6817SOL    HW131910   2.048   1.037   5.215 -2.7920  0.8624  0.7432
 6817SOL    HW231911   2.047   1.170   5.146 -0.3012  1.2405  1.0676
 6818SOL     OW31912   3.874   2.267   1.052 -0.5026  0.5084  0.3743
 6818SOL    HW131913   3.779   2.256   1.058 -0.5665  0.2891 -1.1321
 6818SOL    HW231914   3.874   2.333   0.983 -0.7684 -0.4595 -0.5555
 6819SOL     OW31915   3.156   4.714   3.850 -0.8169 -0.3825 -0.0771
 6819SOL    HW131916   3.167   4.674   3.764  0.7218  0.4830 -0.2732
 6819SOL    HW231917   3.219   4.662   3.899 -1.8504 -4.2945 -2.9085
 6820SOL     OW31918   1.547   4.119  15.418 -0.0482 -0.2795  0.2391
 6820SOL    HW131919   1.491   4.196  15.426  2.3270  1.4636  0.0004
 6820SOL    HW231920   1.587   4.136  15.333 -0.6134 -0.1428  0.0033
 6821SOL     OW31921   3.243   4.026  10.710 -0.3404  0.3768 -0.1276
 6821SOL    HW131922   3.269   4.026  10.618 -0.1004  1.3540 -0.0531
 6821SOL    HW231923   3.292   4.103  10.737 -2.7573  2.1743 -0.9030
 6822SOL     OW31924   2.056   0.630  11.196 -0.3611 -0.0096 -0.8028
 6822SOL    HW131925   2.112   0.664  11.266 -0.3095 -2.4694  0.3675
 6822SOL    HW231926   1.968   0.658  11.222 -0.6855 -2.6660  0.9649
 6823SOL     OW31927   4.037   4.310   2.835  0.1528  0.6343 -0.8102
 6823SOL    HW131928   3.996   4.393   2.810 -2.2042  0.2108  1.6834
 6823SOL    HW231929   4.071   4.334   2.921  1.4537 -1.3545 -0.7674
 6824SOL     OW31930   0.998   4.702   1.666  0.7181 -0.1264 -0.4815
 6824SOL    HW131931   0.908   4.719   1.694 -0.0766 -1.9795 -1.9288
 6824SOL    HW231932   0.975   4.684   1.574 -0.9264 -0.1613 -0.0696
 6825SOL     OW31933   0.234   3.692   2.102 -0.2303 -0.4468 -0.3943
 6825SOL    HW131934   0.239   3.606   2.060  1.9072  0.0991 -1.2620
 6825SOL    HW231935   0.162   3.728   2.052 -0.1996 -0.7259 -0.6409
 6826SOL     OW31936   1.386   2.574   0.135  0.1347 -0.0371 -0.4397
 6826SOL    HW131937   1.327   2.499   0.125  0.0170  0.0941 -0.7277
 6826SOL    HW231938   1.416   2.571   0.045 -0.2521  2.3772 -0.6520
 6827SOL     OW31939   1.542   3.697  16.789 -0.1747 -0.0045 -0.6378
 6827SOL    HW131940   1.528   3.654  16.705 -1.5688 -2.2338  0.7438
 6827SOL    HW231941   1.526   3.630  16.855  0.5392  0.1690 -0.2871
 6828SOL     OW31942   0.700   2.751  10.595  0.0375 -0.0011  0.1848
 6828SOL    HW131943   0.753   2.704  10.659  0.4180  0.1075 -0.0510
 6828SOL    HW231944   0.615   2.751  10.641  1.6135  1.0464  3.1042
 6829SOL     OW31945   3.928   2.251   5.046  0.7856 -0.2860  0.1942
 6829SOL    HW131946   3.903   2.159   5.040 -3.5402  0.8300  1.2344
 6829SOL    HW231947   3.937   2.269   5.140 -1.2989  0.7049  0.2106
 6830SOL     OW31948   4.366   0.612   4.326 -0.1157 -0.1359 -0.1481
 6830SOL    HW131949   4.352   0.685   4.265 -0.4771 -0.8644 -0.9421
 6830SOL    HW231950   4.367   0.544   4.259  1.3744 -1.2824  1.0492
 6831SOL     OW31951   1.909   3.199   4.961  0.2118 -1.2089 -1.1238
 6831SOL    HW131952   1.867   3.114   4.964 -1.2735 -0.5197 -2.2776
 6831SOL    HW231953   1.843   3.259   4.928  1.7363  0.8054 -0.5344
 6832SOL     OW31954   0.391   2.865   2.784  0.5601 -0.1442  0.6799
 6832SOL    HW131955   0.337   2.819   2.719  1.2795  0.0756 -0.0825
 6832SOL    HW231956   0.334   2.861   2.860 -0.6760 -1.5218 -0.3156
 6833SOL     OW31957   1.713   0.421   3.092  0.4298  0.3726 -0.6703
 6833SOL    HW131958   1.741   0.449   3.004  2.6694  1.4753  0.4029
 6833SOL    HW231959   1.789   0.440   3.146 -1.7606  3.4312  1.3033
 6834SOL     OW31960   0.208   3.804   4.037  0.0914 -0.3602 -0.3074
 6834SOL    HW131961   0.256   3.871   4.086 -0.5235 -1.0849  1.2663
 6834SOL    HW231962   0.218   3.729   4.096 -0.4546 -0.3090 -0.1545
 6835SOL     OW31963   2.009   4.649   8.379 -0.0043  0.0859  0.1878
 6835SOL    HW131964   2.075   4.579   8.378  0.7809  0.7877  2.9113
 6835SOL    HW231965   2.055   4.709   8.438  0.8240  1.4351 -1.8173
 6836SOL     OW31966   1.739   2.158   9.334  0.9342 -0.3329  0.5627
 6836SOL    HW131967   1.674   2.093   9.364 -1.4971  1.6860 -0.3361
 6836SOL    HW231968   1.808   2.092   9.330  1.4123  0.2972 -1.7457
 6837SOL     OW31969   2.098   3.739   2.346 -0.2447  0.0516 -0.3390
 6837SOL    HW131970   2.180   3.779   2.315 -0.3080  0.9886  0.7210
 6837SOL    HW231971   2.067   3.813   2.397 -0.4990  0.2385 -0.7682
 6838SOL     OW31972   3.527   1.037   2.632  0.0535  0.0475 -0.1285
 6838SOL    HW131973   3.505   0.975   2.563 -0.9643 -0.1129  0.3364
 6838SOL    HW231974   3.488   0.989   2.705 -1.9004  2.8753  0.6592
 6839SOL     OW31975   2.783   3.350   7.391  0.0656 -0.5367  0.6435
 6839SOL    HW131976   2.737   3.382   7.314  0.1777  0.8172  1.1420
 6839SOL    HW231977   2.873   3.358   7.360  0.5645 -2.5900  1.5616
 6840SOL     OW31978   4.158   2.528  10.902  0.0758  0.0199 -0.0080
 6840SOL    HW131979   4.248   2.561  10.896  0.0550  0.1717  0.4591
 6840SOL    HW231980   4.176   2.447  10.949  1.1656 -0.7504 -1.7807
 6841SOL     OW31981   1.099   0.100  16.245  0.2102 -0.4895 -0.4942
 6841SOL    HW131982   1.146   0.156  16.307  1.8452 -0.6384 -1.6149
 6841SOL    HW231983   1.059   0.154  16.177 -0.5943 -0.1273  0.2526
 6842SOL     OW31984   0.825   4.383   0.842  0.4355 -0.5351  0.2334
 6842SOL    HW131985   0.846   4.446   0.773  1.9209 -0.3227  0.8754
 6842SOL    HW231986   0.896   4.395   0.904  0.5094 -0.2027  0.0809
 6843SOL     OW31987   2.046   1.682   3.303  0.1544  0.2244 -0.0378
 6843SOL    HW131988   2.100   1.745   3.350 -0.7987  0.3228  0.9315
 6843SOL    HW231989   2.055   1.603   3.356  1.7444  1.0260  0.8730
 6844SOL     OW31990   4.576   1.770   3.136 -0.2076  0.4331 -0.2207
 6844SOL    HW131991   4.499   1.822   3.115 -0.8604 -0.9917 -1.3427
 6844SOL    HW231992   4.636   1.838   3.166 -1.9430  0.4403  3.2907
 6845SOL     OW31993   1.039   3.537  11.802 -0.1827  0.0287  0.3956
 6845SOL    HW131994   0.964   3.517  11.746 -0.3754 -0.4865  0.8359
 6845SOL    HW231995   1.023   3.629  11.824  0.8499 -0.0692  1.5295
 6846SOL     OW31996   2.841   1.583  13.155  0.1457  0.6416 -0.4257
 6846SOL    HW131997   2.851   1.621  13.243 -0.6391  3.1311 -1.4249
 6846SOL    HW231998   2.775   1.635  13.110 -1.6057 -1.6582 -0.5428
 6847SOL     OW31999   1.667   2.595  16.838 -0.6203  0.3786  0.3247
 6847SOL    HW132000   1.600   2.583  16.905 -0.1052  0.8428  0.9179
 6847SOL    HW232001   1.727   2.536  16.885  0.9031  0.1491 -1.8945
 6848SOL     OW32002   3.752   2.051   4.729 -0.0056 -0.1908 -0.5162
 6848SOL    HW132003   3.843   2.024   4.745  0.6394  2.1528 -0.2077
 6848SOL    HW232004   3.756   2.147   4.729  0.2734 -0.2027  2.7866
 6849SOL     OW32005   0.650   0.822   5.973  0.0415  0.1809  0.1491
 6849SOL    HW132006   0.713   0.823   6.044 -1.3568  0.5773  1.3965
 6849SOL    HW232007   0.628   0.914   5.961  2.3277  0.9015  1.7014
 6850SOL     OW32008   2.453   1.878   1.823 -0.1837  0.5134  0.1824
 6850SOL    HW132009   2.388   1.933   1.865  0.4632  0.7903  0.8117
 6850SOL    HW232010   2.533   1.886   1.875  0.0152  0.3707 -0.1045
 6851SOL     OW32011   4.663   2.983   3.442  0.1002  0.4251  0.0796
 6851SOL    HW132012   4.656   3.076   3.463  0.5406  0.8868 -1.8099
 6851SOL    HW232013   4.651   2.936   3.524  3.1524 -1.7809 -0.7291
 6852SOL     OW32014   3.336   3.026   4.560  0.7890 -0.2395  0.2283
 6852SOL    HW132015   3.309   2.976   4.482 -0.6208 -1.2563  1.3722
 6852SOL    HW232016   3.424   3.059   4.539 -0.1018  2.4881  0.8289
 6853SOL     OW32017   1.786   1.513   5.374  0.4220 -0.0769  0.2759
 6853SOL    HW132018   1.817   1.597   5.410 -0.1838  0.8950 -1.4732
 6853SOL    HW232019   1.822   1.453   5.439 -0.5415  1.6478  2.4307
 6854SOL     OW32020   0.527   4.599   6.321  0.0448  0.0371  0.0205
 6854SOL    HW132021   0.472   4.614   6.398 -1.8668 -1.8472 -0.9706
 6854SOL    HW232022   0.459   4.565   6.263 -2.0904  4.6115 -0.2002
 6855SOL     OW32023   0.254   1.969   3.464 -0.7555  0.5379  0.6408
 6855SOL    HW132024   0.270   1.995   3.374  1.4884  2.1412  1.4780
 6855SOL    HW232025   0.341   1.974   3.504 -0.7475  0.6925  0.6051
 6856SOL     OW32026   1.837   1.489   4.783  1.0707  0.4959  0.3307
 6856SOL    HW132027   1.807   1.566   4.735 -1.1844 -1.8706 -2.0152
 6856SOL    HW232028   1.803   1.415   4.732  1.2958  1.7569 -1.6171
 6857SOL     OW32029   1.691   3.424   8.431  0.3808  0.3542 -0.0608
 6857SOL    HW132030   1.781   3.456   8.437  0.0916  1.1536 -0.0402
 6857SOL    HW232031   1.641   3.505   8.423 -0.6596 -0.1450  1.3262
 6858SOL     OW32032   3.893   3.457   4.261  0.6283  0.1940 -0.3065
 6858SOL    HW132033   3.960   3.460   4.329  0.7335  0.9932 -0.4487
 6858SOL    HW232034   3.949   3.453   4.183  0.2744  0.9063 -0.5944
 6859SOL     OW32035   2.841   2.524   2.603 -0.3655  0.6024  0.2188
 6859SOL    HW132036   2.816   2.453   2.544  2.2697  1.3142 -1.7347
 6859SOL    HW232037   2.866   2.467   2.676 -3.7923  0.8978  1.6323
 6860SOL     OW32038   3.684   2.015   4.318  0.7055 -0.0500 -0.8970
 6860SOL    HW132039   3.652   1.937   4.272 -1.6430 -0.3274  1.1812
 6860SOL    HW232040   3.768   1.991   4.357  0.4181 -0.3292 -0.4345
 6861SOL     OW32041   4.037   2.542   1.879  0.5585  0.3616 -0.3485
 6861SOL    HW132042   3.971   2.508   1.819  1.5764 -1.9132 -0.1696
 6861SOL    HW232043   4.089   2.464   1.896 -0.9329 -0.6845 -0.5205
 6862SOL     OW32044   2.411   0.958   9.343  0.1295  0.4949  0.2605
 6862SOL    HW132045   2.471   0.914   9.404 -0.0191  0.7000  0.5522
 6862SOL    HW232046   2.332   0.906   9.333  0.9455 -0.8729  0.8966
 6863SOL     OW32047   4.240   2.970   5.690  0.5599 -0.1437 -0.7579
 6863SOL    HW132048   4.186   3.034   5.737  0.5902 -1.1438  0.6204
 6863SOL    HW232049   4.305   2.944   5.755  0.3151 -0.5069 -0.6643
 6864SOL     OW32050   2.355   0.983   7.331  0.3623  0.2184  0.0843
 6864SOL    HW132051   2.263   0.991   7.305  0.2469 -0.3461  0.3282
 6864SOL    HW232052   2.344   0.969   7.425 -1.0251 -2.9823 -0.5492
 6865SOL     OW32053   0.574   2.075   2.566  0.2314 -0.1480  0.2361
 6865SOL    HW132054   0.548   2.037   2.482  2.2976 -0.2817 -0.3522
 6865SOL    HW232055   0.617   1.996   2.598  2.2688 -0.2144 -2.6608
 6866SOL     OW32056   1.174   3.806  10.644  0.1115  0.4908 -0.2520
 6866SOL    HW132057   1.181   3.711  10.656  0.2841  0.2318 -2.4307
 6866SOL    HW232058   1.164   3.817  10.549 -2.4417  0.6892  0.0495
 6867SOL     OW32059   0.712   4.099  14.833  0.5501  0.1225  0.0234
 6867SOL    HW132060   0.783   4.119  14.772  1.0004  1.7164  1.0600
 6867SOL    HW232061   0.659   4.034  14.788  0.2507 -0.1436  0.7683
 6868SOL     OW32062   4.063   4.088  16.619 -0.6679  0.0018 -0.0242
 6868SOL    HW132063   4.089   4.124  16.704  1.0038  0.2969 -0.6718
 6868SOL    HW232064   4.048   3.994  16.636  0.0193 -0.1839 -0.4638
 6869SOL     OW32065   4.168   1.684   3.516  0.2442 -0.2774 -0.1633
 6869SOL    HW132066   4.127   1.603   3.547 -1.1074 -0.2512 -1.8454
 6869SOL    HW232067   4.227   1.654   3.446  1.6915  2.1142  0.0497
 6870SOL     OW32068   2.879   4.681   7.838  0.0913  0.3761  0.2894
 6870SOL    HW132069   2.821   4.605   7.834  0.4693 -0.0198  2.3019
 6870SOL    HW232070   2.828   0.024   7.790  1.0708  1.4540  0.7278
 6871SOL     OW32071   3.367   4.536   3.883 -0.1567 -0.2451  0.0243
 6871SOL    HW132072   3.438   4.527   3.820  0.0243 -0.5241  0.2660
 6871SOL    HW232073   3.406   4.563   3.967 -1.4637  2.9704 -0.4026
 6872SOL     OW32074   3.345   4.285   4.162  0.2520  0.0816 -0.1514
 6872SOL    HW132075   3.391   4.231   4.226  1.2537  0.8321 -0.2388
 6872SOL    HW232076   3.290   4.223   4.114  1.1755 -0.8907  0.0394
 6873SOL     OW32077   0.821   1.388   2.630 -0.4166  0.0497  0.1406
 6873SOL    HW132078   0.857   1.403   2.718  0.3554 -1.2958  0.0599
 6873SOL    HW232079   0.762   1.463   2.622  0.6525  0.8022 -0.6463
 6874SOL     OW32080   1.249   1.790   8.611 -0.0270 -0.0023 -0.4260
 6874SOL    HW132081   1.278   1.879   8.630 -3.0037  1.1750 -1.3723
 6874SOL    HW232082   1.321   1.735   8.642  1.1295  0.8952 -1.5680
 6875SOL     OW32083   1.596   4.056   8.402  0.3323 -0.6053  0.2068
 6875SOL    HW132084   1.645   4.062   8.483  1.9117  0.8872 -0.8550
 6875SOL    HW232085   1.563   4.144   8.385 -0.7083 -0.9025  0.6606
 6876SOL     OW32086   4.086   3.986   8.381  0.8063 -0.6418  0.7713
 6876SOL    HW132087   4.140   4.059   8.351 -1.6718  0.7149 -0.3761
 6876SOL    HW232088   4.091   3.992   8.477 -1.1287  1.7624  0.7234
 6877SOL     OW32089   0.647   4.239   6.157 -0.0969  0.4327 -0.5277
 6877SOL    HW132090   0.713   4.209   6.219 -0.5721 -1.8393 -1.1082
 6877SOL    HW232091   0.563   4.210   6.192  0.5011  3.5251  3.4247
 6878SOL     OW32092   2.338   0.322   7.466 -0.5730 -0.3939  0.5660
 6878SOL    HW132093   2.242   0.322   7.470 -0.6043 -1.4247 -0.1948
 6878SOL    HW232094   2.359   0.414   7.478 -0.5362  0.0345 -2.7576
 6879SOL     OW32095   4.651   4.697   1.457 -0.0828 -0.2795 -0.4764
 6879SOL    HW132096   0.004   4.687   1.515 -0.2725  2.6533  0.2875
 6879SOL    HW232097   4.642   0.070   1.453  2.5875  0.0725  2.3936
 6880SOL     OW32098   1.430   0.434   2.290  0.2969 -0.4704  0.0774
 6880SOL    HW132099   1.376   0.512   2.301  0.8033 -0.0393 -0.5312
 6880SOL    HW232100   1.422   0.384   2.372  0.5048  0.1173  0.4557
 6881SOL     OW32101   4.613   1.383   6.407 -0.4143 -0.2015  0.1276
 6881SOL    HW132102   4.517   1.383   6.401 -0.6075  0.8841  3.6057
 6881SOL    HW232103   4.624   1.475   6.380  1.3403 -0.4844 -0.0989
 6882SOL     OW32104   0.768   2.281  13.167 -0.0738 -0.0701 -0.0727
 6882SOL    HW132105   0.822   2.240  13.235 -0.0511  0.3780  0.1786
 6882SOL    HW232106   0.807   2.368  13.162  0.5649 -0.2889  0.9666
 6883SOL     OW32107   3.544   0.289   8.641 -0.1770  0.0330 -0.0779
 6883SOL    HW132108   3.599   0.349   8.592 -0.0628 -1.2854 -1.5537
 6883SOL    HW232109   3.453   0.305   8.616 -0.3639 -1.3836 -0.3159
 6884SOL     OW32110   3.089   4.101   6.003  0.4223 -0.0121  0.2318
 6884SOL    HW132111   2.999   4.101   5.970  0.6438 -3.1006 -0.2971
 6884SOL    HW232112   3.136   4.107   5.920  1.2641  0.3307  0.7400
 6885SOL     OW32113   3.139   4.287   2.649  0.3453 -0.1481  0.3221
 6885SOL    HW132114   3.069   4.339   2.689  0.0783 -1.0495  1.0327
 6885SOL    HW232115   3.194   4.353   2.610  0.9665 -0.2007  1.1074
 6886SOL     OW32116   0.300   2.205   8.537 -0.0680 -0.1093 -0.2760
 6886SOL    HW132117   0.321   2.123   8.493  1.0672  0.4321 -0.7456
 6886SOL    HW232118   0.364   2.208   8.607 -0.1796  2.0666 -0.2649
 6887SOL     OW32119   0.519   1.336  12.875 -0.0626  1.0356  0.5355
 6887SOL    HW132120   0.594   1.379  12.833  0.6670 -1.3546 -0.6381
 6887SOL    HW232121   0.565   1.277  12.935  1.8424  2.4414  0.4698
 6888SOL     OW32122   2.888   4.242   4.066  0.2430 -0.2075  0.2269
 6888SOL    HW132123   2.811   4.292   4.091  1.4798  0.9533  1.7272
 6888SOL    HW232124   2.945   4.302   4.114 -0.2138  0.8652 -0.5671
 6889SOL     OW32125   3.594   0.275   5.770  0.0845  0.4279  0.6399
 6889SOL    HW132126   3.515   0.310   5.811 -0.6230  0.2271 -0.5413
 6889SOL    HW232127   3.576   0.186   5.742  0.9515  1.5135 -3.4630
 6890SOL     OW32128   4.555   1.747   8.233 -0.5889  0.6435  0.4024
 6890SOL    HW132129   4.470   1.786   8.211 -1.6001 -1.7733 -0.0125
 6890SOL    HW232130   4.570   1.697   8.152 -5.2118 -1.7332  1.0037
 6891SOL     OW32131   3.539   3.899   3.173 -0.6311 -0.6529  0.0457
 6891SOL    HW132132   3.633   3.882   3.175 -0.5145  0.1362  1.4606
 6891SOL    HW232133   3.507   3.827   3.226  0.2739  0.5960  2.2629
 6892SOL     OW32134   1.688   2.839  12.543  0.6727  0.0031  0.0472
 6892SOL    HW132135   1.648   2.842  12.630 -0.0892 -1.9195 -0.2313
 6892SOL    HW232136   1.724   2.927  12.534 -1.0763  0.6120 -0.9657
 6893SOL     OW32137   2.913   3.207   2.272 -0.1493  0.2255 -0.5081
 6893SOL    HW132138   2.867   3.138   2.225  0.8404  0.6051 -2.0143
 6893SOL    HW232139   2.993   3.218   2.222  1.9350 -0.7862  2.5894
 6894SOL     OW32140   4.143   3.510   7.678 -1.0485  0.2804  0.0862
 6894SOL    HW132141   4.101   3.544   7.757  0.7982  3.8956 -0.4763
 6894SOL    HW232142   4.230   3.512   7.719 -0.3990 -0.9772 -1.2434
 6895SOL     OW32143   3.821   1.153   3.411  0.0929 -0.6547 -0.7157
 6895SOL    HW132144   3.804   1.083   3.474  1.6449  1.0499  1.5829
 6895SOL    HW232145   3.910   1.125   3.386  0.3953 -0.3987  0.0686
 6896SOL     OW32146   0.545   0.142   4.521 -0.1021  0.4415 -0.0909
 6896SOL    HW132147   0.621   0.192   4.551 -0.9051  0.2098  2.2892
 6896SOL    HW232148   0.542   0.075   4.589 -0.0027 -0.3354 -0.8595
 6897SOL     OW32149   3.179   4.267   8.423  0.5624 -0.4514 -0.4377
 6897SOL    HW132150   3.271   4.252   8.442  0.2648 -0.6852  0.8312
 6897SOL    HW232151   3.191   4.290   8.331  1.5440  1.4260  0.1710
 6898SOL     OW32152   0.090   1.844   6.516  0.2325  0.3187 -0.3584
 6898SOL    HW132153   0.129   1.813   6.598  1.0341  0.4326 -0.6956
 6898SOL    HW232154   0.156   1.834   6.448 -0.5572  4.6975 -1.7421
 6899SOL     OW32155   1.296   1.413   7.928 -0.1816  0.0163  0.9685
 6899SOL    HW132156   1.264   1.381   8.012 -0.0126 -0.5384  0.8210
 6899SOL    HW232157   1.353   1.340   7.906 -1.3932 -0.5950 -0.1724
 6900SOL     OW32158   2.560   2.909  13.826  0.1962 -0.0539 -0.3475
 6900SOL    HW132159   2.631   2.972  13.810  0.9423 -0.6648  0.6287
 6900SOL    HW232160   2.492   2.946  13.769  0.6084  0.8766 -0.2424
 6901SOL     OW32161   2.994   3.604  13.554 -1.0166  0.3020 -0.5526
 6901SOL    HW132162   2.933   3.663  13.599 -0.4827 -1.2579  2.2453
 6901SOL    HW232163   2.982   3.631  13.463 -0.0137 -0.5057 -0.9223
 6902SOL     OW32164   0.708   0.876   2.417 -0.4281 -0.6481 -0.0679
 6902SOL    HW132165   0.666   0.905   2.336 -2.5090 -0.9538  0.9066
 6902SOL    HW232166   0.630   0.870   2.473  0.0962 -0.5105  0.6774
 6903SOL     OW32167   3.559   2.964   5.550 -0.0197 -0.1025 -0.0857
 6903SOL    HW132168   3.582   3.028   5.482  1.1606 -1.7149 -1.2207
 6903SOL    HW232169   3.493   2.912   5.505  0.6559  1.9693 -3.4755
 6904SOL     OW32170   0.047   0.609   5.610  0.1219 -0.2415  0.9817
 6904SOL    HW132171   0.030   0.520   5.640 -0.1590 -0.5822 -0.1884
 6904SOL    HW232172   4.681   0.646   5.609  0.3239  0.2313  0.7839
 6905SOL     OW32173   0.758   2.132   4.944 -0.1279  0.0412 -1.3368
 6905SOL    HW132174   0.833   2.186   4.917  2.0765 -1.3022  2.1642
 6905SOL    HW232175   0.788   2.084   5.021  1.6679  0.2414 -1.9046
 6906SOL     OW32176   4.537   1.552   2.937 -0.1246 -0.1617 -0.2317
 6906SOL    HW132177   4.498   1.620   2.991  1.1449  0.2236  0.2001
 6906SOL    HW232178   4.621   1.591   2.912  0.0151 -1.3061 -1.5570
 6907SOL     OW32179   2.215   4.388   4.665 -0.2654 -0.1239 -0.0748
 6907SOL    HW132180   2.259   4.457   4.616  0.8354 -0.1407  0.8937
 6907SOL    HW232181   2.125   4.420   4.674 -0.7395 -1.7759  1.0134
 6908SOL     OW32182   2.345   2.091   3.733 -0.2811  0.5555  0.1617
 6908SOL    HW132183   2.376   2.037   3.660 -1.2954  0.7709 -0.4358
 6908SOL    HW232184   2.372   2.178   3.702 -0.6007  0.8895  0.8219
 6909SOL     OW32185   4.099   0.477  12.064 -0.0735  0.3546  0.0389
 6909SOL    HW132186   4.110   0.387  12.095 -0.3337  0.9048  1.7544
 6909SOL    HW232187   4.030   0.502  12.126 -0.0485 -0.8843  0.5560
 6910SOL     OW32188   1.063   0.010   7.141 -0.2471 -0.0696  0.1730
 6910SOL    HW132189   0.991   0.013   7.079  0.7967 -0.3725 -1.0509
 6910SOL    HW232190   1.115   0.072   7.090  1.6018 -1.4732  0.3473
 6911SOL     OW32191   0.184   4.511   9.125  0.7207  0.2571 -0.0686
 6911SOL    HW132192   0.265   4.559   9.145  1.5212 -0.6494 -1.0939
 6911SOL    HW232193   0.147   4.573   9.062  1.2872  1.2710  0.5973
 6912SOL     OW32194   1.958   3.135   6.028 -0.3690  0.4306 -0.6367
 6912SOL    HW132195   1.973   3.104   5.939 -0.9492 -0.6007 -0.3727
 6912SOL    HW232196   1.925   3.051   6.058 -0.4686  1.2760  1.6529
 6913SOL     OW32197   3.687   0.577   6.297  0.0744  0.0252  0.2909
 6913SOL    HW132198   3.633   0.652   6.271 -1.3414 -0.8929  0.5737
 6913SOL    HW232199   3.719   0.610   6.381 -0.0723  0.5211  0.1474
 6914SOL     OW32200   4.227   3.779   5.161  0.2665  0.1416  0.0092
 6914SOL    HW132201   4.286   3.811   5.230  0.3589  1.8506 -0.8567
 6914SOL    HW232202   4.174   3.856   5.139 -0.3881  0.0985  1.4253
 6915SOL     OW32203   2.700   3.192   5.094 -0.5252  0.3743 -0.6581
 6915SOL    HW132204   2.615   3.218   5.060 -1.0924  0.5994  0.9523
 6915SOL    HW232205   2.695   3.252   5.168 -2.3647 -1.5281  0.7675
 6916SOL     OW32206   0.065   0.327   5.250 -0.2014  0.4786 -0.0427
 6916SOL    HW132207   0.096   0.335   5.340 -0.2262 -1.2880  0.1332
 6916SOL    HW232208   0.013   0.246   5.253  1.8867 -0.7625  2.2287
 6917SOL     OW32209   1.972   0.872  11.355 -0.3507 -0.1639  0.2713
 6917SOL    HW132210   1.983   0.962  11.388 -2.5016  0.2040 -0.0169
 6917SOL    HW232211   2.056   0.841  11.388  0.5265  1.3016 -0.5705
 6918SOL     OW32212   4.050   2.928   7.277 -0.4139  0.4186 -0.2655
 6918SOL    HW132213   4.093   2.864   7.333  0.5327 -0.6024 -2.1331
 6918SOL    HW232214   3.963   2.892   7.292  0.5407 -1.1006  1.6165
 6919SOL     OW32215   0.511   4.297  15.481 -0.2168  0.4471 -0.3278
 6919SOL    HW132216   0.502   4.250  15.398  1.5626 -1.1094  0.3435
 6919SOL    HW232217   0.575   4.240  15.525  0.1591 -0.2724 -1.8248
 6920SOL     OW32218   0.485   4.586   2.878  0.9271 -0.4719 -0.0282
 6920SOL    HW132219   0.485   4.633   2.795  1.1892  0.4098  0.4705
 6920SOL    HW232220   0.485   4.657   2.942 -0.0902 -1.5605  1.1803
 6921SOL     OW32221   4.054   1.794  12.524  0.3466 -0.4143  1.0322
 6921SOL    HW132222   4.146   1.791  12.496  0.4463  2.2659  1.0827
 6921SOL    HW232223   4.069   1.825  12.614  0.8513 -0.0332  0.8151
 6922SOL     OW32224   3.040   1.694  13.853  0.4297  0.4368  0.1419
 6922SOL    HW132225   3.127   1.698  13.814  0.9328  0.2852  1.2631
 6922SOL    HW232226   3.060   1.726  13.941  4.2132 -0.1653 -0.5173
 6923SOL     OW32227   1.143   1.399   2.761  0.2811  0.0905 -0.4748
 6923SOL    HW132228   1.168   1.475   2.814 -0.6243  1.0521 -1.4391
 6923SOL    HW232229   1.056   1.396   2.799 -0.0275 -3.4962 -1.4323
 6924SOL     OW32230   1.008   2.149  10.182  0.0006  0.3586 -0.0640
 6924SOL    HW132231   1.037   2.223  10.128 -0.2621  1.0101  0.6852
 6924SOL    HW232232   1.025   2.086  10.112 -0.0972  1.5538 -1.1696
 6925SOL     OW32233   4.294   0.418  13.191 -0.4834 -0.5170 -0.1477
 6925SOL    HW132234   4.222   0.364  13.224 -1.0204 -0.9144 -1.9701
 6925SOL    HW232235   4.258   0.505  13.210 -1.1308 -0.6601 -0.7161
 6926SOL     OW32236   0.509   0.762   6.344 -0.0200  0.2439  0.5682
 6926SOL    HW132237   0.509   0.684   6.398  0.6172 -1.4247 -1.8336
 6926SOL    HW232238   0.418   0.756   6.316  0.0684 -2.3915  0.9286
 6927SOL     OW32239   4.432   0.434   2.620 -0.3164 -0.3307 -0.2872
 6927SOL    HW132240   4.382   0.499   2.571 -2.0396 -0.0754  1.8310
 6927SOL    HW232241   4.484   0.494   2.673 -0.4844  1.5560 -2.2341
 6928SOL     OW32242   2.693   0.245   9.078 -0.2811  0.0586  0.5420
 6928SOL    HW132243   2.787   0.232   9.066 -0.0881  1.7898  0.0959
 6928SOL    HW232244   2.663   0.222   8.991  3.2573 -2.8782  0.0759
 6929SOL     OW32245   0.031   0.210   3.807  0.2200 -0.0561  0.2873
 6929SOL    HW132246   4.669   0.231   3.769  1.0784  0.4043 -1.3607
 6929SOL    HW232247   0.057   0.128   3.765 -0.2429  0.4398 -0.9490
 6930SOL     OW32248   0.325   0.694  10.068  0.2463 -0.3731 -0.1319
 6930SOL    HW132249   0.392   0.723  10.006 -1.6501 -0.1466 -2.0980
 6930SOL    HW232250   0.294   0.781  10.090  0.1372 -0.8684  1.7044
 6931SOL     OW32251   2.150   3.960   0.375 -0.1705 -0.1174 -0.3458
 6931SOL    HW132252   2.224   3.937   0.319 -0.1045 -0.5783 -0.0613
 6931SOL    HW232253   2.152   3.884   0.433 -3.0522  2.3017  2.9087
 6932SOL     OW32254   2.158   2.664  15.101  0.0265 -0.5888  0.4807
 6932SOL    HW132255   2.213   2.695  15.174  0.6123  0.3642 -0.3729
 6932SOL    HW232256   2.212   2.654  15.023  1.0197  1.6387  0.8832
 6933SOL     OW32257   1.136   3.592   1.162  0.1680  0.2192 -0.1469
 6933SOL    HW132258   1.189   3.592   1.082  1.2594  2.3218  0.5986
 6933SOL    HW232259   1.200   3.560   1.225  0.8418  2.1630  0.1496
 6934SOL     OW32260   1.603   3.551   4.778  0.1990 -0.1990  0.1912
 6934SOL    HW132261   1.538   3.522   4.842  0.9884 -1.0702  0.5967
 6934SOL    HW232262   1.552   3.547   4.697 -0.7630 -0.3398  0.7950
 6935SOL     OW32263   2.042   2.025  14.129 -0.0850  0.0807 -0.2077
 6935SOL    HW132264   2.115   2.058  14.076 -1.5699  0.9376 -1.7101
 6935SOL    HW232265   2.050   1.932  14.109 -0.5070  0.2893 -1.3966
 6936SOL     OW32266   0.535   4.167   7.762  0.1755  0.2202 -0.3098
 6936SOL    HW132267   0.549   4.237   7.826  0.1346 -0.6683  0.6838
 6936SOL    HW232268   0.562   4.205   7.679  4.3817  0.7762  1.3246
 6937SOL     OW32269   1.207   3.817   3.518  0.0579  0.7777 -0.1895
 6937SOL    HW132270   1.276   3.873   3.555 -0.1474  1.1919 -0.4318
 6937SOL    HW232271   1.209   3.745   3.580 -2.5244  1.0516  0.2135
 6938SOL     OW32272   3.722   0.153   7.446 -0.2847  0.0084 -0.1234
 6938SOL    HW132273   3.627   0.164   7.444  0.0120  2.3261 -1.3636
 6938SOL    HW232274   3.757   0.195   7.524  1.7246  0.9267 -1.5230
 6939SOL     OW32275   3.319   0.619   9.433  0.1002  0.4001  0.2400
 6939SOL    HW132276   3.257   0.609   9.361 -1.2510 -0.0534  1.4741
 6939SOL    HW232277   3.257   0.655   9.496  1.6215  1.2114  1.2813
 6940SOL     OW32278   2.945   3.679   3.984  0.3900  0.6282 -0.6890
 6940SOL    HW132279   3.033   3.711   3.967  0.3785  1.4502  0.8668
 6940SOL    HW232280   2.964   3.586   3.999 -0.1491  0.7708  0.8491
 6941SOL     OW32281   2.424   3.948   7.262 -0.0761 -0.1006 -0.6171
 6941SOL    HW132282   2.433   4.013   7.192 -1.3140 -0.5779 -1.2057
 6941SOL    HW232283   2.502   3.896   7.241  0.5438  1.0446 -1.1409
 6942SOL     OW32284   0.905   0.572  10.875  0.0485 -0.4211 -0.2907
 6942SOL    HW132285   0.876   0.617  10.796  1.6877 -2.3161 -1.9426
 6942SOL    HW232286   0.848   0.496  10.863  1.9798 -1.8787 -0.2668
 6943SOL     OW32287   1.347   2.241   0.391  0.6107 -0.1894 -0.4828
 6943SOL    HW132288   1.255   2.250   0.366  1.4404  2.8386 -2.4645
 6943SOL    HW232289   1.376   2.331   0.379 -1.4131  0.7439  1.5259
 6944SOL     OW32290   2.354   0.209   4.544 -0.3370  0.1698 -0.7182
 6944SOL    HW132291   2.383   0.290   4.586 -1.3315 -0.6028  1.4501
 6944SOL    HW232292   2.368   0.235   4.452  1.4002  1.6404 -0.0460
 6945SOL     OW32293   2.760   4.572  11.213 -0.1577  0.1442  0.2400
 6945SOL    HW132294   2.718   4.601  11.294  0.6336  1.4656  0.1765
 6945SOL    HW232295   2.700   4.515  11.164  1.3433 -1.2178 -0.0200
 6946SOL     OW32296   2.492   4.060   9.280  0.6725  0.3401  0.5208
 6946SOL    HW132297   2.563   4.000   9.255 -0.5391 -0.0482 -2.0265
 6946SOL    HW232298   2.421   4.031   9.223 -0.1970 -0.6510  2.1051
 6947SOL     OW32299   2.074   4.194   0.518 -0.3249 -0.4411 -0.7025
 6947SOL    HW132300   2.105   4.106   0.495 -0.7788 -0.0738 -2.6613
 6947SOL    HW232301   1.997   4.172   0.571 -0.6838  0.9161 -0.6686
 6948SOL     OW32302   1.453   3.340   7.092  0.0381 -0.3819 -0.7414
 6948SOL    HW132303   1.372   3.291   7.082 -1.1069  1.5232 -0.8374
 6948SOL    HW232304   1.460   3.351   7.187  0.5307  0.9297 -0.9231
 6949SOL     OW32305   4.188   1.131   8.526  0.4512 -0.0515 -0.3170
 6949SOL    HW132306   4.232   1.211   8.553 -1.8062  1.0486  0.1714
 6949SOL    HW232307   4.215   1.122   8.435 -0.3020 -2.2594 -0.3445
 6950SOL     OW32308   2.448   1.278   5.386  0.1122 -0.5241 -0.4190
 6950SOL    HW132309   2.487   1.336   5.452  1.1757 -2.2611  0.4803
 6950SOL    HW232310   2.520   1.251   5.328  1.8119  0.3798  1.2720
 6951SOL     OW32311   1.819   2.253   0.414  0.3503  0.1010 -0.4042
 6951SOL    HW132312   1.757   2.318   0.446  1.0573 -0.2749  1.7063
 6951SOL    HW232313   1.755   2.183   0.402  0.6579 -0.5377  1.6747
 6952SOL     OW32314   4.240   1.297   8.874 -0.0736  0.0929  0.0323
 6952SOL    HW132315   4.310   1.360   8.888  1.3310 -1.0496 -1.8757
 6952SOL    HW232316   4.162   1.352   8.873 -0.0589  0.0983 -0.5522
 6953SOL     OW32317   1.314   0.568   0.789  0.2157 -0.6138  0.1783
 6953SOL    HW132318   1.280   0.649   0.827  0.1146 -1.1698  1.2503
 6953SOL    HW232319   1.398   0.592   0.749 -1.3431  2.2362 -1.3747
 6954SOL     OW32320   1.320   0.354  12.405  0.2511 -0.4756  1.0578
 6954SOL    HW132321   1.399   0.404  12.385  1.5816 -2.6648  0.8019
 6954SOL    HW232322   1.246   0.406  12.373 -0.5978 -3.1363 -1.3440
 6955SOL     OW32323   2.294   4.704   7.991  0.8493  0.2624 -0.3683
 6955SOL    HW132324   2.383   4.710   8.024  0.7121  0.9558 -0.1083
 6955SOL    HW232325   2.275   4.619   8.030 -2.6058  0.6791 -1.0928
 6956SOL     OW32326   4.351   2.887   8.054  0.2978  0.3579 -0.0115
 6956SOL    HW132327   4.261   2.861   8.037  0.4097 -0.5631  0.8167
 6956SOL    HW232328   4.341   2.892   8.149 -2.0087  1.3612 -0.3005
 6957SOL     OW32329   1.744   2.699  14.768 -0.0430  0.1211  0.5180
 6957SOL    HW132330   1.660   2.654  14.774  0.4959 -0.8228  0.9399
 6957SOL    HW232331   1.806   2.627  14.775 -0.1753 -0.1135 -0.7794
 6958SOL     OW32332   3.623   3.981   2.808 -0.1053 -0.4949  0.0361
 6958SOL    HW132333   3.590   4.052   2.753 -1.2465  0.4313  1.9198
 6958SOL    HW232334   3.717   3.987   2.791 -0.3914  2.3934 -0.4507
 6959SOL     OW32335   1.947   3.520   3.110 -0.2188  0.1536  0.0697
 6959SOL    HW132336   1.935   3.426   3.106 -1.4545  0.2394  1.7807
 6959SOL    HW232337   1.961   3.530   3.204  0.1041  0.1373  0.0230
 6960SOL     OW32338   3.657   2.453  13.869 -0.0520  0.4568  0.2746
 6960SOL    HW132339   3.730   2.515  13.869 -0.4779  0.9510 -0.4054
 6960SOL    HW232340   3.634   2.449  13.776  0.1353  1.7303  0.1813
 6961SOL     OW32341   0.876   1.858   7.016 -0.2878 -0.4873 -0.1338
 6961SOL    HW132342   0.849   1.904   6.937 -2.2953 -2.6609 -0.7076
 6961SOL    HW232343   0.806   1.877   7.079 -0.0853  1.3144 -0.4523
 6962SOL     OW32344   2.101   0.324   1.849 -0.4197  0.4309 -0.2485
 6962SOL    HW132345   2.167   0.364   1.792 -1.0232  0.1983 -1.0964
 6962SOL    HW232346   2.033   0.391   1.858 -2.2338 -1.1303 -2.3394
 6963SOL     OW32347   0.650   1.480   3.029  0.5796 -0.1756  0.0843
 6963SOL    HW132348   0.692   1.415   3.085  0.9513 -0.0965 -0.1045
 6963SOL    HW232349   0.620   1.535   3.101 -0.2171  0.9394 -1.0907
 6964SOL     OW32350   2.308   2.331   1.816  0.4146  0.0960  0.1446
 6964SOL    HW132351   2.240   2.392   1.789  0.1981  0.3193  1.1817
 6964SOL    HW232352   2.308   2.279   1.736  0.3444 -0.8325  0.7399
 6965SOL     OW32353   3.576   4.591  14.882 -0.2231 -0.6215  0.2790
 6965SOL    HW132354   3.522   4.652  14.933  0.1993  1.0927 -1.3462
 6965SOL    HW232355   3.555   4.510  14.929  1.8854 -0.5660  1.2902
 6966SOL     OW32356   3.216   0.157   6.580  0.2713  0.3618  0.2017
 6966SOL    HW132357   3.240   0.070   6.548 -1.8213 -0.1753  0.0807
 6966SOL    HW232358   3.191   0.144   6.671 -1.4269  0.8199 -0.1913
 6967SOL     OW32359   2.440   3.498   3.292 -0.0704 -0.0549 -0.0633
 6967SOL    HW132360   2.477   3.421   3.335  0.1372 -0.2516 -0.5992
 6967SOL    HW232361   2.382   3.461   3.225 -0.7188  1.7089 -0.4779
 6968SOL     OW32362   3.210   2.990   2.411 -0.0239  0.1570  0.6938
 6968SOL    HW132363   3.241   2.914   2.461  0.5950  1.0612  1.6674
 6968SOL    HW232364   3.194   3.039   2.491 -2.0521 -0.2499  0.5283
 6969SOL     OW32365   4.668   2.221  11.011 -0.8274  0.0408 -0.1888
 6969SOL    HW132366   4.720   2.195  11.087 -1.8372 -1.0192  0.1413
 6969SOL    HW232367   4.591   2.165  11.000 -0.1909 -0.7576 -0.5181
 6970SOL     OW32368   4.127   2.523  15.583  0.2075  0.3109 -0.1364
 6970SOL    HW132369   4.141   2.617  15.570 -2.1856  0.8243  1.0258
 6970SOL    HW232370   4.210   2.492  15.549 -0.8112 -1.6735 -0.8150
 6971SOL     OW32371   1.006   0.284  16.029 -0.0823 -0.3969  0.1626
 6971SOL    HW132372   0.966   0.251  15.949 -0.1574  1.7627 -0.6796
 6971SOL    HW232373   1.004   0.379  16.021 -1.3563 -0.3792  0.6974
 6972SOL     OW32374   3.322   0.937   7.548  0.5091  0.1270 -0.4170
 6972SOL    HW132375   3.347   0.898   7.465 -0.2511  0.6321 -0.8784
 6972SOL    HW232376   3.397   0.921   7.605 -0.2353  1.8511  1.0704
 6973SOL     OW32377   2.752   3.270  16.072  0.2862  0.2904  0.4697
 6973SOL    HW132378   2.780   3.256  16.162 -0.0188  2.9999  0.9928
 6973SOL    HW232379   2.671   3.220  16.079  0.6750 -0.6722 -1.7708
 6974SOL     OW32380   0.143   2.591   8.526  0.4700  0.2591  0.6901
 6974SOL    HW132381   0.210   2.553   8.584  1.3651  1.1833  0.2643
 6974SOL    HW232382   0.192   2.652   8.472  3.0127 -2.5520 -0.2065
 6975SOL     OW32383   0.834   4.624   6.667 -0.3333  0.5501  0.2922
 6975SOL    HW132384   0.743   4.607   6.691 -0.1666  2.3068  2.1028
 6975SOL    HW232385   0.813   4.664   6.582  2.9956 -2.2471 -1.8388
 6976SOL     OW32386   2.888   4.648   4.654  0.1026  0.2407  0.4623
 6976SOL    HW132387   2.978   4.675   4.640  0.5674 -1.6119 -0.1740
 6976SOL    HW232388   2.869   4.684   4.741 -1.7966 -4.1696  1.8911
 6977SOL     OW32389   3.495   4.436   2.496 -0.6152  0.4952  0.6894
 6977SOL    HW132390   3.404   4.458   2.517 -1.2766  0.3111 -1.9880
 6977SOL    HW232391   3.492   4.459   2.403 -0.4389 -1.8383  0.1266
 6978SOL     OW32392   0.918   3.033   3.908  0.6511  0.4795 -0.3949
 6978SOL    HW132393   0.977   3.032   3.833 -0.8282  0.1780 -1.5497
 6978SOL    HW232394   0.941   2.952   3.952  1.2144  0.2683 -1.0898
 6979SOL     OW32395   0.971   4.067  14.737 -0.7484  0.0428  0.4680
 6979SOL    HW132396   0.992   4.030  14.822  2.1086  0.5429 -0.0095
 6979SOL    HW232397   1.015   4.011  14.673  2.0235  2.1013  0.5837
 6980SOL     OW32398   3.396   0.721   2.736  0.1832  0.1647 -0.0181
 6980SOL    HW132399   3.335   0.753   2.670  0.2771 -1.7160 -1.0088
 6980SOL    HW232400   3.473   0.701   2.682  0.3929  2.3848 -0.5316
 6981SOL     OW32401   0.368   4.494   7.630 -0.0999  0.2447 -0.2179
 6981SOL    HW132402   0.414   4.578   7.639  1.6214 -0.5211 -1.7406
 6981SOL    HW232403   0.294   4.509   7.688 -0.2702  2.5494 -1.0084
 6982SOL     OW32404   3.608   1.689  10.885 -0.5070 -0.6456  0.1784
 6982SOL    HW132405   3.657   1.621  10.931  2.4964 -0.2325 -2.3411
 6982SOL    HW232406   3.635   1.774  10.920  0.1005 -0.8007  0.0859
 6983SOL     OW32407   1.264   0.799   1.753  0.8446 -0.3262 -0.2956
 6983SOL    HW132408   1.347   0.766   1.786  1.3366  2.6825  1.4864
 6983SOL    HW232409   1.238   0.727   1.695 -0.6725 -0.2351  0.2654
 6984SOL     OW32410   0.038   4.600   6.366 -0.0179  0.3444  0.7267
 6984SOL    HW132411   4.690   4.646   6.320 -2.2267 -3.4063  0.3657
 6984SOL    HW232412   0.013   4.515   6.330 -0.3054  0.2932  1.0431
 6985SOL     OW32413   0.171   3.072   3.828  0.7569  0.2906 -0.6420
 6985SOL    HW132414   0.121   3.150   3.804 -1.6420 -0.7727  0.9485
 6985SOL    HW232415   0.102   3.017   3.864 -0.1687  2.4069  0.8239
 6986SOL     OW32416   4.677   0.077  13.563 -0.1711  0.1233  0.3446
 6986SOL    HW132417   4.670   0.158  13.512 -0.7271 -0.7103 -0.8982
 6986SOL    HW232418   4.590   0.062  13.600  0.9557 -0.4173  2.7346
 6987SOL     OW32419   0.639   0.168   1.257  0.2161 -0.1098 -0.1285
 6987SOL    HW132420   0.649   0.076   1.279  4.3885 -0.0351 -1.7863
 6987SOL    HW232421   0.693   0.218   1.318 -0.4377 -0.0138  0.3699
 6988SOL     OW32422   4.716   4.517   0.978  0.1223 -0.0327  0.6149
 6988SOL    HW132423   4.666   4.569   1.042  2.7475  2.4557  0.6311
 6988SOL    HW232424   0.060   4.488   1.041  0.4088 -1.1448 -0.1985
 6989SOL     OW32425   1.962   3.715   2.721 -0.0781  0.6634  0.4809
 6989SOL    HW132426   2.009   3.780   2.669  2.5920  0.2341  2.3643
 6989SOL    HW232427   2.020   3.707   2.796 -1.8087  2.7773  2.0587
 6990SOL     OW32428   0.140   2.320   8.798  0.0151  0.0306 -0.3680
 6990SOL    HW132429   0.128   2.411   8.826 -0.6758  0.2721 -1.4630
 6990SOL    HW232430   0.219   2.337   8.746  0.3385 -1.3285 -0.3214
 6991SOL     OW32431   0.384   0.587  10.340  0.1997 -0.4995  0.3618
 6991SOL    HW132432   0.423   0.505  10.311  1.4485  0.6262 -1.1994
 6991SOL    HW232433   0.356   0.621  10.255  1.5257 -0.6611 -0.1401
 6992SOL     OW32434   4.168   0.107  17.290 -0.2373  0.5987 -0.2369
 6992SOL    HW132435   4.216   0.027  17.309 -0.1098  0.6675 -0.2646
 6992SOL    HW232436   4.216   0.157  17.357  0.9508 -1.5235  0.4917
 6993SOL     OW32437   3.975   4.161   5.507  0.2487 -0.5717  0.4027
 6993SOL    HW132438   3.971   4.254   5.485  0.3298 -0.6050  0.2411
 6993SOL    HW232439   4.065   4.158   5.540 -0.1068 -0.3222  1.3717
 6994SOL     OW32440   1.179   0.840  16.381 -0.0524 -1.0304  0.3881
 6994SOL    HW132441   1.111   0.773  16.389 -1.1639 -0.2542 -2.3290
 6994SOL    HW232442   1.147   0.907  16.441 -1.2359 -2.2064  1.0765
 6995SOL     OW32443   2.291   2.586   3.644  0.0311 -0.0481 -0.3989
 6995SOL    HW132444   2.365   2.527   3.658 -0.6020 -0.0980  2.6980
 6995SOL    HW232445   2.255   2.607   3.730 -0.8071  0.3068 -0.8347
 6996SOL     OW32446   2.001   3.419   9.555 -0.7628 -0.3385 -0.8214
 6996SOL    HW132447   2.007   3.330   9.521 -1.7717 -1.3542  1.6563
 6996SOL    HW232448   1.910   3.420   9.586 -1.2412  0.0826 -2.2364
 6997SOL     OW32449   3.535   1.319   2.370  0.4992 -0.3482  0.3805
 6997SOL    HW132450   3.563   1.350   2.284  1.2527  0.1410  0.8002
 6997SOL    HW232451   3.472   1.389   2.387  1.6591  0.4849  1.2571
 6998SOL     OW32452   2.667   2.532   8.840 -0.1232 -0.0467 -0.7970
 6998SOL    HW132453   2.590   2.477   8.853 -0.4381  0.4416 -0.6223
 6998SOL    HW232454   2.735   2.483   8.887 -0.5870  1.8289  1.8384
 6999SOL     OW32455   4.278   0.598   2.455  0.1327 -0.1252  0.1768
 6999SOL    HW132456   4.188   0.631   2.459  1.0324  1.9845  3.1405
 6999SOL    HW232457   4.321   0.662   2.399  0.3442 -0.5940 -0.1981
 7000SOL     OW32458   4.195   2.133  15.935 -0.1179  0.4268  0.1080
 7000SOL    HW132459   4.178   2.173  16.021 -1.7824 -0.6471  0.2649
 7000SOL    HW232460   4.194   2.209  15.877 -1.8931  0.5405  0.3006
 7001SOL     OW32461   3.012   4.376   3.423  0.1828  0.0111  0.0647
 7001SOL    HW132462   3.064   4.339   3.351 -1.4661 -2.7280  0.2703
 7001SOL    HW232463   2.996   4.293   3.469  0.7436  0.8713  1.7951
 7002SOL     OW32464   3.049   3.089   5.261 -0.7319 -0.0920  0.1995
 7002SOL    HW132465   3.102   3.106   5.339  0.4415 -1.7242 -0.2479
 7002SOL    HW232466   3.104   3.130   5.195  0.7987 -0.9134  0.9630
 7003SOL     OW32467   2.284   3.340   2.111 -0.3975  0.0687 -0.3169
 7003SOL    HW132468   2.362   3.286   2.121 -1.1713 -0.8383  0.9371
 7003SOL    HW232469   2.287   3.406   2.180  0.2650 -0.8757  0.5730
 7004SOL     OW32470   2.426   3.390   7.577 -0.4801  0.0468  0.1181
 7004SOL    HW132471   2.461   3.463   7.628 -0.8452  0.6631 -0.5161
 7004SOL    HW232472   2.424   3.316   7.638  0.3272  0.6299  0.8577
 7005SOL     OW32473   2.320   4.595  13.146 -0.0534  0.2000 -0.0960
 7005SOL    HW132474   2.403   4.611  13.190 -0.7079  1.8584  0.5143
 7005SOL    HW232475   2.312   4.499  13.143 -1.9773  0.3203  0.9513
 7006SOL     OW32476   1.157   3.782  12.569 -0.3449 -0.5690  0.2642
 7006SOL    HW132477   1.085   3.720  12.563 -0.4695 -0.1533 -2.2612
 7006SOL    HW232478   1.208   3.734  12.635  1.1311  1.9126  0.9611
 7007SOL     OW32479   2.020   0.934   2.554 -0.3244 -0.7358 -0.0134
 7007SOL    HW132480   1.926   0.951   2.543  0.2279  2.5682  0.3557
 7007SOL    HW232481   2.060   1.017   2.527  0.2985 -1.2188 -0.5489
 7008SOL     OW32482   0.796   3.046   7.438 -0.3294 -0.1726 -0.3723
 7008SOL    HW132483   0.839   2.988   7.375  0.3087  1.1332 -1.1140
 7008SOL    HW232484   0.724   3.085   7.388  1.0583  0.9561 -1.4825
 7009SOL     OW32485   0.504   0.595   6.585  0.1130  0.1517 -0.2140
 7009SOL    HW132486   0.576   0.644   6.624 -1.5401  1.6463  0.9544
 7009SOL    HW232487   0.552   0.522   6.545  0.9981 -0.8479  2.6658
 7010SOL     OW32488   0.567   2.377   9.818  0.5656 -0.5216  0.1971
 7010SOL    HW132489   0.492   2.334   9.776  0.8114 -0.6992 -0.0641
 7010SOL    HW232490   0.536   2.467   9.823  1.3426 -0.3017  0.9477
 7011SOL     OW32491   3.626   3.211   3.853 -0.5154  0.2306 -0.0909
 7011SOL    HW132492   3.709   3.259   3.850  1.3715 -2.9714  0.6063
 7011SOL    HW232493   3.655   3.125   3.823 -0.3473 -0.0891  1.0083
 7012SOL     OW32494   2.475   3.122   9.527 -0.4967 -0.5007 -0.4171
 7012SOL    HW132495   2.549   3.081   9.482  0.7063 -0.7964  1.8437
 7012SOL    HW232496   2.440   3.171   9.453 -0.4745 -0.4763 -0.4115
 7013SOL     OW32497   0.681   0.786   9.418 -0.9081 -0.3143 -0.4012
 7013SOL    HW132498   0.762   0.774   9.467 -1.4901  0.9365  0.8965
 7013SOL    HW232499   0.621   0.803   9.491 -1.3697 -0.5047 -0.7336
 7014SOL     OW32500   4.407   4.266   9.396  0.2732 -0.3219  0.4203
 7014SOL    HW132501   4.367   4.186   9.431 -0.4301  0.0803  0.5185
 7014SOL    HW232502   4.458   4.287   9.475  1.5518 -1.2819 -0.1352
 7015SOL     OW32503   2.251   0.969  11.579 -0.0215  0.0577 -0.4053
 7015SOL    HW132504   2.334   1.015  11.581 -1.4596  2.5285  1.8385
 7015SOL    HW232505   2.193   1.044  11.592 -1.2072 -1.0108  0.4911
 7016SOL     OW32506   3.230   4.401  14.089  0.0022 -0.4080  0.1332
 7016SOL    HW132507   3.259   4.476  14.140  2.7347 -1.5115  0.1808
 7016SOL    HW232508   3.287   4.336  14.129 -1.5397 -2.1389 -0.5027
 7017SOL     OW32509   3.764   1.507  16.072 -0.0443 -0.1361  0.0814
 7017SOL    HW132510   3.739   1.415  16.072 -3.5248  0.8118  1.3022
 7017SOL    HW232511   3.776   1.512  15.977  0.5434  1.5865  0.2382
 7018SOL     OW32512   3.568   4.159  14.633  0.3758 -0.3173 -0.0729
 7018SOL    HW132513   3.645   4.216  14.639 -0.4147  1.0044 -2.4018
 7018SOL    HW232514   3.608   4.072  14.631  0.7321 -0.1603  0.1978
 7019SOL     OW32515   0.277   2.507  12.415  0.4158  0.5784 -0.0080
 7019SOL    HW132516   0.335   2.463  12.353 -0.5225  1.3079 -1.3958
 7019SOL    HW232517   0.336   2.536  12.485  2.8308 -0.4617 -1.6154
 7020SOL     OW32518   0.475   2.278  10.241  0.3291  0.2000 -0.4293
 7020SOL    HW132519   0.416   2.257  10.169 -0.9195  0.6818  0.4456
 7020SOL    HW232520   0.543   2.211  10.244 -0.9910 -1.0350  2.1311
 7021SOL     OW32521   3.451   4.020  10.514 -0.0980 -0.1830 -0.2280
 7021SOL    HW132522   3.517   3.973  10.463 -0.7180 -2.0074  0.6689
 7021SOL    HW232523   3.373   3.993  10.467 -1.9267 -0.7747  3.1767
 7022SOL     OW32524   1.361   3.464  11.347  0.2612 -0.3934  0.6620
 7022SOL    HW132525   1.344   3.499  11.260 -0.7954  2.4692  2.0036
 7022SOL    HW232526   1.456   3.460  11.337  0.2313 -0.1279  0.2645
 7023SOL     OW32527   3.415   2.075   6.716 -0.2131 -0.2037 -0.0574
 7023SOL    HW132528   3.423   2.143   6.782 -1.1655  0.3686 -0.5375
 7023SOL    HW232529   3.503   2.060   6.682 -0.2660 -0.1812 -0.2033
 7024SOL     OW32530   1.848   1.148   6.715 -0.2926 -0.5600  0.2187
 7024SOL    HW132531   1.893   1.185   6.639  0.5674 -0.4332  0.7974
 7024SOL    HW232532   1.811   1.062   6.693 -1.9068 -0.1252  1.2655
 7025SOL     OW32533   1.898   2.456   6.069 -0.6470 -0.9440  0.0227
 7025SOL    HW132534   1.884   2.545   6.035 -1.9607 -1.6818 -1.3952
 7025SOL    HW232535   1.810   2.440   6.103 -0.1035  0.7465  2.2677
 7026SOL     OW32536   2.059   3.194  14.769 -0.4566  0.3480  0.3867
 7026SOL    HW132537   2.031   3.149  14.848  0.1439 -1.5356 -0.4890
 7026SOL    HW232538   1.997   3.149  14.711  3.1976 -2.1209 -1.6168
 7027SOL     OW32539   4.273   0.865  13.075  0.1783  0.0329  0.2239
 7027SOL    HW132540   4.244   0.949  13.111  1.0748 -0.8378  2.9056
 7027SOL    HW232541   4.350   0.885  13.022  0.3267  0.3399  0.5566
 7028SOL     OW32542   1.738   0.336   2.494  0.3646 -0.0887 -0.0312
 7028SOL    HW132543   1.642   0.342   2.499  0.3082 -0.4237 -0.7528
 7028SOL    HW232544   1.737   0.241   2.485 -0.6194  0.0768 -1.6315
 7029SOL     OW32545   3.094   0.655   5.613  0.1955  0.0275 -0.1925
 7029SOL    HW132546   3.018   0.700   5.575  0.0777 -0.1705 -0.1885
 7029SOL    HW232547   3.072   0.661   5.706  0.3839  2.3819 -0.3010
 7030SOL     OW32548   0.135   3.070   7.767 -0.0107 -0.3657  0.1667
 7030SOL    HW132549   0.190   3.028   7.701  0.0830  0.2133 -0.1186
 7030SOL    HW232550   0.074   3.133   7.727  0.4277  0.6802  1.1519
 7031SOL     OW32551   0.442   1.677   0.949 -0.2822 -0.2830  0.2188
 7031SOL    HW132552   0.386   1.737   0.999 -1.3831 -0.1682 -1.1466
 7031SOL    HW232553   0.438   1.590   0.989  0.0333  0.0232  0.9118
 7032SOL     OW32554   1.796   1.489  17.009  0.3509  0.0397 -0.3671
 7032SOL    HW132555   1.766   1.508  16.920  0.2708  0.6117 -0.2212
 7032SOL    HW232556   1.815   1.396  16.993  1.8350  0.5567 -1.6978
 7033SOL     OW32557   0.608   4.348   7.544  0.4539  0.3652 -0.3103
 7033SOL    HW132558   0.542   4.418   7.543 -1.3052 -1.2883  1.3990
 7033SOL    HW232559   0.619   4.335   7.450  0.6303  1.8157 -0.5002
 7034SOL     OW32560   2.745   4.270   7.116  0.2001 -0.0862 -0.0122
 7034SOL    HW132561   2.782   4.339   7.170 -0.7004  2.7367 -2.9669
 7034SOL    HW232562   2.822   4.214   7.104  0.2220  0.0152 -0.3545
 7035SOL     OW32563   0.119   1.342   7.479 -0.4885 -0.5682  0.0581
 7035SOL    HW132564   0.056   1.408   7.507 -1.3367 -1.3320 -0.0499
 7035SOL    HW232565   0.087   1.272   7.536  0.5011 -2.2832 -1.4938
 7036SOL     OW32566   1.111   3.803  13.419  0.3992 -0.0215 -0.3721
 7036SOL    HW132567   1.200   3.825  13.446  0.6077 -1.5100  0.1439
 7036SOL    HW232568   1.065   3.794  13.502  2.3011 -0.1456  0.6604
 7037SOL     OW32569   4.399   2.255   3.777 -0.0247  0.4138 -0.6243
 7037SOL    HW132570   4.309   2.262   3.747 -0.2567 -2.6042 -0.6296
 7037SOL    HW232571   4.454   2.243   3.700 -1.6358 -0.9989 -1.5531
 7038SOL     OW32572   3.330   1.282  14.866 -0.1978  0.3601  0.3468
 7038SOL    HW132573   3.310   1.317  14.779 -2.2314  0.6442  0.9196
 7038SOL    HW232574   3.255   1.223  14.857  0.0290  0.4555 -2.3860
 7039SOL     OW32575   4.434   0.814   2.391  0.1390 -0.5933  0.2636
 7039SOL    HW132576   4.442   0.809   2.296 -0.1124  2.0398  0.0894
 7039SOL    HW232577   4.509   0.763   2.420 -0.4848 -1.8320 -0.3223
 7040SOL     OW32578   0.564   1.071  15.891  0.0765  0.7770  0.4074
 7040SOL    HW132579   0.631   1.058  15.823 -1.6879 -1.3635 -0.9228
 7040SOL    HW232580   0.541   1.160  15.865  0.0584  0.7171  0.2185
 7041SOL     OW32581   4.247   0.996   5.748  0.3513 -0.0147  0.8928
 7041SOL    HW132582   4.266   1.058   5.677 -1.0940 -3.5375 -2.5093
 7041SOL    HW232583   4.152   1.005   5.753  0.1594 -1.6215 -0.0259
 7042SOL     OW32584   3.028   1.374   3.621 -0.4407  0.0079  0.2641
 7042SOL    HW132585   3.118   1.374   3.590  0.2114 -0.6684  2.2082
 7042SOL    HW232586   3.011   1.280   3.614 -1.7097  0.2929 -0.5852
 7043SOL     OW32587   2.422   2.683  17.091  0.9032  0.2564  0.0589
 7043SOL    HW132588   2.396   2.632  17.014 -0.6930  0.8201  0.2162
 7043SOL    HW232589   2.494   2.736  17.059  1.2330 -0.6556 -0.7034
 7044SOL     OW32590   0.008   0.229  15.270  0.2341 -0.1707 -0.3281
 7044SOL    HW132591   0.028   0.246  15.178  0.9985  0.8315  0.0114
 7044SOL    HW232592   4.681   0.304  15.304 -1.5319 -2.0934  1.3538
 7045SOL     OW32593   2.934   2.451   2.072  0.4176  0.0158  0.0743
 7045SOL    HW132594   2.947   2.437   1.979  1.8800 -1.0635  0.4413
 7045SOL    HW232595   2.855   2.504   2.082  1.2587  1.3948 -0.6827
 7046SOL     OW32596   0.008   3.403   7.668 -0.1358  0.3376 -0.5574
 7046SOL    HW132597   0.075   3.441   7.724 -0.1960 -1.7473  0.9332
 7046SOL    HW232598   4.671   3.367   7.733  1.0301 -1.8399 -0.6755
 7047SOL     OW32599   0.681   2.419   5.719 -0.3107 -0.6097 -0.4296
 7047SOL    HW132600   0.653   2.344   5.772 -1.0099 -0.0698 -0.0291
 7047SOL    HW232601   0.613   2.483   5.739  0.6430  0.4247 -0.5398
 7048SOL     OW32602   1.211   4.484   3.054  0.1534  0.2495 -0.6230
 7048SOL    HW132603   1.143   4.424   3.085  2.2882 -2.6103 -1.5819
 7048SOL    HW232604   1.276   4.452   3.117 -0.6828  0.6247  0.4305
 7049SOL     OW32605   2.495   3.485  11.878  0.0139  0.0149  0.1452
 7049SOL    HW132606   2.538   3.531  11.949  2.8010 -1.4471 -0.5814
 7049SOL    HW232607   2.543   3.402  11.878  2.1319  1.2453 -1.0791
 7050SOL     OW32608   1.191   2.105   4.864 -0.8012 -0.2987  0.1752
 7050SOL    HW132609   1.229   2.138   4.783 -0.1506  0.2300  0.6933
 7050SOL    HW232610   1.268   2.109   4.920 -1.3460 -2.5750  1.0791
 7051SOL     OW32611   0.751   0.629   6.677  0.1327 -0.6603 -0.2715
 7051SOL    HW132612   0.821   0.573   6.645  0.2782 -0.6849  0.0913
 7051SOL    HW232613   0.722   0.596   6.763  0.6853 -0.0838  0.1314
 7052SOL     OW32614   1.414   3.018   3.841 -0.2263 -0.3674  0.0356
 7052SOL    HW132615   1.496   3.060   3.817  0.2719 -0.6570  1.2183
 7052SOL    HW232616   1.432   2.929   3.811 -2.0663 -0.1500 -1.7776
 7053SOL     OW32617   0.649   0.791   3.079 -0.6654 -0.6343  0.5837
 7053SOL    HW132618   0.734   0.822   3.110 -1.2412  2.2128 -0.7594
 7053SOL    HW232619   0.672   0.752   2.995  1.6626  1.4498  0.2571
 7054SOL     OW32620   1.898   1.450  13.072  0.1943  0.2470 -0.4647
 7054SOL    HW132621   1.924   1.436  13.163  0.9180  2.2274 -0.3692
 7054SOL    HW232622   1.810   1.483  13.090  0.6963  2.4182 -1.8798
 7055SOL     OW32623   0.724   3.948   5.920 -0.9115 -0.3279  0.5993
 7055SOL    HW132624   0.773   3.972   5.999 -1.2452  1.7786  0.1719
 7055SOL    HW232625   0.773   3.870   5.894 -0.1706  0.6370 -0.8783
 7056SOL     OW32626   0.963   0.374  13.157 -0.0022 -0.0116 -0.2950
 7056SOL    HW132627   1.049   0.410  13.181 -1.0644  2.2893  0.0271
 7056SOL    HW232628   0.945   0.407  13.069  0.2948 -0.1323 -0.4002
 7057SOL     OW32629   0.837   2.153   8.214 -0.2646 -0.8699  0.1935
 7057SOL    HW132630   0.795   2.217   8.273  0.5648  0.2873 -0.4890
 7057SOL    HW232631   0.804   2.182   8.129  0.2707 -0.5858  0.0845
 7058SOL     OW32632   4.565   1.026   0.323  0.1802 -0.4430  0.2181
 7058SOL    HW132633   4.553   1.117   0.351 -0.5697 -0.4854  0.0384
 7058SOL    HW232634   4.477   0.988   0.331 -0.3651  0.3134 -2.4979
 7059SOL     OW32635   1.707   2.594   5.429  0.3442  0.3590 -0.0005
 7059SOL    HW132636   1.634   2.621   5.374  1.0549  2.6789  0.1911
 7059SOL    HW232637   1.763   2.671   5.432  0.3932  0.2945  0.6674
 7060SOL     OW32638   3.570   0.233   5.362 -0.1303  0.1625  0.1351
 7060SOL    HW132639   3.606   0.316   5.332  0.8284 -1.1097 -2.2832
 7060SOL    HW232640   3.653   0.192   5.385  0.2101  0.1169 -1.1547
 7061SOL     OW32641   3.812   4.479  14.859  0.3273  0.1884  0.1870
 7061SOL    HW132642   3.725   4.520  14.858  0.5437  0.6350 -0.5039
 7061SOL    HW232643   3.871   4.540  14.904  1.4544  0.1805 -1.3124
 7062SOL     OW32644   3.092   0.363   1.183 -0.4269  0.2878  0.7774
 7062SOL    HW132645   3.008   0.372   1.139  0.9066  0.5563 -1.6902
 7062SOL    HW232646   3.159   0.406   1.129 -1.1579  0.6806  0.1846
 7063SOL     OW32647   0.429   3.243   4.281  0.4114  0.2994 -0.4436
 7063SOL    HW132648   0.422   3.147   4.279  2.3414  0.1847 -2.0582
 7063SOL    HW232649   0.391   3.270   4.197  0.1381  1.5503  0.0955
 7064SOL     OW32650   2.397   3.454   8.982 -0.0147  0.2221 -0.0753
 7064SOL    HW132651   2.424   3.364   9.003  1.4872  0.2688 -1.7872
 7064SOL    HW232652   2.478   3.504   8.975 -0.7427  1.4237 -0.0061
 7065SOL     OW32653   3.390   4.065   4.348  0.3118 -0.0921  0.3676
 7065SOL    HW132654   3.303   4.067   4.388  0.0855 -2.1300 -0.0255
 7065SOL    HW232655   3.419   3.974   4.352  4.0502  0.9517 -3.3159
 7066SOL     OW32656   3.179   3.488   3.931 -0.3031  0.0920  0.0387
 7066SOL    HW132657   3.120   3.448   3.868 -1.0463 -1.6244  1.8185
 7066SOL    HW232658   3.260   3.450   3.898  0.5361 -0.4904  2.7816
 7067SOL     OW32659   3.205   1.446   4.063 -0.1875  0.1216  0.5919
 7067SOL    HW132660   3.268   1.411   4.000 -0.7403  1.7674 -0.8504
 7067SOL    HW232661   3.264   1.466   4.136  0.3381  1.1646 -0.1088
 7068SOL     OW32662   0.196   2.875   2.958 -0.3841 -0.8125 -0.1344
 7068SOL    HW132663   0.175   2.881   3.051 -0.3330 -1.3556 -0.0874
 7068SOL    HW232664   0.109   2.890   2.921  0.9395  0.4277 -2.7333
 7069SOL     OW32665   4.348   0.539  17.582 -0.0804 -0.1769  0.0404
 7069SOL    HW132666   4.385   0.594  17.513 -0.3072 -1.9909 -1.5393
 7069SOL    HW232667   4.331   0.459  17.532 -0.6146  0.1066 -0.2328
 7070SOL     OW32668   2.433   4.522   2.632  0.2569 -0.2244 -0.3098
 7070SOL    HW132669   2.384   4.441   2.615  0.3609  0.0422 -1.8860
 7070SOL    HW232670   2.385   4.561   2.705  0.2944 -0.9101  0.0802
 7071SOL     OW32671   2.236   0.349  11.829 -0.4308 -0.4685  0.0131
 7071SOL    HW132672   2.231   0.259  11.797 -2.0687 -0.1159 -0.7462
 7071SOL    HW232673   2.288   0.386  11.758  0.3495  0.3015  0.9884
 7072SOL     OW32674   0.388   4.669   2.596 -0.2538  0.1301  0.2938
 7072SOL    HW132675   0.305   4.685   2.642 -0.1667  0.1249  0.4525
 7072SOL    HW232676   0.370   4.597   2.536  2.4857 -0.1038 -0.2442
 7073SOL     OW32677   2.945   4.118   3.572 -0.1312 -0.4520 -0.0556
 7073SOL    HW132678   2.928   4.166   3.653  1.7431  0.3072 -0.1164
 7073SOL    HW232679   2.899   4.036   3.592 -0.7520 -0.3344 -1.0218
 7074SOL     OW32680   1.328   3.897   9.451 -0.0628  0.5425 -0.0241
 7074SOL    HW132681   1.417   3.911   9.483  0.0499 -0.1773 -0.0211
 7074SOL    HW232682   1.340   3.824   9.390  1.6490  0.3697  0.5010
 7075SOL     OW32683   4.219   3.733   7.500  0.2221  0.0595  0.3397
 7075SOL    HW132684   4.241   3.735   7.593 -0.0494  0.6079  0.3954
 7075SOL    HW232685   4.205   3.825   7.478 -3.2122 -0.8865 -1.5613
 7076SOL     OW32686   2.958   4.382   7.957 -0.2511  0.1598 -0.3671
 7076SOL    HW132687   2.926   4.438   8.028  1.5160 -0.4956  0.9572
 7076SOL    HW232688   2.928   4.297   7.988 -0.4520  0.4212  0.1629
 7077SOL     OW32689   4.503   1.919   8.750 -0.2402 -0.1134 -0.0633
 7077SOL    HW132690   4.515   1.946   8.659  2.1892 -1.0115 -0.0039
 7077SOL    HW232691   4.590   1.940   8.785 -0.6329 -0.2855  1.0310
 7078SOL     OW32692   0.032   1.141   7.631  0.3679 -0.0449  0.0504
 7078SOL    HW132693   0.015   1.188   7.713 -2.6930  1.3002 -1.3418
 7078SOL    HW232694   4.677   1.084   7.636 -0.6600  1.3708  0.2595
 7079SOL     OW32695   3.559   1.794   2.893  0.1445  0.8672 -0.1066
 7079SOL    HW132696   3.552   1.770   2.800 -1.0788  2.3037 -0.3706
 7079SOL    HW232697   3.648   1.830   2.892  1.2926 -1.9307 -0.4779
 7080SOL     OW32698   3.868   1.567  16.319  0.1392  0.4809  0.5275
 7080SOL    HW132699   3.818   1.517  16.384 -0.2047 -1.7915 -1.4499
 7080SOL    HW232700   3.839   1.530  16.236  0.3712  0.4561  0.4597
 7081SOL     OW32701   3.723   1.031  11.780 -0.9769  0.0259  0.7127
 7081SOL    HW132702   3.799   0.973  11.771 -1.4792 -0.5647  0.2410
 7081SOL    HW232703   3.690   1.011  11.692  1.9488 -0.5189 -0.2825
 7082SOL     OW32704   2.951   1.276  10.804 -0.5142 -0.5124 -0.2514
 7082SOL    HW132705   2.944   1.346  10.739 -1.2233  0.4277  0.8411
 7082SOL    HW232706   2.868   1.264  10.850 -1.4285 -2.0436 -2.3230
 7083SOL     OW32707   3.196   0.930   4.969 -0.1494  0.2646  0.0108
 7083SOL    HW132708   3.250   0.860   5.007  1.2488  1.1256 -0.4112
 7083SOL    HW232709   3.121   0.916   5.027  0.5030  1.3712  1.1074
 7084SOL     OW32710   0.678   0.943   6.406  0.3658  0.2368 -0.5791
 7084SOL    HW132711   0.740   0.914   6.339 -1.6601 -1.8526 -1.5188
 7084SOL    HW232712   0.617   0.871   6.390  0.5514 -0.1805  0.5419
 7085SOL     OW32713   0.542   2.704   8.666  0.5393  0.1487  0.3160
 7085SOL    HW132714   0.622   2.694   8.719  0.1096 -2.0671  0.5742
 7085SOL    HW232715   0.578   2.681   8.580 -1.6980  0.3302 -0.6502
 7086SOL     OW32716   4.061   1.403   0.612  0.2092 -0.2612  0.3026
 7086SOL    HW132717   4.064   1.371   0.702  1.3141 -2.4062 -0.4958
 7086SOL    HW232718   3.975   1.446   0.612  0.6854  0.6992 -1.3553
 7087SOL     OW32719   4.394   3.553   7.776  0.8118  0.3939  0.0877
 7087SOL    HW132720   4.464   3.489   7.789 -1.3478 -2.2473 -1.2455
 7087SOL    HW232721   4.441   3.636   7.779 -1.6497  1.8731 -2.8427
 7088SOL     OW32722   3.441   0.799   8.414 -0.5935  0.2171 -0.2886
 7088SOL    HW132723   3.446   0.704   8.403 -1.5228  0.3143 -1.5932
 7088SOL    HW232724   3.348   0.818   8.398 -1.4745 -2.5485  1.5676
 7089SOL     OW32725   1.484   0.777   6.744  0.0028  0.3907  0.8017
 7089SOL    HW132726   1.441   0.696   6.772 -2.7950  0.8971 -2.0069
 7089SOL    HW232727   1.404   0.830   6.747 -0.1292  0.2623 -0.6471
 7090SOL     OW32728   3.145   1.693   8.360 -0.0363  0.5564  0.3159
 7090SOL    HW132729   3.159   1.618   8.302 -0.5217 -0.1102  1.0605
 7090SOL    HW232730   3.176   1.762   8.301 -0.2937 -1.9387 -2.7614
 7091SOL     OW32731   0.323   2.557   4.524  0.1072 -0.2642 -0.1575
 7091SOL    HW132732   0.324   2.467   4.492  1.4669 -0.6531  0.9579
 7091SOL    HW232733   0.230   2.575   4.515 -0.1089 -0.3841  1.7717
 7092SOL     OW32734   1.557   2.416   8.853 -0.1228 -0.2783  0.0934
 7092SOL    HW132735   1.472   2.377   8.874 -0.7761  1.0760 -0.0595
 7092SOL    HW232736   1.564   2.486   8.917  0.6040 -1.3373  1.1612
 7093SOL     OW32737   0.369   2.966   4.179  0.4852  0.4151  0.0319
 7093SOL    HW132738   0.303   2.898   4.189 -0.4616  1.4734  0.9672
 7093SOL    HW232739   0.450   2.918   4.199  0.7769  0.3873 -1.1836
 7094SOL     OW32740   4.462   1.590  11.801  0.4505  0.1223  0.0636
 7094SOL    HW132741   4.492   1.635  11.723 -0.9397  0.0317 -0.5328
 7094SOL    HW232742   4.373   1.621  11.816  0.3328  1.0825 -2.6555
 7095SOL     OW32743   1.401   3.937   5.167  0.0520 -0.4720  0.5561
 7095SOL    HW132744   1.455   3.898   5.098 -1.3264  0.9765 -1.3203
 7095SOL    HW232745   1.337   3.868   5.183 -1.1810  0.4456 -0.4693
 7096SOL     OW32746   0.525   1.061   4.200  0.8238  0.7528 -0.2754
 7096SOL    HW132747   0.603   1.063   4.256  0.5218  0.6977  0.1489
 7096SOL    HW232748   0.477   0.987   4.239  0.5146  0.9378 -0.3091
 7097SOL     OW32749   2.269   3.225  15.993 -0.4188  0.2859 -0.4012
 7097SOL    HW132750   2.217   3.220  15.912  1.3007 -2.1008 -1.3584
 7097SOL    HW232751   2.206   3.216  16.064  1.1178 -0.8199  0.8216
 7098SOL     OW32752   2.266   3.646   5.499 -0.2142 -0.2187 -0.1731
 7098SOL    HW132753   2.342   3.699   5.477 -1.1596  1.0796 -0.3262
 7098SOL    HW232754   2.231   3.628   5.412  0.1512  0.8438 -0.5391
 7099SOL     OW32755   2.829   2.190   8.795 -0.4001  0.1635  0.3246
 7099SOL    HW132756   2.860   2.126   8.730  0.8268 -1.1644  2.2098
 7099SOL    HW232757   2.785   2.126   8.852  2.2228 -1.3150  0.7123
 7100SOL     OW32758   0.960   1.252   0.470 -0.4075  0.1248 -0.2849
 7100SOL    HW132759   0.957   1.345   0.448 -2.0598 -0.0206 -0.6873
 7100SOL    HW232760   1.009   1.254   0.552  0.0765 -0.0195 -0.5715
 7101SOL     OW32761   3.103   2.290  12.418  0.1190 -0.4520 -0.3847
 7101SOL    HW132762   3.116   2.200  12.388  1.0998 -0.9872  1.6811
 7101SOL    HW232763   3.188   2.311  12.456 -0.1996 -0.7536  0.4899
 7102SOL     OW32764   4.479   1.291   8.135  0.1934 -0.1419 -0.3121
 7102SOL    HW132765   4.485   1.247   8.051  0.4488 -1.5415  0.4388
 7102SOL    HW232766   4.387   1.317   8.136  0.4489  0.7713 -0.0429
 7103SOL     OW32767   3.319   1.981   5.596  0.0467 -0.1245  0.4207
 7103SOL    HW132768   3.327   2.036   5.674 -0.3903 -0.4030  0.6659
 7103SOL    HW232769   3.250   1.917   5.616 -1.0707  0.3809 -1.8178
 7104SOL     OW32770   2.760   4.289   0.121 -0.3440 -0.1593 -0.2098
 7104SOL    HW132771   2.673   4.258   0.143 -0.3868  0.8900  1.1352
 7104SOL    HW232772   2.813   4.252   0.192 -0.2311  1.9523  0.8401
 7105SOL     OW32773   4.292   4.128   9.182  0.0513 -0.6656  0.2959
 7105SOL    HW132774   4.294   4.177   9.099 -2.6692  1.0742  1.2651
 7105SOL    HW232775   4.321   4.193   9.246 -1.5518  0.0426  0.3121
 7106SOL     OW32776   1.721   3.684   7.152  0.0199  0.1789  0.0437
 7106SOL    HW132777   1.698   3.679   7.245 -0.4725 -0.9169 -0.1405
 7106SOL    HW232778   1.664   3.611   7.127 -0.6048  0.5929  0.2626
 7107SOL     OW32779   0.408   1.128   1.298 -0.9192 -0.2069  0.2106
 7107SOL    HW132780   0.480   1.069   1.323 -0.3324  0.5944  0.4333
 7107SOL    HW232781   0.348   1.068   1.256  0.1483  1.3257 -3.4845
 7108SOL     OW32782   3.520   2.313   5.685 -0.7996 -0.2632 -0.1694
 7108SOL    HW132783   3.469   2.252   5.738  1.2734 -1.0168  0.9601
 7108SOL    HW232784   3.496   2.397   5.725 -1.0975 -0.9839  1.1649
 7109SOL     OW32785   3.749   2.379   5.546 -0.1272 -0.4301 -0.0651
 7109SOL    HW132786   3.776   2.319   5.478  0.3946  0.1735 -0.3869
 7109SOL    HW232787   3.688   2.332   5.603 -1.0269 -0.0904 -0.7484
 7110SOL     OW32788   3.343   2.476   3.180 -0.0125 -0.2201 -0.3290
 7110SOL    HW132789   3.407   2.440   3.241 -3.2854  2.6041  4.7858
 7110SOL    HW232790   3.339   2.417   3.105 -0.4016 -3.6464  2.3792
 7111SOL     OW32791   0.124   2.048  17.205 -0.1141  0.0547 -0.2036
 7111SOL    HW132792   0.138   1.962  17.245  2.0749 -0.8214 -2.8502
 7111SOL    HW232793   0.103   2.104  17.280 -0.3154  0.0939 -0.2897
 7112SOL     OW32794   3.589   4.385   7.008  0.0659 -0.0218  0.1051
 7112SOL    HW132795   3.652   4.365   6.939  1.0391  1.7393  0.4727
 7112SOL    HW232796   3.647   4.427   7.071  1.9686 -1.9724 -0.3738
 7113SOL     OW32797   0.353   1.528  12.949  0.3930  0.1603 -0.0798
 7113SOL    HW132798   0.385   1.590  12.882  0.3536 -0.5847 -0.7915
 7113SOL    HW232799   0.397   1.454  12.907  1.2476  0.7748 -0.2857
 7114SOL     OW32800   0.140   0.572   3.122 -0.8703  0.2583 -0.1083
 7114SOL    HW132801   0.047   0.568   3.148 -1.3622  0.2106 -1.8959
 7114SOL    HW232802   0.159   0.486   3.159 -2.4125 -0.2137 -0.4251
 7115SOL     OW32803   2.855   0.598  15.392  0.3418  0.7868  0.1530
 7115SOL    HW132804   2.875   0.505  15.403 -2.1628  0.2290  0.0138
 7115SOL    HW232805   2.763   0.593  15.366 -0.0851 -0.1779  1.8698
 7116SOL     OW32806   2.017   0.199   2.589 -0.1640  0.5587  0.4038
 7116SOL    HW132807   2.097   0.215   2.539 -0.3320 -0.8787 -0.3480
 7116SOL    HW232808   1.948   0.235   2.533 -0.4948 -1.0663 -0.2531
 7117SOL     OW32809   4.496   3.431  11.981  0.0793 -0.2972  0.1554
 7117SOL    HW132810   4.451   3.442  12.065 -1.6895 -1.1579 -0.6770
 7117SOL    HW232811   4.585   3.448  12.010  0.7568 -2.7914 -0.4851
 7118SOL     OW32812   0.258   2.142  10.950 -0.1108 -0.1592 -0.0586
 7118SOL    HW132813   0.204   2.212  10.987 -2.4952 -0.3344 -3.1784
 7118SOL    HW232814   0.322   2.201  10.911  1.1318 -0.6298  1.2459
 7119SOL     OW32815   1.053   4.441   1.968 -0.4417  0.0357  0.1801
 7119SOL    HW132816   0.992   4.394   1.910  0.8573 -3.5449  1.7000
 7119SOL    HW232817   1.022   4.399   2.048  0.3527 -0.6584  0.1174
 7120SOL     OW32818   2.023   4.421   6.677 -0.3077 -0.1437 -0.3336
 7120SOL    HW132819   2.091   4.356   6.696 -1.7227 -1.4040  0.3687
 7120SOL    HW232820   2.037   4.487   6.745  1.9913 -1.7826  0.8095
 7121SOL     OW32821   1.179   2.845   7.799  0.4990  0.2172  0.2920
 7121SOL    HW132822   1.093   2.804   7.806 -1.6982  5.2301  2.7406
 7121SOL    HW232823   1.210   2.807   7.882 -2.3904 -1.4326  0.6059
 7122SOL     OW32824   2.211   0.403  12.122 -0.1005  0.0942  0.0709
 7122SOL    HW132825   2.215   0.374  12.031 -2.5381  0.8926 -0.2976
 7122SOL    HW232826   2.283   0.346  12.148 -2.9180 -3.1391  0.8871
 7123SOL     OW32827   3.884   2.323   2.777 -0.5467  0.2142  0.7638
 7123SOL    HW132828   3.939   2.319   2.855  0.7633 -0.2094 -0.1896
 7123SOL    HW232829   3.930   2.391   2.728  0.6985  1.5255  3.7310
 7124SOL     OW32830   0.060   0.669  13.037 -0.4346 -0.2154  0.0834
 7124SOL    HW132831   0.091   0.653  12.948  0.6396  2.2322  0.0070
 7124SOL    HW232832   0.129   0.730  13.065 -1.3137  1.2750 -0.9832
 7125SOL     OW32833   3.642   3.411   5.104 -0.2874  0.3313  1.0527
 7125SOL    HW132834   3.560   3.433   5.149 -1.1052 -0.6354  0.0687
 7125SOL    HW232835   3.704   3.442   5.170  0.1822  1.3360  0.1359
 7126SOL     OW32836   3.807   0.320   8.966 -0.0089 -0.5319 -0.2420
 7126SOL    HW132837   3.828   0.411   8.945  0.7768  0.1765  3.6336
 7126SOL    HW232838   3.879   0.296   9.024  1.6086 -0.5750 -2.2593
 7127SOL     OW32839   1.594   1.353   1.035 -0.2026  0.4512 -0.0836
 7127SOL    HW132840   1.607   1.445   1.012 -0.8114  0.6594  0.4251
 7127SOL    HW232841   1.679   1.315   1.012 -0.6008 -1.0561  0.9739
 7128SOL     OW32842   3.315   3.268   4.287 -0.1301  0.2075  0.0011
 7128SOL    HW132843   3.247   3.253   4.221  1.1013  0.0200 -1.2230
 7128SOL    HW232844   3.269   3.274   4.371  1.5891 -1.4623  1.0590
 7129SOL     OW32845   3.584   3.217  11.464  0.0325  0.4094  1.0002
 7129SOL    HW132846   3.638   3.150  11.421 -0.0700 -0.9815  3.0123
 7129SOL    HW232847   3.595   3.281  11.394 -3.3146 -0.0859  0.0078
 7130SOL     OW32848   0.157   4.701   2.896  0.3859 -0.1981 -0.0093
 7130SOL    HW132849   0.134   4.695   2.803  1.6735  0.0012 -0.3374
 7130SOL    HW232850   0.211   0.058   2.901 -1.1259  0.7577  1.0420
 7131SOL     OW32851   2.998   4.128  17.515  0.9008 -0.3914  0.6136
 7131SOL    HW132852   3.063   4.086  17.458  0.2308  0.3923 -0.7270
 7131SOL    HW232853   3.010   4.078  17.595  0.2694 -0.2616  0.7862
 7132SOL     OW32854   3.277   0.591   0.707 -0.6323 -0.4380 -0.2881
 7132SOL    HW132855   3.369   0.618   0.715 -0.8939  0.6012 -0.8142
 7132SOL    HW232856   3.231   0.672   0.729 -0.1239 -1.1093  3.2222
 7133SOL     OW32857   0.907   4.636   2.124  0.0575  0.2091 -0.1089
 7133SOL    HW132858   0.969   4.669   2.188 -0.3538 -0.2564  0.5315
 7133SOL    HW232859   0.963   4.591   2.060 -0.4728  2.6907 -2.3233
 7134SOL     OW32860   2.916   4.089   7.014  0.3772 -0.1510  0.6294
 7134SOL    HW132861   2.908   4.021   7.080 -3.8180 -0.3652 -0.0531
 7134SOL    HW232862   3.006   4.080   6.985  0.4765  0.1668  0.8436
 7135SOL     OW32863   3.388   2.407  16.040 -0.5832  0.3287  0.2813
 7135SOL    HW132864   3.447   2.469  15.996  0.2631 -2.4485 -2.4852
 7135SOL    HW232865   3.451   2.341  16.070  0.2683  0.2010 -1.7748
 7136SOL     OW32866   3.293   4.292   2.939 -0.1355 -0.2793  0.1761
 7136SOL    HW132867   3.303   4.220   3.003 -0.8727 -0.7663 -0.2510
 7136SOL    HW232868   3.226   4.261   2.879  0.4975  0.0957 -0.7098
 7137SOL     OW32869   4.389   2.766   4.072 -0.2584 -0.4594 -0.8801
 7137SOL    HW132870   4.405   2.748   3.979  0.9115 -0.0117 -0.7647
 7137SOL    HW232871   4.297   2.789   4.064  0.0465  0.3985 -1.8366
 7138SOL     OW32872   3.841   1.320   7.309  0.6763  0.3646 -0.4511
 7138SOL    HW132873   3.852   1.377   7.233  0.3183 -1.0573 -1.5728
 7138SOL    HW232874   3.791   1.377   7.367  0.6057  1.8409 -1.9745
 7139SOL     OW32875   1.471   1.647   8.645  0.6251  0.6184  0.6661
 7139SOL    HW132876   1.459   1.623   8.737 -0.0061 -1.2335  0.0962
 7139SOL    HW232877   1.472   1.560   8.607 -2.0609  1.7558 -1.9840
 7140SOL     OW32878   1.490   1.406   3.180  0.2006 -0.1904 -0.3233
 7140SOL    HW132879   1.399   1.397   3.152 -0.5661  0.8438  1.7709
 7140SOL    HW232880   1.506   1.500   3.168 -0.2577 -0.2127 -1.0459
 7141SOL     OW32881   4.690   1.141   4.481 -0.4454 -0.5699 -0.0368
 7141SOL    HW132882   4.642   1.085   4.419 -0.3523 -1.1983  0.4587
 7141SOL    HW232883   4.622   1.207   4.497 -0.2515 -0.2292 -0.6141
 7142SOL     OW32884   1.162   0.834   4.006 -0.4912  0.0104 -0.5371
 7142SOL    HW132885   1.126   0.866   4.088  1.9615  3.2165 -0.7056
 7142SOL    HW232886   1.078   0.815   3.965  0.8991 -0.0914 -3.3451
 7143SOL     OW32887   0.821   3.768  17.384 -0.1902 -0.7652 -0.1267
 7143SOL    HW132888   0.796   3.772  17.476  4.4087  2.4584  0.9800
 7143SOL    HW232889   0.882   3.695  17.397  2.6525  1.6241 -0.1324
 7144SOL     OW32890   4.512   3.611   2.296 -0.1109  0.2906 -0.3524
 7144SOL    HW132891   4.521   3.606   2.391 -1.6882 -0.0195 -0.2177
 7144SOL    HW232892   4.571   3.541   2.269 -1.2116 -0.4797 -0.7527
 7145SOL     OW32893   2.405   0.532  13.365  0.0993  0.0816 -0.0090
 7145SOL    HW132894   2.385   0.439  13.369  0.4635  0.0053  0.0285
 7145SOL    HW232895   2.453   0.542  13.447  0.8317 -1.7662 -0.2198
 7146SOL     OW32896   0.631   2.948   3.830  0.2571 -0.3511 -0.2829
 7146SOL    HW132897   0.689   2.996   3.889 -0.0742 -2.3334  1.6616
 7146SOL    HW232898   0.546   2.988   3.847  1.6270  2.0695  0.7581
 7147SOL     OW32899   0.070   0.902   5.733  0.8116 -0.0844 -0.0668
 7147SOL    HW132900   4.705   0.938   5.714  0.8709  1.9238  3.3147
 7147SOL    HW232901   0.047   0.811   5.713 -0.1921  0.4809 -1.5316
 7148SOL     OW32902   1.097   1.198   0.015  0.0974 -0.7142  0.3392
 7148SOL    HW132903   1.187   1.208  17.675 -0.0682  0.3214  0.1756
 7148SOL    HW232904   1.119   1.166   0.102  2.8639  2.7331  0.9034
 7149SOL     OW32905   1.578   2.150   3.316 -0.1145 -0.2209  0.1068
 7149SOL    HW132906   1.590   2.215   3.385  2.5957 -1.0209  0.3739
 7149SOL    HW232907   1.552   2.217   3.252  0.8857 -1.5050 -1.6661
 7150SOL     OW32908   1.495   2.632   7.091  0.7534 -0.0961  0.7025
 7150SOL    HW132909   1.535   2.586   7.017 -2.6887  0.4234 -1.5001
 7150SOL    HW232910   1.512   2.720   7.058  0.7895 -0.8680 -1.3120
 7151SOL     OW32911   2.640   0.175   8.213 -0.0540 -0.1864 -0.3036
 7151SOL    HW132912   2.712   0.237   8.197 -0.1532  0.3014  1.1798
 7151SOL    HW232913   2.622   0.174   8.307 -1.3461 -0.2610 -0.5627
 7152SOL     OW32914   3.007   2.794   5.259 -0.1250  0.1567  0.5464
 7152SOL    HW132915   2.928   2.745   5.235  0.4067  0.0903 -1.1281
 7152SOL    HW232916   2.973   2.879   5.232  1.2701  0.3688 -0.5698
 7153SOL     OW32917   0.754   0.407   5.107  0.4121 -0.1181  0.0764
 7153SOL    HW132918   0.844   0.382   5.128 -0.5493 -2.6771  1.1513
 7153SOL    HW232919   0.704   0.327   5.122 -0.4079  0.1022 -1.4454
 7154SOL     OW32920   4.717   4.529  16.163 -0.4783  0.3285 -0.1766
 7154SOL    HW132921   0.018   4.462  16.099  1.2553  0.6081  0.1590
 7154SOL    HW232922   4.660   4.482  16.224 -1.0522 -1.1894 -1.8921
 7155SOL     OW32923   2.892   2.315   5.151  0.5005 -0.8285  1.0191
 7155SOL    HW132924   2.811   2.290   5.106  1.2247 -0.5951 -0.4315
 7155SOL    HW232925   2.891   2.266   5.233  2.1796 -1.5651  0.5935
 7156SOL     OW32926   0.010   2.729   6.295 -0.0294 -0.1166 -0.1764
 7156SOL    HW132927   0.036   2.785   6.222  1.0669  0.1966  0.4534
 7156SOL    HW232928   0.096   2.728   6.338  0.2944  1.2116 -0.8062
 7157SOL     OW32929   0.459   3.822   9.002 -0.6212 -0.2585  0.2856
 7157SOL    HW132930   0.502   3.889   8.949 -2.0733  1.5261  1.3400
 7157SOL    HW232931   0.371   3.856   9.018 -1.9788 -1.4464 -4.7354
 7158SOL     OW32932   2.178   0.006   7.260 -0.1545 -0.4132 -0.4313
 7158SOL    HW132933   2.089   0.009   7.295 -0.1879 -1.0894 -0.4583
 7158SOL    HW232934   2.227   0.031   7.339 -1.2197  0.1560  0.0470
 7159SOL     OW32935   4.075   4.068  13.249  0.7777  0.6033  0.1681
 7159SOL    HW132936   4.146   4.044  13.190 -0.4745  0.9291 -1.4653
 7159SOL    HW232937   3.999   4.014  13.227  0.8564  0.3896  0.4193
 7160SOL     OW32938   4.240   1.388   1.318  0.6660  0.0741  0.5177
 7160SOL    HW132939   4.240   1.317   1.382 -0.2951  1.0577  1.6047
 7160SOL    HW232940   4.264   1.343   1.237  1.8622  0.9253  0.4030
 7161SOL     OW32941   0.583   1.067   3.908  0.3319  0.4407 -0.2097
 7161SOL    HW132942   0.572   0.973   3.896 -3.1102  0.6607  0.9680
 7161SOL    HW232943   0.572   1.069   4.004 -1.9916  0.6224 -0.4727
 7162SOL     OW32944   3.186   2.286   4.912  0.1193  0.5176 -0.1915
 7162SOL    HW132945   3.157   2.207   4.957 -1.7185  1.2269 -0.1642
 7162SOL    HW232946   3.176   2.337   4.993  0.5893  1.6102 -0.8255
 7163SOL     OW32947   4.403   2.651   2.679  0.1532  0.1571  0.4511
 7163SOL    HW132948   4.433   2.637   2.589  0.0513 -1.2795  0.6356
 7163SOL    HW232949   4.336   2.583   2.682 -0.9680  1.1839 -1.5614
 7164SOL     OW32950   3.198   1.603   8.075 -0.7061 -0.2331  0.0269
 7164SOL    HW132951   3.175   1.677   8.018 -2.0635 -0.0926  0.7829
 7164SOL    HW232952   3.122   1.545   8.066 -0.1845 -0.8526 -0.4259
 7165SOL     OW32953   2.902   4.003   1.708 -0.1754  0.0195  0.2268
 7165SOL    HW132954   2.896   4.045   1.793 -2.0896 -2.2165  1.1999
 7165SOL    HW232955   2.987   3.958   1.709 -0.3207 -0.3584 -3.0502
 7166SOL     OW32956   1.520   2.866   0.196 -0.3663 -0.4240 -0.0347
 7166SOL    HW132957   1.594   2.810   0.173 -2.4623 -1.8868 -3.4431
 7166SOL    HW232958   1.539   2.939   0.138 -1.4748  0.1321  0.2995
 7167SOL     OW32959   2.171   1.812   6.015 -0.1937 -0.4022 -0.7153
 7167SOL    HW132960   2.181   1.773   5.928  0.1899  1.0140 -1.3041
 7167SOL    HW232961   2.246   1.872   6.019 -1.2713  1.0499 -2.0926
 7168SOL     OW32962   3.968   0.123   3.220  0.8291 -0.1781 -0.2931
 7168SOL    HW132963   4.062   0.141   3.225  0.7953 -0.4969  1.3144
 7168SOL    HW232964   3.947   0.138   3.128 -1.5276 -0.7502  0.1355
 7169SOL     OW32965   3.145   4.528   2.217  0.4854 -0.2947  0.2576
 7169SOL    HW132966   3.089   4.496   2.146 -1.3171 -0.7027  1.8889
 7169SOL    HW232967   3.203   4.589   2.172  2.9679 -1.9458  1.1776
 7170SOL     OW32968   2.209   3.930   7.429 -0.0794 -0.4723 -0.5860
 7170SOL    HW132969   2.294   3.927   7.386  0.7100  0.6661  0.8586
 7170SOL    HW232970   2.206   3.839   7.456 -2.8525  0.6950  3.0179
 7171SOL     OW32971   2.705   4.513   4.973  0.0463  0.8141  0.0334
 7171SOL    HW132972   2.708   4.488   4.881  0.8576 -1.3532  0.6345
 7171SOL    HW232973   2.632   4.575   4.980 -0.9889 -0.3901 -0.0929
 7172SOL     OW32974   3.943   4.318   3.314 -0.1667  0.4792  0.1489
 7172SOL    HW132975   3.896   4.301   3.396 -0.6715 -0.9523 -0.4415
 7172SOL    HW232976   3.878   4.287   3.252  2.6726  0.0255 -2.6184
 7173SOL     OW32977   1.754   4.599   6.770 -0.1133  0.1869 -0.4551
 7173SOL    HW132978   1.722   4.680   6.809 -0.2577  0.3135 -0.8325
 7173SOL    HW232979   1.810   4.568   6.841 -0.3783 -1.1960 -0.8665
 7174SOL     OW32980   3.166   1.202   5.359  0.4233  0.4212  0.1789
 7174SOL    HW132981   3.128   1.227   5.276  1.9157 -0.0533 -0.6514
 7174SOL    HW232982   3.100   1.145   5.399 -0.9001  1.6319 -0.2885
 7175SOL     OW32983   0.975   3.717   2.953 -0.3255  0.3708 -0.4355
 7175SOL    HW132984   1.041   3.649   2.961 -0.4516  0.6167  2.5477
 7175SOL    HW232985   0.896   3.666   2.935  0.1234  0.1732 -1.8937
 7176SOL     OW32986   3.627   2.588  10.655  0.6366  0.6318  0.4453
 7176SOL    HW132987   3.548   2.631  10.687  1.5878  1.6977  1.3856
 7176SOL    HW232988   3.613   2.504  10.699 -0.8822 -0.3345 -1.8672
 7177SOL     OW32989   4.462   1.857   3.620 -0.4515  0.0143  0.1645
 7177SOL    HW132990   4.464   1.768   3.584  2.1303  0.8102 -1.6262
 7177SOL    HW232991   4.550   1.861   3.658 -0.2525 -0.3156 -0.2688
 7178SOL     OW32992   2.916   1.456   9.995 -0.0847 -0.7911 -0.1685
 7178SOL    HW132993   2.866   1.384   9.957 -1.4915 -0.1709  0.5011
 7178SOL    HW232994   2.958   1.482   9.913 -2.4787 -1.8179 -1.7412
 7179SOL     OW32995   3.147   0.431   8.798  0.1437 -0.2196 -0.2901
 7179SOL    HW132996   3.079   0.365   8.810 -0.7112  0.4458 -1.4037
 7179SOL    HW232997   3.221   0.395   8.847  0.0188  0.0230  0.0794
 7180SOL     OW32998   3.128   3.657   2.717  0.6525  0.1293  0.5032
 7180SOL    HW132999   3.097   3.729   2.772 -1.1460 -1.0633  1.0218
 7180SOL    HW233000   3.140   3.705   2.634 -0.0766 -0.9045 -0.1969
 7181SOL     OW33001   2.585   2.314   1.724  0.5675  0.2297 -0.5931
 7181SOL    HW133002   2.525   2.278   1.658  0.8729  2.2281 -1.9423
 7181SOL    HW233003   2.528   2.312   1.801  1.9627 -0.9290  0.4152
 7182SOL     OW33004   2.616   4.094   4.831 -0.0233  0.0061  0.0693
 7182SOL    HW133005   2.707   4.103   4.859 -0.8356  2.2340  1.9635
 7182SOL    HW233006   2.622   4.021   4.768 -1.2959  1.5694 -1.8819
 7183SOL     OW33007   1.268   1.438   6.848  0.0727  0.3677 -0.2417
 7183SOL    HW133008   1.178   1.462   6.828 -0.2831  0.3632  1.3385
 7183SOL    HW233009   1.263   1.342   6.849  0.1563  0.3905  4.1332
 7184SOL     OW33010   4.429   0.584   5.975 -0.5705  0.1403  0.0908
 7184SOL    HW133011   4.418   0.678   5.959  0.3383  0.1376 -0.6132
 7184SOL    HW233012   4.340   0.566   6.004 -0.5119  0.8241  0.6847
 7185SOL     OW33013   0.352   2.667  15.187  0.1138  0.0309 -0.0575
 7185SOL    HW133014   0.306   2.623  15.116 -0.8029  0.1344  0.4658
 7185SOL    HW233015   0.338   2.605  15.259 -1.6293 -0.3323 -0.6925
 7186SOL     OW33016   4.173   2.267   4.898  0.3392  0.1133  0.5135
 7186SOL    HW133017   4.201   2.353   4.931 -1.7149  1.5120 -1.4303
 7186SOL    HW233018   4.100   2.246   4.956 -2.4623 -1.4376 -3.5665
 7187SOL     OW33019   1.725   3.890   9.141 -0.4175  0.4649 -0.9802
 7187SOL    HW133020   1.653   3.861   9.085 -0.1371 -1.4355 -0.3306
 7187SOL    HW233021   1.702   3.980   9.165 -0.8593  0.3364 -0.9159
 7188SOL     OW33022   2.074   3.981  13.401  0.2872 -0.9467  0.5512
 7188SOL    HW133023   2.002   4.017  13.453 -0.2886  1.3778 -1.8543
 7188SOL    HW233024   2.147   4.028  13.441  0.7717 -1.6858  0.5432
 7189SOL     OW33025   0.533   0.057  11.190  0.1581 -0.7652 -0.3175
 7189SOL    HW133026   0.464   0.122  11.189  0.2447 -0.6227  3.0741
 7189SOL    HW233027   0.558   0.062  11.098  1.7302 -2.0771  0.0288
 7190SOL     OW33028   0.736   0.921   6.687  0.2102  0.2197  0.1471
 7190SOL    HW133029   0.746   0.826   6.690  1.3605  0.3474  0.2532
 7190SOL    HW233030   0.751   0.958   6.599  1.4712  1.0482  0.7093
 7191SOL     OW33031   2.896   1.166   7.258  0.3608  0.1077 -0.1122
 7191SOL    HW133032   2.830   1.202   7.199  0.2178 -0.5461 -0.3482
 7191SOL    HW233033   2.977   1.209   7.229  1.2903  0.2216  2.5999
 7192SOL     OW33034   1.942   1.393   0.214 -0.4038  0.2531  0.0640
 7192SOL    HW133035   1.902   1.332   0.152 -0.5999 -0.1646  0.6056
 7192SOL    HW233036   1.986   1.454   0.153 -0.0035 -0.3057 -0.2055
 7193SOL     OW33037   0.089   4.399   0.747 -0.1152 -0.0737  0.0205
 7193SOL    HW133038   0.016   4.418   0.688 -0.6912  0.9407  1.0482
 7193SOL    HW233039   0.059   4.439   0.829  1.6263  1.5426 -0.1325
 7194SOL     OW33040   0.412   3.851   5.619  0.6007 -0.2791 -0.3208
 7194SOL    HW133041   0.437   3.799   5.695 -0.5344 -2.2421 -1.2821
 7194SOL    HW233042   0.463   3.931   5.630 -0.3970  0.4189 -0.7717
 7195SOL     OW33043   3.203   3.619   9.036  0.2960  0.2948  0.7880
 7195SOL    HW133044   3.122   3.574   9.059 -0.7823  1.2070 -1.3217
 7195SOL    HW233045   3.182   3.712   9.046 -0.7957  0.1510 -0.2995
 7196SOL     OW33046   2.943   1.670   5.502  0.0812 -0.0635  0.2980
 7196SOL    HW133047   2.909   1.723   5.431 -2.8273 -1.4823  0.6183
 7196SOL    HW233048   3.035   1.693   5.491  0.3771 -0.9689  0.8680
 7197SOL     OW33049   2.634   3.593   2.360  0.0592  0.4056 -0.0533
 7197SOL    HW133050   2.710   3.538   2.337 -1.1013 -1.3326  0.2674
 7197SOL    HW233051   2.608   3.644   2.283  1.1986 -0.5730 -1.0936
 7198SOL     OW33052   3.562   1.233   1.705  0.2376 -0.2444  0.0836
 7198SOL    HW133053   3.557   1.139   1.689 -0.0413 -0.2725  0.3407
 7198SOL    HW233054   3.501   1.271   1.642  1.8699  1.8587 -0.2353
 7199SOL     OW33055   3.998   4.352  14.362 -0.5455 -0.2331  0.0580
 7199SOL    HW133056   4.008   4.415  14.291  0.4249 -0.1598  0.2657
 7199SOL    HW233057   4.019   4.268  14.320 -1.6093 -1.0130  1.0823
 7200SOL     OW33058   2.582   1.497   7.993 -0.6178  0.2489 -0.5024
 7200SOL    HW133059   2.495   1.459   7.983 -1.4660  1.7975  0.9380
 7200SOL    HW233060   2.617   1.454   8.071 -1.1650 -2.1146 -1.5828
 7201SOL     OW33061   1.973   0.250  17.556  0.2666 -0.2235 -0.1997
 7201SOL    HW133062   1.882   0.277  17.548  0.7067  0.6650 -2.0814
 7201SOL    HW233063   1.991   0.297  17.638  2.5197 -1.3450 -0.0386
 7202SOL     OW33064   1.521   3.722   4.327 -0.3383  0.2286  0.3558
 7202SOL    HW133065   1.538   3.718   4.233  1.7256 -0.6187  0.7763
 7202SOL    HW233066   1.573   3.798   4.353  2.5921 -1.1494 -1.6129
 7203SOL     OW33067   3.093   0.309   3.109 -0.2988  0.0195 -0.3396
 7203SOL    HW133068   3.133   0.368   3.173 -0.4588 -0.5472  0.2902
 7203SOL    HW233069   3.131   0.224   3.129  1.6920  0.7005 -1.2681
 7204SOL     OW33070   0.987   0.456   4.582  0.7293  0.1888  0.0306
 7204SOL    HW133071   1.074   0.474   4.617  0.5506  1.6070 -0.2870
 7204SOL    HW233072   0.940   0.422   4.659 -0.4058 -0.6305 -1.0250
 7205SOL     OW33073   3.613   2.248   3.075 -0.8372  0.0666 -0.2457
 7205SOL    HW133074   3.672   2.239   3.000 -1.6808 -1.4691 -0.7309
 7205SOL    HW233075   3.557   2.173   3.054 -0.3935  0.4486 -2.8903
 7206SOL     OW33076   2.466   1.544   8.683 -0.3177 -0.3961  0.1381
 7206SOL    HW133077   2.374   1.551   8.658 -0.2250 -2.3679 -0.6820
 7206SOL    HW233078   2.461   1.538   8.779  0.3813 -2.5365  0.0341
 7207SOL     OW33079   2.857   1.762   3.812 -0.0146  0.0413  0.3879
 7207SOL    HW133080   2.924   1.709   3.770  2.0200  1.7753  1.4448
 7207SOL    HW233081   2.835   1.706   3.887 -1.7009 -0.6450 -0.6233
 7208SOL     OW33082   3.943   1.140   2.442  0.0539 -0.5894 -0.3165
 7208SOL    HW133083   3.996   1.150   2.521 -3.7491  2.0586  1.9379
 7208SOL    HW233084   3.859   1.151   2.488 -0.2333 -0.6278 -0.8343
 7209SOL     OW33085   1.988   0.573  11.609 -0.1446  0.0457  0.1973
 7209SOL    HW133086   1.945   0.651  11.645  1.2619 -0.1454  2.2410
 7209SOL    HW233087   2.047   0.609  11.544 -0.8616  1.5274  0.3679
 7210SOL     OW33088   0.356   4.004   7.988  0.2906 -0.4420 -0.0700
 7210SOL    HW133089   0.433   3.960   7.952 -0.1275 -0.6075 -0.7627
 7210SOL    HW233090   0.334   3.931   8.047 -1.6230 -0.4897 -0.8305
 7211SOL     OW33091   1.544   2.127   8.297 -0.0234  0.5782 -0.6838
 7211SOL    HW133092   1.610   2.117   8.365  1.6711  2.0934 -2.1257
 7211SOL    HW233093   1.563   2.220   8.294  0.1409  0.5525 -0.3963
 7212SOL     OW33094   2.947   2.611   6.441  0.0598 -0.2216 -0.0561
 7212SOL    HW133095   2.966   2.550   6.513  3.5305 -0.1283 -0.8719
 7212SOL    HW233096   3.029   2.660   6.435 -0.0983  0.2144  1.3128
 7213SOL     OW33097   4.062   0.887   0.148  0.0223  0.0651 -0.0156
 7213SOL    HW133098   4.050   0.804   0.102 -0.3437  0.5488 -0.7854
 7213SOL    HW233099   3.977   0.898   0.190  0.4512 -0.8570  1.0890
 7214SOL     OW33100   1.551   3.789   0.412 -0.1887  0.1213 -0.0092
 7214SOL    HW133101   1.556   3.726   0.484  0.5845  1.2596  0.9306
 7214SOL    HW233102   1.473   3.747   0.376  1.2782 -1.9477 -0.8160
 7215SOL     OW33103   0.627   3.920   3.277 -0.1752  0.3052 -0.1086
 7215SOL    HW133104   0.710   3.960   3.251 -0.3198  0.1978 -0.7214
 7215SOL    HW233105   0.574   3.928   3.198  0.5263 -1.9578 -0.7875
 7216SOL     OW33106   0.503   3.606   2.911  0.0159 -0.1601 -0.4271
 7216SOL    HW133107   0.584   3.561   2.931  0.3925 -0.1501 -1.9769
 7216SOL    HW233108   0.521   3.686   2.961  0.1667 -1.6473  1.9071
 7217SOL     OW33109   0.469   2.266   8.810  0.3780 -0.5349 -0.0565
 7217SOL    HW133110   0.513   2.257   8.895  1.5417  2.7889 -0.3120
 7217SOL    HW233111   0.547   2.249   8.758  3.0125 -0.2351  3.8009
 7218SOL     OW33112   2.922   2.687   2.380  0.2977 -0.1852  0.4302
 7218SOL    HW133113   2.889   2.618   2.438  0.8677  0.1130  1.1080
 7218SOL    HW233114   3.014   2.663   2.391 -0.4382 -2.6539  1.3261
 7219SOL     OW33115   1.712   2.966  14.922 -0.2090  0.8522  0.6528
 7219SOL    HW133116   1.775   2.907  14.965  1.1356  1.9387  0.1600
 7219SOL    HW233117   1.712   2.920  14.838 -0.2241  2.4015 -0.2021
 7220SOL     OW33118   1.791   1.894   8.313 -0.3214  0.0683 -0.0771
 7220SOL    HW133119   1.818   1.979   8.347 -1.7704 -0.1906  1.7609
 7220SOL    HW233120   1.700   1.876   8.336 -0.1586 -0.8433 -0.1558
 7221SOL     OW33121   0.020   0.243   6.157 -0.2856  0.0197  0.1991
 7221SOL    HW133122   0.007   0.325   6.109  1.3814 -0.3948 -0.9326
 7221SOL    HW233123   0.108   0.233   6.121  0.0039 -0.8731  1.1400
 7222SOL     OW33124   4.583   3.420   7.196 -0.2597  0.1168 -0.4607
 7222SOL    HW133125   4.540   3.435   7.280  2.2482 -0.1276  0.8728
 7222SOL    HW233126   4.669   3.388   7.226 -0.5182  1.2662  1.5260
 7223SOL     OW33127   4.346   4.706  16.291 -0.2835 -0.1628 -0.7420
 7223SOL    HW133128   4.360   4.688  16.384 -1.6444 -1.3629 -0.7711
 7223SOL    HW233129   4.353   0.078  16.282 -1.1388 -0.0881 -0.6043
 7224SOL     OW33130   0.235   3.204  14.691 -0.0008 -0.2035 -0.1011
 7224SOL    HW133131   0.217   3.120  14.733  0.6074  0.0491  0.6525
 7224SOL    HW233132   0.166   3.212  14.625  1.3065 -1.4157 -1.6185
 7225SOL     OW33133   3.369   1.731   7.191  0.0146  0.0290 -0.6002
 7225SOL    HW133134   3.385   1.706   7.100 -0.3854 -1.7079 -0.1973
 7225SOL    HW233135   3.334   1.819   7.180  1.7081  0.9049  0.9618
 7226SOL     OW33136   1.173   2.513   4.944  0.4291 -0.4351  0.2685
 7226SOL    HW133137   1.265   2.527   4.969 -0.0612 -1.6738  2.7511
 7226SOL    HW233138   1.119   2.578   4.990  2.0962  0.9432  0.2874
 7227SOL     OW33139   1.350   2.826   2.996 -0.1082  0.2623  0.1614
 7227SOL    HW133140   1.365   2.843   3.089 -2.0469  3.4721 -0.1255
 7227SOL    HW233141   1.255   2.813   2.988  0.1090 -1.8547  1.1671
 7228SOL     OW33142   1.045   2.710   5.068  0.3191  0.2129  0.3128
 7228SOL    HW133143   1.106   2.783   5.061 -2.2348  2.1290 -1.9955
 7228SOL    HW233144   0.966   2.762   5.082 -0.4221 -0.5855 -0.8447
 7229SOL     OW33145   1.076   2.460   0.577  0.5457  0.1927  0.2154
 7229SOL    HW133146   1.045   2.445   0.488 -0.8060 -1.1939  0.9285
 7229SOL    HW233147   0.999   2.482   0.630  0.4537 -2.4796  1.1787
 7230SOL     OW33148   4.267   1.812   7.706  0.7523 -0.4245  0.1307
 7230SOL    HW133149   4.327   1.884   7.725 -0.6489  0.7631  0.0579
 7230SOL    HW233150   4.244   1.830   7.615  2.2116 -3.0844 -0.7555
 7231SOL     OW33151   4.096   2.947   2.945 -0.1665 -0.0916 -0.8479
 7231SOL    HW133152   4.113   2.853   2.946 -2.8628 -0.5651 -0.9909
 7231SOL    HW233153   4.027   2.961   2.880  0.5226  3.2557 -0.8734
 7232SOL     OW33154   1.136   4.539   3.933  0.0864 -0.5264 -0.3208
 7232SOL    HW133155   1.230   4.540   3.951 -0.2056 -1.1918  1.2112
 7232SOL    HW233156   1.109   4.507   4.019 -2.5150 -1.0867 -1.3474
 7233SOL     OW33157   1.202   0.382   8.043  0.0921 -0.2732 -0.0267
 7233SOL    HW133158   1.174   0.473   8.034 -4.0819 -1.2432  2.8755
 7233SOL    HW233159   1.214   0.379   8.138  0.6158 -1.8722 -0.1260
 7234SOL     OW33160   1.846   4.484  14.976  0.6423 -0.2211 -0.0452
 7234SOL    HW133161   1.858   4.463  14.884 -0.0667 -0.5787 -0.0519
 7234SOL    HW233162   1.840   4.580  14.977  1.6192 -0.1642  0.3927
 7235SOL     OW33163   3.799   4.530   7.864  0.4689  0.4372  0.1472
 7235SOL    HW133164   3.730   4.509   7.928 -1.0104  1.1491 -1.2241
 7235SOL    HW233165   3.769   4.507   7.777 -0.5520 -0.8419  0.8322
 7236SOL     OW33166   1.002   2.634   5.394 -0.3228  0.4165  0.1432
 7236SOL    HW133167   0.973   2.617   5.304  0.7271 -0.7350  0.0171
 7236SOL    HW233168   0.926   2.592   5.434 -1.0841  3.3732  1.7482
 7237SOL     OW33169   3.043   1.903   4.019 -0.0465  0.3074  0.0915
 7237SOL    HW133170   2.984   1.865   3.954 -1.7578  2.6812  0.2663
 7237SOL    HW233171   3.088   1.826   4.054 -0.4573 -0.2642 -0.6339
 7238SOL     OW33172   1.151   0.507   2.137 -0.1001  0.0640 -0.1959
 7238SOL    HW133173   1.215   0.532   2.070 -0.9062 -0.7930 -1.2894
 7238SOL    HW233174   1.104   0.435   2.095 -0.4623  1.1975 -1.7632
 7239SOL     OW33175   1.094   0.316   3.996 -0.1392  0.0096  0.1935
 7239SOL    HW133176   1.158   0.271   3.940 -0.2122  0.4951 -0.2777
 7239SOL    HW233177   1.016   0.262   3.981 -0.8361  0.9184  0.6042
 7240SOL     OW33178   2.211   3.500   0.996  0.4625 -0.4642  0.5173
 7240SOL    HW133179   2.266   3.547   1.059 -0.3808  1.6298 -0.3169
 7240SOL    HW233180   2.127   3.511   1.041  0.5615 -1.4286  0.9590
 7241SOL     OW33181   2.104   0.009  11.631  0.1226  0.2889  0.0258
 7241SOL    HW133182   2.160   0.058  11.691  0.5562  0.9494 -0.9212
 7241SOL    HW233183   2.059   4.685  11.702  0.3571 -0.8445 -0.5681
 7242SOL     OW33184   2.034   2.327   5.804 -0.4826  0.2357  0.5902
 7242SOL    HW133185   2.094   2.261   5.838 -1.2554 -0.4376  0.6538
 7242SOL    HW233186   1.994   2.353   5.887  0.4071  0.2989  0.9978
 7243SOL     OW33187   3.533   4.418   3.269 -0.6025 -0.2754 -0.1919
 7243SOL    HW133188   3.507   4.329   3.244  1.1777 -1.4753  2.2269
 7243SOL    HW233189   3.522   4.416   3.364 -0.7795 -2.9443 -0.2749
 7244SOL     OW33190   2.919   4.162   8.463  0.6492  0.1565 -0.2919
 7244SOL    HW133191   2.991   4.214   8.428 -0.0354  0.1358 -1.7430
 7244SOL    HW233192   2.947   4.075   8.433 -1.0468 -0.8699  1.1296
 7245SOL     OW33193   4.716   3.353  17.546  0.2430  0.3506  0.2704
 7245SOL    HW133194   4.630   3.349  17.504  0.1516  1.2648  0.3697
 7245SOL    HW233195   4.699   3.293  17.618 -0.6836  0.8243  0.4502
 7246SOL     OW33196   2.945   1.489  10.634 -0.0811 -0.3948 -0.3247
 7246SOL    HW133197   2.927   1.578  10.664  1.0959 -0.5043  0.6927
 7246SOL    HW233198   3.022   1.503  10.579 -0.5812 -0.6884 -1.0964
 7247SOL     OW33199   4.059   2.230   8.516  0.1151  0.0728 -0.1167
 7247SOL    HW133200   3.971   2.259   8.540  0.5399 -1.4432  3.2304
 7247SOL    HW233201   4.081   2.288   8.443 -0.2542  0.2579 -0.0808
 7248SOL     OW33202   0.826   2.805   7.209  0.0271 -0.1464 -0.9595
 7248SOL    HW133203   0.797   2.837   7.123  0.3960 -2.0806 -1.8037
 7248SOL    HW233204   0.749   2.753   7.231  0.2952  0.8599  2.3343
 7249SOL     OW33205   1.702   0.888   9.183  0.3248  0.1202 -0.1662
 7249SOL    HW133206   1.610   0.913   9.190 -0.5698 -2.2495 -3.0640
 7249SOL    HW233207   1.757   0.962   9.208 -0.7450  0.9165 -0.1621
 7250SOL     OW33208   1.861   4.077   3.162 -0.1516 -0.0880  0.0175
 7250SOL    HW133209   1.895   3.991   3.188 -0.8079  0.7325  3.5307
 7250SOL    HW233210   1.941   4.102   3.115  1.4430 -3.0587  1.1287
 7251SOL     OW33211   2.414   1.149   2.688  0.7630  0.0379 -0.2454
 7251SOL    HW133212   2.366   1.078   2.731 -0.0081 -0.0837 -1.3080
 7251SOL    HW233213   2.458   1.086   2.631  0.5385  0.8933 -1.3644
 7252SOL     OW33214   0.951   1.828  11.089  0.2558  0.5111  0.7565
 7252SOL    HW133215   0.988   1.766  11.152  0.8245 -0.8010 -0.8873
 7252SOL    HW233216   1.019   1.817  11.023  1.1366 -2.4909  2.1783
 7253SOL     OW33217   1.889   3.914   4.569  0.0452 -0.0449  0.0214
 7253SOL    HW133218   1.965   3.910   4.511 -0.0790 -1.0744 -0.0709
 7253SOL    HW233219   1.928   3.957   4.645 -0.5272  0.3511  0.0894
 7254SOL     OW33220   0.073   3.772   7.882 -0.6873 -0.1458  0.0298
 7254SOL    HW133221   0.089   3.785   7.788 -0.0627  0.5346  0.2329
 7254SOL    HW233222   0.109   3.683   7.891 -0.7987 -0.1871  0.0636
 7255SOL     OW33223   2.894   0.279   2.468 -0.1291  0.2595  0.5033
 7255SOL    HW133224   2.880   0.206   2.408  1.2892  0.7548 -0.4037
 7255SOL    HW233225   2.985   0.302   2.451  0.3408 -0.6076  1.8728
 7256SOL     OW33226   2.035   1.544  14.981  0.2341  0.4651  0.3572
 7256SOL    HW133227   2.070   1.525  14.894 -0.7930  0.3834 -0.0489
 7256SOL    HW233228   2.078   1.467  15.018 -0.8949  0.0781  0.8922
 7257SOL     OW33229   3.018   2.064   3.487  0.0377 -0.1149 -0.2538
 7257SOL    HW133230   2.939   2.034   3.441  0.4539 -1.0812 -0.3411
 7257SOL    HW233231   2.996   2.152   3.519 -0.1349  0.3139 -1.5504
 7258SOL     OW33232   0.937   0.288   2.766  0.1486  0.2172 -0.0111
 7258SOL    HW133233   1.014   0.342   2.749 -0.7482  1.3811 -0.3764
 7258SOL    HW233234   0.979   0.204   2.749  0.1384  0.4090 -1.0088
 7259SOL     OW33235   3.825   0.154   5.416 -0.2522  0.6404 -0.1108
 7259SOL    HW133236   3.887   0.160   5.343  0.0716  1.0407  0.1950
 7259SOL    HW233237   3.880   0.204   5.476 -0.1038  1.2499 -0.7577
 7260SOL     OW33238   2.669   3.544   6.905 -0.2721 -0.5087  0.1581
 7260SOL    HW133239   2.686   3.517   6.815  0.7153 -0.4138  0.3098
 7260SOL    HW233240   2.575   3.561   6.913 -0.2188 -0.4966  0.7962
 7261SOL     OW33241   3.170   3.614   5.744 -0.4548  0.3638  0.2711
 7261SOL    HW133242   3.209   3.700   5.759 -0.6729  0.7312 -1.3119
 7261SOL    HW233243   3.236   3.561   5.700  1.3851  2.4444  0.5362
 7262SOL     OW33244   0.051   3.238   2.830  0.1837  0.2506  0.0383
 7262SOL    HW133245   4.714   3.308   2.801  0.7708  0.5017 -0.5660
 7262SOL    HW233246   4.712   3.164   2.827  2.0533 -1.1800 -3.2516
 7263SOL     OW33247   1.754   1.201   7.870 -0.5422 -0.0652  0.2691
 7263SOL    HW133248   1.736   1.150   7.790 -0.8692  0.2894  0.1124
 7263SOL    HW233249   1.726   1.287   7.840 -2.5331 -0.3429  1.3147
 7264SOL     OW33250   1.941   2.076   7.446  0.5519  0.4166 -0.0515
 7264SOL    HW133251   1.907   2.123   7.522 -1.1796 -1.5391  0.3880
 7264SOL    HW233252   1.862   2.071   7.391 -0.0013  0.9903  0.6979
 7265SOL     OW33253   4.716   2.458   5.405 -0.1012 -0.0402  0.4078
 7265SOL    HW133254   0.063   2.442   5.341 -0.1513  0.5378  0.2151
 7265SOL    HW233255   4.662   2.379   5.399  0.2395 -0.1516 -1.0506
 7266SOL     OW33256   3.352   1.853   7.957  0.0920  0.1410  0.0154
 7266SOL    HW133257   3.281   1.832   7.896  1.1214 -0.5698 -0.9278
 7266SOL    HW233258   3.392   1.931   7.919  1.2378 -0.2679  0.3790
 7267SOL     OW33259   2.654   3.513   5.071  0.2132 -0.3119 -0.3507
 7267SOL    HW133260   2.657   3.483   5.161  0.3997 -0.4291 -0.3948
 7267SOL    HW233261   2.561   3.495   5.056  0.6598 -2.7155 -0.2806
 7268SOL     OW33262   1.036   2.273   2.528 -0.1626 -0.2980  0.2430
 7268SOL    HW133263   1.013   2.193   2.575 -0.2737 -0.6209 -0.3628
 7268SOL    HW233264   0.961   2.274   2.470 -0.6353 -0.8141  0.8451
 7269SOL     OW33265   3.661   0.195   6.192  0.2818  0.2355 -0.1242
 7269SOL    HW133266   3.598   0.154   6.251  0.6660 -0.6017 -0.2942
 7269SOL    HW233267   3.638   0.145   6.114  0.1740  0.3149 -0.1431
 7270SOL     OW33268   3.993   2.731  17.144  0.0246  0.1840 -0.2514
 7270SOL    HW133269   3.962   2.819  17.123  0.2770  0.6692  1.3965
 7270SOL    HW233270   4.087   2.748  17.149  0.2596 -1.6229  1.8877
 7271SOL     OW33271   0.636   3.513  10.793 -1.0544 -0.6321 -0.5647
 7271SOL    HW133272   0.607   3.447  10.730  0.7593 -1.5673 -0.4245
 7271SOL    HW233273   0.551   3.538  10.827 -0.1261 -1.6194  2.4568
 7272SOL     OW33274   0.200   1.704   0.501  0.6232  0.1034  0.6806
 7272SOL    HW133275   0.209   1.711   0.596 -0.4361 -0.9753  0.8591
 7272SOL    HW233276   0.236   1.785   0.466  0.5072  0.3836  1.2109
 7273SOL     OW33277   4.259   2.440   2.747 -0.0284  0.3032  0.5118
 7273SOL    HW133278   4.304   2.362   2.778  1.8543  1.1228 -0.1902
 7273SOL    HW233279   4.195   2.443   2.819 -1.3008 -0.7309 -0.5661
 7274SOL     OW33280   0.113   2.133   4.839 -0.1674 -0.1079  0.1545
 7274SOL    HW133281   0.195   2.118   4.887 -0.2569 -0.6924  0.1295
 7274SOL    HW233282   0.117   2.061   4.776 -0.8659  0.8386 -0.9708
 7275SOL     OW33283   2.913   4.114   4.876 -0.6507 -0.2605  0.2901
 7275SOL    HW133284   2.931   4.183   4.813 -0.6497 -1.9917 -1.6099
 7275SOL    HW233285   2.960   4.036   4.845 -0.2759  0.6824 -1.4939
 7276SOL     OW33286   2.432   4.185   3.193 -0.0872  0.0817  0.0515
 7276SOL    HW133287   2.437   4.091   3.176  0.2703  0.3698 -1.4264
 7276SOL    HW233288   2.451   4.185   3.287  0.7500 -0.9379 -0.1215
 7277SOL     OW33289   1.156   3.080  10.149  0.5303 -0.4378 -0.5970
 7277SOL    HW133290   1.194   3.078  10.062 -0.4280 -0.8443 -1.0030
 7277SOL    HW233291   1.147   2.986  10.162 -3.1672  0.0096  0.1830
 7278SOL     OW33292   1.655   1.596   4.952  0.2143  0.3628 -0.2068
 7278SOL    HW133293   1.735   1.552   4.922  0.1387 -0.7368  1.2005
 7278SOL    HW233294   1.642   1.663   4.886  0.5891 -0.8847 -1.5435
 7279SOL     OW33295   1.937   1.143   7.438  0.0150  0.1295  0.1542
 7279SOL    HW133296   1.954   1.237   7.448 -0.8231 -0.1448  4.0111
 7279SOL    HW233297   1.860   1.134   7.494 -1.5993 -3.3582 -2.6496
 7280SOL     OW33298   4.722   4.072   5.461  0.2380 -0.6487 -0.4479
 7280SOL    HW133299   0.072   4.054   5.521 -0.3136  1.9763  1.0051
 7280SOL    HW233300   4.653   4.037   5.517  0.9664 -0.0076  0.8552
 7281SOL     OW33301   2.029   1.263  17.312 -0.6467  0.8335 -0.3651
 7281SOL    HW133302   2.005   1.353  17.292 -1.4151  0.3295 -1.6852
 7281SOL    HW233303   1.988   1.257  17.399 -0.8169 -0.2140 -0.5108
 7282SOL     OW33304   0.391   3.182  12.088  0.0290 -0.2956  0.5140
 7282SOL    HW133305   0.332   3.144  12.154 -0.7512  0.0089 -0.0099
 7282SOL    HW233306   0.353   3.135  12.014  1.6223  0.0334 -0.5054
 7283SOL     OW33307   0.126   3.293   1.036 -0.6914 -0.6130 -0.3107
 7283SOL    HW133308   0.070   3.243   1.095  0.0979  1.0744  1.8920
 7283SOL    HW233309   0.076   3.271   0.958  1.4654 -0.1495 -1.8188
 7284SOL     OW33310   2.521   3.977   4.031 -0.1203  0.4286  0.0654
 7284SOL    HW133311   2.519   4.007   3.940 -1.3031  0.8737  0.2339
 7284SOL    HW233312   2.581   3.903   4.020 -1.1345 -0.3693 -0.0476
 7285SOL     OW33313   4.704   1.828  11.690  0.1150  0.3863  0.5730
 7285SOL    HW133314   0.028   1.896  11.641  1.5395 -1.3959 -0.5253
 7285SOL    HW233315   0.045   1.757  11.697  0.9219  1.0404 -0.0042
 7286SOL     OW33316   3.059   3.702   2.440  0.4795 -0.8990  1.1093
 7286SOL    HW133317   3.092   3.761   2.372  0.3721 -0.6178  1.3027
 7286SOL    HW233318   2.966   3.724   2.451  1.3981  3.3954  0.4438
 7287SOL     OW33319   0.576   3.976   8.781  0.3243  0.2733 -0.8097
 7287SOL    HW133320   0.577   4.045   8.847 -0.0785 -0.1450 -0.3687
 7287SOL    HW233321   0.575   4.015   8.693 -0.1943  0.4333 -0.7301
 7288SOL     OW33322   1.868   3.863   3.895 -0.3607 -0.5591  0.9755
 7288SOL    HW133323   1.941   3.893   3.948  1.1583 -3.4249  0.4985
 7288SOL    HW233324   1.832   3.945   3.860  3.1324  0.3249 -0.5243
 7289SOL     OW33325   2.413   3.205   4.505 -0.7139 -0.3399  0.6030
 7289SOL    HW133326   2.320   3.206   4.485 -0.5666  1.1558  0.0115
 7289SOL    HW233327   2.449   3.127   4.461 -1.7361 -0.6506  0.3273
 7290SOL     OW33328   4.506   4.396  17.164 -0.4779  0.2727 -0.0516
 7290SOL    HW133329   4.590   4.416  17.204  0.4527 -1.3320 -1.2181
 7290SOL    HW233330   4.511   4.379  17.070 -0.1428 -0.2464  0.0609
 7291SOL     OW33331   3.943   4.371  16.813 -0.5934  0.4217  0.0119
 7291SOL    HW133332   3.925   4.378  16.906  0.3882  4.1573 -0.0879
 7291SOL    HW233333   3.865   4.319  16.790  0.0565 -0.2376 -0.6976
 7292SOL     OW33334   0.635   1.918   3.358  0.0075 -0.0675  0.4896
 7292SOL    HW133335   0.615   1.938   3.450  1.4401 -0.6026  0.9107
 7292SOL    HW233336   0.665   2.002   3.324 -0.4206 -0.0637  0.1233
 7293SOL     OW33337   2.875   2.985   5.043  0.3951  0.1967 -0.7020
 7293SOL    HW133338   2.814   3.035   5.098  0.2216 -0.0578 -0.6609
 7293SOL    HW233339   2.949   3.045   5.040 -0.6312  1.5738  1.3535
 7294SOL     OW33340   2.132   3.064   7.669  0.0547  0.5346 -0.3014
 7294SOL    HW133341   2.097   3.073   7.757  1.3651 -1.3545  0.3993
 7294SOL    HW233342   2.154   3.153   7.640  1.7344  0.1771 -0.0969
 7295SOL     OW33343   2.973   1.614  12.043  0.3048  0.0541  0.1708
 7295SOL    HW133344   2.999   1.555  11.972 -0.2445  0.2307 -0.1703
 7295SOL    HW233345   2.904   1.565  12.087  0.5558 -0.2630  0.2128
 7296SOL     OW33346   4.376   1.473   5.731  0.4883 -0.2412  0.2561
 7296SOL    HW133347   4.406   1.463   5.821 -2.3107 -1.1404  1.0907
 7296SOL    HW233348   4.286   1.500   5.750  0.4949  0.6914 -1.0109
 7297SOL     OW33349   2.226   1.625   3.597 -0.6533  0.2650 -0.1040
 7297SOL    HW133350   2.231   1.566   3.672 -3.3896  0.5243  0.2936
 7297SOL    HW233351   2.217   1.710   3.639  0.9801  0.1765  0.4243
 7298SOL     OW33352   0.137   2.510   6.954  0.2977  0.3912  0.5032
 7298SOL    HW133353   0.151   2.453   6.878 -1.3656 -1.5587  1.6636
 7298SOL    HW233354   0.082   2.571   6.904  1.3018 -2.4355 -4.1044
 7299SOL     OW33355   2.076   3.180   1.516  0.1685  0.7417  0.1771
 7299SOL    HW133356   2.130   3.254   1.489 -0.4560  1.6842  1.5157
 7299SOL    HW233357   2.051   3.147   1.430  1.3617  0.8770 -0.2254
 7300SOL     OW33358   1.122   0.392   3.029  0.0122  0.1303 -0.0964
 7300SOL    HW133359   1.194   0.336   3.002 -0.6166 -1.2129  0.9967
 7300SOL    HW233360   1.092   0.426   2.945 -0.5786 -0.8178 -0.2704
 7301SOL     OW33361   0.421   1.946   8.382 -0.3054 -0.0970 -0.7892
 7301SOL    HW133362   0.357   1.924   8.313 -2.2524  0.1867  0.9275
 7301SOL    HW233363   0.506   1.916   8.350  0.8334  0.1778  1.9925
 7302SOL     OW33364   3.022   1.585   6.141 -0.2046 -0.1353 -0.0564
 7302SOL    HW133365   2.967   1.534   6.082  0.0603 -1.1285  0.5546
 7302SOL    HW233366   2.953   1.631   6.189  0.7382  1.3862 -0.1231
 7303SOL     OW33367   0.653   3.271   8.849 -0.3226  0.5034  0.3471
 7303SOL    HW133368   0.702   3.324   8.912 -0.7329  0.8491  0.3788
 7303SOL    HW233369   0.691   3.301   8.766 -1.4233  1.2453  0.1247
 7304SOL     OW33370   0.427   3.295   6.625  0.1247 -0.0647 -0.0061
 7304SOL    HW133371   0.408   3.366   6.564 -0.6354  0.5086  0.9146
 7304SOL    HW233372   0.356   3.282   6.687 -0.1826 -0.2036 -0.3848
 7305SOL     OW33373   4.579   0.027   6.258  0.2595 -0.1279 -0.0804
 7305SOL    HW133374   4.626   0.108   6.240 -0.3300  0.5899  1.6069
 7305SOL    HW233375   4.491   0.060   6.277 -0.4742 -1.6968 -0.7609
 7306SOL     OW33376   3.042   4.702  15.787 -0.0253 -0.3936  0.1953
 7306SOL    HW133377   3.045   4.624  15.842  0.4482 -0.1446  0.5243
 7306SOL    HW233378   3.074   0.050  15.844 -0.2491 -0.8132  0.8463
 7307SOL     OW33379   3.044   3.195  16.080  0.3504 -0.1380  0.3949
 7307SOL    HW133380   3.022   3.102  16.089  0.3528 -0.0891  0.9292
 7307SOL    HW233381   2.961   3.226  16.045  0.4587 -2.1334 -1.5898
 7308SOL     OW33382   3.967   4.179   7.702 -0.4832 -0.6324 -0.0734
 7308SOL    HW133383   3.892   4.198   7.645  0.4138  0.1916 -0.9887
 7308SOL    HW233384   3.982   4.260   7.751 -1.2758 -0.4717 -0.0845
 7309SOL     OW33385   2.606   4.196   8.309  0.1603  0.3947  0.4302
 7309SOL    HW133386   2.670   4.144   8.358  0.2271  0.2725  0.2135
 7309SOL    HW233387   2.635   4.175   8.220 -0.5788 -0.0367  0.2976
 7310SOL     OW33388   1.417   2.483  11.082 -0.1783 -0.1675 -0.1309
 7310SOL    HW133389   1.437   2.424  11.155 -0.8180 -1.1580 -0.7531
 7310SOL    HW233390   1.321   2.490  11.080 -0.2500 -1.0588  0.5320
 7311SOL     OW33391   1.817   1.791   5.937  0.4342 -0.1501 -0.2266
 7311SOL    HW133392   1.885   1.824   5.997  1.6001  0.0182 -1.6416
 7311SOL    HW233393   1.841   1.698   5.928  0.1738 -0.2289 -0.1104
 7312SOL     OW33394   2.176   2.769  11.584  0.3935  0.2575  0.3819
 7312SOL    HW133395   2.150   2.843  11.639  0.3447 -0.2948  1.1049
 7312SOL    HW233396   2.271   2.771  11.579  0.3787 -0.4027 -0.2145
 7313SOL     OW33397   3.435   0.197   7.448 -0.6308 -0.0063  0.2479
 7313SOL    HW133398   3.405   0.183   7.538 -1.2327 -1.8510 -0.2451
 7313SOL    HW233399   3.427   0.109   7.413  0.4371 -0.6873  1.7109
 7314SOL     OW33400   4.030   4.016   8.997  0.0650  0.0845  0.1903
 7314SOL    HW133401   4.081   4.097   8.997  4.0960 -2.4465  1.6295
 7314SOL    HW233402   4.091   3.954   8.956 -0.3323 -0.6107  0.6639
 7315SOL     OW33403   0.282   1.111   0.322  0.4882  0.2149  0.5564
 7315SOL    HW133404   0.233   1.160   0.256 -0.8124  0.0228  1.3902
 7315SOL    HW233405   0.305   1.184   0.380 -1.4049 -0.1875  1.8061
 7316SOL     OW33406   2.494   3.002   4.347  0.1814  0.2510 -0.1123
 7316SOL    HW133407   2.492   2.908   4.363  1.4760 -0.1517 -2.1927
 7316SOL    HW233408   2.583   3.010   4.310  0.0062 -1.9223 -0.9734
 7317SOL     OW33409   0.778   3.558   3.288 -0.1652 -0.0416  0.5910
 7317SOL    HW133410   0.828   3.481   3.260  0.0015  0.1762  0.3002
 7317SOL    HW233411   0.849   3.620   3.274  0.3483 -0.5532  0.9173
 7318SOL     OW33412   4.401   1.964  15.816 -0.5519 -0.6225 -0.7368
 7318SOL    HW133413   4.428   1.911  15.891 -1.4975 -0.1743 -0.0795
 7318SOL    HW233414   4.379   2.044  15.864 -0.5667 -1.6099  0.9026
 7319SOL     OW33415   4.482   0.353   7.821 -0.6886 -0.3081 -1.0118
 7319SOL    HW133416   4.434   0.435   7.816 -0.9525 -0.4011  0.0051
 7319SOL    HW233417   4.420   0.295   7.777  2.0505 -4.0357  0.0323
 7320SOL     OW33418   4.646   2.617  10.285  0.1688 -0.5000  0.0125
 7320SOL    HW133419   4.680   2.528  10.279 -1.1980 -1.0108 -0.2398
 7320SOL    HW233420   4.722   2.673  10.271 -0.6557  0.6015 -0.0926
 7321SOL     OW33421   3.624   0.395  15.956  0.1400  0.2137  0.3718
 7321SOL    HW133422   3.713   0.426  15.968  0.4562  0.1468 -1.7656
 7321SOL    HW233423   3.630   0.300  15.963 -1.2355  0.0407 -0.6050
 7322SOL     OW33424   0.347   0.081   8.300  0.4018 -0.6225 -0.3641
 7322SOL    HW133425   0.342   0.033   8.382  1.8171  0.8889  0.6221
 7322SOL    HW233426   0.254   0.105   8.292  1.1006  2.0914 -0.4313
 7323SOL     OW33427   2.672   1.822   5.753 -0.0268 -0.1180  0.0196
 7323SOL    HW133428   2.694   1.827   5.846 -3.4502 -0.7653  0.8593
 7323SOL    HW233429   2.603   1.888   5.746  2.4772  2.5937  0.7256
 7324SOL     OW33430   1.518   2.969   8.281 -0.2463 -0.0024  0.3615
 7324SOL    HW133431   1.558   3.046   8.321 -0.8892  0.8699 -0.6797
 7324SOL    HW233432   1.593   2.911   8.275 -0.6666 -0.5498  0.4235
 7325SOL     OW33433   3.755   0.356   5.981  0.4563 -0.0918 -0.0824
 7325SOL    HW133434   3.699   0.312   6.045  1.2345 -2.7193 -1.2100
 7325SOL    HW233435   3.720   0.333   5.895  0.2475  4.0131 -1.1176
 7326SOL     OW33436   4.224   4.490   5.956  0.4153 -0.2035  0.3355
 7326SOL    HW133437   4.164   4.526   6.022 -0.7414 -3.1830  0.9428
 7326SOL    HW233438   4.251   4.410   6.001 -0.9668 -1.3225 -0.7936
 7327SOL     OW33439   1.212   2.206  13.682  0.2958 -0.5630  0.4998
 7327SOL    HW133440   1.239   2.264  13.754  0.3785 -2.8497  2.3198
 7327SOL    HW233441   1.122   2.190  13.712  0.3052 -3.6458 -1.1802
 7328SOL     OW33442   3.697   1.299  17.097 -0.3767 -1.2097 -0.3708
 7328SOL    HW133443   3.634   1.308  17.168  1.1117 -0.7935  0.8854
 7328SOL    HW233444   3.722   1.392  17.089  1.1884 -1.6698 -0.8526
 7329SOL     OW33445   2.215   0.471   1.662 -0.0891  0.3044 -0.0104
 7329SOL    HW133446   2.160   0.467   1.584 -0.3646  0.6438  0.1631
 7329SOL    HW233447   2.220   0.566   1.675 -0.5615 -0.0472  2.6852
 7330SOL     OW33448   4.665   3.762   4.248 -0.1926 -0.0857  0.6148
 7330SOL    HW133449   4.632   3.767   4.338 -0.4360  0.9582  0.4674
 7330SOL    HW233450   4.670   3.668   4.229  0.7817 -0.2426  1.6240
 7331SOL     OW33451   3.509   0.249   6.674  0.1124  0.0612 -0.1558
 7331SOL    HW133452   3.599   0.277   6.661 -0.2794 -0.4461 -3.9125
 7331SOL    HW233453   3.458   0.318   6.631  0.5344  0.5481  0.1330
 7332SOL     OW33454   1.176   3.733   2.509 -0.1073  0.5728  0.2212
 7332SOL    HW133455   1.250   3.786   2.537 -0.0223  0.9046 -0.6135
 7332SOL    HW233456   1.113   3.752   2.578  2.0840  0.8772  2.1334
 7333SOL     OW33457   0.556   2.205   5.813  0.0077 -0.2519  0.0006
 7333SOL    HW133458   0.510   2.149   5.751 -0.3847 -0.0344  0.0968
 7333SOL    HW233459   0.490   2.219   5.881 -1.7396  1.3924 -2.0428
 7334SOL     OW33460   4.687   3.898   2.303  0.7103 -0.0481  0.5475
 7334SOL    HW133461   4.594   3.877   2.292  0.5545  0.7800  0.2133
 7334SOL    HW233462   4.719   3.814   2.336 -0.4290  0.0390  1.9166
 7335SOL     OW33463   2.678   1.741   7.177 -0.6116  0.3472 -0.0411
 7335SOL    HW133464   2.594   1.763   7.217 -0.8457  1.3932 -1.1007
 7335SOL    HW233465   2.747   1.767   7.239  0.7571  2.0039 -2.2569
 7336SOL     OW33466   0.468   1.618  11.766  0.5313 -1.0635 -0.0646
 7336SOL    HW133467   0.384   1.664  11.775  0.1898 -1.3798 -1.5085
 7336SOL    HW233468   0.441   1.535  11.804  0.0804 -1.9547 -2.2860
 7337SOL     OW33469   2.810   3.922   7.778 -0.1832  0.7373 -0.2637
 7337SOL    HW133470   2.756   3.855   7.822 -1.6935  2.6151  0.7313
 7337SOL    HW233471   2.827   3.979   7.853 -1.7721  2.1476 -0.9890
 7338SOL     OW33472   0.904   3.072   5.314 -0.8169  0.3261 -0.3781
 7338SOL    HW133473   0.873   3.126   5.387 -0.6839 -1.8810  1.3140
 7338SOL    HW233474   0.943   3.003   5.367 -0.4113  1.4625  0.8178
 7339SOL     OW33475   0.438   4.250   8.136  0.2317  0.1468  0.3764
 7339SOL    HW133476   0.442   4.158   8.110  2.3803  0.3129  0.1117
 7339SOL    HW233477   0.509   4.284   8.081 -1.6653  1.3869 -1.2837
 7340SOL     OW33478   0.141   3.429  10.956  0.1132  0.7110 -0.8748
 7340SOL    HW133479   0.210   3.372  10.922  0.9604  1.4045 -0.3039
 7340SOL    HW233480   0.120   3.491  10.886  0.5818  1.5820 -0.2381
 7341SOL     OW33481   3.957   3.861  10.191 -0.5802  0.0619  0.6064
 7341SOL    HW133482   4.022   3.930  10.204  0.3838 -0.4174 -1.7702
 7341SOL    HW233483   4.001   3.791  10.241  0.6853 -0.8478 -1.8016
 7342SOL     OW33484   0.772   1.818  12.450 -0.0866  0.1247  0.2969
 7342SOL    HW133485   0.769   1.737  12.400 -0.1817 -0.1870  0.8037
 7342SOL    HW233486   0.747   1.782  12.535 -0.6640  1.6637  0.7831
 7343SOL     OW33487   0.041   0.102  15.605 -0.7272 -0.5641  0.2044
 7343SOL    HW133488   4.685   0.075  15.558  0.0666 -0.8114 -0.9827
 7343SOL    HW233489   0.094   0.023  15.599 -0.7457 -0.6089  0.6198
 7344SOL     OW33490   0.959   3.983  12.642  0.4741 -0.3634 -0.3820
 7344SOL    HW133491   1.030   3.925  12.613  1.1163  1.1978 -1.9437
 7344SOL    HW233492   0.890   3.956  12.581 -2.3780  1.6776  1.9110
 7345SOL     OW33493   4.506   1.128   8.414 -0.5748  0.2462 -0.5292
 7345SOL    HW133494   4.580   1.077   8.383 -0.4686 -0.3033  0.6339
 7345SOL    HW233495   4.537   1.172   8.493 -0.1829 -4.6788  2.0466
 7346SOL     OW33496   4.107   2.814   8.025  0.3293 -0.0725 -0.1200
 7346SOL    HW133497   4.034   2.847   7.973  0.0075 -0.1143  0.3028
 7346SOL    HW233498   4.093   2.719   8.020  0.8374 -0.2133  1.0660
 7347SOL     OW33499   2.914   1.185   1.768  0.1084 -0.6202 -0.6123
 7347SOL    HW133500   2.842   1.122   1.779 -1.4957  1.3656  0.2815
 7347SOL    HW233501   2.983   1.123   1.746 -1.1004 -1.5084 -1.8635
 7348SOL     OW33502   0.099   2.946   2.664  0.1619 -0.2786  0.0389
 7348SOL    HW133503   0.042   2.955   2.588 -0.2636 -0.0814  0.3758
 7348SOL    HW233504   0.074   2.865   2.708 -3.3797  0.4722 -0.5227
 7349SOL     OW33505   3.184   2.828   8.939 -0.1616  0.3499 -0.4290
 7349SOL    HW133506   3.127   2.784   8.876  0.2321 -0.5434 -0.1626
 7349SOL    HW233507   3.250   2.843   8.872  1.1442 -1.3201  0.4659
 7350SOL     OW33508   2.566   1.564   3.059 -0.5924 -0.2164  0.4038
 7350SOL    HW133509   2.556   1.626   2.987 -3.0273 -0.6510  0.3669
 7350SOL    HW233510   2.656   1.539   3.039  0.2384  3.1521 -0.1712
 7351SOL     OW33511   3.650   2.356  16.800  0.0302 -0.1113 -0.4424
 7351SOL    HW133512   3.670   2.263  16.788 -0.4415 -0.5986  2.5060
 7351SOL    HW233513   3.738   2.385  16.824 -0.3723  1.6391 -1.0888
 7352SOL     OW33514   3.247   3.937   0.471 -0.4703  0.2818 -0.4638
 7352SOL    HW133515   3.173   3.877   0.459 -0.1211 -0.3620  0.6168
 7352SOL    HW233516   3.314   3.870   0.488 -0.6380  0.2674  0.1272
 7353SOL     OW33517   4.134   1.998   6.133 -0.0616  0.6977  0.3367
 7353SOL    HW133518   4.180   2.081   6.128  2.1650 -0.5553 -0.0213
 7353SOL    HW233519   4.138   1.977   6.039 -0.4023 -4.7900  1.5084
 7354SOL     OW33520   4.305   1.578  16.891  0.0370  0.1188 -0.0327
 7354SOL    HW133521   4.335   1.519  16.822  1.2732 -0.9538  1.4026
 7354SOL    HW233522   4.378   1.570  16.953 -1.0912 -3.0548  0.9083
 7355SOL     OW33523   3.695   2.509   5.985 -0.4740 -0.3654 -0.3732
 7355SOL    HW133524   3.760   2.567   5.945  0.3919 -0.6864  0.5661
 7355SOL    HW233525   3.727   2.505   6.076  0.7322 -2.0156 -0.8619
 7356SOL     OW33526   3.426   3.986   3.589  0.1455  0.3521  0.5014
 7356SOL    HW133527   3.459   3.988   3.679  0.5756  1.1484  0.3272
 7356SOL    HW233528   3.488   3.935   3.537  0.0023  0.3553  0.3255
 7357SOL     OW33529   1.545   0.254   8.310  0.5945  0.6920 -0.3387
 7357SOL    HW133530   1.567   0.233   8.401 -0.8019  0.8668  0.0425
 7357SOL    HW233531   1.625   0.236   8.261  0.3670 -0.1026 -0.4341
 7358SOL     OW33532   4.544   4.681  14.653 -0.0236  0.1097  0.2298
 7358SOL    HW133533   4.585   0.025  14.597  0.2027  0.0113  0.2804
 7358SOL    HW233534   4.597   4.693  14.732  1.0325 -0.4043 -0.4094
 7359SOL     OW33535   1.799   3.072  14.182  1.0039  0.6218  0.0719
 7359SOL    HW133536   1.884   3.061  14.224 -0.2279  0.9502  2.6376
 7359SOL    HW233537   1.768   2.981  14.182 -1.4647  1.4637  0.2067
 7360SOL     OW33538   1.153   1.649  12.369  0.2127 -0.3793 -0.4307
 7360SOL    HW133539   1.226   1.702  12.401  1.2668 -1.7126 -0.5899
 7360SOL    HW233540   1.192   1.564  12.348  1.6509 -0.5783  3.1291
 7361SOL     OW33541   4.489   4.279  13.452 -0.2167 -0.5388 -0.3468
 7361SOL    HW133542   4.450   4.229  13.524  3.3708 -2.9101 -0.0208
 7361SOL    HW233543   4.415   4.287  13.393 -0.0815 -3.6700 -0.9495
 7362SOL     OW33544   2.186   4.268  12.722 -0.3599  0.1204  0.2267
 7362SOL    HW133545   2.111   4.282  12.780  0.0939  3.3735  0.0521
 7362SOL    HW233546   2.255   4.264  12.788  2.3112  0.1034 -2.5900
 7363SOL     OW33547   3.458   1.569   1.065 -0.0651 -0.9676  0.1499
 7363SOL    HW133548   3.420   1.505   1.125 -1.8131  0.6077  0.7019
 7363SOL    HW233549   3.442   1.649   1.115  2.0888  0.4930 -1.4554
 7364SOL     OW33550   2.560   4.079   5.658  0.3402 -0.4598  0.2715
 7364SOL    HW133551   2.615   4.003   5.677 -0.6144 -1.4016 -0.6997
 7364SOL    HW233552   2.492   4.070   5.725 -0.9973 -0.4194 -1.0939
 7365SOL     OW33553   0.889   0.474  12.918  0.0123  0.2866  0.6287
 7365SOL    HW133554   0.858   0.458  12.829 -0.5196 -0.0332  0.8688
 7365SOL    HW233555   0.896   0.569  12.909  0.9018  0.3150  1.6678
 7366SOL     OW33556   1.124   2.872   5.426  0.4235 -0.5143 -0.2695
 7366SOL    HW133557   1.097   2.846   5.514  0.7058  1.5163  0.4228
 7366SOL    HW233558   1.091   2.786   5.400  0.5328 -1.0914  1.5132
 7367SOL     OW33559   1.216   3.257   9.188  0.3438  0.1091  0.3150
 7367SOL    HW133560   1.158   3.284   9.117  1.5561 -1.5819 -1.3037
 7367SOL    HW233561   1.201   3.163   9.176  0.7835 -0.0627  1.1102
 7368SOL     OW33562   2.814   2.288   7.988 -0.1313 -0.3728  0.3279
 7368SOL    HW133563   2.742   2.348   7.967  1.0049  0.7269 -0.4263
 7368SOL    HW233564   2.789   2.213   7.933  0.4290 -0.5012  0.2438
 7369SOL     OW33565   3.366   0.123   5.495 -0.2216 -0.1560  0.1261
 7369SOL    HW133566   3.434   0.172   5.449 -0.2128 -0.2729  0.0120
 7369SOL    HW233567   3.419   0.087   5.566  1.0340 -0.2702 -0.8536
 7370SOL     OW33568   4.360   1.895   4.221 -0.1071 -0.1807 -0.0860
 7370SOL    HW133569   4.361   1.801   4.204  1.3754  0.4008 -3.4129
 7370SOL    HW233570   4.433   1.915   4.161  1.2611 -0.2389  1.5610
 7371SOL     OW33571   1.873   1.848   2.180 -0.0987  0.0343 -0.4799
 7371SOL    HW133572   1.959   1.885   2.202 -0.8693  0.5429  1.7383
 7371SOL    HW233573   1.804   1.899   2.223  0.3250  0.9870 -0.9352
 7372SOL     OW33574   4.152   2.619   8.291 -0.2419  0.1136  0.2625
 7372SOL    HW133575   4.127   2.712   8.284  0.8871  0.2159 -2.6167
 7372SOL    HW233576   4.245   2.621   8.269 -0.0500  0.4640  1.1395
 7373SOL     OW33577   1.575   4.263  12.449  0.2428  0.2205 -0.1151
 7373SOL    HW133578   1.608   4.331  12.390  1.1795  1.8669  2.3034
 7373SOL    HW233579   1.657   4.253  12.496  1.2583 -0.9964 -2.1227
 7374SOL     OW33580   3.689   2.634   8.506 -0.7116 -0.6031  0.8009
 7374SOL    HW133581   3.649   2.713   8.543 -0.6238  0.6626 -1.8506
 7374SOL    HW233582   3.628   2.597   8.442  0.4855  2.3714 -2.0451
 7375SOL     OW33583   2.883   3.361   5.864  0.4956  0.2026 -0.2920
 7375SOL    HW133584   2.873   3.267   5.882 -1.1851  0.1852 -1.3392
 7375SOL    HW233585   2.937   3.386   5.939 -2.6679  2.2066  1.3118
 7376SOL     OW33586   2.046   0.492  12.767  0.7625 -0.1272 -0.4493
 7376SOL    HW133587   1.973   0.545  12.733  1.8540  2.0901  0.6335
 7376SOL    HW233588   2.100   0.470  12.692  1.2713  1.2096 -0.4767
 7377SOL     OW33589   0.479   4.438   6.950  0.3967 -0.0832 -0.6133
 7377SOL    HW133590   0.522   4.377   6.891  2.9957 -0.7357  1.9791
 7377SOL    HW233591   0.401   4.387   6.972  0.9705 -1.0648 -0.8697
 7378SOL     OW33592   0.899   3.333   7.960  0.2360  0.0972  0.0885
 7378SOL    HW133593   0.838   3.382   8.016 -0.5418 -2.6572  1.6737
 7378SOL    HW233594   0.835   3.264   7.940 -0.5826  0.8378  0.1384
 7379SOL     OW33595   4.161   4.442   6.336 -0.1507  0.0084 -0.2692
 7379SOL    HW133596   4.207   4.361   6.315 -0.0785 -0.5817  2.1765
 7379SOL    HW233597   4.116   4.400   6.410  1.3047  1.6717  1.5509
 7380SOL     OW33598   0.242   1.305   4.849 -0.0766 -0.2535 -0.0768
 7380SOL    HW133599   0.279   1.219   4.827 -0.2904 -0.0967 -1.0442
 7380SOL    HW233600   0.225   1.298   4.943 -1.2142  0.1774 -0.2531
 7381SOL     OW33601   1.168   1.034   1.479  0.1789 -0.2446 -0.2645
 7381SOL    HW133602   1.217   0.984   1.414  3.6780  2.9008 -0.0474
 7381SOL    HW233603   1.113   0.965   1.516 -0.5655  0.1259 -0.6807
 7382SOL     OW33604   3.673   2.116   7.376  0.0692  0.2734  0.5016
 7382SOL    HW133605   3.766   2.128   7.356 -0.2191 -0.9771 -1.6779
 7382SOL    HW233606   3.637   2.107   7.287  1.2851  1.2846 -0.0988
 7383SOL     OW33607   3.300   4.116   0.268  0.7239 -0.1303 -0.1824
 7383SOL    HW133608   3.243   4.192   0.266  0.0374 -0.6526 -0.2340
 7383SOL    HW233609   3.258   4.065   0.337 -0.6970  2.7297  1.0388
 7384SOL     OW33610   2.745   3.419   1.641 -0.1909 -0.2230 -0.2375
 7384SOL    HW133611   2.835   3.441   1.616 -0.1577 -0.1788 -0.0813
 7384SOL    HW233612   2.721   3.508   1.668 -0.3238 -0.2790 -0.1755
 7385SOL     OW33613   4.340   1.498  10.134  0.3946 -0.0859 -0.3846
 7385SOL    HW133614   4.311   1.565  10.197  1.6234  1.1142 -1.0913
 7385SOL    HW233615   4.380   1.553  10.067 -1.0783 -1.3414 -2.3341
 7386SOL     OW33616   1.810   0.312   6.301 -0.0068  0.0123  0.7296
 7386SOL    HW133617   1.795   0.225   6.337  0.7467 -0.7926 -0.9115
 7386SOL    HW233618   1.805   0.365   6.380  0.4641 -3.9292  3.3985
 7387SOL     OW33619   4.057   1.996  10.256 -0.0492  0.1322 -0.4160
 7387SOL    HW133620   3.974   2.020  10.215  0.0575  0.7483 -0.2687
 7387SOL    HW233621   4.124   2.043  10.207  0.6963 -0.1353  0.3352
 7388SOL     OW33622   1.814   0.227  14.191  0.0040 -0.1699  0.2021
 7388SOL    HW133623   1.786   0.291  14.126  1.4655  2.1895  1.9286
 7388SOL    HW233624   1.734   0.175  14.187  0.6804 -1.1557 -0.4799
 7389SOL     OW33625   0.296   4.648  11.891  0.5467 -0.4559  0.5134
 7389SOL    HW133626   0.352   4.688  11.825 -1.3046  1.2874 -0.0127
 7389SOL    HW233627   0.230   4.716  11.880  0.8050 -0.2519  0.2476
 7390SOL     OW33628   0.989   0.657  16.372 -0.0468 -0.0154  1.3160
 7390SOL    HW133629   1.052   0.596  16.334 -0.6226 -0.3706  0.9255
 7390SOL    HW233630   0.909   0.617  16.338  0.3864  0.7745 -0.6448
 7391SOL     OW33631   3.890   1.205   6.746 -0.7454 -0.0617  0.2978
 7391SOL    HW133632   3.797   1.197   6.726 -0.3174  1.5947 -2.3326
 7391SOL    HW233633   3.907   1.110   6.751  1.7490  0.2647 -2.1165
 7392SOL     OW33634   1.973   3.808   0.227 -0.2430 -0.3689 -0.6160
 7392SOL    HW133635   1.904   3.743   0.240 -1.2598  0.5152 -1.5763
 7392SOL    HW233636   1.932   3.886   0.265  0.8640 -1.0678  1.9885
 7393SOL     OW33637   0.238   1.174   4.442 -0.2279  0.1294 -0.0483
 7393SOL    HW133638   0.150   1.183   4.477 -1.8302  1.0958 -4.3227
 7393SOL    HW233639   0.221   1.093   4.393  0.3406 -0.4163  0.6641
 7394SOL     OW33640   1.601   1.215   5.443  0.4092 -0.1048 -0.0766
 7394SOL    HW133641   1.693   1.189   5.447  0.2932 -0.5767 -0.4836
 7394SOL    HW233642   1.606   1.302   5.482 -0.4711 -0.3324  0.5494
 7395SOL     OW33643   4.495   0.466   2.043  0.4154 -0.6589 -0.3004
 7395SOL    HW133644   4.539   0.419   1.972 -2.6792 -1.7316 -1.5006
 7395SOL    HW233645   4.414   0.493   2.000 -0.2327  0.0094  1.3272
 7396SOL     OW33646   3.692   1.682   6.650  0.3875  0.3323 -0.0112
 7396SOL    HW133647   3.736   1.756   6.693  0.5261  0.4024 -0.2742
 7396SOL    HW233648   3.692   1.607   6.710 -1.3679 -0.1254 -0.6053
 7397SOL     OW33649   3.372   3.072   7.208 -0.4135  0.5694  0.2934
 7397SOL    HW133650   3.404   3.145   7.154  1.9421 -0.9598 -0.3896
 7397SOL    HW233651   3.365   3.105   7.298 -1.7206 -1.9974  1.1245
 7398SOL     OW33652   1.836   1.860   7.690  0.1060  0.8123  0.4566
 7398SOL    HW133653   1.760   1.876   7.745  0.4254 -1.4731  1.5860
 7398SOL    HW233654   1.804   1.851   7.600  1.9607  0.7771 -0.2079
 7399SOL     OW33655   1.503   4.204   7.491 -0.3898 -0.0642 -0.4153
 7399SOL    HW133656   1.530   4.293   7.468 -1.3558 -0.0443 -1.4858
 7399SOL    HW233657   1.412   4.220   7.515 -0.8419 -1.6448 -1.1007
 7400SOL     OW33658   3.002   1.440   9.701 -0.2232  0.2060  0.4403
 7400SOL    HW133659   3.031   1.349   9.697 -0.3166  0.1926 -0.0106
 7400SOL    HW233660   2.916   1.439   9.659 -0.8094 -2.7718  1.7778
 7401SOL     OW33661   1.604   4.151   2.027 -0.7363 -0.4329 -0.3641
 7401SOL    HW133662   1.659   4.075   2.047 -1.0137 -0.4589  0.2846
 7401SOL    HW233663   1.558   4.155   2.110  0.8526 -2.1773  0.5849
 7402SOL     OW33664   2.445   0.342   6.827  0.0687 -0.4508  0.5219
 7402SOL    HW133665   2.449   0.436   6.809  2.5855 -0.5964  0.4409
 7402SOL    HW233666   2.455   0.332   6.921 -0.8094 -1.1689  0.5416
 7403SOL     OW33667   3.488   4.281   8.347 -0.3641 -0.1558 -0.6059
 7403SOL    HW133668   3.541   4.201   8.341 -0.4009 -0.2103 -0.2193
 7403SOL    HW233669   3.545   4.346   8.305 -0.4456  1.0950  1.2398
 7404SOL     OW33670   4.091   1.835   4.328 -0.6801 -0.0172  0.0935
 7404SOL    HW133671   4.147   1.763   4.356  1.3763  0.6479 -2.2707
 7404SOL    HW233672   4.103   1.823   4.233 -0.9110 -1.2399  0.2204
 7405SOL     OW33673   0.148   4.657   8.878  0.1910  0.0283  0.1112
 7405SOL    HW133674   0.108   0.014   8.913  0.2789 -0.3742  1.1056
 7405SOL    HW233675   0.236   4.689   8.860 -0.5222  2.9081  1.7445
 7406SOL     OW33676   1.071   0.352   6.382  0.0891  0.3664 -0.2977
 7406SOL    HW133677   1.034   0.435   6.413  0.4372  1.1413 -1.9347
 7406SOL    HW233678   1.109   0.308   6.458  0.8780 -0.2523 -1.0517
 7407SOL     OW33679   4.319   2.558   9.856  0.1726  0.0656  0.1095
 7407SOL    HW133680   4.350   2.561   9.946 -0.2688 -1.0703  0.2933
 7407SOL    HW233681   4.398   2.547   9.804  0.7946 -2.3511  1.5737
 7408SOL     OW33682   1.077   0.642  17.274 -0.2233  0.9239 -0.1986
 7408SOL    HW133683   1.132   0.601  17.207 -0.2957  1.4493 -0.5853
 7408SOL    HW233684   1.076   0.735  17.248 -0.5583  0.5590 -1.4792
 7409SOL     OW33685   1.771   2.528   6.461 -0.2314  0.5135 -0.6718
 7409SOL    HW133686   1.697   2.474   6.488 -1.3636  1.6510 -1.5705
 7409SOL    HW233687   1.733   2.611   6.487 -0.4529 -0.1633  1.1749
 7410SOL     OW33688   1.538   1.147   2.578 -0.1641  0.4229 -0.4238
 7410SOL    HW133689   1.481   1.216   2.544 -0.4219  0.9728  1.1127
 7410SOL    HW233690   1.481   1.117   2.649 -1.2556  1.0538 -1.0144
 7411SOL     OW33691   0.223   2.746   4.221  0.1294 -0.2178  0.4884
 7411SOL    HW133692   0.294   2.702   4.173  2.4143  1.9194  1.9067
 7411SOL    HW233693   0.173   2.668   4.245 -0.3888 -0.6656 -2.0463
 7412SOL     OW33694   1.212   1.379   7.485  0.2312 -0.0053 -0.3756
 7412SOL    HW133695   1.195   1.472   7.469  1.1877  0.7360  3.1318
 7412SOL    HW233696   1.122   1.348   7.471 -0.1239  0.4520  0.9202
 7413SOL     OW33697   1.258   3.235   4.445 -0.3191  0.1845 -0.4156
 7413SOL    HW133698   1.192   3.170   4.470 -0.4479  0.5272  0.1147
 7413SOL    HW233699   1.200   3.297   4.399  0.8334 -0.1154 -2.2870
 7414SOL     OW33700   3.875   2.793  17.412  0.1596  0.8535  0.5626
 7414SOL    HW133701   3.786   2.815  17.384 -0.6247 -3.3028 -0.3214
 7414SOL    HW233702   3.915   2.772  17.327  0.6130  0.4034  0.8855
 7415SOL     OW33703   3.237   3.109   6.531  0.5237  0.1526  0.1326
 7415SOL    HW133704   3.221   3.165   6.454 -1.9764 -1.9630 -0.9003
 7415SOL    HW233705   3.196   3.160   6.601 -0.2817  0.2805 -0.4292
 7416SOL     OW33706   0.533   3.274   8.502  0.1885  0.1281  0.3378
 7416SOL    HW133707   0.451   3.292   8.549  0.3799 -0.0213  0.7238
 7416SOL    HW233708   0.606   3.312   8.551 -0.6536  0.4791  1.3136
 7417SOL     OW33709   3.906   4.693   6.516 -0.1114  0.1744  0.8193
 7417SOL    HW133710   3.930   4.610   6.475  0.7816  0.1536  1.3928
 7417SOL    HW233711   3.812   4.691   6.499 -0.0424  2.9591  0.0638
 7418SOL     OW33712   0.675   2.460   9.075 -0.3561  0.4666  0.4877
 7418SOL    HW133713   0.751   2.505   9.113  0.9861 -1.3406 -0.0444
 7418SOL    HW233714   0.695   2.370   9.100 -2.7445 -0.3918 -0.7226
 7419SOL     OW33715   3.607   1.555   8.886 -0.3099 -0.4015 -0.5608
 7419SOL    HW133716   3.667   1.623   8.853 -0.4696  0.3373  0.6652
 7419SOL    HW233717   3.611   1.484   8.822  3.8647 -0.8431  0.1595
 7420SOL     OW33718   3.092   1.458  13.217 -0.0219 -0.0404  0.1725
 7420SOL    HW133719   3.122   1.425  13.132  0.7084 -0.5379  0.6203
 7420SOL    HW233720   2.997   1.455  13.207 -0.1107  0.2506  0.9460
 7421SOL     OW33721   0.810   1.970   3.655  0.1576 -0.2743  0.2662
 7421SOL    HW133722   0.819   1.875   3.656  1.7548 -0.1326  0.0706
 7421SOL    HW233723   0.805   1.990   3.748  2.2543  0.6266  0.2040
 7422SOL     OW33724   2.130   3.457   8.515 -0.0260 -0.9162 -0.1230
 7422SOL    HW133725   2.122   3.388   8.580  2.0639  0.5576  1.6850
 7422SOL    HW233726   2.047   3.505   8.515  0.2340 -0.4605  0.0488
 7423SOL     OW33727   3.441   1.194   7.318 -0.3269 -0.5937 -0.0917
 7423SOL    HW133728   3.482   1.215   7.235  1.8130  0.3063  1.1969
 7423SOL    HW233729   3.416   1.284   7.341 -0.2324 -1.2469  2.6312
 7424SOL     OW33730   3.656   3.972   7.097 -0.2877 -0.1535  0.3092
 7424SOL    HW133731   3.732   3.939   7.049 -0.0554  2.1557 -0.9196
 7424SOL    HW233732   3.689   4.046   7.147  0.1734  0.6435 -1.1595
 7425SOL     OW33733   1.178   2.495   9.049  0.2330 -0.3295  0.0429
 7425SOL    HW133734   1.213   2.558   8.986 -1.6451  1.0658  0.3698
 7425SOL    HW233735   1.105   2.549   9.081  1.3283  0.3251  1.4169
 7426SOL     OW33736   0.617   0.372   6.475 -0.2997  0.1208  0.4533
 7426SOL    HW133737   0.670   0.390   6.397 -1.7968  0.5194 -0.4669
 7426SOL    HW233738   0.544   0.324   6.436  0.3405 -2.2948  2.2417
 7427SOL     OW33739   2.816   3.198   2.530 -0.5696  0.1879  0.2338
 7427SOL    HW133740   2.811   3.177   2.437  0.5129 -0.7891  0.3967
 7427SOL    HW233741   2.867   3.279   2.538  1.8092 -1.0587 -2.1821
 7428SOL     OW33742   1.997   4.183   2.402 -0.3058  0.1971 -0.5127
 7428SOL    HW133743   1.911   4.214   2.432  1.1918  2.3885  1.4207
 7428SOL    HW233744   2.017   4.253   2.340 -0.9467  0.6284 -0.2320
 7429SOL     OW33745   4.324   3.397  13.438  0.0717 -0.0094 -0.3344
 7429SOL    HW133746   4.402   3.367  13.392  0.4714 -0.4278  0.6409
 7429SOL    HW233747   4.369   3.449  13.504 -0.9818 -3.5188  3.1592
 7430SOL     OW33748   3.154   3.657   4.679  0.3703  0.3121  0.3534
 7430SOL    HW133749   3.191   3.596   4.615  0.8499 -0.3419  1.2658
 7430SOL    HW233750   3.167   3.610   4.761  2.8550  1.3543  0.5471
 7431SOL     OW33751   0.675   2.512   1.552  0.4518 -0.0645 -0.3640
 7431SOL    HW133752   0.675   2.450   1.625 -2.2127 -0.3254 -0.5922
 7431SOL    HW233753   0.643   2.590   1.596  0.3763 -0.2896 -0.0255
 7432SOL     OW33754   3.346   1.566   6.782  0.2990 -0.1294  0.2250
 7432SOL    HW133755   3.281   1.628   6.748 -1.7506 -1.4529  1.6984
 7432SOL    HW233756   3.406   1.627   6.824 -0.9863  1.2027  0.1365
 7433SOL     OW33757   4.607   2.802   0.374 -0.1548  0.5947 -0.3846
 7433SOL    HW133758   4.547   2.785   0.447 -0.5825  0.0167 -0.8697
 7433SOL    HW233759   4.634   2.892   0.390  2.7458 -0.2117 -0.7148
 7434SOL     OW33760   2.088   0.436   5.215  0.0122  0.2580 -0.3936
 7434SOL    HW133761   2.062   0.360   5.162  2.3254 -0.0601 -1.0739
 7434SOL    HW233762   2.017   0.438   5.280  1.4541  0.3817  1.1866
 7435SOL     OW33763   2.700   1.335   4.090  0.5653  1.0966 -0.4753
 7435SOL    HW133764   2.654   1.345   4.174  2.1310  2.4446  0.2298
 7435SOL    HW233765   2.689   1.422   4.052  1.8790  2.5526  2.4957
 7436SOL     OW33766   4.688   3.286   4.907 -0.1378  0.2574 -0.6181
 7436SOL    HW133767   0.052   3.254   4.931 -0.3680  0.6077  0.7158
 7436SOL    HW233768   4.687   3.285   4.812 -0.8669 -0.5365 -0.6102
 7437SOL     OW33769   2.759   3.624  15.426  0.3995 -0.1550  0.9260
 7437SOL    HW133770   2.814   3.687  15.380 -0.0488  0.0818  0.7146
 7437SOL    HW233771   2.724   3.577  15.350  1.7051  0.9210 -0.3429
 7438SOL     OW33772   0.021   0.493   4.744 -0.1153  0.0162 -0.1058
 7438SOL    HW133773   4.691   0.549   4.802  0.5988  2.9252 -2.2546
 7438SOL    HW233774   4.703   0.408   4.760  0.2104 -0.2395 -0.6326
 7439SOL     OW33775   0.485   0.915  10.081 -0.4210  0.2569 -0.2873
 7439SOL    HW133776   0.494   0.916   9.986  0.2008  0.1712 -0.2304
 7439SOL    HW233777   0.572   0.880  10.102 -1.1231 -0.6654  1.0536
 7440SOL     OW33778   0.884   4.291   0.508  0.6924  0.5719  0.7058
 7440SOL    HW133779   0.864   4.297   0.414  1.6843  1.1330  0.5239
 7440SOL    HW233780   0.904   4.382   0.532 -1.4346  1.4760 -0.9089
 7441SOL     OW33781   0.351   2.840  10.106  0.2956  0.3099 -0.4576
 7441SOL    HW133782   0.269   2.879  10.076  0.8747  0.4214 -1.9240
 7441SOL    HW233783   0.420   2.904  10.089  1.8828 -0.9412  1.1688
 7442SOL     OW33784   3.580   3.931   5.495 -0.5362 -0.3640  0.4035
 7442SOL    HW133785   3.614   3.919   5.406  1.4584  0.9351  0.9768
 7442SOL    HW233786   3.661   3.953   5.542 -0.2303 -0.7924  0.0703
 7443SOL     OW33787   3.233   3.071  12.421 -0.6291  0.2999  0.3264
 7443SOL    HW133788   3.313   3.060  12.472  0.4176  0.8115 -1.1745
 7443SOL    HW233789   3.270   3.026  12.345 -0.1569  0.6386  0.3513
 7444SOL     OW33790   3.813   0.294   3.857 -0.0207  0.1625  0.8793
 7444SOL    HW133791   3.834   0.214   3.808  0.2673  1.2776 -0.8109
 7444SOL    HW233792   3.777   0.348   3.786 -1.5397 -2.7486 -0.5757
 7445SOL     OW33793   4.686   0.931   2.437 -0.1594 -0.0828 -0.5418
 7445SOL    HW133794   4.664   1.014   2.396 -0.5716 -0.9169 -2.0166
 7445SOL    HW233795   4.627   0.938   2.512 -0.7662  0.4669 -1.0792
 7446SOL     OW33796   3.037   0.903   7.723  0.5615  0.1953 -0.2334
 7446SOL    HW133797   2.969   0.875   7.784 -0.2656 -0.9151 -1.6974
 7446SOL    HW233798   2.987   0.927   7.646  0.3788  1.2799  0.2200
 7447SOL     OW33799   0.824   1.480   8.757  0.2851  0.5103 -0.1120
 7447SOL    HW133800   0.871   1.531   8.823 -0.0595  0.7068 -0.0117
 7447SOL    HW233801   0.893   1.418   8.736  0.0411  0.2913 -0.2693
 7448SOL     OW33802   3.420   3.865   7.183  0.1644  0.3626  0.0639
 7448SOL    HW133803   3.398   3.950   7.220  0.2352 -0.2891  1.5869
 7448SOL    HW233804   3.510   3.889   7.160 -0.0639  1.6812  0.5417
 7449SOL     OW33805   3.048   1.776   7.938 -0.7426  0.2066  0.2157
 7449SOL    HW133806   3.006   1.840   7.881  1.3614  1.1542 -0.2675
 7449SOL    HW233807   2.978   1.776   8.003 -1.7330  1.5541 -0.8543
 7450SOL     OW33808   4.282   3.867   9.046  0.0241 -0.3467  0.4050
 7450SOL    HW133809   4.317   3.949   9.081  0.1717 -0.3389  0.2436
 7450SOL    HW233810   4.337   3.805   9.094  2.7014  1.5010 -0.2468
 7451SOL     OW33811   1.897   3.678  14.796  0.1628 -0.2966 -0.3639
 7451SOL    HW133812   1.860   3.681  14.885  1.0912 -2.3346  0.0859
 7451SOL    HW233813   1.980   3.637  14.820  0.1265  2.1087  3.9714
 7452SOL     OW33814   1.950   3.800  10.990 -0.0190  0.3343 -0.7761
 7452SOL    HW133815   2.002   3.776  11.067  1.4156  1.8099 -1.2853
 7452SOL    HW233816   1.970   3.893  10.988 -2.4811  0.8831  0.6681
 7453SOL     OW33817   3.486   4.525   4.127  0.2281 -0.7182 -0.1861
 7453SOL    HW133818   3.563   4.499   4.178 -0.2616 -1.1398  0.3380
 7453SOL    HW233819   3.421   4.459   4.152  0.6713 -0.3919  1.7545
 7454SOL     OW33820   1.201   4.195   7.201 -0.2479 -0.2001 -0.1530
 7454SOL    HW133821   1.142   4.261   7.237  2.2446 -0.0633  3.6854
 7454SOL    HW233822   1.178   4.123   7.260 -0.3330 -0.2517 -0.2498
 7455SOL     OW33823   4.123   2.296   3.230 -0.1292 -0.3224 -0.8209
 7455SOL    HW133824   4.058   2.290   3.299  0.1264  0.7595 -0.4934
 7455SOL    HW233825   4.196   2.290   3.291  0.0436  1.3450 -0.8755
 7456SOL     OW33826   1.875   2.738  13.420 -0.1623 -0.2730 -0.4031
 7456SOL    HW133827   1.932   2.802  13.463  2.3148 -0.6000 -3.2000
 7456SOL    HW233828   1.823   2.789  13.357 -1.3590 -2.9691 -1.6227
 7457SOL     OW33829   3.838   3.359  15.350  0.0189 -0.1603 -0.3801
 7457SOL    HW133830   3.749   3.346  15.384 -0.8766  1.3980 -2.1458
 7457SOL    HW233831   3.876   3.314  15.426  1.9500 -0.3715 -1.4756
 7458SOL     OW33832   2.550   0.228   1.730  0.4227  0.5149 -0.4291
 7458SOL    HW133833   2.588   0.141   1.723 -1.6008 -0.3557 -0.5483
 7458SOL    HW233834   2.623   0.284   1.758  0.8795  0.2141 -1.0168
 7459SOL     OW33835   4.267   3.099   6.067 -0.3028 -0.2394 -0.4182
 7459SOL    HW133836   4.264   3.009   6.101  0.1498 -0.2137 -0.3121
 7459SOL    HW233837   4.358   3.121   6.085 -0.0696  0.3697 -2.2914
 7460SOL     OW33838   2.875   2.089  11.557 -0.0291  0.1993  0.3368
 7460SOL    HW133839   2.822   2.019  11.520 -0.0791  0.1085  0.5813
 7460SOL    HW233840   2.807   2.153  11.577  2.0587  2.8076 -0.8889
 7461SOL     OW33841   1.274   1.739   7.614 -0.4727  0.1113 -0.0297
 7461SOL    HW133842   1.254   1.773   7.527 -2.1396 -1.3549 -0.2157
 7461SOL    HW233843   1.272   1.823   7.661  0.1285 -1.2497  2.4331
 7462SOL     OW33844   3.218   1.284   1.624  0.2732 -0.3833 -0.5645
 7462SOL    HW133845   3.251   1.196   1.642  1.0705  0.3687  1.6513
 7462SOL    HW233846   3.267   1.305   1.544  2.9232 -1.2070  0.8538
 7463SOL     OW33847   0.979   3.078   0.654  0.5546  0.2901  0.1395
 7463SOL    HW133848   0.977   3.004   0.715 -2.4714 -0.0565 -0.3771
 7463SOL    HW233849   1.023   3.031   0.583 -2.0054 -2.1238  0.1089
 7464SOL     OW33850   3.782   0.409   1.852 -0.1087 -0.3908 -0.0531
 7464SOL    HW133851   3.761   0.348   1.782 -1.1608 -0.4951  0.3490
 7464SOL    HW233852   3.742   0.490   1.821 -0.1872 -0.6687 -0.6615
 7465SOL     OW33853   1.203   3.322   2.043 -0.0890  0.2638 -0.2031
 7465SOL    HW133854   1.261   3.389   2.007 -2.9352  2.7335 -0.2006
 7465SOL    HW233855   1.120   3.369   2.039 -2.1612 -3.4614  0.0154
 7466SOL     OW33856   3.309   1.306  15.895  0.0477 -0.1027  0.0085
 7466SOL    HW133857   3.315   1.307  15.990  0.4570 -0.4615 -0.0164
 7466SOL    HW233858   3.365   1.234  15.868 -0.4114  0.0690 -1.4242
 7467SOL     OW33859   4.288   1.229   0.232 -0.3663 -0.3498  0.7772
 7467SOL    HW133860   4.219   1.254   0.293 -2.3031  2.3760 -2.5788
 7467SOL    HW233861   4.364   1.267   0.276 -1.3426  0.8333  1.4246
 7468SOL     OW33862   1.311   3.166   7.576 -0.0131 -0.0480  0.0701
 7468SOL    HW133863   1.395   3.209   7.563  1.5019 -2.6293  1.3765
 7468SOL    HW233864   1.279   3.186   7.489 -0.3958  1.1173  0.4822
 7469SOL     OW33865   3.278   4.221  10.021  0.1732  0.1538 -0.1897
 7469SOL    HW133866   3.206   4.245  10.080  0.5823  0.0464  0.3588
 7469SOL    HW233867   3.343   4.285  10.050 -0.8308  1.6931 -1.3046
 7470SOL     OW33868   3.974   3.930   2.150 -0.1162 -0.0875  0.0918
 7470SOL    HW133869   4.061   3.963   2.171  0.6824 -1.1047 -1.5769
 7470SOL    HW233870   3.933   4.016   2.144  1.9306  0.7620 -1.7526
 7471SOL     OW33871   1.396   3.557  11.096 -0.0467  0.1364  0.1405
 7471SOL    HW133872   1.340   3.500  11.044 -1.3684 -2.0160  3.9118
 7471SOL    HW233873   1.390   3.639  11.048 -0.0112  0.4826  0.7318
 7472SOL     OW33874   4.352   1.402   9.207 -0.2779 -0.2529  0.1685
 7472SOL    HW133875   4.368   1.308   9.201 -0.0457 -0.1616 -0.5699
 7472SOL    HW233876   4.434   1.429   9.249 -0.0719 -0.8628  0.1572
 7473SOL     OW33877   3.389   4.109  11.098  0.1104 -0.2686  0.4191
 7473SOL    HW133878   3.458   4.170  11.125 -1.0439  1.9472 -1.6708
 7473SOL    HW233879   3.370   4.144  11.011 -1.2521 -1.6479  0.1660
 7474SOL     OW33880   4.488   3.006   4.709  0.4306  0.3399  0.1453
 7474SOL    HW133881   4.453   3.083   4.755 -0.7076 -0.4903  0.6652
 7474SOL    HW233882   4.446   2.938   4.761  0.0852  0.7028  0.3395
 7475SOL     OW33883   3.702   1.542   9.138  0.1012  0.3287  0.8039
 7475SOL    HW133884   3.714   1.449   9.155  0.5423  0.1882 -0.2348
 7475SOL    HW233885   3.646   1.547   9.060 -3.1690 -0.4229  3.0761
 7476SOL     OW33886   2.243   3.120  11.169 -0.4098  0.4694  0.3886
 7476SOL    HW133887   2.269   3.212  11.179  1.4136 -0.1158  1.0649
 7476SOL    HW233888   2.156   3.132  11.132  0.4256 -0.4176 -1.8892
 7477SOL     OW33889   4.293   1.824   8.401 -0.7078 -0.2455 -0.1735
 7477SOL    HW133890   4.259   1.795   8.486 -1.5847 -0.9095 -0.7514
 7477SOL    HW233891   4.222   1.833   8.338  0.7150 -0.8834 -1.8650
 7478SOL     OW33892   0.417   3.146  15.454 -0.1782  0.2966  0.0937
 7478SOL    HW133893   0.412   3.131  15.360  0.4233  2.7093 -0.3092
 7478SOL    HW233894   0.374   3.230  15.468 -1.1613 -0.3593  1.0494
 7479SOL     OW33895   0.033   1.062   2.871 -0.2311 -0.4704  0.0506
 7479SOL    HW133896   4.695   1.045   2.798 -1.6673 -0.8649  1.3375
 7479SOL    HW233897   0.031   0.977   2.917 -0.5072 -0.6970 -0.3764
 7480SOL     OW33898   0.717   1.233   7.089  0.4115  0.0627 -0.2180
 7480SOL    HW133899   0.808   1.232   7.119 -0.3890 -0.8673  2.1584
 7480SOL    HW233900   0.663   1.206   7.164 -0.6437  2.0045 -0.2771
 7481SOL     OW33901   1.638   4.179   5.941  0.4621  0.2370 -0.4027
 7481SOL    HW133902   1.650   4.110   5.876 -0.8258 -0.8987  0.5532
 7481SOL    HW233903   1.544   4.194   5.933  0.3546 -1.0055 -1.4981
 7482SOL     OW33904   0.489   3.054   9.144  0.4314 -0.0710 -0.0834
 7482SOL    HW133905   0.578   3.084   9.160  0.2816  0.1233  0.3797
 7482SOL    HW233906   0.454   3.063   9.233  0.5257 -1.6430  0.1108
 7483SOL     OW33907   1.854   0.958  11.911 -0.5665 -0.0212 -0.0445
 7483SOL    HW133908   1.838   0.888  11.847  0.4542  1.2809 -1.7298
 7483SOL    HW233909   1.793   1.020  11.869 -0.1241  0.0414 -0.5968
 7484SOL     OW33910   0.428   1.186  10.101 -0.2422 -0.1453  0.3606
 7484SOL    HW133911   0.373   1.150  10.032  3.3544 -2.5580 -1.2493
 7484SOL    HW233912   0.470   1.105  10.130 -1.8846 -0.7448  1.0393
 7485SOL     OW33913   0.877   4.286   8.522  0.3641  0.1976 -0.0703
 7485SOL    HW133914   0.968   4.279   8.551 -0.0434 -1.1433  0.8652
 7485SOL    HW233915   0.872   4.377   8.491 -1.6175 -0.3693 -1.4169
 7486SOL     OW33916   3.938   3.494   5.602 -0.3259 -0.5324  0.4654
 7486SOL    HW133917   3.982   3.422   5.556 -0.7835  0.2228 -1.1767
 7486SOL    HW233918   4.015   3.548   5.616 -0.5026  0.7905 -3.5023
 7487SOL     OW33919   3.468   2.308   8.762  0.2872 -0.4431  0.7082
 7487SOL    HW133920   3.399   2.246   8.742  1.2915 -0.8974 -1.3686
 7487SOL    HW233921   3.408   2.381   8.776  3.3221  1.9827  1.1876
 7488SOL     OW33922   1.007   3.216   4.906  0.1040 -0.0026  0.2437
 7488SOL    HW133923   0.984   3.207   4.814  1.2586  1.3610 -0.1788
 7488SOL    HW233924   1.103   3.206   4.911  0.2299  0.9932 -0.2844
 7489SOL     OW33925   2.220   3.456   4.741  0.1783 -0.4390 -0.3317
 7489SOL    HW133926   2.155   3.524   4.723  0.8627  0.2972 -0.0394
 7489SOL    HW233927   2.179   3.372   4.724  1.4398 -0.8915 -1.1882
 7490SOL     OW33928   4.331   0.171  12.558 -0.2251  0.0324  0.1816
 7490SOL    HW133929   4.402   0.216  12.604 -0.1527  0.5652 -0.4538
 7490SOL    HW233930   4.260   0.227  12.587  0.2468  2.6143 -3.6914
 7491SOL     OW33931   3.561   2.816   4.122  0.0780  0.2325 -0.4057
 7491SOL    HW133932   3.639   2.786   4.073  0.0631 -2.4830  1.2626
 7491SOL    HW233933   3.599   2.891   4.167  0.4341  0.1022 -0.4799
 7492SOL     OW33934   3.621   3.810   9.334  0.1528  0.1964  0.4084
 7492SOL    HW133935   3.716   3.811   9.326 -0.0036 -1.2572 -1.4967
 7492SOL    HW233936   3.600   3.779   9.246  1.2743 -0.7271  0.4659
 7493SOL     OW33937   1.415   2.481  11.840  0.1244 -0.2116  0.1095
 7493SOL    HW133938   1.329   2.520  11.848 -0.9715 -2.4307 -0.7228
 7493SOL    HW233939   1.417   2.473  11.744 -1.8058 -0.7446  0.1169
 7494SOL     OW33940   3.123   1.799   7.512  0.5055 -0.0104  0.0656
 7494SOL    HW133941   3.051   1.858   7.486  2.2644  0.7208 -3.1468
 7494SOL    HW233942   3.199   1.842   7.474  0.6200  0.3783  0.7461
 7495SOL     OW33943   2.844   2.094   6.409 -0.0284 -0.2653 -0.0847
 7495SOL    HW133944   2.798   2.171   6.376  0.0392  0.7247  2.1219
 7495SOL    HW233945   2.936   2.116   6.396 -0.1813 -1.4338 -3.1656
 7496SOL     OW33946   0.102   4.465  14.227  0.8426  0.6171  0.1107
 7496SOL    HW133947   0.185   4.504  14.198 -0.1266  0.1285 -3.4129
 7496SOL    HW233948   0.125   4.372  14.231 -2.0365 -0.1204 -0.8591
 7497SOL     OW33949   0.221   1.036   3.563 -0.2340 -0.3175  0.0074
 7497SOL    HW133950   0.289   1.037   3.495  0.8076 -0.5713  1.0398
 7497SOL    HW233951   0.236   0.958   3.617  3.5284  0.6714  0.4175
 7498SOL     OW33952   0.261   2.596   7.329  0.1082 -0.4646 -0.5884
 7498SOL    HW133953   0.246   2.662   7.397 -2.6210 -0.6769 -0.9776
 7498SOL    HW233954   0.195   2.531   7.352 -1.5292  0.9946 -1.1630
 7499SOL     OW33955   3.544   1.716  14.090 -0.1316 -0.5645  0.2493
 7499SOL    HW133956   3.502   1.800  14.106  0.7316 -0.2616  0.9465
 7499SOL    HW233957   3.524   1.686  14.178 -1.6326 -1.2205 -0.3071
 7500SOL     OW33958   1.758   1.949   6.806 -0.0341  0.3946 -0.3632
 7500SOL    HW133959   1.706   1.950   6.725  0.1992  1.5448 -0.4981
 7500SOL    HW233960   1.840   1.978   6.766 -1.9745  1.8669 -3.2604
 7501SOL     OW33961   1.789   1.623   3.394 -0.0261 -0.5308 -0.4342
 7501SOL    HW133962   1.830   1.653   3.313 -1.0302  1.4297 -0.2211
 7501SOL    HW233963   1.836   1.681   3.454 -2.1552  1.2979 -0.5264
 7502SOL     OW33964   3.247   3.999   8.530  0.6905 -0.0800 -0.0265
 7502SOL    HW133965   3.269   4.082   8.572 -0.9762 -0.2142  1.1108
 7502SOL    HW233966   3.173   4.024   8.475  1.3587  0.5222 -0.6502
 7503SOL     OW33967   0.692   1.798   1.826  0.3843  0.4857 -0.0002
 7503SOL    HW133968   0.630   1.809   1.753  1.1215  0.5480 -0.6186
 7503SOL    HW233969   0.705   1.892   1.842  3.1451  0.1036 -0.0780
 7504SOL     OW33970   2.047   2.543   1.979  0.4961 -0.3064 -0.0562
 7504SOL    HW133971   2.115   2.545   2.047  0.6094  1.0659 -0.2131
 7504SOL    HW233972   1.982   2.477   2.003 -0.4432  0.9483  0.8133
 7505SOL     OW33973   2.434   0.369   1.554 -0.5096  0.6691 -0.3510
 7505SOL    HW133974   2.471   0.318   1.626 -0.9701 -1.0117 -1.3265
 7505SOL    HW233975   2.354   0.401   1.597 -0.1446  1.8143 -0.5133
 7506SOL     OW33976   1.357   2.083   6.461 -0.1228 -0.1318 -0.2456
 7506SOL    HW133977   1.275   2.090   6.509  0.2138  1.1385  0.1423
 7506SOL    HW233978   1.322   2.044   6.381 -0.5962 -0.1171 -0.0463
 7507SOL     OW33979   1.031   1.322   8.708  0.0068  0.2931 -0.0409
 7507SOL    HW133980   1.086   1.364   8.641 -1.6422 -0.5410 -1.9140
 7507SOL    HW233981   1.027   1.235   8.669  1.0372  0.8086 -1.2938
 7508SOL     OW33982   0.386   2.357  10.864 -0.2151 -0.5279  0.2893
 7508SOL    HW133983   0.335   2.436  10.846  0.3121 -0.7601 -2.2468
 7508SOL    HW233984   0.471   2.399  10.868 -0.7562  0.5649  0.1379
 7509SOL     OW33985   4.312   1.080  15.603  0.0495 -0.0326 -0.0589
 7509SOL    HW133986   4.385   1.031  15.567  1.6662 -0.3960  3.8166
 7509SOL    HW233987   4.356   1.161  15.627  1.3585 -0.3288 -1.4902
 7510SOL     OW33988   2.098   2.446  15.317  0.4170  0.5032 -0.3445
 7510SOL    HW133989   2.074   2.527  15.272 -2.6623  0.3414  1.0553
 7510SOL    HW233990   2.019   2.415  15.360 -0.0980  0.4829 -1.3000
 7511SOL     OW33991   0.332   1.531   5.097  0.2044  0.0128  0.3013
 7511SOL    HW133992   0.349   1.491   5.011  1.5776  1.4681 -0.1000
 7511SOL    HW233993   0.273   1.464   5.131 -1.2258  1.8260  1.3970
 7512SOL     OW33994   4.031   2.709  17.619  0.3001  0.0671 -0.7792
 7512SOL    HW133995   3.987   2.756  17.548 -0.2764 -1.0992 -1.1846
 7512SOL    HW233996   4.100   2.765  17.656  0.1490  1.3529 -2.4525
 7513SOL     OW33997   2.043   3.105   3.479 -0.2805  0.5560 -0.2460
 7513SOL    HW133998   1.970   3.131   3.535 -1.7709  0.1773 -1.9845
 7513SOL    HW233999   2.025   3.012   3.463  0.4703 -0.1538  3.1271
 7514SOL     OW34000   0.665   1.571   1.999  0.0143 -0.1816  0.3898
 7514SOL    HW134001   0.600   1.536   1.937 -0.0448 -1.0100  0.9189
 7514SOL    HW234002   0.674   1.654   1.951  0.8518 -0.2554  0.4224
 7515SOL     OW34003   0.764   2.411   2.858 -0.1852  0.5107 -0.4233
 7515SOL    HW134004   0.830   2.481   2.851 -0.3921  0.8771  1.5424
 7515SOL    HW234005   0.681   2.459   2.850 -1.7897 -2.1081  0.6331
 7516SOL     OW34006   3.075   0.762   1.477  0.6100  0.2548 -0.1844
 7516SOL    HW134007   3.072   0.671   1.505 -2.7430  0.7632  1.1121
 7516SOL    HW234008   3.077   0.749   1.382 -1.8823  4.0048 -0.7720
 7517SOL     OW34009   3.829   0.603   8.918 -0.2021 -0.5907  0.9378
 7517SOL    HW134010   3.857   0.688   8.953 -0.4419 -0.5887  1.1215
 7517SOL    HW234011   3.837   0.620   8.824 -2.4905  2.3497  1.2798
 7518SOL     OW34012   0.703   4.331   3.265  0.2937  0.2778 -0.1998
 7518SOL    HW134013   0.661   4.347   3.181  1.1319  1.3622 -0.4062
 7518SOL    HW234014   0.735   4.417   3.290  1.6665 -1.0617  2.6112
 7519SOL     OW34015   3.004   0.745   8.557  0.0553  0.2382  0.3733
 7519SOL    HW134016   2.971   0.813   8.616  2.4323  0.1987  1.7586
 7519SOL    HW234017   2.949   0.671   8.585 -0.6918  0.1494 -1.3298
 7520SOL     OW34018   2.065   0.219   5.044  0.3575  0.1066  0.1443
 7520SOL    HW134019   1.989   0.166   5.020  0.4828 -0.5489  1.2209
 7520SOL    HW234020   2.139   0.163   5.018 -0.6450 -0.1826 -2.1094
 7521SOL     OW34021   2.395   0.934   2.476 -0.7606  0.1830  0.2915
 7521SOL    HW134022   2.439   0.975   2.402  0.2278 -0.6929  0.3930
 7521SOL    HW234023   2.424   0.847   2.451  1.9244  1.0807  0.2547
 7522SOL     OW34024   0.438   3.081   5.725 -0.1980  0.1279 -0.3734
 7522SOL    HW134025   0.387   3.007   5.692  2.1016 -0.9510 -1.5625
 7522SOL    HW234026   0.472   3.106   5.639 -1.1595  2.0355 -0.1919
 7523SOL     OW34027   0.689   1.031  13.472  0.2181  0.0747 -0.2747
 7523SOL    HW134028   0.687   1.124  13.453 -0.9418  0.5752  2.3198
 7523SOL    HW234029   0.696   1.036  13.568  1.1113  0.0949 -0.3366
 7524SOL     OW34030   0.759   0.453   0.266 -0.2887 -0.2537  0.4937
 7524SOL    HW134031   0.830   0.395   0.240 -0.4906 -0.0639 -0.4978
 7524SOL    HW234032   0.719   0.419   0.346  0.6132 -3.6339 -0.4764
 7525SOL     OW34033   2.807   1.222   9.853  0.8197  0.0106  0.5313
 7525SOL    HW134034   2.762   1.141   9.878 -1.5234  1.1377 -0.0084
 7525SOL    HW234035   2.748   1.256   9.785  0.7573 -0.6000  0.2798
 7526SOL     OW34036   4.256   2.965   2.393  0.1787 -0.2325  0.8384
 7526SOL    HW134037   4.182   2.946   2.335 -0.1661  2.3446  0.4165
 7526SOL    HW234038   4.227   2.940   2.480  0.1091 -2.2083  0.2379
 7527SOL     OW34039   3.926   0.991   9.603  0.9654  0.4691  0.2959
 7527SOL    HW134040   3.975   0.924   9.556 -0.5817 -0.7544  0.4326
 7527SOL    HW234041   3.935   0.973   9.697 -1.2330  0.0572  0.4140
 7528SOL     OW34042   4.383   0.181  10.444 -0.5790  0.1606 -0.2765
 7528SOL    HW134043   4.455   0.180  10.380 -1.0026 -1.2074 -0.7308
 7528SOL    HW234044   4.319   0.136  10.389 -1.2779 -0.5877  1.1373
 7529SOL     OW34045   2.278   4.243   4.894  0.8347  0.0409  0.3705
 7529SOL    HW134046   2.276   4.268   4.802 -1.2833 -2.3331 -0.2231
 7529SOL    HW234047   2.305   4.154   4.875  0.9825  0.0429  0.5744
 7530SOL     OW34048   4.577   4.014   5.686 -0.4992 -0.1335 -0.0329
 7530SOL    HW134049   4.545   4.104   5.679 -1.3299 -0.4021  0.2491
 7530SOL    HW234050   4.619   4.010   5.772  1.0550  0.5230 -0.7654
 7531SOL     OW34051   4.407   1.484   7.662 -0.8677 -0.6009 -0.8486
 7531SOL    HW134052   4.328   1.535   7.645 -0.8650 -0.7488 -1.2808
 7531SOL    HW234053   4.369   1.405   7.699 -0.2006  0.2391  1.6615
 7532SOL     OW34054   1.524   1.925  12.175  0.0394  0.6540 -0.3260
 7532SOL    HW134055   1.600   1.980  12.192  0.5075  0.2000 -0.9374
 7532SOL    HW234056   1.560   1.841  12.205 -2.2782  0.5272  2.0756
 7533SOL     OW34057   4.228   0.568  10.393  0.3973 -0.1117 -0.5036
 7533SOL    HW134058   4.188   0.566  10.306 -2.4100 -2.1820  0.8284
 7533SOL    HW234059   4.252   0.661  10.400 -0.1169  0.1219 -1.8872
 7534SOL     OW34060   2.991   3.031   3.916 -0.1424  0.2768 -0.1005
 7534SOL    HW134061   2.920   2.995   3.862  0.2202 -0.7453  0.1011
 7534SOL    HW234062   3.069   2.987   3.882 -0.5917 -0.3202 -0.3786
 7535SOL     OW34063   3.746   2.682   4.848 -0.0083  0.2065  0.0549
 7535SOL    HW134064   3.826   2.710   4.803 -0.0154  0.5047  0.2285
 7535SOL    HW234065   3.778   2.620   4.914  0.6405  0.2661 -0.2016
 7536SOL     OW34066   1.051   0.004   9.087 -0.3782 -0.0435 -0.3502
 7536SOL    HW134067   0.996   0.034   9.160 -0.9248 -1.8151 -0.0298
 7536SOL    HW234068   1.138   0.028   9.117 -0.5130  0.1847 -0.1351
 7537SOL     OW34069   2.285   1.273  10.778  0.4087 -0.5393 -0.2081
 7537SOL    HW134070   2.352   1.225  10.827 -0.2394  0.1213  1.3059
 7537SOL    HW234071   2.302   1.363  10.805 -1.1424 -0.3086  0.0094
 7538SOL     OW34072   3.092   1.197   9.219  0.9620  0.2295  0.4302
 7538SOL    HW134073   3.066   1.147   9.141  2.3194 -0.5512  0.4825
 7538SOL    HW234074   3.119   1.121   9.269 -0.7995 -1.9401 -1.8816
 7539SOL     OW34075   1.005   1.148   5.907 -0.3845 -0.0891  0.1726
 7539SOL    HW134076   0.942   1.149   5.836  0.9866 -0.8674 -1.0532
 7539SOL    HW234077   1.018   1.242   5.897 -0.7625  0.0148  0.6446
 7540SOL     OW34078   2.857   0.849   7.931  0.1330  0.1874 -0.1417
 7540SOL    HW134079   2.828   0.760   7.950  1.7099 -0.1941  0.4989
 7540SOL    HW234080   2.866   0.887   8.018 -1.0137 -2.3637  1.0908
 7541SOL     OW34081   2.353   0.563   3.964  0.9348 -0.5069  0.5736
 7541SOL    HW134082   2.351   0.628   3.893  0.4474 -0.9013  0.2353
 7541SOL    HW234083   2.347   0.634   4.028 -0.2099 -0.1650  0.0905
 7542SOL     OW34084   2.884   4.092   0.367 -0.1245  0.0632  0.4295
 7542SOL    HW134085   2.906   4.164   0.426 -0.1752  1.0170 -0.7113
 7542SOL    HW234086   2.836   4.034   0.426 -2.3564  0.2752 -1.2011
 7543SOL     OW34087   2.011   2.591   5.533  0.7291  0.4598  0.3455
 7543SOL    HW134088   1.991   2.645   5.457 -0.8177 -0.1166  0.3486
 7543SOL    HW234089   1.924   2.552   5.532  0.3704  1.3617 -2.5159
 7544SOL     OW34090   2.071   0.848   2.240  0.0542 -0.1516 -0.3006
 7544SOL    HW134091   2.145   0.807   2.195  0.2259 -4.0636  3.5360
 7544SOL    HW234092   2.124   0.878   2.314 -0.1288  2.1500 -1.0964
 7545SOL     OW34093   3.964   2.094   4.111  0.1882  0.1461 -0.0913
 7545SOL    HW134094   3.933   2.004   4.124  0.9139 -0.3013 -1.4670
 7545SOL    HW234095   3.883   2.141   4.133  1.0029  0.6960  1.6730
 7546SOL     OW34096   1.618   3.375  16.558  0.1471 -0.1646 -0.2219
 7546SOL    HW134097   1.713   3.373  16.569 -0.0019 -3.4605  0.2071
 7546SOL    HW234098   1.599   3.469  16.549 -0.0818 -0.4219 -2.4591
 7547SOL     OW34099   3.095   3.462   7.067 -0.1317 -0.1541  0.2461
 7547SOL    HW134100   3.059   3.459   7.155  0.0881 -2.0923  0.2772
 7547SOL    HW234101   3.040   3.529   7.027  0.2577  0.2208  0.3337
 7548SOL     OW34102   3.129   0.633   7.152  0.4304  0.2852  0.1036
 7548SOL    HW134103   3.045   0.601   7.118 -0.1075  1.0700  0.7116
 7548SOL    HW234104   3.104   0.723   7.169 -0.0977  0.2430 -0.4444
 7549SOL     OW34105   0.989   3.963   8.742  0.0207 -0.0527  0.4655
 7549SOL    HW134106   1.025   3.885   8.700  1.0917  0.7378 -0.0633
 7549SOL    HW234107   0.910   3.927   8.783 -0.7720  2.2416  0.9548
 7550SOL     OW34108   3.454   4.146  17.302  0.1101 -0.0458  0.2546
 7550SOL    HW134109   3.399   4.152  17.380  2.7431 -0.0794  2.0852
 7550SOL    HW234110   3.458   4.237  17.271 -1.2755  0.0102  0.2283
 7551SOL     OW34111   0.787   3.159   5.553  0.4285  0.4650  0.0732
 7551SOL    HW134112   0.804   3.198   5.639  2.8242 -1.3909  0.4206
 7551SOL    HW234113   0.695   3.182   5.542 -0.0242 -0.5616  1.7174
 7552SOL     OW34114   0.680   4.387   2.660 -0.3433  0.1933 -0.3644
 7552SOL    HW134115   0.772   4.379   2.688 -1.4146 -0.3966  2.9962
 7552SOL    HW234116   0.680   4.385   2.565  0.3640  2.3051 -0.3942
 7553SOL     OW34117   1.453   2.730  12.191 -0.2580 -0.0635  0.2465
 7553SOL    HW134118   1.501   2.686  12.261  0.2691  1.2141  0.6878
 7553SOL    HW234119   1.512   2.700  12.121  0.1861 -3.8867  2.2963
 7554SOL     OW34120   2.262   1.136   6.177 -1.0120 -0.1642  0.7539
 7554SOL    HW134121   2.208   1.059   6.158  0.5264 -0.4929 -2.4179
 7554SOL    HW234122   2.224   1.188   6.106 -0.2940 -0.1613  0.3766
 7555SOL     OW34123   0.132   3.308  14.920  0.3739 -0.7052  0.4442
 7555SOL    HW134124   0.037   3.319  14.909  0.0471 -0.8873  3.1316
 7555SOL    HW234125   0.139   3.300  15.015 -1.7342  1.3398  0.7812
 7556SOL     OW34126   0.329   2.044   2.928  0.2568  0.1664 -0.0008
 7556SOL    HW134127   0.338   2.064   3.022  2.4737 -1.2666  0.0849
 7556SOL    HW234128   0.423   2.040   2.908  0.4455  0.0286  0.9069
 7557SOL     OW34129   2.749   4.699   7.048 -0.0859  0.5119  0.1930
 7557SOL    HW134130   2.736   4.709   6.954 -1.6576 -0.7786  0.2636
 7557SOL    HW234131   2.711   4.612   7.059  2.1483 -0.3989  0.6429
 7558SOL     OW34132   2.663   3.467   9.196 -0.1487 -0.1657 -0.3783
 7558SOL    HW134133   2.684   3.489   9.105 -1.0840  0.5295 -0.4341
 7558SOL    HW234134   2.740   3.488   9.248 -0.9330  3.0729 -0.4895
 7559SOL     OW34135   3.955   4.536   0.300 -0.9342 -0.3128  0.2244
 7559SOL    HW134136   3.906   4.539   0.218  0.6543  0.4146 -0.6870
 7559SOL    HW234137   3.965   4.624   0.335  0.6923 -0.1924 -0.5245
 7560SOL     OW34138   4.096   0.386   7.604  0.0450 -0.0155  0.9903
 7560SOL    HW134139   4.078   0.388   7.510 -0.8343 -1.0810  1.1362
 7560SOL    HW234140   4.016   0.341   7.631  0.4415  0.5076  3.0339
 7561SOL     OW34141   1.421   0.512   9.629 -0.5386  0.2095 -0.4057
 7561SOL    HW134142   1.360   0.585   9.627 -0.2833  0.4420  0.2334
 7561SOL    HW234143   1.481   0.530   9.556  1.0770 -1.1384  0.5800
 7562SOL     OW34144   0.071   4.139   8.627 -0.0108  0.3882  0.6208
 7562SOL    HW134145   4.708   4.168   8.595  1.3313  1.4729 -1.9408
 7562SOL    HW234146   0.050   4.047   8.642  0.5046 -0.6702 -5.4189
 7563SOL     OW34147   0.949   1.980  10.395 -0.4856  0.1841  0.0823
 7563SOL    HW134148   0.993   2.044  10.452  2.8400 -0.1251 -2.1417
 7563SOL    HW234149   0.968   2.015  10.308  0.0147  0.1633  0.1791
 7564SOL     OW34150   4.374   3.542   7.369 -0.3022  0.2086 -0.5335
 7564SOL    HW134151   4.315   3.588   7.428 -0.2663 -0.5620  0.1128
 7564SOL    HW234152   4.307   3.510   7.308  0.9050 -0.8801 -1.2910
 7565SOL     OW34153   0.235   3.658   5.078  0.5881  0.1694 -0.4284
 7565SOL    HW134154   0.282   3.602   5.017 -0.5393 -2.8907  1.4714
 7565SOL    HW234155   0.162   3.602   5.105 -0.4179  1.7188  0.1197
 7566SOL     OW34156   1.204   3.746   6.343 -0.1402 -0.1940 -0.3399
 7566SOL    HW134157   1.134   3.731   6.279 -1.4789 -0.8631  1.2987
 7566SOL    HW234158   1.235   3.656   6.346  1.0607  0.3617  2.8802
 7567SOL     OW34159   2.775   1.354   9.558 -0.4548  0.2157 -0.1443
 7567SOL    HW134160   2.803   1.288   9.495 -0.5522 -0.3382  0.3945
 7567SOL    HW234161   2.728   1.416   9.503 -0.2377 -0.3862 -1.0069
 7568SOL     OW34162   3.491   3.582   4.550 -0.5913  0.1731 -0.1820
 7568SOL    HW134163   3.415   3.529   4.523  0.5356 -1.6370  0.2096
 7568SOL    HW234164   3.451   3.666   4.573  1.9182  2.4430 -4.1665
 7569SOL     OW34165   2.491   0.404  15.426  0.1444 -0.4212  0.3380
 7569SOL    HW134166   2.485   0.309  15.422 -5.1662 -0.0407 -0.3789
 7569SOL    HW234167   2.501   0.422  15.333  0.6177  1.2710  0.7066
 7570SOL     OW34168   1.303   1.960   5.856 -0.3639  0.2832  0.7748
 7570SOL    HW134169   1.370   2.007   5.907  0.5689  1.9633 -1.9974
 7570SOL    HW234170   1.352   1.880   5.835  2.9623  1.8982  2.2980
 7571SOL     OW34171   3.471   1.287   0.649 -0.4678 -0.5168 -0.4425
 7571SOL    HW134172   3.432   1.304   0.563 -0.7152  1.0305 -0.0202
 7571SOL    HW234173   3.566   1.292   0.633 -0.7062  4.0682 -0.3852
 7572SOL     OW34174   0.148   3.511   8.541 -0.0725 -0.2566  0.1980
 7572SOL    HW134175   0.114   3.577   8.602 -0.6877  1.9244 -2.5323
 7572SOL    HW234176   0.211   3.471   8.601  1.5375 -1.1853 -2.1633
 7573SOL     OW34177   2.958   4.200   7.545  0.5780  0.3983  0.1978
 7573SOL    HW134178   2.864   4.190   7.533  0.3527  1.2132  1.3161
 7573SOL    HW234179   2.974   4.281   7.594 -0.4514  0.9970 -0.4550
 7574SOL     OW34180   0.390   4.228   3.977  0.5803 -0.3397 -0.0992
 7574SOL    HW134181   0.298   4.222   4.004  0.5112 -1.0711 -0.4912
 7574SOL    HW234182   0.393   4.314   3.934  2.4217  0.5243  1.8121
 7575SOL     OW34183   0.022   1.377  10.970  0.1498  0.8240  0.4039
 7575SOL    HW134184   4.706   1.463  10.987 -0.5373  0.6919 -0.4805
 7575SOL    HW234185   0.112   1.409  10.960 -0.0354  1.6398  1.3911
 7576SOL     OW34186   3.673   2.034   3.645 -0.2414 -0.8061  0.1654
 7576SOL    HW134187   3.696   2.037   3.552 -0.1326 -0.8885  0.1904
 7576SOL    HW234188   3.705   1.945   3.661 -0.1666 -1.2455 -2.4795
 7577SOL     OW34189   1.783   1.048   2.265 -0.2707  0.2498 -0.2823
 7577SOL    HW134190   1.743   1.132   2.289 -0.9155 -0.0327 -0.3764
 7577SOL    HW234191   1.847   1.082   2.202 -0.0919 -1.9553 -1.2607
 7578SOL     OW34192   0.919   1.886   4.174 -0.3739  0.0269  0.6761
 7578SOL    HW134193   0.967   1.803   4.172  1.3416  1.0819 -2.2557
 7578SOL    HW234194   0.890   1.909   4.086 -1.1448 -0.0745  0.9073
 7579SOL     OW34195   2.260   2.240  11.333  0.2538 -0.0067 -0.0169
 7579SOL    HW134196   2.299   2.176  11.393 -4.2404 -1.7285  1.0650
 7579SOL    HW234197   2.185   2.266  11.386  0.1768  0.6216 -0.4391
 7580SOL     OW34198   0.627   3.923  15.985 -0.1654  0.1259 -0.0325
 7580SOL    HW134199   0.616   3.868  15.907  1.0883 -1.4333  0.8761
 7580SOL    HW234200   0.593   3.863  16.051 -0.4574  1.5313  1.0882
 7581SOL     OW34201   0.918   0.672   6.176 -0.1115 -0.0620  0.0741
 7581SOL    HW134202   0.896   0.764   6.183  1.5350  0.0279  3.8120
 7581SOL    HW234203   0.979   0.676   6.103 -0.1832  4.7809  0.2934
 7582SOL     OW34204   3.734   3.394   8.007 -0.2388  0.0404  0.8177
 7582SOL    HW134205   3.695   3.370   7.923  0.5546  1.0857  0.1467
 7582SOL    HW234206   3.656   3.404   8.063 -3.4055  2.1107 -4.0412
 7583SOL     OW34207   0.573   1.118  10.538  0.2965  0.6091 -0.0533
 7583SOL    HW134208   0.668   1.122  10.539  0.2709  0.6197  1.6394
 7583SOL    HW234209   0.556   1.111  10.631  0.4835  3.0926  0.1625
 7584SOL     OW34210   2.416   3.091   5.923  0.2471  0.2561  0.0797
 7584SOL    HW134211   2.344   3.088   5.986  1.4502  2.5906  1.5293
 7584SOL    HW234212   2.445   3.181   5.932  0.3325  0.4291 -1.8359
 7585SOL     OW34213   0.209   4.387   8.023  0.7525  0.3701 -0.0763
 7585SOL    HW134214   0.279   4.328   8.050  0.0825  0.7721  2.5737
 7585SOL    HW234215   0.243   4.465   8.068 -0.4723  0.9825 -0.2096
 7586SOL     OW34216   2.484   1.809   0.028 -0.5660 -0.2101 -0.4849
 7586SOL    HW134217   2.559   1.783  17.665  1.0549 -0.4479  1.8244
 7586SOL    HW234218   2.524   1.829   0.113 -0.8340  0.4387 -0.5169
 7587SOL     OW34219   2.240   2.306  17.248 -0.9149 -0.2506 -0.6626
 7587SOL    HW134220   2.233   2.292  17.343  0.8242 -0.3139 -0.5380
 7587SOL    HW234221   2.318   2.252  17.234  1.2153  2.6146  0.0789
 7588SOL     OW34222   1.550   3.861   0.789 -0.2153 -0.5740  0.5311
 7588SOL    HW134223   1.473   3.827   0.744 -0.8981  1.4715  0.1321
 7588SOL    HW234224   1.614   3.790   0.796  1.3144  0.6611 -0.8600
 7589SOL     OW34225   1.219   0.907   0.023  0.5528  0.3600 -0.4413
 7589SOL    HW134226   1.129   0.939   0.011  0.2400  0.0366  1.0590
 7589SOL    HW234227   1.228   0.846  17.641  2.9077  1.2682 -0.9203
 7590SOL     OW34228   1.741   2.239   2.695 -0.2140 -0.3682 -0.2828
 7590SOL    HW134229   1.732   2.307   2.628 -0.9254  0.1135  0.3146
 7590SOL    HW234230   1.720   2.163   2.640 -0.5493 -0.5710  0.1364
 7591SOL     OW34231   4.550   4.495   0.636  0.2738  0.1535 -0.0662
 7591SOL    HW134232   4.487   4.520   0.704  3.1125  0.3387  2.5039
 7591SOL    HW234233   4.523   4.561   0.572 -0.5402  1.4718  1.6192
 7592SOL     OW34234   0.301   3.071   4.700  0.0999 -0.5001 -0.3967
 7592SOL    HW134235   0.289   3.070   4.605  2.7946  0.5727 -0.7646
 7592SOL    HW234236   0.397   3.073   4.696  0.1727  1.8533  2.9645
 7593SOL     OW34237   3.033   1.324   2.962  0.4309 -0.1501 -0.0840
 7593SOL    HW134238   2.971   1.267   3.007  1.5001 -0.7170  0.6754
 7593SOL    HW234239   3.069   1.363   3.041  1.0432  1.5388 -1.2101
 7594SOL     OW34240   2.097   1.122  16.358  0.5445 -0.1767 -0.4421
 7594SOL    HW134241   2.189   1.140  16.339  0.0275  0.2409 -2.4911
 7594SOL    HW234242   2.062   1.164  16.280  0.5277  1.1891  0.3059
 7595SOL     OW34243   3.901   0.618   9.400  0.2259 -0.7736  0.0060
 7595SOL    HW134244   3.896   0.585   9.310  0.4527 -3.7634  1.0934
 7595SOL    HW234245   3.807   0.623   9.418  0.2358 -4.0093  0.9770
 7596SOL     OW34246   3.352   2.799   5.827  0.4021 -0.0512  0.9263
 7596SOL    HW134247   3.305   2.785   5.910 -0.8599  1.1995  0.4167
 7596SOL    HW234248   3.410   2.723   5.833 -1.3495 -1.3713  1.0350
 7597SOL     OW34249   0.394   0.861  16.971  0.4109  0.5984  0.4067
 7597SOL    HW134250   0.302   0.837  16.986  0.9849 -1.4694  0.6175
 7597SOL    HW234251   0.409   0.945  17.013 -1.1283 -0.1385  2.4621
 7598SOL     OW34252   1.211   2.885   7.366  0.1682 -0.0913  0.0123
 7598SOL    HW134253   1.128   2.840   7.382 -0.2529  0.1794 -1.4303
 7598SOL    HW234254   1.253   2.865   7.450 -0.5796  1.0910  0.6606
 7599SOL     OW34255   3.340   0.648   5.781 -0.3655  0.0408 -0.2943
 7599SOL    HW134256   3.350   0.729   5.831  0.7868  1.1969 -2.4051
 7599SOL    HW234257   3.255   0.651   5.736 -2.0174 -0.8726  2.7543
 7600SOL     OW34258   2.855   1.749   4.230  0.7185 -0.1489 -0.3670
 7600SOL    HW134259   2.946   1.760   4.258  0.7199 -1.3808  0.1071
 7600SOL    HW234260   2.814   1.774   4.313  1.9239 -1.5562  0.6600
 7601SOL     OW34261   3.210   4.264   2.327  0.5948  0.1517  0.2664
 7601SOL    HW134262   3.244   4.235   2.243 -1.8481 -1.9977  0.0335
 7601SOL    HW234263   3.181   4.352   2.303  0.1044 -0.1731 -0.3353
 7602SOL     OW34264   0.260   0.696   6.242  0.2397  0.6463 -1.1535
 7602SOL    HW134265   0.302   0.624   6.195  0.9515  0.7911 -0.7316
 7602SOL    HW234266   0.190   0.658   6.296  0.2119  0.0392 -1.6085
 7603SOL     OW34267   2.252   1.480   7.708  0.0196  0.2119  0.0661
 7603SOL    HW134268   2.177   1.538   7.695  1.6935  2.1427 -0.8857
 7603SOL    HW234269   2.216   1.401   7.749  0.5298 -0.6693 -1.1748
 7604SOL     OW34270   0.630   4.467   5.477  0.2528  0.2421  0.0839
 7604SOL    HW134271   0.544   4.508   5.490 -0.1964 -0.3198 -1.0448
 7604SOL    HW234272   0.678   4.550   5.488  0.1707  0.3648 -0.4821
 7605SOL     OW34273   0.043   1.589   7.857 -0.1655 -0.0702  0.4112
 7605SOL    HW134274   0.059   1.674   7.817 -1.0147 -0.9217 -1.7195
 7605SOL    HW234275   4.695   1.606   7.920  0.4337  1.0203  0.7870
 7606SOL     OW34276   3.184   4.347  11.485  0.3610 -0.8986  0.1911
 7606SOL    HW134277   3.132   4.427  11.484 -1.5471 -2.1125  1.0940
 7606SOL    HW234278   3.266   4.367  11.530 -0.8164 -1.4041  2.5517
 7607SOL     OW34279   3.110   4.261   8.954  0.3105 -0.4172 -1.1058
 7607SOL    HW134280   3.070   4.274   9.040 -0.2262  0.0422 -1.4205
 7607SOL    HW234281   3.136   4.170   8.966  2.8269  0.5629  0.6969
 7608SOL     OW34282   3.690   2.044   5.173  0.4493 -0.1989 -0.0460
 7608SOL    HW134283   3.756   2.023   5.106 -0.0343 -1.4988 -0.1057
 7608SOL    HW234284   3.604   2.009   5.149  0.1571 -0.1631  0.9571
 7609SOL     OW34285   0.491   0.656  16.825  0.8412 -0.4154 -0.5117
 7609SOL    HW134286   0.479   0.576  16.874 -2.3236  0.6646  0.4426
 7609SOL    HW234287   0.456   0.718  16.888 -0.5684 -1.1362 -0.6021
 7610SOL     OW34288   4.568   0.149  11.271 -0.1751  0.9532  0.8719
 7610SOL    HW134289   4.622   0.075  11.241 -1.1200  0.8050 -0.4648
 7610SOL    HW234290   4.640   0.212  11.273 -1.0522  1.9339  1.1457
 7611SOL     OW34291   4.013   0.252   4.601  0.2181  0.0868  0.0274
 7611SOL    HW134292   3.968   0.331   4.571  2.2545  1.0377 -0.5187
 7611SOL    HW234293   4.060   0.222   4.523  0.6403 -0.8614  0.6448
 7612SOL     OW34294   1.161   3.115   3.775  0.4408 -0.4973  1.0920
 7612SOL    HW134295   1.252   3.090   3.762  0.4400 -1.1266  2.3348
 7612SOL    HW234296   1.167   3.154   3.862  3.1180 -0.6937  1.0045
 7613SOL     OW34297   2.048   3.540   8.185  0.1934 -0.1226  0.0844
 7613SOL    HW134298   2.043   3.552   8.090  2.0910 -1.0320 -0.1268
 7613SOL    HW234299   2.138   3.563   8.205  0.6613 -1.2038 -0.7547
 7614SOL     OW34300   2.868   4.504   3.712  0.0503 -0.5558  0.6605
 7614SOL    HW134301   2.801   4.543   3.767 -0.3331  0.6255 -0.6361
 7614SOL    HW234302   2.871   4.414   3.743 -0.8789 -0.8357 -0.0419
 7615SOL     OW34303   4.219   1.810   2.884 -0.3895  0.2062  0.5092
 7615SOL    HW134304   4.136   1.762   2.888 -0.0944 -0.3077  0.5270
 7615SOL    HW234305   4.249   1.778   2.799 -0.7411  0.7800  0.1663
 7616SOL     OW34306   4.143   1.202  15.425  0.4714  0.0103  0.5095
 7616SOL    HW134307   4.173   1.149  15.498  0.4857  0.0156  0.5073
 7616SOL    HW234308   4.123   1.274  15.485 -0.8928 -0.5521  0.7471
 7617SOL     OW34309   2.272   4.001   2.546  0.7842 -0.0562 -0.1573
 7617SOL    HW134310   2.273   4.015   2.451 -1.2632  1.2575  0.0184
 7617SOL    HW234311   2.268   3.906   2.550 -0.2307  0.0461  1.2237
 7618SOL     OW34312   1.174   0.748  10.865  0.9059  0.2057 -0.0569
 7618SOL    HW134313   1.261   0.722  10.837  1.5356  1.2440  0.9624
 7618SOL    HW234314   1.146   0.814  10.802 -0.2458  0.7915  1.0709
 7619SOL     OW34315   2.183   3.434   5.874  0.2726  0.1384  0.3025
 7619SOL    HW134316   2.233   3.417   5.794 -1.1562  1.8635 -0.9571
 7619SOL    HW234317   2.203   3.524   5.899  2.7446 -0.8903  2.0403
 7620SOL     OW34318   4.106   3.385   5.111 -0.3582 -0.7692  0.1545
 7620SOL    HW134319   4.017   3.358   5.088 -0.7459  0.5524  0.1004
 7620SOL    HW234320   4.136   3.306   5.156  0.4394 -0.9532 -0.6997
 7621SOL     OW34321   4.284   1.900   3.825  0.6105  0.2424 -0.2388
 7621SOL    HW134322   4.214   1.908   3.760  0.0605  0.0141  0.3246
 7621SOL    HW234323   4.354   1.877   3.764 -0.5126  0.4789 -1.6307
 7622SOL     OW34324   0.580   2.895   4.826  0.3000  0.2709  0.0977
 7622SOL    HW134325   0.612   2.808   4.803  0.4045  0.4620 -0.4882
 7622SOL    HW234326   0.511   2.909   4.761 -1.1808 -1.5429  1.2628
 7623SOL     OW34327   2.120   1.165   9.169  0.2401  0.3361  0.5930
 7623SOL    HW134328   2.185   1.156   9.238  1.4238 -0.6983 -0.6492
 7623SOL    HW234329   2.118   1.074   9.138 -0.7545  1.4498 -2.5892
 7624SOL     OW34330   0.433   2.645   4.077  0.1724  0.2900 -0.3222
 7624SOL    HW134331   0.509   2.594   4.108 -0.7953 -2.0863 -1.8619
 7624SOL    HW234332   0.470   2.677   3.995  1.2597 -0.9954 -0.3409
 7625SOL     OW34333   4.591   3.906   4.014  0.1186  0.2574  0.0940
 7625SOL    HW134334   4.649   3.840   4.051 -1.4683 -0.5802  1.0946
 7625SOL    HW234335   4.524   3.902   4.082  1.1949 -2.0357  1.0157
 7626SOL     OW34336   2.710   0.600   4.563  0.3111 -0.2979  0.0123
 7626SOL    HW134337   2.760   0.520   4.581 -1.3516 -1.2385  0.4002
 7626SOL    HW234338   2.771   0.657   4.515  1.0264  2.5910  4.4351
 7627SOL     OW34339   0.271   2.417  17.044 -0.3747 -0.0400 -0.2872
 7627SOL    HW134340   0.292   2.510  17.046  0.4500 -0.2369  0.3236
 7627SOL    HW234341   0.187   2.419  17.089 -1.5192 -1.2906 -2.3658
 7628SOL     OW34342   0.877   1.046   1.362  0.0108  0.1113  0.7811
 7628SOL    HW134343   0.962   1.055   1.404  0.0857  0.8515  0.4581
 7628SOL    HW234344   0.816   1.056   1.435  1.3910  3.1369  1.5051
 7629SOL     OW34345   4.712   0.520   6.051 -0.0985 -0.0999 -0.1968
 7629SOL    HW134346   4.626   0.539   6.013 -1.4352  0.8326  3.3015
 7629SOL    HW234347   4.700   0.568   6.133  0.2308  2.3804 -1.6267
 7630SOL     OW34348   2.102   0.625   8.058  0.1953  0.3710 -0.2558
 7630SOL    HW134349   2.105   0.623   7.963  1.9545 -1.0211 -0.1735
 7630SOL    HW234350   2.019   0.582   8.076 -0.1820  1.4567  0.5918
 7631SOL     OW34351   2.840   4.251   2.931 -0.2108 -0.0427 -0.0212
 7631SOL    HW134352   2.782   4.285   2.862 -1.5928 -1.0622  0.6477
 7631SOL    HW234353   2.887   4.184   2.882  0.0413 -0.7346  1.1715
 7632SOL     OW34354   2.733   3.839   8.794  0.1977 -0.2355 -0.2629
 7632SOL    HW134355   2.809   3.825   8.850 -1.1920  0.1871  1.7565
 7632SOL    HW234356   2.697   3.919   8.832 -1.8235 -1.2223 -0.0469
 7633SOL     OW34357   1.307   2.374   1.933 -0.6510 -0.0228 -0.1337
 7633SOL    HW134358   1.258   2.421   1.865 -2.3426  1.3217  1.9918
 7633SOL    HW234359   1.399   2.389   1.913 -0.8207 -1.4712 -2.0156
 7634SOL     OW34360   1.172   0.007  13.975  0.1784 -0.1282 -0.2323
 7634SOL    HW134361   1.242   4.670  14.002 -0.4793 -0.6418  0.3345
 7634SOL    HW234362   1.099   4.709  14.033  0.0280  0.5347 -0.1915
 7635SOL     OW34363   1.989   4.464   3.624 -0.3688  0.0386  0.4775
 7635SOL    HW134364   1.986   4.481   3.530 -0.9413 -0.1240  0.4634
 7635SOL    HW234365   2.034   4.380   3.638  1.3932  1.2410  2.0235
 7636SOL     OW34366   4.079   3.535   1.407  0.1422 -0.0701 -0.2778
 7636SOL    HW134367   4.000   3.553   1.355  1.0944  1.8975 -1.0246
 7636SOL    HW234368   4.033   3.510   1.488 -0.3148  1.2612 -0.1317
 7637SOL     OW34369   3.828   2.948   4.061 -0.3671  0.6472 -0.2878
 7637SOL    HW134370   3.812   3.023   4.118 -0.2791 -0.4493  1.2060
 7637SOL    HW234371   3.859   2.881   4.122  0.1905  0.9881 -0.2051
 7638SOL     OW34372   1.004   0.400   9.462  0.4075  0.0815  0.9449
 7638SOL    HW134373   1.054   0.374   9.539  0.6923  0.1794  0.7920
 7638SOL    HW234374   0.930   0.447   9.500  0.1253  1.1691 -0.9477
 7639SOL     OW34375   1.404   1.361   2.277 -0.0135 -0.4774  0.1614
 7639SOL    HW134376   1.331   1.418   2.251 -0.5382 -1.0764  0.3070
 7639SOL    HW234377   1.396   1.347   2.371 -0.7477 -0.5530  0.0906
 7640SOL     OW34378   0.950   1.068   9.574 -0.2354  0.1304 -0.2186
 7640SOL    HW134379   0.896   1.072   9.653 -1.3538  0.3188 -0.9884
 7640SOL    HW234380   0.955   0.975   9.553 -0.3191 -0.3243  1.8278
 7641SOL     OW34381   1.813   3.991   3.581 -0.2544  0.1612  0.0699
 7641SOL    HW134382   1.787   4.033   3.663 -0.6328 -1.6041  0.8381
 7641SOL    HW234383   1.863   4.061   3.540 -0.6388 -0.1616 -0.9507
 7642SOL     OW34384   2.705   2.102   3.567 -0.4384 -0.2351 -0.3136
 7642SOL    HW134385   2.640   2.169   3.548  1.4973  1.9037  0.5926
 7642SOL    HW234386   2.735   2.085   3.478  0.2695  2.0749 -0.4988
 7643SOL     OW34387   4.694   3.190   8.998 -0.2305 -0.0794 -0.1031
 7643SOL    HW134388   0.040   3.212   8.935 -0.8309 -1.4595 -1.2514
 7643SOL    HW234389   0.007   3.153   9.078 -0.3918  0.0780  0.0410
 7644SOL     OW34390   4.657   1.973   4.466  0.2679 -0.2427 -0.0336
 7644SOL    HW134391   4.721   1.984   4.394 -0.3346  0.0450 -0.5253
 7644SOL    HW234392   4.576   2.008   4.429 -0.2389 -1.9750 -0.5311
 7645SOL     OW34393   0.426   3.509   6.446  0.5281  0.1354 -0.0572
 7645SOL    HW134394   0.350   3.559   6.414 -1.7412 -2.7926  0.7125
 7645SOL    HW234395   0.488   3.506   6.373  2.7384 -1.7277  1.9167
 7646SOL     OW34396   4.295   0.114  13.169  0.4988 -0.1969  0.3708
 7646SOL    HW134397   4.374   0.090  13.218  0.1929  0.0347  0.9787
 7646SOL    HW234398   4.276   0.196  13.215  0.7581 -0.4406  0.9202
 7647SOL     OW34399   0.051   1.573   3.293  0.1477 -0.2491  0.0465
 7647SOL    HW134400   0.049   1.494   3.239  0.2466  1.1151 -1.9412
 7647SOL    HW234401   4.693   1.618   3.265  0.6384  0.5672 -0.0479
 7648SOL     OW34402   4.676   1.508   7.615 -0.1218  0.1481 -0.9908
 7648SOL    HW134403   4.716   1.536   7.697  0.8264 -0.4779 -1.2427
 7648SOL    HW234404   4.582   1.527   7.624 -0.3093 -0.8990 -0.7416
 7649SOL     OW34405   0.892   4.237  10.561  0.3147 -0.1732 -0.0365
 7649SOL    HW134406   0.829   4.165  10.564  1.2849 -0.9770  0.9480
 7649SOL    HW234407   0.957   4.209  10.626  1.5267 -0.7652 -1.5080
 7650SOL     OW34408   4.151   3.687   8.901  0.1787 -0.2351 -0.0987
 7650SOL    HW134409   4.217   3.639   8.851  0.5638  0.8349 -0.6144
 7650SOL    HW234410   4.210   3.750   8.940 -0.0209  0.7640 -1.4122
 7651SOL     OW34411   3.040   3.175  10.238  0.4340 -0.0619 -0.4681
 7651SOL    HW134412   3.028   3.208  10.327  0.2833 -1.8471  0.1589
 7651SOL    HW234413   2.955   3.156  10.199 -1.0620 -0.4587  2.9846
 7652SOL     OW34414   2.904   1.292   6.870 -0.5546 -0.1484  0.0410
 7652SOL    HW134415   2.940   1.327   6.952 -1.4744 -0.4322  0.5635
 7652SOL    HW234416   2.881   1.204   6.899 -1.4379  1.1438  3.3528
 7653SOL     OW34417   0.323   2.639   4.877 -0.2786  0.2212 -0.6813
 7653SOL    HW134418   0.318   2.594   4.793 -2.6913 -0.6186 -0.0878
 7653SOL    HW234419   0.371   2.585   4.941 -0.7320  0.2103 -0.3486
 7654SOL     OW34420   4.704   3.535  13.501  0.1373 -0.3067 -0.4072
 7654SOL    HW134421   0.022   3.546  13.415  1.1543 -0.9889 -0.0103
 7654SOL    HW234422   4.614   3.561  13.481 -0.3495 -1.7556 -0.0654
 7655SOL     OW34423   2.249   3.988   8.812 -0.5063 -0.1740  0.1009
 7655SOL    HW134424   2.171   4.043   8.821 -1.9012 -1.5814 -3.1722
 7655SOL    HW234425   2.205   3.922   8.758  0.6693  0.0531 -1.1335
 7656SOL     OW34426   1.243   4.496   6.827 -0.2317  0.0225  0.1955
 7656SOL    HW134427   1.338   4.484   6.831  0.3891  4.0318 -2.6852
 7656SOL    HW234428   1.219   4.405   6.842  0.7711 -0.0143  1.6085
 7657SOL     OW34429   0.130   2.060   6.159  0.3465  0.1264  0.4775
 7657SOL    HW134430   0.051   2.100   6.198 -0.5797  0.1993 -1.4903
 7657SOL    HW234431   0.191   2.092   6.225  0.4814 -0.3739  0.5971
 7658SOL     OW34432   0.861   2.301   7.424 -0.0621  0.1456  0.4018
 7658SOL    HW134433   0.785   2.357   7.433  1.7018  2.6933 -0.6217
 7658SOL    HW234434   0.832   2.221   7.467 -0.6048  0.1628  0.0649
 7659SOL     OW34435   2.999   1.609   4.824 -0.0853 -0.1847 -0.3296
 7659SOL    HW134436   2.912   1.605   4.863  0.1023 -0.0048  0.1097
 7659SOL    HW234437   3.011   1.704   4.829 -0.9168  0.0387 -2.7122
 7660SOL     OW34438   2.865   2.470   9.422  0.5071 -0.3898  0.8681
 7660SOL    HW134439   2.938   2.447   9.363  1.4012 -2.4263  2.7896
 7660SOL    HW234440   2.901   2.539   9.477 -0.2597 -0.4541  1.4453
 7661SOL     OW34441   3.989   2.629  11.843 -0.4470 -0.0099 -0.2867
 7661SOL    HW134442   4.074   2.610  11.804 -1.0589  1.9967 -2.5709
 7661SOL    HW234443   3.983   2.565  11.915 -0.2037  0.0454 -0.2186
 7662SOL     OW34444   2.471   0.286  13.686  0.5333 -0.0109  0.5112
 7662SOL    HW134445   2.453   0.197  13.716 -1.3725 -0.6429 -2.5646
 7662SOL    HW234446   2.562   0.278  13.657  1.0444 -0.4955  2.2390
 7663SOL     OW34447   2.135   2.969   8.022 -0.7509  0.5569  0.2912
 7663SOL    HW134448   2.070   2.947   8.089  0.0363  0.1434  0.9280
 7663SOL    HW234449   2.127   2.887   7.972  2.7272  0.3902  0.0201
 7664SOL     OW34450   0.818   1.730  10.474  0.0262 -0.0907  0.4118
 7664SOL    HW134451   0.900   1.695  10.438 -0.5161 -3.0824  2.0800
 7664SOL    HW234452   0.861   1.792  10.533  0.6790 -0.3222  0.1778
 7665SOL     OW34453   1.660   4.454   7.211 -0.2250 -0.9755  0.0641
 7665SOL    HW134454   1.614   4.488   7.288 -0.1581 -0.3621 -0.1713
 7665SOL    HW234455   1.593   4.400   7.169 -0.8220 -0.9151  0.9433
 7666SOL     OW34456   3.395   1.970   8.850  0.2253 -0.2954 -0.0210
 7666SOL    HW134457   3.368   2.015   8.929  0.3653  0.1519 -0.2294
 7666SOL    HW234458   3.376   1.882   8.883  0.7784 -0.1516  0.6856
 7667SOL     OW34459   1.116   3.694   7.692  0.3056 -0.2648 -0.2259
 7667SOL    HW134460   1.167   3.695   7.773 -0.4348  2.9560  0.1983
 7667SOL    HW234461   1.066   3.613   7.708  0.8280 -0.4112  0.6417
 7668SOL     OW34462   0.752   1.971   5.181 -0.0546  0.2098  0.2608
 7668SOL    HW134463   0.673   1.928   5.148  1.2425 -0.6053 -1.7788
 7668SOL    HW234464   0.786   1.897   5.232  1.0061  0.7113  0.2818
 7669SOL     OW34465   2.611   2.641   8.582  0.0012  0.2987 -0.0235
 7669SOL    HW134466   2.695   2.686   8.578 -0.6289  1.2321 -2.8126
 7669SOL    HW234467   2.627   2.585   8.658 -0.7843 -0.8480 -0.6932
 7670SOL     OW34468   1.334   2.947   0.600 -0.2262 -0.3998  0.3023
 7670SOL    HW134469   1.297   2.936   0.512  1.3049  0.5928 -0.4753
 7670SOL    HW234470   1.352   2.857   0.626  1.9856 -0.8828 -2.8943
 7671SOL     OW34471   1.205   2.806   4.697  0.1665 -0.3694  0.4666
 7671SOL    HW134472   1.213   2.848   4.611  2.6523  2.2022  1.9306
 7671SOL    HW234473   1.111   2.818   4.708  0.1306 -2.0478  2.0937
 7672SOL     OW34474   4.160   0.300  12.817 -0.3002  0.3551  0.0580
 7672SOL    HW134475   4.105   0.286  12.741  1.5654  1.5321 -1.5196
 7672SOL    HW234476   4.095   0.256  12.871  0.8921 -1.0985  0.3199
 7673SOL     OW34477   4.442   0.221   1.399  0.1442  0.1044 -0.0939
 7673SOL    HW134478   4.404   0.150   1.451  1.5587 -1.3157 -0.9914
 7673SOL    HW234479   4.364   0.256   1.356 -0.5784  0.3943  1.4827
 7674SOL     OW34480   1.028   4.446  12.378  0.1311  0.0455  0.8827
 7674SOL    HW134481   1.005   4.364  12.423 -0.5851  0.2271  0.8467
 7674SOL    HW234482   1.081   4.477  12.451 -0.3894  3.0385 -0.0382
 7675SOL     OW34483   3.731   0.931   7.197 -0.5533  0.2982  0.3627
 7675SOL    HW134484   3.641   0.945   7.225 -0.9484 -1.3771 -0.0541
 7675SOL    HW234485   3.729   0.899   7.106 -0.8678 -2.9518  1.4933
 7676SOL     OW34486   0.146   1.520   8.104  0.2872 -0.0620  0.0239
 7676SOL    HW134487   0.051   1.516   8.115 -0.0532  0.7753 -2.7182
 7676SOL    HW234488   0.150   1.548   8.013  0.8443 -0.0377  0.0580
 7677SOL     OW34489   2.314   1.495   5.210  0.1409 -0.1643  0.3125
 7677SOL    HW134490   2.294   1.429   5.277 -2.6225  0.1230 -0.2474
 7677SOL    HW234491   2.400   1.526   5.238  0.3073  0.8925 -1.4001
 7678SOL     OW34492   2.048   0.369   7.379 -0.0006  0.5058  0.1502
 7678SOL    HW134493   2.005   0.415   7.307  0.8547 -0.1011 -0.7464
 7678SOL    HW234494   1.969   0.345   7.426  0.0645 -0.8144 -0.4270
 7679SOL     OW34495   1.066   0.813   6.401 -0.6740 -0.4369 -0.4731
 7679SOL    HW134496   1.114   0.888   6.367 -1.4651  0.3029  0.0356
 7679SOL    HW234497   1.127   0.746   6.369 -0.8066  0.1066 -1.8354
 7680SOL     OW34498   0.331   3.605   2.672  0.3951  0.0365 -0.7347
 7680SOL    HW134499   0.389   3.639   2.741  1.2283  0.1665 -1.5077
 7680SOL    HW234500   0.347   3.678   2.612 -3.2705  0.6552 -0.9590
 7681SOL     OW34501   3.593   0.561   6.737  0.2531 -0.7641 -0.1118
 7681SOL    HW134502   3.664   0.526   6.683  2.4476  2.1989  0.8509
 7681SOL    HW234503   3.600   0.503   6.813 -0.4985 -0.8826 -0.1347
 7682SOL     OW34504   3.200   3.551   4.192 -1.0926 -0.1365 -0.2626
 7682SOL    HW134505   3.108   3.539   4.213 -1.1957 -1.5237 -1.4990
 7682SOL    HW234506   3.200   3.526   4.099 -1.1491  0.6445 -0.4746
 7683SOL     OW34507   2.078   3.457  14.787 -0.1518  0.2207  0.1165
 7683SOL    HW134508   2.117   3.462  14.875 -0.3871  0.2694  0.2168
 7683SOL    HW234509   2.096   3.365  14.767 -1.2936 -0.0029  0.1459
 7684SOL     OW34510   3.317   3.573   3.398  0.3765  0.5073  0.1554
 7684SOL    HW134511   3.252   3.563   3.468 -0.3596  2.6234 -0.2167
 7684SOL    HW234512   3.274   3.638   3.343  0.0547  0.3370  0.2034
 7685SOL     OW34513   0.276   1.811   1.409 -1.2881 -0.6197  0.2996
 7685SOL    HW134514   0.319   1.768   1.483  0.5066  1.4546  0.4351
 7685SOL    HW234515   0.283   1.903   1.433  0.3746 -1.1900  1.9611
 7686SOL     OW34516   4.475   3.666   9.160 -0.6005 -0.0707 -0.0562
 7686SOL    HW134517   4.535   3.679   9.233  1.7056  2.7972 -2.4407
 7686SOL    HW234518   4.536   3.655   9.087  0.2043 -0.2027  0.6394
 7687SOL     OW34519   0.436   1.221   5.689 -0.1597 -0.2526  0.7667
 7687SOL    HW134520   0.368   1.257   5.746 -1.1084 -0.9457  0.0792
 7687SOL    HW234521   0.397   1.141   5.655  1.0541 -1.3858  2.0577
 7688SOL     OW34522   0.093   0.166  11.107  0.3912  0.4462  0.1778
 7688SOL    HW134523   0.033   0.196  11.039  1.0468 -1.7385 -1.3395
 7688SOL    HW234524   0.158   0.113  11.062 -1.0177  0.6647 -2.1008
 7689SOL     OW34525   2.762   1.006   6.664 -0.0090 -0.1476 -0.1980
 7689SOL    HW134526   2.728   0.922   6.693  1.4925  0.1314  2.3294
 7689SOL    HW234527   2.843   1.016   6.714 -0.5157  0.1593  0.5569
 7690SOL     OW34528   0.038   4.606   4.440 -0.2340 -0.4774 -0.5633
 7690SOL    HW134529   0.084   4.689   4.430 -0.6600 -0.0442  1.1557
 7690SOL    HW234530   4.703   4.627   4.514 -0.5687 -1.2174 -0.6160
 7691SOL     OW34531   1.221   4.085   7.935 -0.7253 -0.2339  0.1445
 7691SOL    HW134532   1.139   4.109   7.890 -0.2684 -0.1219 -0.6236
 7691SOL    HW234533   1.201   4.123   8.021 -0.1887  0.6441 -0.1186
 7692SOL     OW34534   1.786   1.248  13.271 -0.0044  0.2063 -0.3891
 7692SOL    HW134535   1.766   1.224  13.181 -2.7082 -0.7042  0.4293
 7692SOL    HW234536   1.860   1.194  13.297  0.3120  1.3758  1.1646
 7693SOL     OW34537   4.515   0.995  14.402 -0.1252  0.2362 -0.6437
 7693SOL    HW134538   4.462   1.046  14.341 -1.2036  1.3621  1.2353
 7693SOL    HW234539   4.457   0.920  14.413  1.4877 -0.7738  0.8220
 7694SOL     OW34540   0.115   0.638   5.204  0.0738 -0.1041 -0.0545
 7694SOL    HW134541   0.200   0.596   5.194  0.1018  0.1884 -0.9945
 7694SOL    HW234542   0.061   0.594   5.139  1.2736 -0.3370 -0.8919
 7695SOL     OW34543   4.517   4.102  14.520  0.3525 -0.0406  0.0458
 7695SOL    HW134544   4.542   4.083  14.610  2.4561  1.0260 -0.3145
 7695SOL    HW234545   4.460   4.025  14.510 -0.7047  0.8636 -0.9230
 7696SOL     OW34546   0.969   1.968   2.026  0.2171 -0.0570  0.3121
 7696SOL    HW134547   0.980   1.913   1.948 -0.0327  1.5646 -0.8737
 7696SOL    HW234548   1.058   1.998   2.043  0.4624  0.3919 -1.7705
 7697SOL     OW34549   2.241   1.381  16.630  0.3771 -0.4893  0.2790
 7697SOL    HW134550   2.295   1.304  16.646  0.0598 -0.0998  3.2390
 7697SOL    HW234551   2.287   1.438  16.568  0.0710 -0.3877  0.1448
 7698SOL     OW34552   1.621   2.175  16.020 -0.1240 -0.2576 -0.2776
 7698SOL    HW134553   1.644   2.268  16.013  0.7863 -0.4229  0.4532
 7698SOL    HW234554   1.532   2.180  16.055 -0.4031 -0.1648 -1.0155
 7699SOL     OW34555   4.483   2.004  11.686 -0.1179 -0.8673  0.4022
 7699SOL    HW134556   4.510   2.047  11.767 -0.0616 -1.2066  0.5645
 7699SOL    HW234557   4.543   1.930  11.683 -0.1989 -1.0104  2.2091
 7700SOL     OW34558   4.445   4.425   7.680 -0.5177 -0.3282 -0.2382
 7700SOL    HW134559   4.396   4.345   7.700  0.5139 -1.6518 -2.9282
 7700SOL    HW234560   4.522   4.411   7.735 -1.4672 -3.1264  0.3654
 7701SOL     OW34561   2.182   2.930   2.202  0.3156  0.5166 -0.3318
 7701SOL    HW134562   2.267   2.885   2.197  0.0853  0.0722 -0.2693
 7701SOL    HW234563   2.191   2.985   2.124  0.3337  0.4748 -0.3590
 7702SOL     OW34564   1.150   2.527   1.784  0.0164  0.3052  0.0029
 7702SOL    HW134565   1.084   2.502   1.720 -0.7657  0.0607  0.9106
 7702SOL    HW234566   1.146   2.623   1.778 -1.2083  0.2201 -0.5219
 7703SOL     OW34567   4.492   3.260   2.420 -0.1723 -0.1219 -0.3563
 7703SOL    HW134568   4.573   3.310   2.431 -1.6191  1.5976  2.5800
 7703SOL    HW234569   4.432   3.310   2.475 -0.1191 -0.5793  0.1207
 7704SOL     OW34570   3.575   2.614  15.949  0.2285 -0.0738  0.2918
 7704SOL    HW134571   3.633   2.561  15.894  0.2323  0.5235 -0.2775
 7704SOL    HW234572   3.571   2.694  15.896 -0.4026  0.6834  1.5017
 7705SOL     OW34573   4.203   3.901   8.619  0.1849  0.0255 -0.2028
 7705SOL    HW134574   4.185   3.814   8.582 -1.2988 -0.3479  1.3898
 7705SOL    HW234575   4.199   3.881   8.712 -1.1896  0.8356 -0.0901
 7706SOL     OW34576   3.562   3.690   3.369 -0.4690 -0.0894 -0.3074
 7706SOL    HW134577   3.479   3.643   3.364 -1.4631  1.6680 -0.4791
 7706SOL    HW234578   3.617   3.642   3.307  1.3013  0.1881  1.0336
 7707SOL     OW34579   3.625   3.426   9.477  0.5374  0.2274 -0.4568
 7707SOL    HW134580   3.614   3.516   9.510 -0.1746 -0.7532  2.0050
 7707SOL    HW234581   3.558   3.389   9.535  0.6933 -1.6055 -1.4397
 7708SOL     OW34582   2.276   3.773   3.245 -0.0494 -0.2646  0.3934
 7708SOL    HW134583   2.337   3.834   3.204 -0.7352 -0.5869 -1.1064
 7708SOL    HW234584   2.326   3.692   3.256 -0.0632  0.0010  2.3957
 7709SOL     OW34585   0.471   0.908   4.552  0.2149  0.1389 -0.3154
 7709SOL    HW134586   0.553   0.859   4.548 -1.2118 -2.3527  1.8239
 7709SOL    HW234587   0.459   0.914   4.457 -0.1583  1.8416 -0.1702
 7710SOL     OW34588   2.952   3.473   9.309  0.0817 -0.0458  0.6100
 7710SOL    HW134589   2.951   3.567   9.323 -0.6985 -0.0271  0.4099
 7710SOL    HW234590   3.024   3.440   9.362  0.8235 -1.2347 -1.1408
 7711SOL     OW34591   2.053   2.772   5.105 -0.2307 -0.5033  0.1028
 7711SOL    HW134592   1.996   2.819   5.045  0.7294  1.1703  0.4855
 7711SOL    HW234593   2.067   2.839   5.172 -0.7375 -0.7154  0.4231
 7712SOL     OW34594   3.737   0.517   3.295 -0.4507  0.8894 -0.3606
 7712SOL    HW134595   3.703   0.468   3.369  1.9553 -1.7928 -1.0391
 7712SOL    HW234596   3.700   0.467   3.223  1.3263 -1.0779  0.1094
 7713SOL     OW34597   1.980   3.302   8.275 -0.1692  0.1630 -0.8323
 7713SOL    HW134598   2.031   3.370   8.317 -1.0756 -0.1834  0.8290
 7713SOL    HW234599   1.962   3.355   8.197 -0.2895  0.1090 -0.8421
 7714SOL     OW34600   0.319   4.408   4.215  0.3063  0.3147 -0.3427
 7714SOL    HW134601   0.247   4.346   4.208 -0.5551  1.0733  1.9742
 7714SOL    HW234602   0.388   4.355   4.175 -1.3752  0.1580 -3.0376
 7715SOL     OW34603   2.919   3.648   8.334  0.3071  0.2425  0.5512
 7715SOL    HW134604   2.936   3.607   8.249 -4.7898  0.2368 -0.4726
 7715SOL    HW234605   2.944   3.576   8.393  1.6653 -0.8442 -1.3336
 7716SOL     OW34606   4.132   3.651  15.502 -0.1953 -0.2308 -0.0689
 7716SOL    HW134607   4.159   3.582  15.563  2.4245  1.5758  0.8386
 7716SOL    HW234608   4.166   3.723  15.556 -0.7796  0.2007 -0.2700
 7717SOL     OW34609   1.959   0.864   5.838 -0.0125 -0.0302  0.3226
 7717SOL    HW134610   1.945   0.869   5.743 -2.7477 -0.0280  0.7268
 7717SOL    HW234611   1.903   0.787   5.851 -2.6741  1.4911 -2.0308
 7718SOL     OW34612   1.031   4.553   2.699 -0.1298  0.2116  0.7807
 7718SOL    HW134613   1.002   4.474   2.746 -0.7608 -0.8502 -1.4282
 7718SOL    HW234614   0.996   4.532   2.613 -1.8998 -0.2401  1.6083
 7719SOL     OW34615   4.036   3.080  11.597 -0.0145  0.1337 -0.3209
 7719SOL    HW134616   3.985   3.024  11.656 -0.5752  1.1311  0.1267
 7719SOL    HW234617   4.001   3.164  11.625 -1.3336 -0.0174 -1.5030
 7720SOL     OW34618   1.753   3.037   4.658 -0.1077  0.0307  0.1966
 7720SOL    HW134619   1.841   3.001   4.667  0.4269  1.9333  2.8733
 7720SOL    HW234620   1.762   3.100   4.587 -0.2871  1.1701  1.1877
 7721SOL     OW34621   3.960   0.026   8.760 -0.3943  0.8025 -0.3555
 7721SOL    HW134622   3.994   4.671   8.714 -1.2173  0.0859  0.2426
 7721SOL    HW234623   4.012   0.098   8.724  2.5139 -0.8688  0.4975
 7722SOL     OW34624   3.158   1.486   2.480  0.2581  0.0677  0.6784
 7722SOL    HW134625   3.159   1.399   2.440 -3.1004  0.1290  0.4731
 7722SOL    HW234626   3.222   1.484   2.551 -1.3372  0.1946  2.1295
 7723SOL     OW34627   0.432   4.460   1.406  0.2321  0.3308 -0.3316
 7723SOL    HW134628   0.409   4.373   1.438  0.6766 -0.0199 -0.9784
 7723SOL    HW234629   0.340   4.489   1.410  0.4170  0.5498  2.3267
 7724SOL     OW34630   0.525   3.843   6.160  0.1707 -0.4755  0.0831
 7724SOL    HW134631   0.501   3.922   6.113  1.1672 -0.0477  0.2863
 7724SOL    HW234632   0.600   3.872   6.212  0.2991 -0.1171 -0.3088
 7725SOL     OW34633   0.278   1.623   4.516  0.4771 -0.6623  0.4138
 7725SOL    HW134634   0.210   1.598   4.453 -0.2803 -2.5896  1.9780
 7725SOL    HW234635   0.365   1.632   4.476  0.3050  1.4439  0.5484
 7726SOL     OW34636   0.990   1.793  14.960  0.0847  0.5277  0.1320
 7726SOL    HW134637   1.013   1.796  14.867  2.2529 -4.1454  0.5307
 7726SOL    HW234638   1.058   1.855  14.988  1.5969 -0.0665 -2.2209
 7727SOL     OW34639   2.906   2.048  15.724  0.8118  0.3383  0.5110
 7727SOL    HW134640   2.973   2.093  15.776  2.6450 -1.9392  0.1113
 7727SOL    HW234641   2.969   2.020  15.658  0.0245  0.2125 -0.1917
 7728SOL     OW34642   0.776   4.408  11.282  0.3665  0.3639 -0.1455
 7728SOL    HW134643   0.710   4.457  11.332  0.0844  0.3093 -0.4622
 7728SOL    HW234644   0.719   4.354  11.227  0.7804 -1.5943  1.3652
 7729SOL     OW34645   1.330   1.933   2.558  0.7736 -0.0712 -0.8866
 7729SOL    HW134646   1.373   1.966   2.637 -0.2348  0.7679 -0.6955
 7729SOL    HW234647   1.307   1.842   2.579  3.9236 -1.0487 -1.5454
 7730SOL     OW34648   3.587   3.443  13.171  0.1684  0.4195 -0.0763
 7730SOL    HW134649   3.505   3.422  13.126 -0.7271  3.2011  0.2352
 7730SOL    HW234650   3.589   3.539  13.176 -1.8136  0.4040  1.2208
 7731SOL     OW34651   4.435   1.466   6.943 -0.5080 -1.5675 -0.0863
 7731SOL    HW134652   4.362   1.451   6.883 -0.5826 -1.3509 -0.0460
 7731SOL    HW234653   4.401   1.472   7.032  0.5758 -0.9614  0.2816
 7732SOL     OW34654   0.549   1.428   1.345  0.1184  0.1600  0.1747
 7732SOL    HW134655   0.550   1.501   1.284  1.6229 -1.7692 -2.1139
 7732SOL    HW234656   0.456   1.406   1.343  0.3988 -0.7903 -2.0504
 7733SOL     OW34657   0.336   3.888  16.217 -0.4094 -0.9988 -0.2682
 7733SOL    HW134658   0.340   3.979  16.186  1.6364 -0.7455  0.6973
 7733SOL    HW234659   0.425   3.853  16.223 -0.0416  0.1296  0.8640
 7734SOL     OW34660   2.556   0.037   8.004  0.5490 -0.5343 -0.4461
 7734SOL    HW134661   2.589   0.076   8.084 -1.1606  1.4716 -0.7215
 7734SOL    HW234662   2.609   0.088   7.942  2.6469 -1.2649  0.7461
 7735SOL     OW34663   3.615   1.224  11.956  0.5580 -0.4708  0.0697
 7735SOL    HW134664   3.651   1.177  11.881 -0.5409 -0.2765 -0.5725
 7735SOL    HW234665   3.696   1.246  12.002  1.6594 -2.0336 -1.1198
 7736SOL     OW34666   0.763   4.438  11.732 -0.1805  0.2155 -0.3222
 7736SOL    HW134667   0.721   4.507  11.783 -0.0026 -0.7283  1.0897
 7736SOL    HW234668   0.835   4.410  11.788  0.9456  2.2563 -0.7390
 7737SOL     OW34669   4.412   3.475   1.877  0.7290 -0.6609  0.1329
 7737SOL    HW134670   4.471   3.544   1.845  0.2501 -1.2588 -2.0131
 7737SOL    HW234671   4.474   3.409   1.845  0.0081 -1.2737 -0.0074
 7738SOL     OW34672   1.706   1.453   7.738 -1.0036 -0.0271 -0.3433
 7738SOL    HW134673   1.663   1.406   7.667 -1.1962 -1.3880  0.6588
 7738SOL    HW234674   1.652   1.532   7.736 -0.0626  0.6401  0.3287
 7739SOL     OW34675   2.172   3.719   6.319 -0.3504  0.2853  0.0676
 7739SOL    HW134676   2.123   3.795   6.352  0.0957  1.7274 -2.5923
 7739SOL    HW234677   2.121   3.691   6.243  0.9071 -1.0341 -0.2841
 7740SOL     OW34678   2.794   1.751   6.692  0.2146 -0.0941  0.2598
 7740SOL    HW134679   2.784   1.683   6.758  0.1385  0.4121  0.7727
 7740SOL    HW234680   2.865   1.722   6.636 -0.6192  1.0113 -1.3602
 7741SOL     OW34681   4.178   3.182   9.086 -0.0514  0.1338 -0.1915
 7741SOL    HW134682   4.248   3.187   9.150 -1.1600 -2.3559  1.2415
 7741SOL    HW234683   4.141   3.270   9.092  0.0288  0.0528  1.3985
 7742SOL     OW34684   2.547   4.638   3.303  0.0165 -0.2413  0.3663
 7742SOL    HW134685   2.518   0.006   3.292  2.0087  0.5084  1.3204
 7742SOL    HW234686   2.643   4.643   3.310  0.1694 -0.8024 -1.3373
 7743SOL     OW34687   1.602   2.546   9.593  0.9066  0.1394 -0.2327
 7743SOL    HW134688   1.664   2.540   9.665  0.4880  0.8873  0.1833
 7743SOL    HW234689   1.664   2.515   9.526 -0.1794  1.0137 -1.6473
 7744SOL     OW34690   3.655   3.312   3.488 -0.1754  0.8831  0.2006
 7744SOL    HW134691   3.593   3.243   3.514 -1.3908  1.9885  0.2484
 7744SOL    HW234692   3.631   3.387   3.543  0.9798  0.0425  1.8472
 7745SOL     OW34693   3.253   3.492   4.486 -0.1666  0.1401 -0.1435
 7745SOL    HW134694   3.212   3.413   4.523  1.0933  0.1141  1.1901
 7745SOL    HW234695   3.228   3.485   4.394  0.5245  0.6128 -0.3669
 7746SOL     OW34696   0.727   1.864  16.565  0.4677 -0.6992  0.3834
 7746SOL    HW134697   0.666   1.936  16.584  0.4138 -0.9237  1.0933
 7746SOL    HW234698   0.662   1.808  16.523 -1.2219  1.4415  0.1516
 7747SOL     OW34699   3.025   2.378   5.811  0.7375  0.9234 -0.2219
 7747SOL    HW134700   3.075   2.304   5.845 -1.0688 -0.9406 -1.7077
 7747SOL    HW234701   3.056   2.442   5.876 -1.4040 -0.2733  1.9483
 7748SOL     OW34702   1.839   1.357   3.413  0.1839  0.4477 -0.0214
 7748SOL    HW134703   1.927   1.384   3.440 -0.9445  2.0212  2.0866
 7748SOL    HW234704   1.802   1.445   3.410  0.7792  0.7167  0.5772
 7749SOL     OW34705   3.971   3.662   3.598  0.0821  0.1289 -0.3591
 7749SOL    HW134706   3.934   3.596   3.539 -0.1561 -0.2870  0.2594
 7749SOL    HW234707   3.931   3.737   3.553  2.7583  1.6143 -0.2400
 7750SOL     OW34708   2.422   0.208  12.198 -0.0926 -0.2803 -0.6441
 7750SOL    HW134709   2.509   0.181  12.167  0.9130 -0.6551  2.4780
 7750SOL    HW234710   2.373   0.129  12.173 -0.5020 -0.4421  0.6198
 7751SOL     OW34711   1.426   1.820   1.365  0.2881  0.4157 -0.4978
 7751SOL    HW134712   1.483   1.894   1.389 -2.1522  1.0914  3.2369
 7751SOL    HW234713   1.465   1.748   1.416 -2.2372  0.4841  1.5393
 7752SOL     OW34714   1.894   2.278   3.301 -0.8745 -0.0653 -0.3069
 7752SOL    HW134715   1.904   2.263   3.395 -2.5230 -0.7212 -0.2397
 7752SOL    HW234716   1.983   2.255   3.275 -0.3017  1.3773  0.3472
 7753SOL     OW34717   1.949   2.129  12.575 -1.0303  0.0999  0.1754
 7753SOL    HW134718   1.998   2.059  12.617  0.5098  0.4191 -1.1099
 7753SOL    HW234719   1.945   2.195  12.644  1.2061  0.0895  0.3158
 7754SOL     OW34720   3.548   4.690   1.656 -0.2041  0.0037  0.1519
 7754SOL    HW134721   3.482   4.694   1.587  1.0229 -0.3206 -1.0491
 7754SOL    HW234722   3.580   4.600   1.652  1.5975  0.7018 -1.3250
 7755SOL     OW34723   1.872   2.597   6.842  0.0025  0.0845 -0.0228
 7755SOL    HW134724   1.932   2.566   6.910  0.4308  0.7216 -0.1071
 7755SOL    HW234725   1.928   2.639   6.776 -1.8828  1.0186 -1.0064
 7756SOL     OW34726   1.413   0.457   1.989 -0.1020  0.3786  0.5265
 7756SOL    HW134727   1.399   0.368   1.956  2.7328  0.0218  0.3268
 7756SOL    HW234728   1.410   0.442   2.084 -0.2448 -1.0783  0.2828
 7757SOL     OW34729   0.970   0.376   1.236  0.1196  0.0687 -0.3471
 7757SOL    HW134730   0.926   0.349   1.155  0.6628  1.4518 -1.1021
 7757SOL    HW234731   0.911   0.352   1.307 -0.5825  0.6611 -0.7336
 7758SOL     OW34732   0.501   4.122  15.236  0.4515 -0.1391 -0.3960
 7758SOL    HW134733   0.422   4.070  15.250  1.2412 -0.9069  1.0988
 7758SOL    HW234734   0.499   4.122  15.140 -0.2208 -1.3483 -0.3872
 7759SOL     OW34735   0.121   4.569   5.135  0.2580  0.3028 -0.1203
 7759SOL    HW134736   0.125   4.483   5.177  0.1421  0.9835  1.2799
 7759SOL    HW234737   0.066   4.551   5.059 -0.0343  0.3209  0.0898
 7760SOL     OW34738   3.259   3.797   6.748  0.6650 -0.3646  0.2848
 7760SOL    HW134739   3.332   3.797   6.810  0.0331  0.5685  1.0281
 7760SOL    HW234740   3.193   3.841   6.800  1.5476  2.6848 -1.1579
 7761SOL     OW34741   2.800   1.471  15.434 -0.0163 -0.2997 -0.2526
 7761SOL    HW134742   2.817   1.520  15.514 -0.2336  0.3855 -0.6254
 7761SOL    HW234743   2.884   1.427  15.416 -0.4990 -1.1459 -0.4579
 7762SOL     OW34744   0.182   3.312   3.039 -0.4512 -0.2132 -0.8530
 7762SOL    HW134745   0.136   3.285   2.959 -0.1361  0.3673 -1.2285
 7762SOL    HW234746   0.124   3.272   3.103 -1.1116 -1.0771 -1.9843
 7763SOL     OW34747   0.291   3.217  17.131 -0.2625 -0.3392  0.3398
 7763SOL    HW134748   0.295   3.279  17.057 -2.7138 -2.0956 -1.2641
 7763SOL    HW234749   0.232   3.251  17.197  0.0098  1.3089 -0.2599
 7764SOL     OW34750   2.698   4.312   3.426 -0.1267 -0.0023  0.2460
 7764SOL    HW134751   2.748   4.390   3.403 -0.7802  0.2869 -0.2057
 7764SOL    HW234752   2.734   4.246   3.367 -0.2596  0.5533 -0.4564
 7765SOL     OW34753   4.045   1.672  11.065 -0.0002 -0.3712  0.2121
 7765SOL    HW134754   4.026   1.595  11.119 -2.5373  0.5868  0.6870
 7765SOL    HW234755   3.985   1.744  11.083  0.2760  0.0803 -0.6835
 7766SOL     OW34756   1.546   1.690   3.600  0.0737  0.3177  0.1477
 7766SOL    HW134757   1.577   1.780   3.605  0.0358  0.3805 -0.6658
 7766SOL    HW234758   1.543   1.689   3.504 -2.6335 -0.2699  0.2379
 7767SOL     OW34759   0.709   2.924   8.968  0.2364 -0.3184 -0.0585
 7767SOL    HW134760   0.622   2.900   9.002 -0.2439 -0.0791 -1.1095
 7767SOL    HW234761   0.753   2.940   9.051 -0.7707 -0.6898  0.5540
 7768SOL     OW34762   3.637   1.090   7.508 -0.7030  0.2134 -0.1539
 7768SOL    HW134763   3.664   1.160   7.566  0.8807 -0.4447 -0.1058
 7768SOL    HW234764   3.576   1.136   7.450  0.3888  0.7726 -0.8658
 7769SOL     OW34765   1.923   1.607   0.620  0.2943 -0.3380  0.3873
 7769SOL    HW134766   1.835   1.636   0.596  0.4741  1.0524  1.3791
 7769SOL    HW234767   1.904   1.579   0.710 -1.0047 -0.7986 -0.0335
 7770SOL     OW34768   0.560   2.579   2.787  0.7805 -0.6555  0.0397
 7770SOL    HW134769   0.505   2.653   2.812  0.3407  0.4686 -4.2952
 7770SOL    HW234770   0.590   2.609   2.702 -1.4204  0.9116 -0.1772
 7771SOL     OW34771   3.677   1.796   2.510 -0.1359 -0.3999  0.1913
 7771SOL    HW134772   3.590   1.830   2.532  0.1467  0.5409 -0.1457
 7771SOL    HW234773   3.663   1.706   2.537 -0.5438 -0.3788  0.0512
 7772SOL     OW34774   4.648   3.742   9.628 -0.4624 -0.0056 -0.0187
 7772SOL    HW134775   4.716   3.774   9.687 -2.2296  3.3668  0.1402
 7772SOL    HW234776   4.578   3.795   9.665  0.0113  1.1405 -0.7826
 7773SOL     OW34777   4.024   1.324   0.984 -0.2963 -0.0993  0.0611
 7773SOL    HW134778   3.970   1.369   0.919 -2.2969  2.1158  3.2687
 7773SOL    HW234779   4.102   1.292   0.939 -0.2380 -1.8159  1.3704
 7774SOL     OW34780   0.357   2.123   2.222  0.2525  0.9036 -0.0843
 7774SOL    HW134781   0.264   2.127   2.247  0.3312  1.4027  0.1276
 7774SOL    HW234782   0.365   2.178   2.144  0.8600  1.3847  0.3251
 7775SOL     OW34783   2.714   3.572   3.261  0.1253  0.1038 -0.4010
 7775SOL    HW134784   2.725   3.485   3.300  0.7367  0.8766  1.1237
 7775SOL    HW234785   2.623   3.561   3.235  0.1563 -0.1155 -0.4156
 7776SOL     OW34786   3.767   0.996   5.952  0.1904  0.1169 -0.0717
 7776SOL    HW134787   3.709   0.939   5.902 -1.8955  2.1579  0.0037
 7776SOL    HW234788   3.845   0.990   5.898  0.0443 -2.6902  0.0607
 7777SOL     OW34789   3.249   0.938   6.100  0.0723 -0.4875  0.1141
 7777SOL    HW134790   3.253   1.032   6.117 -0.8320 -0.5843  0.8298
 7777SOL    HW234791   3.239   0.897   6.186 -0.9240  0.1383  0.2969
 7778SOL     OW34792   1.083   2.650   6.624  0.0123 -0.2629  0.3110
 7778SOL    HW134793   0.997   2.692   6.614 -0.9737 -2.6317 -1.1686
 7778SOL    HW234794   1.102   2.646   6.717  0.6614  0.1913  0.1935
 7779SOL     OW34795   0.799   4.609   9.432  0.0618  0.3145 -0.2378
 7779SOL    HW134796   0.762   4.670   9.368  0.9565 -0.8529 -1.8531
 7779SOL    HW234797   0.725   4.551   9.449 -0.3084  1.0262  0.6073
 7780SOL     OW34798   3.695   4.241  10.279  0.3123 -0.4893  0.9291
 7780SOL    HW134799   3.707   4.210  10.190 -0.4355  0.0047  0.6535
 7780SOL    HW234800   3.680   4.160  10.327  0.7141 -1.0249  0.1413
 7781SOL     OW34801   0.373   0.473   6.130  0.4317  0.0330  0.4414
 7781SOL    HW134802   0.464   0.488   6.103  0.4091 -0.2062  0.2359
 7781SOL    HW234803   0.349   0.386   6.099  0.6295  0.1901 -0.1493
 7782SOL     OW34804   3.742   4.711  17.529  0.0367  0.5549 -0.4243
 7782SOL    HW134805   3.706   4.633  17.487  2.6548 -0.9600  0.2052
 7782SOL    HW234806   3.760   0.039  17.449  2.9773  2.4486  1.4440
 7783SOL     OW34807   3.221   1.878  13.567  0.4391  0.0832 -0.4809
 7783SOL    HW134808   3.206   1.926  13.648 -0.5429 -0.8485 -0.1150
 7783SOL    HW234809   3.312   1.850  13.580  0.8808  2.2298  1.1329
 7784SOL     OW34810   1.147   0.853   2.041 -0.0513  0.1160 -0.6941
 7784SOL    HW134811   1.127   0.915   2.111  0.9261 -0.8081  0.4031
 7784SOL    HW234812   1.208   0.904   1.987 -0.3287  1.1912  0.0229
 7785SOL     OW34813   2.316   2.279  14.666  0.0329  0.2275 -0.7212
 7785SOL    HW134814   2.348   2.188  14.669  0.4910  0.4706  1.4152
 7785SOL    HW234815   2.231   2.276  14.623  0.6032 -3.1191 -1.6688
 7786SOL     OW34816   0.634   3.352   1.204 -0.2933  0.7243 -0.7914
 7786SOL    HW134817   0.640   3.420   1.271 -2.2497  0.6522 -0.5634
 7786SOL    HW234818   0.540   3.336   1.194 -0.4172  0.0490  1.4037
 7787SOL     OW34819   0.499   0.073   3.075  0.4580 -0.1592  0.7229
 7787SOL    HW134820   0.516   0.117   3.158  0.2343 -1.0989  1.2624
 7787SOL    HW234821   0.418   0.115   3.047  1.6749  1.6895 -0.0241
 7788SOL     OW34822   1.078   1.314   1.402  0.3819 -0.1753  0.1099
 7788SOL    HW134823   1.111   1.232   1.439  1.6758  0.0447 -0.5851
 7788SOL    HW234824   0.984   1.301   1.415  0.2288  1.9637  1.1113
 7789SOL     OW34825   3.500   4.441   7.399 -0.1271  0.2823  0.1563
 7789SOL    HW134826   3.575   4.490   7.432 -1.1461  2.4804 -0.7121
 7789SOL    HW234827   3.513   4.355   7.438 -0.6121  1.6669  3.3544
 7790SOL     OW34828   0.080   3.823  15.935  0.2244  0.1787  0.6062
 7790SOL    HW134829   0.153   3.773  15.899  0.7343 -0.4717  2.5496
 7790SOL    HW234830   0.127   3.899  15.970  0.3472  0.1997  0.3949
 7791SOL     OW34831   1.139   1.194   6.729 -0.3890 -0.0178 -0.1057
 7791SOL    HW134832   1.159   1.114   6.680 -0.3897 -1.3439  2.0417
 7791SOL    HW234833   1.112   1.165   6.816  0.0334  0.7917  0.2846
 7792SOL     OW34834   1.279   3.759   0.979  0.5525  0.1995  0.2032
 7792SOL    HW134835   1.196   3.802   0.955  2.2633  3.5797  0.3724
 7792SOL    HW234836   1.326   3.816   1.039 -0.9876  1.5527  0.1517
 7793SOL     OW34837   4.540   2.357   2.478  0.4764  0.3498 -0.3902
 7793SOL    HW134838   4.495   2.441   2.484 -0.0948 -0.0863  1.2853
 7793SOL    HW234839   4.590   2.381   2.400 -0.5327 -0.1820 -1.1912
 7794SOL     OW34840   1.200   3.565  13.617  0.1154  0.3747  0.2449
 7794SOL    HW134841   1.132   3.628  13.640 -0.2681 -0.3587  1.1077
 7794SOL    HW234842   1.145   3.495  13.582 -0.1634  0.2309  0.9821
 7795SOL     OW34843   4.384   3.049   2.644 -0.0944  0.2399  0.1977
 7795SOL    HW134844   4.401   3.071   2.552  0.8325  0.1316  0.3479
 7795SOL    HW234845   4.289   3.056   2.646  0.0624  2.4435  0.4913
 7796SOL     OW34846   4.446   3.335   4.577  0.0156 -0.1343  0.2910
 7796SOL    HW134847   4.377   3.320   4.642  0.6534 -1.4283  0.6592
 7796SOL    HW234848   4.516   3.280   4.612  0.2516  0.5814  0.9362
 7797SOL     OW34849   0.551   2.120  12.411 -0.3957  0.0682 -0.3710
 7797SOL    HW134850   0.495   2.068  12.354  0.3806 -2.3479  1.0937
 7797SOL    HW234851   0.535   2.073  12.492  0.2592  2.2432  1.0077
 7798SOL     OW34852   1.298   3.071  17.643 -0.2949  0.4799  0.0603
 7798SOL    HW134853   1.302   3.099  17.552  2.6251 -0.4088 -0.0837
 7798SOL    HW234854   1.384   3.092  17.679 -1.4582  2.7195  1.5023
 7799SOL     OW34855   0.338   2.958  10.829  0.2346  0.1910  0.0006
 7799SOL    HW134856   0.392   2.971  10.907 -1.2842 -1.1609  1.2750
 7799SOL    HW234857   0.323   2.864  10.833  1.5903  0.0260  1.1642
 7800SOL     OW34858   3.872   1.678   4.539 -0.2537 -0.3343 -0.4315
 7800SOL    HW134859   3.782   1.710   4.547 -0.0777  0.0477  0.0784
 7800SOL    HW234860   3.875   1.623   4.617  0.5311  0.2475 -0.0500
 7801SOL     OW34861   4.690   3.115   5.837 -0.2850  0.2430  0.6717
 7801SOL    HW134862   0.040   3.121   5.900  0.3025  1.7807 -0.1251
 7801SOL    HW234863   4.628   3.053   5.874 -3.3277  2.5775 -0.5439
 7802SOL     OW34864   3.834   1.507   6.471 -0.6771 -0.0742  0.3780
 7802SOL    HW134865   3.837   1.506   6.566 -0.5317 -1.5557  0.3445
 7802SOL    HW234866   3.752   1.557   6.461 -0.2853  0.6239  0.6648
 7803SOL     OW34867   1.246   4.440   8.161 -0.7411 -0.3008  0.0763
 7803SOL    HW134868   1.216   4.352   8.143 -2.5362  0.7201 -1.8549
 7803SOL    HW234869   1.339   4.420   8.151 -1.2195 -1.5066 -1.9241
 7804SOL     OW34870   4.532   0.246   4.279  0.1497  0.0838  0.0303
 7804SOL    HW134871   4.587   0.225   4.203 -0.0799  0.7463 -0.3160
 7804SOL    HW234872   4.603   0.252   4.343 -1.4037 -1.3670  1.9143
 7805SOL     OW34873   0.769   0.959  12.999  0.1847  0.3017  0.6419
 7805SOL    HW134874   0.756   0.934  13.090  0.3360 -1.3440  0.2223
 7805SOL    HW234875   0.752   1.053  13.005 -2.7835 -0.1020 -1.3175
 7806SOL     OW34876   3.664   0.195   4.546 -0.2338 -0.0240 -1.0419
 7806SOL    HW134877   3.712   0.142   4.482 -3.5396 -1.8499 -2.0044
 7806SOL    HW234878   3.582   0.210   4.498  0.8242  2.8740 -1.9209
 7807SOL     OW34879   1.512   2.332   2.324 -0.1415  0.3652 -0.4287
 7807SOL    HW134880   1.470   2.249   2.347  0.1799  0.8189  1.7826
 7807SOL    HW234881   1.590   2.309   2.274 -0.1402 -0.2010 -0.1617
 7808SOL     OW34882   2.331   3.481   9.532 -0.7284  0.4785 -0.3219
 7808SOL    HW134883   2.284   3.530   9.600 -0.5769 -0.6658  0.5941
 7808SOL    HW234884   2.399   3.435   9.581 -0.5956  1.9355  0.8540
 7809SOL     OW34885   2.605   1.835   8.569 -0.3194  0.0352 -0.2425
 7809SOL    HW134886   2.566   1.800   8.650  1.4639  0.3158  0.7350
 7809SOL    HW234887   2.683   1.875   8.606  0.5346 -1.3577 -0.5370
 7810SOL     OW34888   3.076   4.392  13.260 -0.6056 -0.1133  0.5293
 7810SOL    HW134889   3.053   4.415  13.170 -2.7422 -0.3453  1.0115
 7810SOL    HW234890   3.156   4.444  13.268 -0.4584 -0.5366  1.8784
 7811SOL     OW34891   0.027   0.873  12.504 -0.7142 -0.3115 -0.2404
 7811SOL    HW134892   0.079   0.825  12.440 -0.6557  1.3613 -1.4329
 7811SOL    HW234893   0.060   0.963  12.504 -0.8133 -0.2775  0.1525
 7812SOL     OW34894   4.295   4.630   8.345  0.3994  0.2850 -0.2176
 7812SOL    HW134895   4.334   4.716   8.332 -0.4998  0.7218 -0.0742
 7812SOL    HW234896   4.211   4.638   8.299  0.6945  1.7152 -0.4948
 7813SOL     OW34897   2.832   3.357  12.745 -0.1276  0.1583  0.1851
 7813SOL    HW134898   2.808   3.296  12.814 -3.0037  1.1100  0.0319
 7813SOL    HW234899   2.790   3.303  12.678  0.7001  1.2313 -1.2312
 7814SOL     OW34900   4.398   0.642   7.117 -0.1138  0.7311 -0.2219
 7814SOL    HW134901   4.392   0.698   7.040  1.3525  1.5756  0.2741
 7814SOL    HW234902   4.482   0.599   7.099 -0.6065 -0.5801  0.6570
 7815SOL     OW34903   0.638   2.457   1.839 -0.5108 -0.2398  0.2888
 7815SOL    HW134904   0.605   2.489   1.923  0.4604 -1.2194  1.0396
 7815SOL    HW234905   0.727   2.492   1.851 -0.8455  1.0758 -1.0449
 7816SOL     OW34906   4.356   2.843   4.866 -0.8024  0.4063  0.0566
 7816SOL    HW134907   4.346   2.805   4.953 -0.3204  0.2911  0.0581
 7816SOL    HW234908   4.396   2.767   4.825 -2.5454 -0.9355  0.8081
 7817SOL     OW34909   3.228   1.678  13.285  0.5142  0.5802  0.2721
 7817SOL    HW134910   3.306   1.633  13.251  2.2924  2.0949  2.3188
 7817SOL    HW234911   3.161   1.611  13.273  1.6403 -0.3590 -0.9363
 7818SOL     OW34912   4.027   1.081   4.288 -0.1051  0.2271 -0.2015
 7818SOL    HW134913   4.114   1.077   4.327  0.0543  1.3900 -0.4404
 7818SOL    HW234914   3.963   1.068   4.358  0.5591 -1.6538  0.0540
 7819SOL     OW34915   3.705   0.239   1.606 -0.3114  0.6793  0.7109
 7819SOL    HW134916   3.643   0.206   1.672  2.0158 -0.3619  2.3684
 7819SOL    HW234917   3.643   0.240   1.533 -0.0087 -0.2107  0.4326
 7820SOL     OW34918   0.448   4.230   6.390 -1.0169  0.6104  0.4631
 7820SOL    HW134919   0.520   4.278   6.432 -1.2802  0.6532  0.8679
 7820SOL    HW234920   0.376   4.279   6.430 -1.1243 -0.5316  1.6685
 7821SOL     OW34921   4.332   0.089   3.691  0.1025  1.1458  0.4763
 7821SOL    HW134922   4.350   4.718   3.680  0.5375  1.3516 -0.6371
 7821SOL    HW234923   4.307   0.097   3.783  0.1852  0.1196  0.5916
 7822SOL     OW34924   1.236   2.987   8.270 -0.1927 -0.8282 -0.2171
 7822SOL    HW134925   1.207   3.072   8.304 -2.3072 -2.1896  1.3452
 7822SOL    HW234926   1.329   2.997   8.287 -0.7472 -1.6911  3.1113
 7823SOL     OW34927   4.700   1.350   6.682  0.0885 -0.1762  0.1467
 7823SOL    HW134928   4.692   1.331   6.589 -0.7003  0.2788  0.1290
 7823SOL    HW234929   0.052   1.293   6.705  2.6966  2.8427 -0.8161
 7824SOL     OW34930   2.313   1.698  14.904 -0.3895 -0.2783 -0.1477
 7824SOL    HW134931   2.237   1.752  14.927  1.5301  2.6927 -0.7185
 7824SOL    HW234932   2.275   1.614  14.879  0.0181 -0.3255 -0.6124
 7825SOL     OW34933   3.950   3.168  15.552 -0.0949 -0.5174 -0.5225
 7825SOL    HW134934   3.885   3.110  15.511  0.3083 -1.9701  0.8781
 7825SOL    HW234935   4.014   3.110  15.594  1.5918  1.0179 -0.9898
 7826SOL     OW34936   0.851   2.102   1.393 -0.3811  0.0415 -0.4190
 7826SOL    HW134937   0.806   2.072   1.314 -1.7712  0.0249  0.3653
 7826SOL    HW234938   0.775   2.118   1.450  0.5824 -0.5950  1.0345
 7827SOL     OW34939   0.017   1.901   3.312 -0.1922  0.1826 -0.0474
 7827SOL    HW134940   0.086   1.941   3.363  0.9368 -2.7014  0.6677
 7827SOL    HW234941   0.048   1.810   3.306  0.9364  0.6069 -0.5411
 7828SOL     OW34942   3.930   3.841  12.342  0.1328  0.0624 -0.0565
 7828SOL    HW134943   3.896   3.764  12.295 -0.6570 -0.8637  2.0307
 7828SOL    HW234944   4.017   3.810  12.365 -0.3360 -1.3878 -0.1981
 7829SOL     OW34945   1.162   4.510   4.632  0.4275 -0.2045 -0.2228
 7829SOL    HW134946   1.244   4.494   4.586  0.6981  2.6361 -0.7136
 7829SOL    HW234947   1.123   4.422   4.634 -2.5371  1.0470 -2.3502
 7830SOL     OW34948   4.465   1.027   7.529  0.0220  0.3223  1.0037
 7830SOL    HW134949   4.422   1.103   7.490 -0.9999  0.7012  2.8839
 7830SOL    HW234950   4.480   0.975   7.450 -1.4495  0.0009  0.9388
 7831SOL     OW34951   1.756   2.196  12.054 -0.2179  0.3797 -0.2028
 7831SOL    HW134952   1.757   2.274  12.109  2.2726 -0.2215  0.5934
 7831SOL    HW234953   1.697   2.228  11.986  1.4566 -0.4072 -2.0337
 7832SOL     OW34954   1.065   3.637   4.943 -0.1570  0.0702 -0.1731
 7832SOL    HW134955   0.988   3.583   4.960  0.3924 -1.4569 -2.4526
 7832SOL    HW234956   1.029   3.688   4.871  0.4132 -0.1806 -0.6426
 7833SOL     OW34957   2.514   2.556  12.026  0.1377  0.0001  0.0629
 7833SOL    HW134958   2.448   2.487  12.026 -0.9392  1.0290  0.5195
 7833SOL    HW234959   2.465   2.618  12.080 -0.6575  1.8454 -2.8042
 7834SOL     OW34960   2.611   1.954   4.979  0.0373  0.7341 -0.0422
 7834SOL    HW134961   2.664   1.940   5.057  0.6638  1.0318 -0.4152
 7834SOL    HW234962   2.667   1.926   4.906 -0.5471  0.7702 -0.5113
 7835SOL     OW34963   2.994   0.473   2.241  0.3677  0.4486 -0.0673
 7835SOL    HW134964   3.066   0.471   2.303 -0.1097 -1.1661  0.4278
 7835SOL    HW234965   2.933   0.535   2.281 -0.1865 -0.9633  1.2344
 7836SOL     OW34966   2.671   2.109   7.841 -0.6205 -1.0840  0.0683
 7836SOL    HW134967   2.688   2.055   7.764  1.3616  1.7384 -1.4998
 7836SOL    HW234968   2.586   2.081   7.875 -1.0370 -1.0705 -0.9493
 7837SOL     OW34969   1.879   3.163   6.616 -0.1063 -0.3407 -0.4501
 7837SOL    HW134970   1.893   3.076   6.579  1.7965 -0.3024  0.1488
 7837SOL    HW234971   1.969   3.193   6.602 -0.7092  1.5921 -0.1888
 7838SOL     OW34972   3.120   4.111   4.426  0.2172  0.0578 -0.5270
 7838SOL    HW134973   3.100   4.174   4.357  0.0363 -1.2885 -1.7126
 7838SOL    HW234974   3.045   4.053   4.411 -0.7246  1.4975 -1.4062
 7839SOL     OW34975   2.713   4.489  14.770 -0.0889  0.1090  0.1407
 7839SOL    HW134976   2.754   4.571  14.742 -0.7382  0.4136  0.0568
 7839SOL    HW234977   2.619   4.510  14.772 -0.1613 -0.4182  1.9894
 7840SOL     OW34978   3.919   3.842   9.921  0.8490  0.0067  0.0201
 7840SOL    HW134979   3.917   3.847  10.016  1.3213  0.4438  0.0106
 7840SOL    HW234980   3.848   3.781   9.901 -1.0092  1.3151  2.5585
 7841SOL     OW34981   3.371   1.265   0.896 -0.4551  0.2074  0.1384
 7841SOL    HW134982   3.304   1.270   0.827 -2.1911 -1.5670  1.7032
 7841SOL    HW234983   3.447   1.271   0.838  1.9407  0.4827  3.3314
 7842SOL     OW34984   4.203   4.694   9.104  0.4344  0.5579  0.2519
 7842SOL    HW134985   4.111   4.701   9.079  0.7226 -1.0633 -1.2147
 7842SOL    HW234986   4.190   4.689   9.199  0.4713 -0.9242  0.1754
 7843SOL     OW34987   3.620   2.880   2.177  0.5726  0.3605  0.0030
 7843SOL    HW134988   3.614   2.869   2.272 -0.1995 -1.2689 -0.2326
 7843SOL    HW234989   3.579   2.797   2.154 -1.1466  0.8047  1.4079
 7844SOL     OW34990   2.174   4.031   6.183 -0.1958 -0.5728 -0.3869
 7844SOL    HW134991   2.093   4.005   6.138 -1.5641  2.7365  0.1389
 7844SOL    HW234992   2.238   3.966   6.154  0.2424 -0.4844  0.4100
 7845SOL     OW34993   3.183   1.472   6.592 -0.0902  0.3165  0.9384
 7845SOL    HW134994   3.263   1.486   6.540 -0.1473 -0.0155  0.7595
 7845SOL    HW234995   3.219   1.478   6.680  0.7583 -0.3159  0.6399
 7846SOL     OW34996   2.963   2.460   6.662 -0.2571 -0.6173 -0.1538
 7846SOL    HW134997   2.873   2.487   6.676 -0.3033 -0.8700  0.0332
 7846SOL    HW234998   2.957   2.375   6.706  1.6599  0.1502  1.5562
 7847SOL     OW34999   1.795   3.746   3.326  0.1213 -0.9827  0.3235
 7847SOL    HW135000   1.740   3.723   3.251 -1.6324 -1.1026  1.6677
 7847SOL    HW235001   1.726   3.764   3.390 -0.2573 -0.6549 -0.1840
 7848SOL     OW35002   4.056   0.796  17.402  0.4254 -0.1646  0.6336
 7848SOL    HW135003   4.136   0.745  17.390  0.6049  0.2981 -0.1300
 7848SOL    HW235004   3.993   0.735  17.441  0.8121  0.2633  1.9499
 7849SOL     OW35005   1.106   1.607   2.005  0.1385 -0.4996 -0.0441
 7849SOL    HW135006   1.051   1.652   2.069  0.7786 -1.3034  1.0736
 7849SOL    HW235007   1.079   1.516   2.011  1.9631 -0.7735  4.1721
 7850SOL     OW35008   0.995   3.561  17.371  0.1806 -0.1913 -1.2544
 7850SOL    HW135009   0.921   3.505  17.348  0.4961 -0.4438 -1.6662
 7850SOL    HW235010   1.064   3.503  17.337 -0.0419 -0.8439 -0.5890
 7851SOL     OW35011   1.555   2.828  17.412  0.0391 -0.1405 -0.8132
 7851SOL    HW135012   1.626   2.803  17.471  1.4188  2.7946 -1.2567
 7851SOL    HW235013   1.558   2.923  17.409 -0.0579 -0.0810  1.2902
 7852SOL     OW35014   2.159   1.550  10.818  0.6663 -0.2366 -0.2671
 7852SOL    HW135015   2.149   1.508  10.904  0.2215 -0.1796 -0.2863
 7852SOL    HW235016   2.103   1.485  10.775  0.4807  0.7576 -1.5126
 7853SOL     OW35017   3.652   4.388  16.903 -0.0854  0.1964 -0.3150
 7853SOL    HW135018   3.616   4.328  16.969  0.3777  0.9387  0.6218
 7853SOL    HW235019   3.679   4.327  16.834  0.5330 -0.5655  0.5963
 7854SOL     OW35020   0.040   3.050  16.394 -0.0167 -0.4679 -0.2958
 7854SOL    HW135021   0.029   3.104  16.473 -1.4317 -1.3002  0.0826
 7854SOL    HW235022   0.083   2.974  16.434  0.3192  0.6514  1.4841
 7855SOL     OW35023   3.462   2.057   4.512 -0.6323  0.4953 -0.3408
 7855SOL    HW135024   3.532   2.038   4.449  0.6735 -0.7618  1.4778
 7855SOL    HW235025   3.520   2.077   4.586 -0.4440 -0.2186 -0.2961
 7856SOL     OW35026   2.745   4.342   6.808  0.6152 -0.6773 -0.3432
 7856SOL    HW135027   2.713   4.292   6.883 -1.1049  1.5065  0.4053
 7856SOL    HW235028   2.838   4.341   6.827 -0.0068  1.7357  2.9713
 7857SOL     OW35029   0.222   4.015  14.942 -0.2075 -0.3010  0.0827
 7857SOL    HW135030   0.209   4.110  14.936 -0.5758 -0.4593 -1.4222
 7857SOL    HW235031   0.189   3.995  15.030  2.6706 -1.8939  0.7801
 7858SOL     OW35032   2.896   2.479  12.691  0.3738  0.0034  0.3286
 7858SOL    HW135033   2.849   2.409  12.736  0.9415  0.1855  1.2127
 7858SOL    HW235034   2.981   2.435  12.701  0.3987 -0.1750 -0.6849
 7859SOL     OW35035   0.669   3.633   6.016 -0.8915 -0.3169  0.5126
 7859SOL    HW135036   0.634   3.720   6.035  0.8229  0.6734 -0.8765
 7859SOL    HW235037   0.713   3.655   5.934  1.8930 -2.1071  1.5317
 7860SOL     OW35038   3.168   1.873   1.726  0.1581 -0.3364  0.3492
 7860SOL    HW135039   3.177   1.796   1.671  0.5399  0.4876 -0.7426
 7860SOL    HW235040   3.079   1.902   1.706  0.8157 -0.3304 -2.5501
 7861SOL     OW35041   1.927   0.039   4.591 -0.0177 -0.1056 -0.2477
 7861SOL    HW135042   1.907   4.695   4.657  0.9274  0.3319  0.4866
 7861SOL    HW235043   1.938   4.703   4.516 -1.4785  0.4911 -0.9345
 7862SOL     OW35044   3.605   0.997   8.739 -0.5066  0.0811  0.0618
 7862SOL    HW135045   3.570   1.024   8.654 -2.2911  0.0375  0.7719
 7862SOL    HW235046   3.521   0.988   8.785 -0.3929 -0.8361  0.0924
 7863SOL     OW35047   0.148   1.099   2.129 -0.3503  0.1165 -0.1908
 7863SOL    HW135048   0.183   1.010   2.124  0.4243  0.5173 -1.8993
 7863SOL    HW235049   0.070   1.099   2.185 -1.3072 -2.3299 -1.5218
 7864SOL     OW35050   4.536   3.385   9.818 -0.6778  0.3762  0.0468
 7864SOL    HW135051   4.458   3.371   9.872 -1.0792 -1.5598 -1.0163
 7864SOL    HW235052   4.587   3.442   9.876  0.9652 -1.5653  0.5314
 7865SOL     OW35053   0.995   0.646   7.024 -0.1754 -0.1746 -0.2480
 7865SOL    HW135054   0.946   0.728   7.014 -0.0408 -0.2829 -1.7150
 7865SOL    HW235055   0.927   0.583   6.999  0.7721 -1.4486  0.3855
 7866SOL     OW35056   3.280   1.181   4.960 -0.0238  0.6265  0.4491
 7866SOL    HW135057   3.282   1.196   4.866  0.2780 -1.9854  0.0148
 7866SOL    HW235058   3.259   1.088   4.974  0.0407  0.3488 -1.2446
 7867SOL     OW35059   1.892   4.339   8.234  0.4791  0.2082  0.1390
 7867SOL    HW135060   1.813   4.389   8.252  0.1199  0.2532 -1.5376
 7867SOL    HW235061   1.857   4.281   8.166 -2.7306  1.4103  0.7643
 7868SOL     OW35062   2.895   4.127   8.049 -0.4644 -0.2436 -0.1348
 7868SOL    HW135063   2.801   4.113   8.040 -0.7160  1.4869 -0.1773
 7868SOL    HW235064   2.932   4.040   8.065  0.6534  0.8912  3.5133
 7869SOL     OW35065   3.447   0.194   3.688 -0.6025 -0.1995 -0.5858
 7869SOL    HW135066   3.425   0.141   3.611  2.1895 -3.2920  0.7703
 7869SOL    HW235067   3.378   0.261   3.679 -1.3297 -0.5535  2.3382
 7870SOL     OW35068   0.771   3.309   4.367 -0.2518  0.3001  0.2016
 7870SOL    HW135069   0.775   3.246   4.296 -1.5732 -1.9323  2.0983
 7870SOL    HW235070   0.864   3.321   4.386  0.1319 -0.7746 -1.0420
 7871SOL     OW35071   4.602   2.725   5.437  0.4307  0.1910 -0.1629
 7871SOL    HW135072   4.688   2.753   5.467 -0.6757  5.8598 -2.1153
 7871SOL    HW235073   4.609   2.631   5.421 -0.3071  0.1875 -0.5077
 7872SOL     OW35074   0.161   0.196   8.733  0.4440  0.1922  0.0929
 7872SOL    HW135075   0.196   0.282   8.757 -0.0998  1.3196 -3.1957
 7872SOL    HW235076   0.069   0.198   8.758 -0.2802  2.6170 -2.7836
 7873SOL     OW35077   4.290   3.766   6.489 -0.4544  0.4429  0.1619
 7873SOL    HW135078   4.255   3.696   6.543 -0.3242  0.6694  0.5382
 7873SOL    HW235079   4.383   3.763   6.512 -0.1296  1.6897 -0.9206
 7874SOL     OW35080   0.378   4.449   3.802 -0.4191 -0.1797 -0.3110
 7874SOL    HW135081   0.438   4.416   3.735  0.4208 -1.7901  1.2410
 7874SOL    HW235082   0.304   4.482   3.752  0.9631  0.6109 -1.8410
 7875SOL     OW35083   0.086   3.946  15.156  0.0518  0.1977  0.3247
 7875SOL    HW135084   0.045   3.862  15.134 -0.1343  1.0736 -2.6818
 7875SOL    HW235085   0.049   3.959  15.243 -1.2994 -2.0052  0.0824
 7876SOL     OW35086   3.023   1.127   2.153  0.3586 -0.2399  0.2424
 7876SOL    HW135087   3.021   1.065   2.080  0.1768 -0.4112  0.3930
 7876SOL    HW235088   2.930   1.113   2.171 -0.2090  1.9091 -1.0663
 7877SOL     OW35089   1.035   1.675   5.732 -0.1385  0.0686 -0.2636
 7877SOL    HW135090   1.127   1.656   5.711 -0.2224  0.4412 -0.9669
 7877SOL    HW235091   0.996   1.612   5.671 -2.1646  0.5289  0.5788
 7878SOL     OW35092   3.279   0.416  17.292  0.3483 -0.2119 -0.3649
 7878SOL    HW135093   3.235   0.443  17.372  1.4703  2.5308 -0.6847
 7878SOL    HW235094   3.371   0.438  17.309  1.5023 -2.0997 -4.0055
 7879SOL     OW35095   4.530   4.163   4.196  0.9007  0.6619  0.6913
 7879SOL    HW135096   4.613   4.125   4.225 -0.0929 -0.6150  1.8317
 7879SOL    HW235097   4.485   4.095   4.145 -3.7140  1.0257  4.3012
 7880SOL     OW35098   3.102   0.266   0.066 -0.2080 -0.2012  0.8648
 7880SOL    HW135099   3.019   0.229   0.095 -0.3911  0.8721  1.7037
 7880SOL    HW235100   3.140   0.301   0.146  0.0016  1.9296 -0.1545
 7881SOL     OW35101   2.322   3.734   3.969 -0.1503  0.0543 -0.4890
 7881SOL    HW135102   2.417   3.739   3.967 -0.2064  0.9411 -0.8633
 7881SOL    HW235103   2.299   3.704   3.881 -0.9982  0.1528 -0.3086
 7882SOL     OW35104   2.138   1.797   8.913 -0.4104 -0.5096  0.7791
 7882SOL    HW135105   2.112   1.758   8.830 -0.4531 -0.7988  0.9280
 7882SOL    HW235106   2.066   1.769   8.971 -2.0279 -0.3038 -1.1274
 7883SOL     OW35107   2.463   1.115  11.617  0.4368 -0.5004  0.2285
 7883SOL    HW135108   2.432   1.193  11.664  1.3901  0.3070 -0.4824
 7883SOL    HW235109   2.534   1.089  11.676  0.9326  0.8926  0.2392
 7884SOL     OW35110   3.546   0.846  12.933 -0.1836 -0.2391 -0.4114
 7884SOL    HW135111   3.531   0.768  12.986  2.2575 -1.4701 -1.4824
 7884SOL    HW235112   3.617   0.879  12.988  0.0874 -3.1275  0.9581
 7885SOL     OW35113   1.809   1.977   5.649  0.2139 -0.5034 -0.2443
 7885SOL    HW135114   1.781   1.945   5.563 -0.6208  3.0871 -1.2861
 7885SOL    HW235115   1.798   1.901   5.706 -1.5532  0.1796  0.2980
 7886SOL     OW35116   4.105   2.354   8.265 -0.0603  0.2239  0.4908
 7886SOL    HW135117   4.189   2.312   8.249 -0.7473  0.2841 -3.3187
 7886SOL    HW235118   4.130   2.442   8.295  0.3121  0.3540 -0.2123
 7887SOL     OW35119   0.792   4.455   7.707 -0.4962 -0.0150 -0.4728
 7887SOL    HW135120   0.864   4.504   7.667 -1.1999  0.6086 -0.9696
 7887SOL    HW235121   0.750   4.416   7.631 -2.2301 -1.4737  1.2376
 7888SOL     OW35122   3.527   1.347   9.599  0.4545 -0.5878  0.5742
 7888SOL    HW135123   3.580   1.277   9.637  0.2069 -1.3996 -0.5932
 7888SOL    HW235124   3.466   1.289   9.553  2.8763 -0.5298 -2.6157
 7889SOL     OW35125   3.083   1.505   4.582  0.2086  0.2357  0.3268
 7889SOL    HW135126   3.054   1.551   4.660  0.1507 -3.7873  2.7041
 7889SOL    HW235127   3.016   1.437   4.574  1.2984 -0.5963 -1.8165
 7890SOL     OW35128   0.311   2.024   7.558  0.1846  0.0827  0.1572
 7890SOL    HW135129   0.314   1.988   7.469 -0.7215  1.6900 -0.5062
 7890SOL    HW235130   0.262   2.104   7.539  0.2605 -0.4738 -2.5049
 7891SOL     OW35131   4.178   0.570   8.051 -0.5337 -0.7387  0.0013
 7891SOL    HW135132   4.169   0.641   8.115 -1.0899  0.9580 -1.9949
 7891SOL    HW235133   4.254   0.533   8.095 -0.3166 -0.4357 -0.1234
 7892SOL     OW35134   3.272   0.274   7.681 -0.3332 -0.1467 -0.0861
 7892SOL    HW135135   3.187   0.265   7.637 -0.4996 -0.0128  0.2038
 7892SOL    HW235136   3.245   0.259   7.772  0.6265 -0.7503  0.0963
 7893SOL     OW35137   4.389   4.116   3.359 -0.1719 -0.2496  0.3832
 7893SOL    HW135138   4.359   4.082   3.443  4.4316 -1.5632  1.5161
 7893SOL    HW235139   4.348   4.201   3.374 -2.1756 -1.1746  0.1570
 7894SOL     OW35140   1.893   3.207  13.646  0.3309  0.1822 -0.2475
 7894SOL    HW135141   1.879   3.302  13.646  2.4848  0.4792 -1.0443
 7894SOL    HW235142   1.963   3.199  13.581  0.9632 -1.8428  0.6866
 7895SOL     OW35143   1.171   0.480  11.060 -0.0664 -0.5015  0.2361
 7895SOL    HW135144   1.135   0.441  11.140  2.0253  2.1343  2.4474
 7895SOL    HW235145   1.258   0.504  11.091 -0.9980  0.9667  1.7149
 7896SOL     OW35146   1.414   3.182   5.971  0.4694  0.1325  0.0655
 7896SOL    HW135147   1.327   3.156   6.002  0.4434 -1.1404 -1.0632
 7896SOL    HW235148   1.469   3.142   6.038 -0.0695  0.7150  0.8475
 7897SOL     OW35149   2.415   2.688   9.754  0.4140 -0.0601 -0.4415
 7897SOL    HW135150   2.323   2.694   9.780  0.5703 -2.6291  0.6867
 7897SOL    HW235151   2.446   2.760   9.808 -0.2025  0.9124 -1.3818
 7898SOL     OW35152   0.589   4.682  10.933 -0.3667  0.2070  0.0878
 7898SOL    HW135153   0.655   4.713  10.871 -0.1981  0.1110  0.2169
 7898SOL    HW235154   0.648   4.632  10.991 -0.4452 -0.3231 -0.2882
 7899SOL     OW35155   4.621   0.198   8.398 -0.0376 -0.2812 -0.2628
 7899SOL    HW135156   4.581   0.268   8.450  2.4442 -0.5485  1.9523
 7899SOL    HW235157   4.643   0.149   8.477 -0.9291 -0.1709  0.0596
 7900SOL     OW35158   2.695   0.553   2.802  0.0948 -0.0407 -0.1383
 7900SOL    HW135159   2.753   0.576   2.874 -2.7169 -1.3764  2.5609
 7900SOL    HW235160   2.719   0.464   2.775  0.5196  0.0899 -0.1893
 7901SOL     OW35161   0.464   2.626   2.508  0.7580  0.2283 -0.2911
 7901SOL    HW135162   0.383   2.639   2.557  0.6863 -1.1637 -0.0446
 7901SOL    HW235163   0.466   2.717   2.479 -1.0312 -0.3775 -2.2581
 7902SOL     OW35164   4.629   0.295  13.392  0.2908  0.1805 -0.5175
 7902SOL    HW135165   4.568   0.341  13.449  1.9297  3.2207 -1.2088
 7902SOL    HW235166   4.607   0.334  13.307  3.2139  0.7645 -0.9973
 7903SOL     OW35167   1.797   1.926   1.419  0.0281  0.3203 -0.0856
 7903SOL    HW135168   1.879   1.971   1.436  0.4297  0.0027 -1.2069
 7903SOL    HW235169   1.787   1.879   1.502 -1.8348 -0.4156 -0.7175
 7904SOL     OW35170   1.273   4.659   4.837  0.5404 -0.6378  0.5931
 7904SOL    HW135171   1.246   4.625   4.922  0.7915 -0.1075  0.8901
 7904SOL    HW235172   1.234   4.596   4.775 -2.7627  1.3205  0.6595
 7905SOL     OW35173   3.488   2.922   6.974 -0.1076  0.4136  0.0561
 7905SOL    HW135174   3.484   3.013   6.945 -0.9990  1.0127  2.0728
 7905SOL    HW235175   3.422   2.920   7.043  0.6918  0.5841  0.8363
 7906SOL     OW35176   2.526   2.677   7.487  0.3722  0.6011  0.0746
 7906SOL    HW135177   2.572   2.621   7.424  0.4206 -0.1537  0.7758
 7906SOL    HW235178   2.460   2.617   7.522  1.2153 -0.2314  0.2362
 7907SOL     OW35179   1.936   3.422  11.048 -0.3805  0.1915  0.0577
 7907SOL    HW135180   2.024   3.460  11.059  0.8906 -2.5234 -0.7226
 7907SOL    HW235181   1.954   3.339  11.093  1.0155 -0.6959 -2.1508
 7908SOL     OW35182   4.278   1.630  15.059  0.3856 -0.1007  0.2747
 7908SOL    HW135183   4.238   1.717  15.059  1.5751  0.4530 -0.5550
 7908SOL    HW235184   4.218   1.581  15.115  0.3445 -0.2312  0.1171
 7909SOL     OW35185   0.611   0.914   1.830  0.1500 -0.6358 -0.8959
 7909SOL    HW135186   0.629   0.840   1.889  2.7527 -2.1966 -3.6462
 7909SOL    HW235187   0.654   0.982   1.883  1.8912 -0.8768 -1.9780
 7910SOL     OW35188   0.830   0.498  16.073  0.0584  0.0562  0.5391
 7910SOL    HW135189   0.783   0.425  16.112  0.6149 -1.0217 -0.8290
 7910SOL    HW235190   0.808   0.484  15.981 -0.8454  1.6510  0.4968
 7911SOL     OW35191   0.081   4.028   8.219 -0.0918  0.0242  0.3110
 7911SOL    HW135192   0.162   3.995   8.180 -0.6274  0.0819 -0.8461
 7911SOL    HW235193   0.030   3.947   8.219  0.8536 -0.5699 -0.9668
 7912SOL     OW35194   2.287   3.398   6.737  0.3220 -0.0777 -0.8386
 7912SOL    HW135195   2.229   3.465   6.700  2.2982  1.0330 -1.8878
 7912SOL    HW235196   2.295   3.432   6.826  1.1750 -2.7609  0.1150
 7913SOL     OW35197   1.209   2.347   7.044 -0.0838 -0.9807  0.4777
 7913SOL    HW135198   1.300   2.330   7.068 -0.6454  1.2872  4.2169
 7913SOL    HW235199   1.182   2.417   7.103  2.2504  0.3885 -0.0905
 7914SOL     OW35200   2.344   3.098  16.346  0.2629  0.4220  0.4660
 7914SOL    HW135201   2.251   3.096  16.321  0.2586 -1.5292  0.6941
 7914SOL    HW235202   2.346   3.027  16.410  0.6355 -3.0970 -3.4590
 7915SOL     OW35203   2.326   3.761   4.535  0.1738 -0.5970  0.5515
 7915SOL    HW135204   2.393   3.698   4.561 -0.0956 -0.4182  1.6940
 7915SOL    HW235205   2.368   3.810   4.464  0.3978 -0.9471  0.4416
 7916SOL     OW35206   1.701   2.606  11.503  0.4117 -0.3976 -0.2947
 7916SOL    HW135207   1.756   2.533  11.474  0.4771 -0.8761  1.0266
 7916SOL    HW235208   1.760   2.660  11.556 -0.1393 -0.0430 -0.0420
 7917SOL     OW35209   4.402   2.693   3.511 -0.0768 -0.6957 -0.0884
 7917SOL    HW135210   4.393   2.763   3.446 -3.0674  1.1613  2.3463
 7917SOL    HW235211   4.330   2.630   3.507 -1.6155  1.1467 -1.2890
 7918SOL     OW35212   4.545   0.628   4.907 -0.6912  0.5550 -0.8134
 7918SOL    HW135213   4.456   0.612   4.877 -1.6126  1.3255  1.5667
 7918SOL    HW235214   4.553   0.589   4.994 -0.5738  1.1959 -0.5357
 7919SOL     OW35215   0.153   3.560  17.663 -0.5865  0.2890  0.2788
 7919SOL    HW135216   0.099   3.491  17.623  0.3879 -0.2564 -0.0867
 7919SOL    HW235217   0.082   3.588   0.030 -1.5133  0.1340 -0.7684
 7920SOL     OW35218   3.274   0.950   9.548  0.2192 -0.2237  0.9329
 7920SOL    HW135219   3.369   0.960   9.540  0.1249 -0.5159 -0.4032
 7920SOL    HW235220   3.263   0.897   9.627  0.8337 -2.2776 -0.3615
 7921SOL     OW35221   3.356   3.208   7.505 -0.3453 -0.0058 -0.0171
 7921SOL    HW135222   3.385   3.136   7.561  1.1497  1.9108  1.6904
 7921SOL    HW235223   3.261   3.212   7.513 -0.4892 -0.5136 -1.4161
 7922SOL     OW35224   3.179   0.877  13.473  0.7427  0.1505 -0.3449
 7922SOL    HW135225   3.134   0.907  13.394 -0.4732 -0.5803  0.0689
 7922SOL    HW235226   3.240   0.950  13.484 -0.8108  1.5393 -0.8902
 7923SOL     OW35227   0.843   1.590  12.295  0.1787  0.0968 -0.0749
 7923SOL    HW135228   0.885   1.535  12.228 -0.3421  2.3154 -2.2039
 7923SOL    HW235229   0.923   1.633  12.326 -0.3819  0.9333  0.2214
 7924SOL     OW35230   0.463   2.620   5.764  0.2924 -0.0800  0.2923
 7924SOL    HW135231   0.470   2.711   5.792  0.7686 -0.8009  2.5293
 7924SOL    HW235232   0.368   2.603   5.764  0.3347 -0.3158  0.4950
 7925SOL     OW35233   3.276   3.879  15.299 -0.2588 -0.3150 -0.1171
 7925SOL    HW135234   3.362   3.867  15.258 -0.4133  0.5134 -0.6936
 7925SOL    HW235235   3.248   3.956  15.249  1.9584  1.5719  1.5427
 7926SOL     OW35236   1.409   3.959  15.604  0.2238 -0.2036 -0.2121
 7926SOL    HW135237   1.445   4.019  15.539  0.6737  2.3428  2.3715
 7926SOL    HW235238   1.418   4.012  15.683 -0.2726  2.8351 -2.2161
 7927SOL     OW35239   0.789   2.336  11.330  0.3348  0.2588 -0.0855
 7927SOL    HW135240   0.702   2.371  11.313 -0.1115 -0.9867 -0.3878
 7927SOL    HW235241   0.773   2.276  11.403  1.0714  1.1883  0.8459
 7928SOL     OW35242   2.094   2.316   7.815  0.0836 -0.2360 -0.1352
 7928SOL    HW135243   2.006   2.279   7.815 -0.2065  0.4751 -2.8798
 7928SOL    HW235244   2.067   2.404   7.789 -2.0118 -0.5349  1.0399
 7929SOL     OW35245   1.580   0.103   9.162 -0.1753 -0.4758  0.0073
 7929SOL    HW135246   1.598   0.181   9.109  2.1111 -0.9462  0.0932
 7929SOL    HW235247   1.594   0.137   9.250 -0.8893  0.8693 -0.4010
 7930SOL     OW35248   1.376   3.935   7.644  0.0411 -0.3549  0.3260
 7930SOL    HW135249   1.287   3.920   7.677 -0.3102 -0.3727 -0.6375
 7930SOL    HW235250   1.366   4.003   7.577  2.1812  0.3495  0.7157
 7931SOL     OW35251   0.331   4.344   9.425  0.2234  0.3265 -0.6099
 7931SOL    HW135252   0.266   4.302   9.481 -1.9432  2.1925 -1.6751
 7931SOL    HW235253   0.314   4.438   9.435 -0.3335  0.1059  0.5788
 7932SOL     OW35254   2.556   2.786   4.081  0.0466 -0.1711 -0.2428
 7932SOL    HW135255   2.583   2.727   4.011  0.6256 -1.0507  0.7233
 7932SOL    HW235256   2.640   2.794   4.128 -0.2980  2.2383 -0.0354
 7933SOL     OW35257   3.595   1.700   7.936  0.2524  0.3432 -0.2754
 7933SOL    HW135258   3.562   1.610   7.938  1.7166 -0.1715  0.8547
 7933SOL    HW235259   3.547   1.728   7.858 -3.3955 -3.2665  0.6665
 7934SOL     OW35260   2.122   0.021  13.236  0.2923 -0.7654 -0.1187
 7934SOL    HW135261   2.195   4.716  13.181 -0.1084 -2.2551  0.0785
 7934SOL    HW235262   2.090   4.656  13.258 -0.9332  0.4269  2.8935
 7935SOL     OW35263   4.359   3.522   5.670  0.3468 -0.1603 -0.4029
 7935SOL    HW135264   4.392   3.579   5.740  1.1974 -0.5902 -0.4545
 7935SOL    HW235265   4.404   3.441   5.693 -1.3963 -1.0486 -0.1752
 7936SOL     OW35266   1.969   0.881   5.166 -0.1469  0.5719  0.0178
 7936SOL    HW135267   1.874   0.889   5.176 -0.4057  0.2454 -2.3086
 7936SOL    HW235268   1.970   0.842   5.079  1.2207 -0.4744  0.4899
 7937SOL     OW35269   2.624   1.297   2.769 -0.0650 -0.4417  0.1806
 7937SOL    HW135270   2.535   1.264   2.756  0.4149 -1.5910 -0.1953
 7937SOL    HW235271   2.671   1.229   2.720  0.4293 -0.2037  0.3261
 7938SOL     OW35272   1.744   1.252   7.111 -0.5626  0.1056 -0.1829
 7938SOL    HW135273   1.726   1.167   7.152 -0.8322  0.0967 -0.3211
 7938SOL    HW235274   1.821   1.243   7.054  0.4875 -0.3489  1.2920
 7939SOL     OW35275   1.953   2.796  14.049  0.2972 -0.0412  0.1240
 7939SOL    HW135276   1.911   2.855  13.986 -0.4382 -0.3774  0.2917
 7939SOL    HW235277   2.038   2.788  14.006  0.1916  1.1415 -0.3101
 7940SOL     OW35278   4.563   3.067   2.999  0.3602 -0.0348 -0.2147
 7940SOL    HW135279   4.475   3.103   2.990  0.8694  1.2737  0.0317
 7940SOL    HW235280   4.559   2.986   2.950  0.7610  1.5480 -2.8371
 7941SOL     OW35281   3.640   3.355  14.319 -0.5993  0.1995 -0.2016
 7941SOL    HW135282   3.669   3.280  14.370 -2.3000 -1.2848 -1.4178
 7941SOL    HW235283   3.708   3.414  14.353  1.1059 -0.3577 -2.6498
 7942SOL     OW35284   2.697   1.831  17.520  0.1145  0.3315 -0.2733
 7942SOL    HW135285   2.731   1.911  17.479  0.6824  0.0532 -0.3353
 7942SOL    HW235286   2.640   1.802  17.449  2.7830 -0.9679 -1.8560
 7943SOL     OW35287   2.170   1.632   6.253  0.0674 -0.6781  0.1958
 7943SOL    HW135288   2.144   1.693   6.322 -0.5279 -1.1352  0.3653
 7943SOL    HW235289   2.163   1.686   6.174  0.6374  0.2587  0.7870
 7944SOL     OW35290   4.400   0.139   9.009  0.4293 -0.4253 -0.1002
 7944SOL    HW135291   4.479   0.085   9.015  0.2455 -0.7500 -0.6540
 7944SOL    HW235292   4.340   0.072   9.042  1.1289 -0.0488  1.9872
 7945SOL     OW35293   0.562   0.357  12.822 -0.1722 -0.2132  0.8418
 7945SOL    HW135294   0.519   0.311  12.750  0.7265  0.7913 -0.3112
 7945SOL    HW235295   0.656   0.349  12.806 -0.1023  0.5349  0.8828
 7946SOL     OW35296   3.375   1.367   3.869 -0.3890 -0.4655  0.2483
 7946SOL    HW135297   3.378   1.295   3.807 -2.8613  0.0226 -0.4429
 7946SOL    HW235298   3.435   1.343   3.939 -0.6676 -1.9166 -0.0220
 7947SOL     OW35299   1.672   1.367   2.080  0.6872 -0.1253  0.1201
 7947SOL    HW135300   1.714   1.453   2.077 -0.0866  0.1685 -2.0003
 7947SOL    HW235301   1.748   1.313   2.058 -0.3101 -1.2538 -0.5304
 7948SOL     OW35302   0.471   1.275   1.628  0.3721  0.0131 -0.1224
 7948SOL    HW135303   0.465   1.231   1.543  0.7648  0.5428 -0.4212
 7948SOL    HW235304   0.564   1.295   1.633  0.6977 -2.1610  2.3317
 7949SOL     OW35305   3.394   2.742   3.813 -0.2062  0.1414 -0.0169
 7949SOL    HW135306   3.447   2.672   3.774 -1.6801 -2.9359  3.5014
 7949SOL    HW235307   3.332   2.689   3.864  0.9608 -0.4553  0.7987
 7950SOL     OW35308   4.706   3.295  13.074  0.7199  0.0569  0.0998
 7950SOL    HW135309   0.049   3.226  13.088  1.7268  0.4666 -2.6124
 7950SOL    HW235310   0.029   3.363  13.124  1.8468 -0.9968  0.5296
 7951SOL     OW35311   3.398   3.934   1.108 -0.3289  0.2625  0.2224
 7951SOL    HW135312   3.452   3.858   1.087 -0.6118  0.8453 -2.6127
 7951SOL    HW235313   3.406   3.987   1.029  0.0419  1.5206  1.1103
 7952SOL     OW35314   1.783   2.633   1.171  0.6225 -0.3106 -0.1416
 7952SOL    HW135315   1.710   2.578   1.146 -0.6429  1.7991 -1.0928
 7952SOL    HW235316   1.782   2.626   1.266  0.5007  2.5460  0.0751
 7953SOL     OW35317   0.274   3.957   1.048  0.3141  0.1230  0.0228
 7953SOL    HW135318   0.231   3.898   0.987 -0.3286  1.0738 -0.4423
 7953SOL    HW235319   0.364   3.928   1.030 -0.4693 -1.8195 -0.7026
 7954SOL     OW35320   3.160   4.173  16.178 -0.8542 -0.3845 -0.1147
 7954SOL    HW135321   3.109   4.188  16.098 -2.3451  1.9388  1.2650
 7954SOL    HW235322   3.082   4.147  16.226  0.2580 -0.6128  1.5710
 7955SOL     OW35323   1.995   2.503   5.191  0.6422 -0.3872 -0.2547
 7955SOL    HW135324   2.024   2.594   5.185  1.3083 -0.6108 -0.4216
 7955SOL    HW235325   1.940   2.513   5.113 -1.4194 -0.5711  1.1835
 7956SOL     OW35326   3.893   0.718  10.195  0.0968 -0.2338  0.7342
 7956SOL    HW135327   3.986   0.699  10.185 -0.1478 -0.9233 -0.3027
 7956SOL    HW235328   3.898   0.804  10.238 -0.5098  0.0639  0.2125
 7957SOL     OW35329   2.975   3.938  10.700  0.0538 -0.2793 -0.4562
 7957SOL    HW135330   3.070   3.949  10.696  0.1583 -0.1359  2.5320
 7957SOL    HW235331   2.949   4.027  10.678 -1.8087 -0.5179  0.7940
 7958SOL     OW35332   1.044   3.023   4.198 -0.1995  0.4649  0.0572
 7958SOL    HW135333   1.086   3.097   4.154  1.7531  0.3438  1.7184
 7958SOL    HW235334   1.082   2.947   4.154 -0.5634 -0.1383  0.7825
 7959SOL     OW35335   1.696   3.270   0.594  0.6502 -0.8481 -0.3339
 7959SOL    HW135336   1.675   3.177   0.585  1.4069 -1.1210  0.6380
 7959SOL    HW235337   1.786   3.275   0.561  1.5326  0.7715  2.3131
 7960SOL     OW35338   2.898   0.101   7.453 -0.4772 -0.0924 -0.0901
 7960SOL    HW135339   2.953   0.129   7.380 -0.3315 -0.4746 -0.1295
 7960SOL    HW235340   2.909   0.166   7.522  1.9920 -1.0698  0.4275
 7961SOL     OW35341   1.096   3.771   8.562  0.5161 -0.2190 -0.3523
 7961SOL    HW135342   1.045   3.813   8.493 -0.3847 -0.0450  0.4221
 7961SOL    HW235343   1.087   3.679   8.534  1.5342  0.3389 -2.5419
 7962SOL     OW35344   2.651   0.634   9.613  0.1921  0.7206  0.2938
 7962SOL    HW135345   2.588   0.589   9.556 -1.2130  0.7030  1.8484
 7962SOL    HW235346   2.600   0.711   9.641 -2.1018 -0.2722 -1.1195
 7963SOL     OW35347   0.857   1.137   1.631  0.6378  0.1261  0.0837
 7963SOL    HW135348   0.818   1.154   1.716 -1.1528  6.7273 -2.0780
 7963SOL    HW235349   0.835   1.212   1.576  2.5162 -1.1833 -2.4886
 7964SOL     OW35350   0.574   3.541   5.165 -0.2325  0.0642 -0.6433
 7964SOL    HW135351   0.584   3.456   5.208  0.3592 -0.3606 -1.6338
 7964SOL    HW235352   0.552   3.601   5.237 -0.8431  0.0582 -0.8303
 7965SOL     OW35353   4.262   1.117   8.258  0.4312  0.4421  0.1552
 7965SOL    HW135354   4.353   1.129   8.285  0.2905 -0.2362  0.9201
 7965SOL    HW235355   4.246   1.202   8.218 -1.1774 -0.1152 -0.3808
 7966SOL     OW35356   1.580   2.704   7.663 -0.2182  0.2046  0.3735
 7966SOL    HW135357   1.501   2.744   7.625  1.1708  2.4342 -0.1608
 7966SOL    HW235358   1.608   2.768   7.729  1.7612  0.5172 -0.7905
 7967SOL     OW35359   2.418   1.393   0.154 -0.9248  0.3081  0.0763
 7967SOL    HW135360   2.434   1.464   0.217 -2.0549  1.8457 -1.3496
 7967SOL    HW235361   2.351   1.344   0.200 -0.2311 -0.2162  0.5310
 7968SOL     OW35362   1.417   0.665  15.720 -0.4842 -0.0560 -0.4003
 7968SOL    HW135363   1.390   0.617  15.799  0.1065 -1.0841 -0.8275
 7968SOL    HW235364   1.449   0.744  15.765 -0.6578 -1.2936  1.9243
 7969SOL     OW35365   2.810   3.253   2.906  0.8732 -0.4559  0.1560
 7969SOL    HW135366   2.848   3.170   2.937 -0.8173 -0.7119  1.5790
 7969SOL    HW235367   2.763   3.282   2.984  1.1745  0.0948  0.1286
 7970SOL     OW35368   0.138   3.669  11.077 -0.3397 -0.1015 -0.0478
 7970SOL    HW135369   0.223   3.657  11.118  1.4568  3.4776 -2.7628
 7970SOL    HW235370   0.124   3.578  11.050  0.1490 -0.0514 -0.4815
 7971SOL     OW35371   3.792   2.036   0.718 -0.0460 -0.1923  0.7819
 7971SOL    HW135372   3.861   2.000   0.775  1.8514 -0.0021 -1.4247
 7971SOL    HW235373   3.841   2.074   0.646  0.5570 -3.1536 -0.3526
 7972SOL     OW35374   2.421   1.605  12.890 -0.0748 -0.1571 -0.1696
 7972SOL    HW135375   2.435   1.578  12.800  0.6111 -0.0909 -0.0863
 7972SOL    HW235376   2.354   1.549  12.930  0.8591 -1.6261 -0.6287
 7973SOL     OW35377   0.351   0.340  13.748  0.0386  0.3315  0.2296
 7973SOL    HW135378   0.304   0.366  13.668 -0.1629 -2.2710 -0.4927
 7973SOL    HW235379   0.442   0.350  13.720 -0.1121 -0.9734 -0.7332
 7974SOL     OW35380   0.778   0.686   5.319 -0.2871 -0.3632 -0.0332
 7974SOL    HW135381   0.710   0.651   5.378 -1.0480  0.2722 -0.5305
 7974SOL    HW235382   0.841   0.619   5.346  0.9526  0.5191 -0.7390
 7975SOL     OW35383   3.108   4.002  17.291  0.1246 -0.1153  0.1836
 7975SOL    HW135384   3.127   4.039  17.204 -1.2943  0.6987  0.2217
 7975SOL    HW235385   3.041   3.944  17.255  0.2101 -1.0086  1.4648
 7976SOL     OW35386   3.213   1.515   9.877 -0.4487  0.6298 -0.4917
 7976SOL    HW135387   3.162   1.498   9.798  0.9431 -3.0994 -0.5779
 7976SOL    HW235388   3.296   1.522   9.831  0.5564 -1.1044  1.0722
 7977SOL     OW35389   4.543   1.973  10.023 -0.6307  0.0982  0.7298
 7977SOL    HW135390   4.553   1.909   9.952 -0.0738  2.4779 -1.3423
 7977SOL    HW235391   4.575   1.920  10.096  1.1856 -1.8279 -1.4683
 7978SOL     OW35392   4.044   4.616  14.486  0.3209 -0.3472  0.1691
 7978SOL    HW135393   4.130   4.640  14.520  1.2788 -0.5407 -2.1690
 7978SOL    HW235394   4.056   4.521  14.479 -1.5799 -0.5225 -0.7857
 7979SOL     OW35395   0.551   0.841   0.026 -0.0292 -0.1190 -0.1844
 7979SOL    HW135396   0.593   0.894  17.650 -0.5538 -0.6515 -0.9225
 7979SOL    HW235397   0.618   0.784   0.065  0.8778  0.8826 -0.2732
 7980SOL     OW35398   0.284   1.467   1.368 -0.1684  0.1995  0.3278
 7980SOL    HW135399   0.224   1.452   1.441  0.3813 -1.0343  0.5345
 7980SOL    HW235400   0.228   1.469   1.291  0.3259  1.3389 -0.0008
 7981SOL     OW35401   1.230   3.842  10.912  0.2571  0.1345 -0.0778
 7981SOL    HW135402   1.325   3.851  10.915  0.0753  1.3273  2.5543
 7981SOL    HW235403   1.207   3.849  10.820 -0.1622  0.4554  0.0502
 7982SOL     OW35404   3.642   4.029   8.637  0.7536 -0.8825  0.3517
 7982SOL    HW135405   3.685   4.057   8.717 -1.3406  1.8637  0.5152
 7982SOL    HW235406   3.553   4.064   8.644  0.6429 -1.3013  1.0305
 7983SOL     OW35407   1.949   0.974  12.949  0.2236  0.3142  0.2867
 7983SOL    HW135408   1.878   1.038  12.952  0.3166  0.2850  2.5554
 7983SOL    HW235409   1.968   0.969  13.042 -2.0436  1.3539  0.7956
 7984SOL     OW35410   2.416   3.200   9.062  0.1708 -0.1679 -0.9468
 7984SOL    HW135411   2.425   3.240   9.149 -0.2774  0.2576 -1.0936
 7984SOL    HW235412   2.484   3.133   9.052  1.7869  1.8450 -3.7960
 7985SOL     OW35413   0.168   3.624   1.768 -0.2005 -0.4831  0.1832
 7985SOL    HW135414   0.189   3.715   1.744  0.3140 -0.4875  0.6212
 7985SOL    HW235415   0.229   3.576   1.712  0.9167 -0.4667  1.3876
 7986SOL     OW35416   0.417   0.968  15.604  0.0652  0.4038 -0.1846
 7986SOL    HW135417   0.362   1.032  15.651  0.1758  0.4088 -0.0617
 7986SOL    HW235418   0.422   1.012  15.520  1.4563 -1.7425 -1.2045
 7987SOL     OW35419   1.731   4.048   6.184 -0.6586  0.1711  0.2565
 7987SOL    HW135420   1.722   4.142   6.203  0.8087  0.5097 -0.7777
 7987SOL    HW235421   1.661   4.041   6.118  0.4837 -2.4014 -0.6402
 7988SOL     OW35422   2.566   3.326  15.773  0.2075  0.0707 -0.2890
 7988SOL    HW135423   2.539   3.234  15.773  1.1152 -0.2105  1.4808
 7988SOL    HW235424   2.498   3.374  15.820 -0.7151 -0.8424 -0.6940
 7989SOL     OW35425   3.507   1.170  10.717 -0.8148 -0.1568 -0.5962
 7989SOL    HW135426   3.423   1.208  10.691  0.0263  1.0215 -1.6160
 7989SOL    HW235427   3.533   1.116  10.642 -0.3034  0.1431 -0.6340
 7990SOL     OW35428   4.026   1.182  11.739  0.5642 -0.2562  0.0383
 7990SOL    HW135429   3.974   1.219  11.811  0.3737  0.1510 -0.3096
 7990SOL    HW235430   4.046   1.093  11.768 -0.2495 -0.5077 -0.1555
 7991SOL     OW35431   4.545   4.301   5.978  0.2322 -0.1222 -0.2519
 7991SOL    HW135432   4.549   4.346   6.063 -0.8175 -0.9360  0.2327
 7991SOL    HW235433   4.587   4.216   5.996 -0.1380  0.0793  1.5485
 7992SOL     OW35434   2.788   1.456  12.156  0.5206 -0.6034  0.0112
 7992SOL    HW135435   2.784   1.360  12.156 -2.0383 -0.4819 -1.2149
 7992SOL    HW235436   2.762   1.492  12.240 -0.2469  0.7118 -0.7846
 7993SOL     OW35437   1.200   4.406   9.356  0.1664 -0.0890 -0.1430
 7993SOL    HW135438   1.215   4.439   9.445  0.0885 -1.3634  0.3428
 7993SOL    HW235439   1.172   4.316   9.374 -1.2520  0.3964  0.0732
 7994SOL     OW35440   0.619   3.767   5.366  0.7116 -0.1760  0.5155
 7994SOL    HW135441   0.523   3.769   5.367  0.6683 -1.2451 -0.7404
 7994SOL    HW235442   0.645   3.704   5.432 -0.9424 -1.0729  0.3158
 7995SOL     OW35443   2.887   2.429   8.310 -0.0917  0.2735  0.2470
 7995SOL    HW135444   2.796   2.452   8.288 -0.1998 -0.9439 -0.6091
 7995SOL    HW235445   2.882   2.333   8.316 -1.1310  0.3967  1.3547
 7996SOL     OW35446   4.558   3.989  15.875 -0.3776  0.3066 -0.3335
 7996SOL    HW135447   4.633   3.935  15.897 -1.0265 -0.6936 -0.5640
 7996SOL    HW235448   4.596   4.077  15.881  1.8165 -0.6516 -0.1685
 7997SOL     OW35449   3.208   0.925   4.700  0.3364  0.7410 -0.4952
 7997SOL    HW135450   3.158   0.846   4.721 -2.0127  1.9478 -1.6302
 7997SOL    HW235451   3.192   0.957   4.788 -0.4551  0.2559 -0.4608
 7998SOL     OW35452   3.070   0.970   1.698  0.1919  0.5611 -0.2396
 7998SOL    HW135453   3.095   0.907   1.630 -0.2889  0.6985 -0.5401
 7998SOL    HW235454   3.155   1.015   1.707 -0.2992  1.8959 -2.3247
 7999SOL     OW35455   3.369   1.931  11.551 -0.8824 -0.1599  0.1596
 7999SOL    HW135456   3.406   1.913  11.464 -0.7867  1.3644 -0.1336
 7999SOL    HW235457   3.420   1.875  11.609  0.2519 -1.8737 -2.4944
 8000SOL     OW35458   2.556   0.935   7.126 -0.1468  0.1675  0.6305
 8000SOL    HW135459   2.474   0.942   7.176 -0.2842 -1.8513  0.6945
 8000SOL    HW235460   2.600   1.019   7.134 -2.4117  1.1637  2.5846
 8001SOL     OW35461   2.270   2.784  13.533  0.0546 -0.2012  0.1054
 8001SOL    HW135462   2.260   2.689  13.531  0.4693 -0.1628 -3.1438
 8001SOL    HW235463   2.181   2.818  13.533 -0.0166 -0.3967  1.3502
 8002SOL     OW35464   3.349   2.231   3.882 -0.8572  0.3541 -0.1104
 8002SOL    HW135465   3.357   2.166   3.813  2.1434  0.2998  0.2749
 8002SOL    HW235466   3.254   2.233   3.888 -0.8563  0.6700 -0.2068
 8003SOL     OW35467   2.152   3.034   4.987 -0.3916 -0.3301 -0.5710
 8003SOL    HW135468   2.081   3.096   4.969  0.7748  1.3478  0.6365
 8003SOL    HW235469   2.127   3.012   5.077  0.5360 -1.8363 -0.6877
 8004SOL     OW35470   0.158   3.368  17.334 -0.0150 -0.6538  0.7291
 8004SOL    HW135471   0.085   3.360  17.396 -1.2627  1.2267 -0.4598
 8004SOL    HW235472   0.231   3.357  17.394 -1.9671 -2.5234  2.7386
 8005SOL     OW35473   1.075   1.045   8.009 -0.0670  0.2433 -0.5622
 8005SOL    HW135474   1.056   0.997   8.090  0.4174 -1.4243 -1.4320
 8005SOL    HW235475   1.095   1.132   8.045  0.9768 -0.6490  1.0441
 8006SOL     OW35476   0.596   0.828  12.508  0.5537  0.1814 -0.7264
 8006SOL    HW135477   0.614   0.788  12.594 -0.5000 -0.7172 -0.9331
 8006SOL    HW235478   0.687   0.849  12.487  0.4972  0.7805 -0.3615
 8007SOL     OW35479   2.155   2.232   3.252  0.1112 -0.9608 -0.5640
 8007SOL    HW135480   2.162   2.282   3.171 -1.2615 -0.2024 -0.2177
 8007SOL    HW235481   2.171   2.296   3.321  1.0418 -1.2106 -0.5420
 8008SOL     OW35482   1.142   2.215   9.548 -0.3587  0.0349  0.0116
 8008SOL    HW135483   1.120   2.253   9.463 -0.7828  1.2528  0.6606
 8008SOL    HW235484   1.218   2.268   9.571  0.5289 -0.7419 -1.2029
 8009SOL     OW35485   0.649   4.335   3.981  0.3559  0.0116  0.0761
 8009SOL    HW135486   0.569   4.290   4.010 -0.9491  3.0706  1.2632
 8009SOL    HW235487   0.706   4.266   3.949  3.1244  1.4727  1.8705
 8010SOL     OW35488   2.674   1.449   7.728 -0.0537  0.2569 -0.0749
 8010SOL    HW135489   2.610   1.472   7.661  0.2064 -1.1764 -0.8186
 8010SOL    HW235490   2.623   1.451   7.809  0.9875 -1.8956  0.6387
 8011SOL     OW35491   0.325   4.653   8.070 -0.0502  0.6453  0.4729
 8011SOL    HW135492   0.414   4.662   8.034 -0.0032  0.6352  0.5871
 8011SOL    HW235493   0.330   4.722   8.135  1.0226 -0.2447  1.3424
 8012SOL     OW35494   3.268   2.423   7.033  0.8818  0.1000 -0.6713
 8012SOL    HW135495   3.197   2.398   6.974 -0.2630 -0.9850  1.1756
 8012SOL    HW235496   3.213   2.490   7.073  3.0003 -0.6941  3.5710
 8013SOL     OW35497   4.108   0.288  13.318  0.0033 -0.3732  0.6564
 8013SOL    HW135498   4.020   0.326  13.318 -0.0326 -0.4580  0.6649
 8013SOL    HW235499   4.132   0.304  13.409  0.2446  0.2272  0.4910
 8014SOL     OW35500   1.477   2.312   7.140 -0.0496  0.8614  0.7443
 8014SOL    HW135501   1.531   2.388   7.121  0.8165  0.1079  0.1589
 8014SOL    HW235502   1.521   2.248   7.083 -2.0636 -1.4286  1.7872
 8015SOL     OW35503   3.214   1.257   4.647 -0.1824  0.4920  0.1216
 8015SOL    HW135504   3.241   1.218   4.564 -0.4379  1.9124 -0.6192
 8015SOL    HW235505   3.192   1.348   4.629 -1.3590 -0.3793 -2.7282
 8016SOL     OW35506   1.755   3.286   4.425  0.1659 -0.2812  0.1281
 8016SOL    HW135507   1.800   3.267   4.343  1.7183  1.3157  0.6068
 8016SOL    HW235508   1.667   3.268   4.393  0.5807 -2.1405  0.0462
 8017SOL     OW35509   3.026   3.162  17.262 -0.0649 -0.0762 -0.2262
 8017SOL    HW135510   3.040   3.251  17.294 -0.9173  0.0446 -0.1996
 8017SOL    HW235511   3.047   3.164  17.169 -0.8011  2.6484 -0.3213
 8018SOL     OW35512   1.783   1.806   8.034 -0.5885  0.1053 -0.5288
 8018SOL    HW135513   1.704   1.790   7.981 -0.6685 -0.1137 -0.3438
 8018SOL    HW235514   1.773   1.899   8.052  1.4027  0.1572  0.2870
 8019SOL     OW35515   4.101   3.998   3.882 -0.5228  0.8171 -0.1325
 8019SOL    HW135516   4.152   3.925   3.850 -0.1508  0.9459  0.1659
 8019SOL    HW235517   4.084   4.037   3.796 -1.7562 -1.4189 -0.8924
 8020SOL     OW35518   0.746   1.170   4.910  0.0942  0.2544  0.6245
 8020SOL    HW135519   0.675   1.209   4.858  0.6195  0.8751  0.3583
 8020SOL    HW235520   0.823   1.190   4.856 -0.9272  0.5327 -0.7314
 8021SOL     OW35521   3.939   0.084   6.921  0.6443 -0.1793  0.3773
 8021SOL    HW135522   3.973   0.075   7.011  0.2336 -2.0033  0.3540
 8021SOL    HW235523   3.869   0.019   6.920 -0.1834  0.6964  1.4783
 8022SOL     OW35524   2.357   0.760   8.949 -0.3970  0.0581 -0.3659
 8022SOL    HW135525   2.352   0.711   9.030  2.9491 -0.2901 -0.3539
 8022SOL    HW235526   2.438   0.811   8.959 -0.6238  0.1297  1.1182
 8023SOL     OW35527   0.292   1.005  17.641  0.1821 -0.1761 -0.3353
 8023SOL    HW135528   0.355   0.938  17.668 -1.1340  0.0499  3.2207
 8023SOL    HW235529   0.331   1.087  17.672  1.3232 -0.4189 -1.0954
 8024SOL     OW35530   2.509   3.139  16.118 -0.0252  0.1097 -0.1078
 8024SOL    HW135531   2.426   3.152  16.073 -0.6451 -0.0738  0.9659
 8024SOL    HW235532   2.467   3.126  16.203  1.3847  0.0245  0.5772
 8025SOL     OW35533   0.011   0.744   8.079 -0.6543 -0.0366 -0.2476
 8025SOL    HW135534   0.053   0.821   8.040 -2.1279 -0.9293 -3.4926
 8025SOL    HW235535   4.696   0.707   8.000  0.1269  1.6905 -1.4457
 8026SOL     OW35536   1.435   4.580   2.752  0.8540 -0.2072  0.2232
 8026SOL    HW135537   1.489   4.502   2.764  0.4521 -0.3391  1.1960
 8026SOL    HW235538   1.386   4.559   2.672 -1.9128  1.4261  1.4781
 8027SOL     OW35539   2.887   1.315   4.601  0.3107  0.6786  0.1687
 8027SOL    HW135540   2.895   1.220   4.593 -0.9364  0.4876  1.2752
 8027SOL    HW235541   2.830   1.327   4.677 -0.0410 -1.1131  0.1858
 8028SOL     OW35542   3.149   2.185   6.799 -0.0417 -0.0830 -0.3799
 8028SOL    HW135543   3.194   2.102   6.814 -0.1884 -0.1944 -0.5626
 8028SOL    HW235544   3.057   2.161   6.809 -0.5213  1.3489 -1.2920
 8029SOL     OW35545   2.242   0.895   7.577 -0.4451 -0.4055 -0.0152
 8029SOL    HW135546   2.158   0.876   7.535 -0.8778 -0.3639  0.8338
 8029SOL    HW235547   2.215   0.890   7.668  2.6540 -0.0500  0.9322
 8030SOL     OW35548   2.105   3.762  12.532 -0.5357 -0.2292 -0.4144
 8030SOL    HW135549   2.091   3.678  12.574  0.5482 -0.2724 -0.1437
 8030SOL    HW235550   2.113   3.812  12.613  0.8967 -1.2071  0.0327
 8031SOL     OW35551   2.142   0.457   2.181  0.2012  0.0380 -0.0906
 8031SOL    HW135552   2.210   0.390   2.188 -2.9724 -3.0031  1.5915
 8031SOL    HW235553   2.074   0.400   2.218 -1.0458  1.3621 -0.3736
 8032SOL     OW35554   3.605   3.598   2.357 -0.2186 -0.7270  0.1542
 8032SOL    HW135555   3.664   3.673   2.346  1.1284 -2.0371 -1.7399
 8032SOL    HW235556   3.524   3.636   2.389 -1.2430 -3.4086  0.7212
 8033SOL     OW35557   1.837   0.392   4.766 -0.0234 -0.8270 -0.0694
 8033SOL    HW135558   1.790   0.309   4.770 -1.4692 -0.0340 -0.7545
 8033SOL    HW235559   1.912   0.364   4.712  2.5153  2.1480  1.9342
 8034SOL     OW35560   4.507   4.057   5.023  0.7199  0.1184  0.5783
 8034SOL    HW135561   4.551   4.092   5.101 -0.3174 -1.3981  1.8570
 8034SOL    HW235562   4.422   4.024   5.053  0.2175  0.5994 -0.3062
 8035SOL     OW35563   2.099   3.171  13.839 -0.1327 -0.3009 -0.0251
 8035SOL    HW135564   2.064   3.206  13.757 -1.8369  1.1339  1.3205
 8035SOL    HW235565   2.034   3.199  13.903  1.0734  2.7454 -0.1317
 8036SOL     OW35566   4.424   4.110   2.320  0.3946  0.2173  0.0532
 8036SOL    HW135567   4.422   4.065   2.404 -1.7272 -0.4287 -0.3444
 8036SOL    HW235568   4.445   4.202   2.334 -2.3159  0.7805  0.3588
 8037SOL     OW35569   0.450   1.246   2.310 -0.1330 -0.1048  0.2278
 8037SOL    HW135570   0.447   1.157   2.275  0.3038  0.0289 -0.1460
 8037SOL    HW235571   0.522   1.245   2.373 -0.3596 -3.2265  0.4349
 8038SOL     OW35572   3.647   3.255   6.269  0.1951  0.1501  0.6370
 8038SOL    HW135573   3.661   3.205   6.189 -0.7947  1.5044 -0.3729
 8038SOL    HW235574   3.569   3.299   6.238  0.5253  0.9237  0.8864
 8039SOL     OW35575   3.129   2.945   6.896  0.3521 -0.1407  0.1091
 8039SOL    HW135576   3.183   2.992   6.833  2.0474 -1.1419  0.8135
 8039SOL    HW235577   3.098   3.015   6.954  0.2321  0.4671 -0.6875
 8040SOL     OW35578   0.864   0.877   1.117  0.1373  0.3002 -0.0456
 8040SOL    HW135579   0.859   0.956   1.171  1.3717 -0.0216  0.5575
 8040SOL    HW235580   0.785   0.891   1.066 -0.3443 -0.3193  0.5450
 8041SOL     OW35581   2.759   3.857   1.512 -0.5141 -0.1252 -0.5613
 8041SOL    HW135582   2.826   3.790   1.499  1.0535  1.5679 -1.2911
 8041SOL    HW235583   2.750   3.854   1.607  0.6907  3.8642 -0.2960
 8042SOL     OW35584   1.578   4.081  10.098  0.1731 -0.7413 -0.0790
 8042SOL    HW135585   1.647   4.146  10.091  0.0701 -0.6970 -0.6898
 8042SOL    HW235586   1.606   4.026  10.170 -1.2840 -1.8420 -0.3398
 8043SOL     OW35587   0.437   3.478  10.460  0.3450  0.7542  0.5337
 8043SOL    HW135588   0.456   3.571  10.470 -1.4709  1.1220  0.5008
 8043SOL    HW235589   0.356   3.454  10.505  0.9247  0.5012  1.4276
 8044SOL     OW35590   1.453   3.990  12.494  0.0235  0.2071  0.1451
 8044SOL    HW135591   1.494   4.076  12.480  2.1242 -0.5397  1.6137
 8044SOL    HW235592   1.361   4.008  12.476 -0.5105 -1.9001  0.7917
 8045SOL     OW35593   3.282   0.987   9.982  0.6837  0.6112 -0.7304
 8045SOL    HW135594   3.246   0.921   9.923 -1.2235 -0.9159  2.1490
 8045SOL    HW235595   3.288   1.070   9.935 -0.9741  1.5981  0.8100
 8046SOL     OW35596   3.064   2.139   2.296 -0.5676 -0.4079  0.0288
 8046SOL    HW135597   3.087   2.196   2.223  1.5256  1.6812  2.2942
 8046SOL    HW235598   3.119   2.175   2.366  0.9349  0.8355 -1.7759
 8047SOL     OW35599   3.536   3.137   2.445  0.2956  0.0474  0.3124
 8047SOL    HW135600   3.608   3.196   2.468  0.4441 -0.3314  0.8186
 8047SOL    HW235601   3.497   3.134   2.533  1.3919  0.4165  0.8106
 8048SOL     OW35602   1.627   0.405   7.170 -0.3615 -0.0883  0.7987
 8048SOL    HW135603   1.549   0.427   7.222 -0.5913 -2.4225  1.4444
 8048SOL    HW235604   1.637   0.310   7.170 -0.4426 -0.0944  0.0588
 8049SOL     OW35605   2.205   2.468  17.639  0.2024  0.2224  0.3475
 8049SOL    HW135606   2.275   2.443   0.009  0.9579 -1.4861 -1.2245
 8049SOL    HW235607   2.203   2.387  17.588 -0.1288  0.1093  0.5374
 8050SOL     OW35608   4.224   0.347   9.584 -0.2972  0.0623  0.0874
 8050SOL    HW135609   4.249   0.264   9.545 -0.4836 -0.2319  0.5848
 8050SOL    HW235610   4.245   0.334   9.677  3.0124 -0.7108 -0.7995
 8051SOL     OW35611   3.035   1.524   8.990  0.7091 -0.2508  0.3609
 8051SOL    HW135612   3.126   1.496   8.981  0.7549  0.9734 -2.9631
 8051SOL    HW235613   3.004   1.509   8.900  0.6030 -0.8638  0.5024
 8052SOL     OW35614   2.486   4.190   7.109 -0.0474  0.2065  0.2680
 8052SOL    HW135615   2.505   4.136   7.032 -1.2985  0.1593 -0.0012
 8052SOL    HW235616   2.576   4.204   7.140 -0.4285  1.6695  0.6852
 8053SOL     OW35617   4.685   2.342   0.126  0.3869  0.2517 -0.6169
 8053SOL    HW135618   0.049   2.307   0.148 -0.5902 -0.5957  1.8554
 8053SOL    HW235619   4.686   2.430   0.166 -2.4470 -1.4825  3.3395
 8054SOL     OW35620   0.596   2.677  13.820  0.3586  0.2456 -0.4487
 8054SOL    HW135621   0.630   2.726  13.895  1.4124 -2.6907  1.0001
 8054SOL    HW235622   0.509   2.647  13.847  0.7399 -0.8772 -0.4858
 8055SOL     OW35623   1.403   2.842   8.029 -0.4222 -0.0095  0.2823
 8055SOL    HW135624   1.421   2.891   8.109 -0.0143 -0.3484  0.3981
 8055SOL    HW235625   1.439   2.889   7.955  0.4986 -0.2566  0.5736
 8056SOL     OW35626   4.219   4.147   5.103 -0.1765 -0.3579  0.0770
 8056SOL    HW135627   4.208   4.144   5.008 -0.9895 -0.2305  0.1664
 8056SOL    HW235628   4.132   4.160   5.142 -0.3148 -0.2797 -0.2564
 8057SOL     OW35629   0.225   0.356  13.505 -0.4213 -0.0452 -0.8827
 8057SOL    HW135630   0.227   0.324  13.415 -0.5134 -1.0057 -0.5345
 8057SOL    HW235631   0.138   0.394  13.517 -1.0551 -1.6982 -0.3223
 8058SOL     OW35632   1.471   2.927   4.149 -0.5342 -0.0290 -0.4986
 8058SOL    HW135633   1.434   2.843   4.120 -1.2654 -0.0760  0.5822
 8058SOL    HW235634   1.482   2.966   4.062  0.9726  1.2788  0.2714
 8059SOL     OW35635   1.132   2.389   6.778  0.2528  0.6333 -0.3051
 8059SOL    HW135636   1.212   2.436   6.756 -0.0946  0.1100 -2.6625
 8059SOL    HW235637   1.157   2.385   6.870  1.1517  0.4185 -0.5656
 8060SOL     OW35638   1.147   0.705   2.955 -0.3201  0.3825  0.0048
 8060SOL    HW135639   1.200   0.698   3.034 -0.8343 -2.2598  0.1108
 8060SOL    HW235640   1.197   0.757   2.892 -1.4972 -0.2293 -1.4569
 8061SOL     OW35641   4.206   1.355   8.140 -0.0736 -1.0709  0.8314
 8061SOL    HW135642   4.160   1.351   8.057 -1.2242  0.4155  1.3832
 8061SOL    HW235643   4.144   1.414   8.185 -0.4227  0.1052 -1.2110
 8062SOL     OW35644   0.461   0.530   8.693  0.2942 -0.3263  0.0169
 8062SOL    HW135645   0.515   0.451   8.696  3.6392  1.9726  0.1468
 8062SOL    HW235646   0.523   0.594   8.727  0.1120  0.7435 -1.6482
 8063SOL     OW35647   1.414   1.591   7.212 -0.0611  0.3527 -0.5032
 8063SOL    HW135648   1.416   1.501   7.179 -0.5795 -0.2906  1.1715
 8063SOL    HW235649   1.448   1.640   7.138  0.4921 -0.8933 -1.0742
 8064SOL     OW35650   1.005   0.582   6.553 -1.0575  0.0149  0.2985
 8064SOL    HW135651   1.017   0.665   6.508  3.1810 -1.0027 -0.4675
 8064SOL    HW235652   1.020   0.602   6.645 -0.1097  0.2389  0.0991
 8065SOL     OW35653   4.037   3.558   1.059 -0.0139 -0.4779  0.6629
 8065SOL    HW135654   3.984   3.589   0.985 -1.3392 -2.1438  0.9286
 8065SOL    HW235655   4.127   3.572   1.029  0.0459  1.1946  1.6317
 8066SOL     OW35656   0.566   0.550  12.626  0.0054  0.1820 -0.2379
 8066SOL    HW135657   0.649   0.517  12.662  0.4485  1.6069  0.0409
 8066SOL    HW235658   0.560   0.501  12.544 -0.5152 -1.6535  0.8938
 8067SOL     OW35659   3.393   2.958   3.263 -0.1639  0.3880 -0.2261
 8067SOL    HW135660   3.471   2.994   3.219  0.9145 -1.3354  0.2756
 8067SOL    HW235661   3.422   2.880   3.310 -3.9737 -0.5909  0.4812
 8068SOL     OW35662   1.342   0.147   4.649  0.1334  0.1246 -0.0184
 8068SOL    HW135663   1.325   0.079   4.714  0.9084 -1.1874 -1.1776
 8068SOL    HW235664   1.425   0.104   4.631 -1.3259 -1.4275 -3.0223
 8069SOL     OW35665   0.248   1.463   8.418  0.0140  0.6148 -0.3800
 8069SOL    HW135666   0.163   1.421   8.433  0.0751  0.4706 -0.4347
 8069SOL    HW235667   0.280   1.459   8.508  0.6694  1.3326 -0.5873
 8070SOL     OW35668   3.728   0.460   5.223 -0.0616  0.4706 -0.2601
 8070SOL    HW135669   3.801   0.517   5.199 -0.4487  0.1684 -2.1697
 8070SOL    HW235670   3.675   0.521   5.273 -0.0443  2.8325 -3.1171
 8071SOL     OW35671   4.000   1.432   8.846 -0.0147 -0.4021 -0.6727
 8071SOL    HW135672   3.931   1.385   8.893 -0.9017  0.8444 -0.6994
 8071SOL    HW235673   3.972   1.425   8.754  1.3758 -1.7960 -0.9710
 8072SOL     OW35674   0.987   4.551   5.549  0.1930  0.3218 -0.6057
 8072SOL    HW135675   0.908   4.604   5.557 -0.4569 -0.6535 -0.5727
 8072SOL    HW235676   0.964   4.478   5.606  0.4061 -0.0293 -0.9760
 8073SOL     OW35677   2.970   4.471   2.010  0.0226  0.3216  0.4665
 8073SOL    HW135678   2.895   4.412   1.999 -0.6135  1.2410 -0.1801
 8073SOL    HW235679   2.969   4.511   1.923  0.7930  3.1199  1.7497
 8074SOL     OW35680   1.996   3.440  12.511  0.5274  0.2910  0.1956
 8074SOL    HW135681   1.963   3.441  12.601 -0.3083  0.5796 -0.1148
 8074SOL    HW235682   2.090   3.424  12.516  0.1044 -2.2279  0.3608
 8075SOL     OW35683   0.747   2.121   3.195 -0.3963 -0.8813  0.5792
 8075SOL    HW135684   0.722   2.207   3.231 -1.8605 -0.5643 -1.1898
 8075SOL    HW235685   0.839   2.111   3.219 -0.6130 -0.4163  1.6433
 8076SOL     OW35686   2.821   1.167  15.268 -0.7764  0.1347 -0.1248
 8076SOL    HW135687   2.738   1.214  15.259 -0.5417  0.7554  0.8626
 8076SOL    HW235688   2.787   1.078  15.265  0.6843 -0.5768  3.5135
 8077SOL     OW35689   1.192   1.396  11.249  0.2168  0.6685  0.0146
 8077SOL    HW135690   1.257   1.413  11.181  1.3420  0.3264  1.0213
 8077SOL    HW235691   1.152   1.484  11.246 -0.4806  0.3023 -1.8106
 8078SOL     OW35692   1.775   0.522   4.991  0.1607 -0.3688 -0.2853
 8078SOL    HW135693   1.805   0.478   4.912  0.5388  0.2852 -0.5075
 8078SOL    HW235694   1.705   0.578   4.957  0.5825 -0.0938 -0.7111
 8079SOL     OW35695   1.288   3.971   4.774 -0.4203  0.3808  0.2158
 8079SOL    HW135696   1.209   3.950   4.724  0.1727 -1.1680 -0.0562
 8079SOL    HW235697   1.332   4.026   4.709  0.0335 -0.1594  0.0639
 8080SOL     OW35698   2.106   2.947   5.304 -0.0656  0.3396  0.1714
 8080SOL    HW135699   2.094   3.022   5.363 -0.0819  1.0492 -0.7239
 8080SOL    HW235700   2.198   2.961   5.281 -0.3695  2.3036  0.1136
 8081SOL     OW35701   4.333   2.273  10.841 -0.4578 -0.2772 -0.3232
 8081SOL    HW135702   4.322   2.309  10.929  0.4074 -0.5852 -0.0941
 8081SOL    HW235703   4.351   2.181  10.860 -0.5311 -0.2623 -0.1794
 8082SOL     OW35704   3.554   2.845   2.964  0.6719  0.0002 -0.1393
 8082SOL    HW135705   3.470   2.797   2.969  0.2331  0.5892 -1.7751
 8082SOL    HW235706   3.599   2.793   3.031 -0.5501 -1.3770 -0.3693
 8083SOL     OW35707   0.135   3.162   9.822 -0.0047 -0.8546  0.4596
 8083SOL    HW135708   0.081   3.168   9.743  0.7582  0.7208  0.0446
 8083SOL    HW235709   0.082   3.215   9.881 -4.3796 -1.7770 -2.6242
 8084SOL     OW35710   0.382   1.025   6.574 -0.4241  0.0491  0.0747
 8084SOL    HW135711   0.472   1.054   6.560  0.4211 -1.8132  1.8099
 8084SOL    HW235712   0.362   1.003   6.483  1.4797  0.9154 -0.5557
 8085SOL     OW35713   2.266   0.034   8.534 -0.0995 -0.3102  0.0397
 8085SOL    HW135714   2.303   0.030   8.445 -1.8216  0.1448 -0.6934
 8085SOL    HW235715   2.337   0.002   8.590 -0.4648 -0.7321  0.2602
 8086SOL     OW35716   2.783   0.819   1.808  0.5224  0.3240 -0.2008
 8086SOL    HW135717   2.874   0.838   1.831  1.4762 -2.7834 -1.3517
 8086SOL    HW235718   2.747   0.907   1.815  0.3167  0.1185  1.4126
 8087SOL     OW35719   0.425   4.131  16.092 -0.0902 -0.2688  0.1586
 8087SOL    HW135720   0.429   4.222  16.124 -0.5470 -0.6311  1.2555
 8087SOL    HW235721   0.512   4.115  16.057  0.1901 -0.1504  0.7954
 8088SOL     OW35722   4.112   0.595   0.017 -0.6427 -0.1480 -0.2164
 8088SOL    HW135723   4.047   0.562  17.647 -0.6792 -2.5593  1.1063
 8088SOL    HW235724   4.197   0.584  17.667 -1.0375 -0.9887 -0.7834
 8089SOL     OW35725   2.069   3.959   4.379  0.1545 -0.0310  0.3197
 8089SOL    HW135726   2.159   3.946   4.410  0.6146  1.1829 -0.5123
 8089SOL    HW235727   2.054   4.049   4.407  1.5625  1.1016 -2.5557
 8090SOL     OW35728   4.400   1.909   6.390  0.2027  0.0390 -0.4692
 8090SOL    HW135729   4.393   1.988   6.445  0.3722  0.1852 -0.6614
 8090SOL    HW235730   4.391   1.950   6.304 -0.5088  0.6997 -0.0789
 8091SOL     OW35731   0.167   2.566   8.891  0.3195  0.1658 -0.2329
 8091SOL    HW135732   0.200   2.648   8.853 -0.3339 -1.1882 -3.6826
 8091SOL    HW235733   0.248   2.522   8.915  1.2546  2.5794  1.1310
 8092SOL     OW35734   2.665   0.699   4.926 -0.3381 -0.5532  0.3123
 8092SOL    HW135735   2.659   0.769   4.991  0.8021 -0.7745  0.6643
 8092SOL    HW235736   2.698   0.750   4.853 -3.0217 -1.6201 -1.6467
 8093SOL     OW35737   4.298   0.215   3.153 -1.0359 -0.3048  0.5728
 8093SOL    HW135738   4.269   0.302   3.182 -1.1724  0.0213 -0.5536
 8093SOL    HW235739   4.319   0.228   3.061  1.7103 -0.4324  1.1748
 8094SOL     OW35740   2.030   3.859   5.141 -0.2401  0.1181  0.5626
 8094SOL    HW135741   2.043   3.953   5.158 -1.3176 -0.1320  2.7062
 8094SOL    HW235742   1.980   3.832   5.218  1.9373 -0.0138  1.9310
 8095SOL     OW35743   1.937   1.720   8.690  0.6210  0.3840  0.1632
 8095SOL    HW135744   1.872   1.789   8.705  0.7737  0.4162  0.6911
 8095SOL    HW235745   1.959   1.739   8.599 -0.7616 -1.2681 -0.5034
 8096SOL     OW35746   3.096   4.565   5.798 -0.4756 -0.1603 -1.0149
 8096SOL    HW135747   3.048   4.568   5.881  0.4218  2.2312 -0.5641
 8096SOL    HW235748   3.123   4.474   5.794  0.4440  0.1125 -0.9858
 8097SOL     OW35749   2.866   1.420   5.984  0.3110 -0.4872 -0.1262
 8097SOL    HW135750   2.775   1.400   5.963  0.6450 -0.9470 -1.1528
 8097SOL    HW235751   2.899   1.332   6.004  0.3220 -0.7965 -1.4889
 8098SOL     OW35752   0.328   3.120  10.423  0.1453  0.3479 -0.3134
 8098SOL    HW135753   0.388   3.047  10.436  0.0483  0.4555  0.7619
 8098SOL    HW235754   0.252   3.079  10.380 -0.9556  0.5188  1.4532
 8099SOL     OW35755   3.692   3.954   1.081 -0.0524 -0.6576  0.4809
 8099SOL    HW135756   3.733   3.986   1.001 -0.1572  1.3239  1.2373
 8099SOL    HW235757   3.770   3.920   1.123  0.1613 -1.9611 -0.9202
 8100SOL     OW35758   0.776   2.902   2.249 -0.5887  0.1466 -0.3086
 8100SOL    HW135759   0.807   2.993   2.247  0.9076 -0.3208  1.5332
 8100SOL    HW235760   0.829   2.859   2.316 -2.1377 -1.1968  0.0363
 8101SOL     OW35761   0.237   2.751   9.179 -0.2483  0.6752 -0.6000
 8101SOL    HW135762   0.172   2.809   9.140  1.7761  0.6264 -4.0268
 8101SOL    HW235763   0.199   2.664   9.166  0.5195  0.0780  1.0567
 8102SOL     OW35764   1.427   2.040   8.792  0.0410  0.0165  0.0718
 8102SOL    HW135765   1.438   1.971   8.858  1.2130  0.4908  0.3624
 8102SOL    HW235766   1.499   2.024   8.731 -1.6444 -0.5275 -1.7784
 8103SOL     OW35767   0.515   3.605   9.148  0.3611 -0.6651  0.1745
 8103SOL    HW135768   0.499   3.692   9.112  1.8796  0.6252  2.6811
 8103SOL    HW235769   0.449   3.598   9.217 -0.7118  1.0453 -0.6855
 8104SOL     OW35770   3.955   2.409  11.997 -0.5745  0.0640  0.3240
 8104SOL    HW135771   3.967   2.428  12.090  2.7614  0.7817 -0.2458
 8104SOL    HW235772   3.944   2.314  11.997 -1.1963  0.1394 -0.2801
 8105SOL     OW35773   4.185   0.763   8.267  0.3176  0.0940 -0.2719
 8105SOL    HW135774   4.108   0.732   8.315  0.1907 -0.7824 -1.0491
 8105SOL    HW235775   4.237   0.799   8.339 -1.0346 -1.7938  1.6595
 8106SOL     OW35776   3.008   2.640   5.641  0.0421  0.1052 -0.3737
 8106SOL    HW135777   3.083   2.682   5.598  0.3530  0.1486  0.2103
 8106SOL    HW235778   3.031   2.547   5.650  2.0917  0.5966 -0.5385
 8107SOL     OW35779   3.213   4.037   0.024 -0.4627  0.2416  0.1073
 8107SOL    HW135780   3.270   4.009   0.096  0.0534 -0.9857 -0.7802
 8107SOL    HW235781   3.123   4.040   0.056 -0.3090  1.2337  0.4498
 8108SOL     OW35782   2.827   3.115   7.912  0.7359 -0.2960 -0.9536
 8108SOL    HW135783   2.829   3.030   7.868  1.0588 -0.8945  0.2128
 8108SOL    HW235784   2.831   3.166   7.831 -1.8610 -1.2132 -1.6401
 8109SOL     OW35785   0.420   0.646   2.287  0.4440  0.1564  0.0554
 8109SOL    HW135786   0.451   0.561   2.319  1.1281  0.5114  0.3312
 8109SOL    HW235787   0.452   0.702   2.358 -2.7445 -0.6916  2.1689
 8110SOL     OW35788   3.682   1.551   3.222 -0.0377 -0.0052 -0.0850
 8110SOL    HW135789   3.589   1.530   3.230 -0.4781  1.0756 -2.2955
 8110SOL    HW235790   3.721   1.497   3.291 -1.8009  0.6023  1.3689
 8111SOL     OW35791   1.887   0.557   2.047 -0.1941  0.4828 -0.2535
 8111SOL    HW135792   1.974   0.541   2.086 -0.3947  1.3727  0.5374
 8111SOL    HW235793   1.826   0.582   2.116  0.4840 -0.4591  0.6965
 8112SOL     OW35794   4.513   0.190   3.382 -0.2946  0.0698 -0.1675
 8112SOL    HW135795   4.512   0.180   3.287 -0.4593 -0.4124 -0.1129
 8112SOL    HW235796   4.445   0.258   3.389 -1.2729 -0.8354 -0.8992
 8113SOL     OW35797   2.205   1.886  15.345  0.3967  0.0557  0.1431
 8113SOL    HW135798   2.249   1.809  15.312 -0.2082 -0.4731  0.5690
 8113SOL    HW235799   2.194   1.934  15.263  1.2421 -0.5053 -0.2922
 8114SOL     OW35800   0.377   1.085   8.467 -0.3804 -0.0550  0.3902
 8114SOL    HW135801   0.444   1.055   8.405 -0.5666  0.6249 -0.1422
 8114SOL    HW235802   0.410   1.042   8.546 -1.3723 -0.9282  0.3332
 8115SOL     OW35803   2.655   0.378   2.338  0.1907  0.3071 -0.5461
 8115SOL    HW135804   2.651   0.302   2.279 -1.5767  0.0881 -0.1578
 8115SOL    HW235805   2.724   0.343   2.395 -1.5225 -0.6057  0.9760
 8116SOL     OW35806   0.906   3.859  10.818  0.3269  0.3508 -0.0944
 8116SOL    HW135807   0.854   3.813  10.883  0.3356  0.3155 -0.1122
 8116SOL    HW235808   0.922   3.949  10.847  0.0147 -0.2779  1.9867
 8117SOL     OW35809   0.126   3.475  13.234  0.1844 -0.4655  0.1267
 8117SOL    HW135810   0.126   3.570  13.238  0.4855 -0.3984 -1.5832
 8117SOL    HW235811   0.219   3.455  13.239  0.3305 -0.2749 -1.8640
 8118SOL     OW35812   3.141   0.029  15.149 -0.2632 -0.5315 -0.2366
 8118SOL    HW135813   3.096   4.692  15.089 -1.8888  1.1194 -0.6482
 8118SOL    HW235814   3.070   0.088  15.173 -0.7928 -1.4541  0.4348
 8119SOL     OW35815   0.657   2.356   2.128 -0.2749 -0.3037 -0.0716
 8119SOL    HW135816   0.677   2.263   2.122 -0.3706 -0.2463 -1.4011
 8119SOL    HW235817   0.566   2.359   2.097 -0.3746  1.8598  0.4132
 8120SOL     OW35818   2.290   4.128   7.742  0.2992 -0.0931  0.1642
 8120SOL    HW135819   2.304   4.216   7.706 -0.0902 -0.0307  0.1605
 8120SOL    HW235820   2.196   4.113   7.727  0.4162 -1.1391  0.4843
 8121SOL     OW35821   4.158   1.202   5.972 -0.0164  0.3692  0.0376
 8121SOL    HW135822   4.237   1.174   5.924  1.0414  2.7216  0.3882
 8121SOL    HW235823   4.099   1.215   5.898  1.0641 -1.1734 -1.1161
 8122SOL     OW35824   2.788   3.709   0.372  0.1936 -0.3118 -0.5163
 8122SOL    HW135825   2.866   3.746   0.414 -0.2112  0.1247 -0.1395
 8122SOL    HW235826   2.810   3.695   0.280 -1.6748  2.5028 -1.4144
 8123SOL     OW35827   0.502   0.356  10.435  0.4454  0.3121 -0.2405
 8123SOL    HW135828   0.469   0.399  10.514  0.2657 -0.7904  0.2902
 8123SOL    HW235829   0.578   0.412  10.422  0.8232 -0.7951 -2.8781
 8124SOL     OW35830   1.488   1.396   3.768  0.1000  0.6310 -0.5680
 8124SOL    HW135831   1.526   1.465   3.715 -1.4937  1.2856 -0.8580
 8124SOL    HW235832   1.545   1.322   3.745 -2.1350 -1.4015  0.4204
 8125SOL     OW35833   0.695   3.798   7.648 -0.4462 -0.8185  0.1775
 8125SOL    HW135834   0.746   3.875   7.674 -0.8608  0.1248 -1.8738
 8125SOL    HW235835   0.740   3.764   7.571 -2.5987  2.0270 -2.3317
 8126SOL     OW35836   2.604   2.459   2.850 -0.0791 -0.4019 -0.4487
 8126SOL    HW135837   2.626   2.397   2.780 -0.5852  1.4271 -2.1896
 8126SOL    HW235838   2.524   2.497   2.814 -0.4709 -0.0684  0.7646
 8127SOL     OW35839   2.014   0.105  13.853  0.3236  0.1730 -0.7166
 8127SOL    HW135840   1.952   0.074  13.920  0.3001 -0.9247 -1.2448
 8127SOL    HW235841   2.006   0.200  13.856  0.9069  0.2049 -0.0304
 8128SOL     OW35842   4.557   3.001   5.471  0.2768 -0.4506  1.0460
 8128SOL    HW135843   4.514   3.041   5.395  1.2986 -2.0843 -0.3895
 8128SOL    HW235844   4.554   2.907   5.454 -0.9070  0.1816 -2.3818
 8129SOL     OW35845   0.856   1.827   1.167  0.1084  0.1697 -0.5907
 8129SOL    HW135846   0.936   1.806   1.120  0.6219 -2.2147  1.3359
 8129SOL    HW235847   0.802   1.851   1.092 -0.8405  1.3275  0.4683
 8130SOL     OW35848   0.795   4.252   5.522 -0.8373 -0.5933 -0.2154
 8130SOL    HW135849   0.739   4.325   5.495 -2.0031 -0.7040  1.8278
 8130SOL    HW235850   0.758   4.181   5.470  1.0021 -2.8022  1.5177
 8131SOL     OW35851   1.616   3.797   3.517  0.4094 -0.1411  0.1339
 8131SOL    HW135852   1.536   3.842   3.545  1.5331  2.1937 -0.4356
 8131SOL    HW235853   1.676   3.869   3.536  0.2955 -0.3869  1.4751
 8132SOL     OW35854   4.455   0.496   2.975  0.7603 -0.0518 -0.2939
 8132SOL    HW135855   4.401   0.569   3.003  0.5123 -1.5843  3.2210
 8132SOL    HW235856   4.493   0.527   2.893 -1.1861  0.4258 -1.0014
 8133SOL     OW35857   4.517   0.687   3.220 -0.0230  0.1066 -0.4801
 8133SOL    HW135858   4.522   0.746   3.145  3.2499 -0.4461 -0.6889
 8133SOL    HW235859   4.442   0.733   3.259 -0.3740 -0.3971 -0.5629
 8134SOL     OW35860   3.999   2.555   2.630  0.3288  0.5540 -0.7640
 8134SOL    HW135861   4.094   2.560   2.623  0.4567 -0.0113  0.5132
 8134SOL    HW235862   3.969   2.566   2.540  2.2108  1.0401 -1.3379
 8135SOL     OW35863   3.756   3.194  10.424 -0.2296 -0.2140 -0.0219
 8135SOL    HW135864   3.705   3.151  10.492 -0.5208 -1.1186 -0.8185
 8135SOL    HW235865   3.781   3.119  10.370  1.2360  0.0470  0.2862
 8136SOL     OW35866   2.179   3.182   5.696 -0.2320  0.1071  0.4203
 8136SOL    HW135867   2.236   3.108   5.672 -0.8457  0.1003 -0.9634
 8136SOL    HW235868   2.228   3.249   5.650 -0.1314 -0.1540  0.1449
 8137SOL     OW35869   4.178   4.513   3.706  0.8572 -0.5491 -0.0082
 8137SOL    HW135870   4.107   4.450   3.709 -0.5393  0.9639 -0.9265
 8137SOL    HW235871   4.195   4.534   3.798 -0.5385 -0.5429  0.2469
 8138SOL     OW35872   1.089   2.038  14.130 -0.2933 -0.5385  0.6700
 8138SOL    HW135873   1.075   2.000  14.044  0.5506  2.7002 -0.9058
 8138SOL    HW235874   1.154   2.106  14.109 -0.7357 -0.7451 -1.3467
 8139SOL     OW35875   2.159   3.131   2.975  0.2721  0.1477  0.4176
 8139SOL    HW135876   2.074   3.094   2.998 -0.0594  0.2251 -0.6585
 8139SOL    HW235877   2.199   3.063   2.920 -0.1791 -0.4025  0.7746
 8140SOL     OW35878   2.887   3.401   4.042  0.2213  0.6401 -0.4866
 8140SOL    HW135879   2.927   3.370   3.961 -0.6474  0.3606 -0.8071
 8140SOL    HW235880   2.848   3.322   4.078 -0.0093  1.4253  0.9996
 8141SOL     OW35881   2.044   0.361   4.366 -0.0398  0.2917  0.5896
 8141SOL    HW135882   2.079   0.411   4.292  1.1022 -1.4886 -0.0508
 8141SOL    HW235883   1.959   0.404   4.375 -1.8647 -3.3591  0.8909
 8142SOL     OW35884   1.809   3.106  16.638  0.2195 -0.1939 -0.2390
 8142SOL    HW135885   1.736   3.067  16.590 -0.3012  2.0758 -1.2639
 8142SOL    HW235886   1.878   3.039  16.644 -0.3249 -0.7712 -0.4588
 8143SOL     OW35887   3.579   3.305   7.351  0.3392 -0.2533 -0.1571
 8143SOL    HW135888   3.496   3.285   7.395  0.2842  0.8755  0.2641
 8143SOL    HW235889   3.644   3.257   7.402 -0.5729  0.4396  1.6937
 8144SOL     OW35890   1.288   4.147   4.515 -0.0582 -0.1305  0.2046
 8144SOL    HW135891   1.257   4.078   4.456 -0.7634  1.5500 -1.3986
 8144SOL    HW235892   1.246   4.219   4.468 -0.2594 -1.1354 -1.1774
 8145SOL     OW35893   4.572   1.247   5.538 -0.6116 -0.4608 -0.3225
 8145SOL    HW135894   4.646   1.186   5.528 -1.2671 -1.3558  0.2873
 8145SOL    HW235895   4.613   1.299   5.607  1.5808 -2.7187  0.0993
 8146SOL     OW35896   3.886   1.588  12.435 -0.7925  0.2401  0.1266
 8146SOL    HW135897   3.848   1.647  12.370  2.2663  0.7893 -1.1590
 8146SOL    HW235898   3.947   1.654  12.468 -1.4118  0.8421  0.0583
 8147SOL     OW35899   2.971   0.194   7.926 -0.4905  0.6180  0.1865
 8147SOL    HW135900   2.907   0.124   7.942  0.3559  0.4232  2.7500
 8147SOL    HW235901   3.059   0.157   7.920 -0.1406  1.6326 -0.8107
 8148SOL     OW35902   3.407   3.374   3.852  0.0162  0.3695 -0.4711
 8148SOL    HW135903   3.443   3.408   3.770  1.9177  0.6200  0.4716
 8148SOL    HW235904   3.470   3.304   3.869 -0.3566  0.1067 -0.1772
 8149SOL     OW35905   1.070   3.400   2.556  0.2983  0.4053  0.1347
 8149SOL    HW135906   1.104   3.490   2.555  0.0267  0.5042 -0.3376
 8149SOL    HW235907   1.146   3.344   2.539  1.6200  1.4769  2.5133
 8150SOL     OW35908   3.624   1.655  16.777  0.1428  0.4533  0.4708
 8150SOL    HW135909   3.612   1.649  16.683 -0.6792  0.5940  0.5664
 8150SOL    HW235910   3.681   1.578  16.787  1.3804  1.2566 -0.5030
 8151SOL     OW35911   3.374   1.967  13.278  0.3921  0.5421  0.6245
 8151SOL    HW135912   3.378   2.062  13.275  0.7442  0.5252  0.4955
 8151SOL    HW235913   3.466   1.942  13.290  0.9381  1.9645 -0.6273
 8152SOL     OW35914   3.399   1.001   2.219 -0.0674  0.4337  0.1522
 8152SOL    HW135915   3.380   1.095   2.226 -0.2836  0.3875  0.2003
 8152SOL    HW235916   3.364   0.983   2.131  0.7139  0.2617 -0.1206
 8153SOL     OW35917   0.355   4.668   6.517 -0.1636  0.0274  0.3284
 8153SOL    HW135918   0.320   0.033   6.500 -1.3739 -0.5310 -0.0860
 8153SOL    HW235919   0.301   4.640   6.591 -2.0818 -0.4376 -1.2637
 8154SOL     OW35920   0.879   0.028   7.865 -0.4599  0.4681  0.3889
 8154SOL    HW135921   0.863   0.096   7.799  2.2241 -0.4124 -1.1707
 8154SOL    HW235922   0.839   4.672   7.826 -0.4336  0.2512  0.8014
 8155SOL     OW35923   2.791   3.532   6.365  0.0991  0.1095 -0.5589
 8155SOL    HW135924   2.749   3.580   6.437  0.2391 -2.7671  1.4351
 8155SOL    HW235925   2.803   3.604   6.303 -1.0119  0.7063 -0.0811
 8156SOL     OW35926   4.682   1.667   1.687 -0.5221  0.7734 -0.2699
 8156SOL    HW135927   4.701   1.744   1.740 -0.7409  1.9963 -1.9544
 8156SOL    HW235928   4.591   1.683   1.665 -0.5014  3.1015  1.3702
 8157SOL     OW35929   2.331   0.307   0.509  0.2629  0.5498  0.3640
 8157SOL    HW135930   2.345   0.313   0.603 -0.4376  1.3610  0.4119
 8157SOL    HW235931   2.413   0.348   0.482  0.3321  0.4031  0.3531
 8158SOL     OW35932   2.608   0.375   8.549  0.0264  0.4363 -0.3967
 8158SOL    HW135933   2.553   0.324   8.608  2.3334  1.8801  2.9796
 8158SOL    HW235934   2.540   0.378   8.482 -0.2887 -0.0315 -0.0963
 8159SOL     OW35935   1.586   3.067   0.047  0.1511  0.4519 -0.2163
 8159SOL    HW135936   1.670   3.083   0.090  0.6161 -2.1455 -0.1684
 8159SOL    HW235937   1.608   3.084  17.647  2.7168 -0.6283  0.1986
 8160SOL     OW35938   3.797   3.280   2.822 -0.2321  0.0302 -0.0925
 8160SOL    HW135939   3.777   3.374   2.828  0.0484  0.2523 -2.7640
 8160SOL    HW235940   3.717   3.245   2.863  1.5864 -2.1082  1.6211
 8161SOL     OW35941   1.527   1.337  16.000  0.1266  0.1768  0.6877
 8161SOL    HW135942   1.446   1.311  15.956  0.1309  0.5805  0.4447
 8161SOL    HW235943   1.585   1.261  15.991  0.6869  0.8153 -0.9649
 8162SOL     OW35944   4.189   3.105   5.211 -0.0397 -0.9259  0.2912
 8162SOL    HW135945   4.167   3.140   5.297 -1.4769  0.5447 -0.6749
 8162SOL    HW235946   4.282   3.124   5.219 -0.1290  0.0397 -0.9006
 8163SOL     OW35947   2.841   2.704   9.155  0.6130 -0.0692 -0.6942
 8163SOL    HW135948   2.784   2.732   9.226  2.4198 -2.0157  1.5225
 8163SOL    HW235949   2.922   2.677   9.199  1.2082  1.6972 -0.7387
 8164SOL     OW35950   3.573   0.174  13.017 -0.5090 -0.0589  0.3326
 8164SOL    HW135951   3.534   0.128  12.943 -2.2669 -0.9497  1.8185
 8164SOL    HW235952   3.617   0.244  12.968  0.6992  0.2078  1.8129
 8165SOL     OW35953   4.544   3.520   0.701 -0.0168  0.2373 -0.2635
 8165SOL    HW135954   4.525   3.592   0.761 -2.2461 -1.6508  1.3187
 8165SOL    HW235955   4.459   3.514   0.659 -0.3042 -1.1199  0.4948
 8166SOL     OW35956   3.333   2.404  12.471 -0.1974  0.2128  0.0560
 8166SOL    HW135957   3.374   2.366  12.548  1.5023  1.3438 -0.2980
 8166SOL    HW235958   3.343   2.496  12.494 -3.3117  0.2605  1.1822
 8167SOL     OW35959   3.848   4.278  15.138  0.0230 -0.2149  0.7433
 8167SOL    HW135960   3.861   4.252  15.047  1.6877 -0.4340  1.0385
 8167SOL    HW235961   3.916   4.221  15.174 -0.8758 -1.8877 -0.1892
 8168SOL     OW35962   0.930   1.471   6.145 -0.1513 -0.2964  0.1683
 8168SOL    HW135963   0.861   1.526   6.181  0.2173 -0.1541  0.6483
 8168SOL    HW235964   0.898   1.462   6.055  1.3378  0.3384 -0.4210
 8169SOL     OW35965   1.277   4.388  13.132  0.4920 -0.4628 -0.0281
 8169SOL    HW135966   1.188   4.374  13.098  1.3780 -1.1238 -2.0795
 8169SOL    HW235967   1.329   4.404  13.054  0.1920  1.0225  0.0773
 8170SOL     OW35968   1.504   2.123  10.610  0.1091 -0.1502  0.0750
 8170SOL    HW135969   1.475   2.190  10.671 -2.0418 -3.3247  2.5553
 8170SOL    HW235970   1.419   2.091  10.579  0.4603  0.0156 -1.0706
 8171SOL     OW35971   0.644   1.287  13.528 -0.2194 -0.3960  0.0495
 8171SOL    HW135972   0.711   1.339  13.483 -0.9759 -0.3360 -1.0116
 8171SOL    HW235973   0.606   1.340  13.598  0.7354 -0.4552  0.6234
 8172SOL     OW35974   0.186   1.479   3.840 -1.1158  0.2513 -0.0180
 8172SOL    HW135975   0.176   1.390   3.806  0.5475  0.4010 -0.8886
 8172SOL    HW235976   0.203   1.532   3.763 -1.0265 -0.4508 -0.4864
 8173SOL     OW35977   1.107   2.215   0.310  0.0067 -0.2471  0.6906
 8173SOL    HW135978   1.064   2.132   0.328  1.9428 -0.9088  2.2431
 8173SOL    HW235979   1.037   2.280   0.309  0.2001 -0.0810 -1.9466
 8174SOL     OW35980   2.253   0.826   1.515 -0.3816  0.2022 -0.4382
 8174SOL    HW135981   2.304   0.744   1.514 -0.4564  0.1427  0.3176
 8174SOL    HW235982   2.202   0.803   1.437  2.3164 -2.6292 -1.3853
 8175SOL     OW35983   1.932   0.386   8.685 -0.4162  0.6154 -0.5569
 8175SOL    HW135984   1.857   0.359   8.737 -0.7175  0.0540 -1.2869
 8175SOL    HW235985   1.987   0.443   8.739  0.1307 -0.2124 -0.2367
 8176SOL     OW35986   0.717   4.149  16.154  0.0443 -0.7103  0.3459
 8176SOL    HW135987   0.714   4.070  16.100 -1.4726 -0.0401 -0.5280
 8176SOL    HW235988   0.684   4.119  16.239  0.6373  0.4759  0.9863
 8177SOL     OW35989   2.138   2.855   3.203  0.2581  0.0152 -0.2252
 8177SOL    HW135990   2.151   2.837   3.110 -0.0729  2.3976 -0.7358
 8177SOL    HW235991   2.090   2.776   3.227  1.1538 -0.3278  0.4579
 8178SOL     OW35992   2.413   0.609   6.783  0.4025 -0.0946 -0.2358
 8178SOL    HW135993   2.364   0.591   6.864  0.9401 -1.0760 -0.1232
 8178SOL    HW235994   2.342   0.658   6.743  0.1447 -0.0961  0.2189
 8179SOL     OW35995   0.538   4.307   7.221  0.5466 -0.3680  0.0534
 8179SOL    HW135996   0.470   4.244   7.245 -0.5010  0.9999  0.6619
 8179SOL    HW235997   0.499   4.394   7.230  2.0027  0.2545  0.2741
 8180SOL     OW35998   0.553   3.500   1.429  0.0535  0.0228 -0.0158
 8180SOL    HW135999   0.476   3.496   1.486 -1.1245 -0.0841 -1.6131
 8180SOL    HW236000   0.600   3.564   1.483  0.9875  0.1061 -0.9288
 8181SOL     OW36001   4.609   0.470   7.089  0.6278 -0.0441  0.3398
 8181SOL    HW136002   4.651   0.552   7.063 -0.7130  0.4984 -0.0944
 8181SOL    HW236003   4.688   0.441   7.135  0.8793  1.0176  0.5889
 8182SOL     OW36004   0.246   2.893   5.680  0.1597 -0.1658 -0.4092
 8182SOL    HW136005   0.180   2.950   5.641  0.2003 -0.0188 -0.2682
 8182SOL    HW236006   0.206   2.809   5.660 -0.9116  0.3301 -0.3584
 8183SOL     OW36007   3.359   2.534  10.399  0.0814  0.5431 -0.1228
 8183SOL    HW136008   3.344   2.463  10.336  0.2406  1.2987 -1.0159
 8183SOL    HW236009   3.339   2.616  10.355  1.4523 -0.3525 -2.4079
 8184SOL     OW36010   0.379   4.416   3.070 -0.4487  0.0194  0.0449
 8184SOL    HW136011   0.429   4.451   2.997  0.0507  0.7957  0.7608
 8184SOL    HW236012   0.314   4.486   3.071 -0.5966 -0.1073 -1.3843
 8185SOL     OW36013   1.103   0.988   5.548  0.1360  0.0191 -0.1873
 8185SOL    HW136014   1.011   0.992   5.574  0.4604 -0.0968  1.0035
 8185SOL    HW236015   1.110   0.896   5.572  0.7384  0.0889 -0.0878
 8186SOL     OW36016   0.190   4.014   5.649 -0.4185 -0.1723  0.2244
 8186SOL    HW136017   0.197   3.986   5.741 -1.8413  1.8887  0.9645
 8186SOL    HW236018   0.243   3.948   5.605  0.3150 -0.7637  1.9728
 8187SOL     OW36019   2.707   0.203  12.941  0.2333 -0.2934 -0.5563
 8187SOL    HW136020   2.617   0.235  12.951  0.0298 -0.3241 -2.2445
 8187SOL    HW236021   2.697   0.108  12.953  3.3900 -0.3980  1.1054
 8188SOL     OW36022   4.306   2.928   6.931  0.4165  0.1175  0.2214
 8188SOL    HW136023   4.322   2.938   6.837 -1.1312 -0.8695 -0.1415
 8188SOL    HW236024   4.395   2.943   6.964  0.0157  2.8559  0.0451
 8189SOL     OW36025   4.308   1.516   7.184 -0.0509  0.0674  0.3147
 8189SOL    HW136026   4.255   1.439   7.202 -0.5723  0.3272 -0.1242
 8189SOL    HW236027   4.376   1.506   7.250 -0.7966 -0.2082  1.0401
 8190SOL     OW36028   0.928   1.982   0.339  0.1120  0.6372 -0.2288
 8190SOL    HW136029   0.857   1.923   0.315  0.9583 -1.0235  1.3715
 8190SOL    HW236030   0.909   1.992   0.432 -1.8999 -1.1946 -0.4294
 8191SOL     OW36031   3.581   4.221  12.075  1.0614 -0.6249 -0.1980
 8191SOL    HW136032   3.601   4.136  12.037  0.2317 -0.9053 -0.0238
 8191SOL    HW236033   3.598   4.198  12.166 -0.0608 -0.4779  0.0536
 8192SOL     OW36034   0.145   3.907   1.802  0.3596  0.2382 -0.5955
 8192SOL    HW136035   0.109   3.945   1.722  1.2768  0.7996 -0.7405
 8192SOL    HW236036   0.098   3.951   1.873  1.9928  1.4463 -0.2582
 8193SOL     OW36037   1.088   3.270   1.250  0.2607 -0.6518 -0.2478
 8193SOL    HW136038   1.019   3.206   1.261 -0.3612 -0.2652 -1.9106
 8193SOL    HW236039   1.161   3.208   1.247  1.1807  0.5477 -3.2710
 8194SOL     OW36040   1.404   0.197   1.937 -0.3310  0.2262 -0.1579
 8194SOL    HW136041   1.315   0.190   1.904 -0.0288  0.5811 -1.0557
 8194SOL    HW236042   1.452   0.171   1.859  0.1186  0.8440 -0.0856
 8195SOL     OW36043   0.100   4.300   2.172 -0.4927 -0.4168  0.0667
 8195SOL    HW136044   0.018   4.271   2.134  0.2995 -0.9679 -1.2063
 8195SOL    HW236045   0.159   4.303   2.097 -0.4051 -1.0593  0.1071
 8196SOL     OW36046   1.773   2.763  17.564  0.0125 -0.2161 -0.5874
 8196SOL    HW136047   1.829   2.840  17.574  1.3145 -1.3875  1.1453
 8196SOL    HW236048   1.809   2.706  17.496 -0.6052 -1.1613 -0.1137
 8197SOL     OW36049   0.369   2.832   3.400 -0.3310  0.3651 -0.5509
 8197SOL    HW136050   0.386   2.868   3.487  2.1349  0.6542 -1.1625
 8197SOL    HW236051   0.307   2.760   3.415  0.7672 -0.4417  0.0940
 8198SOL     OW36052   3.652   2.877  12.410  0.4303  0.5918 -0.2296
 8198SOL    HW136053   3.704   2.924  12.346  0.5419  0.1379 -0.4701
 8198SOL    HW236054   3.720   2.859  12.475  0.3920  0.7365 -0.1486
 8199SOL     OW36055   2.905   2.731   6.818  0.1823  0.2292  0.8146
 8199SOL    HW136056   2.820   2.718   6.776  0.1943 -0.6259  1.0594
 8199SOL    HW236057   2.900   2.817   6.861  1.1112  0.4533  0.4733
 8200SOL     OW36058   1.722   1.992   7.157 -0.2596 -0.0532  0.4759
 8200SOL    HW136059   1.631   1.967   7.169 -0.1065 -0.4277  0.8620
 8200SOL    HW236060   1.698   2.051   7.086 -1.6535  0.6440  1.5308
 8201SOL     OW36061   0.242   0.521  11.953 -0.1632  0.0014  0.0654
 8201SOL    HW136062   0.147   0.520  11.939 -0.6565 -1.2307  3.2890
 8201SOL    HW236063   0.264   0.470  11.875  0.5386 -1.5395  1.2604
 8202SOL     OW36064   0.791   1.682   3.677 -0.3430  0.1128 -0.1951
 8202SOL    HW136065   0.756   1.628   3.606 -1.8250 -1.4758  1.7604
 8202SOL    HW236066   0.883   1.654   3.679 -0.6610 -1.0096 -1.4675
 8203SOL     OW36067   3.052   3.435   6.083  0.0171  0.2540  0.0894
 8203SOL    HW136068   3.063   3.445   6.177  1.1388 -4.2330  0.4428
 8203SOL    HW236069   3.133   3.476   6.052  0.8708 -1.1919  0.3676
 8204SOL     OW36070   0.063   2.148   7.104 -0.4452 -0.6412 -0.5583
 8204SOL    HW136071   0.000   2.220   7.108 -0.0422 -0.2879 -0.6153
 8204SOL    HW236072   0.022   2.079   7.052 -1.1419 -0.0935 -0.7342
 8205SOL     OW36073   2.055   2.550   7.028  0.3227  0.0004  0.0713
 8205SOL    HW136074   2.051   2.584   7.117  0.0913 -0.9353  0.4222
 8205SOL    HW236075   2.078   2.457   7.035  2.9260  0.5942 -0.6095
 8206SOL     OW36076   3.356   0.632   6.553 -0.0567  0.3274  0.2666
 8206SOL    HW136077   3.374   0.705   6.612 -3.0255  1.4787 -0.2338
 8206SOL    HW236078   3.326   0.683   6.478  0.3898 -0.7190 -0.6254
 8207SOL     OW36079   1.405   1.197   2.839  1.1407 -0.3440  0.0715
 8207SOL    HW136080   1.473   1.262   2.823  0.2427 -0.1288 -2.8713
 8207SOL    HW236081   1.329   1.249   2.866 -0.3237 -0.3083 -4.1233
 8208SOL     OW36082   2.188   2.310   2.565 -0.0750  0.1347 -0.9770
 8208SOL    HW136083   2.140   2.378   2.518  1.5666  0.7697 -1.7279
 8208SOL    HW236084   2.253   2.279   2.502  1.7030  0.0734  0.8943
 8209SOL     OW36085   0.018   1.912   2.344 -0.3422  0.3376  0.0395
 8209SOL    HW136086   0.081   1.878   2.408  0.4132  0.8735 -0.4358
 8209SOL    HW236087   0.048   2.000   2.323  4.1849 -1.4767 -1.1105
 8210SOL     OW36088   1.946   2.903   6.575  0.4511  0.0983 -0.1259
 8210SOL    HW136089   1.984   2.895   6.487 -2.7666  0.0550 -1.5283
 8210SOL    HW236090   2.012   2.848   6.616  0.5327  1.0100  0.9378
 8211SOL     OW36091   0.475   1.803  13.808 -0.0722 -0.1691 -0.5317
 8211SOL    HW136092   0.544   1.736  13.803 -2.0649 -2.1988 -0.9307
 8211SOL    HW236093   0.488   1.828  13.899  0.7467  2.2275 -1.3071
 8212SOL     OW36094   4.617   1.107   2.226  0.4943  0.7153  0.0726
 8212SOL    HW136095   4.582   1.022   2.201  1.1505  0.4035  0.2137
 8212SOL    HW236096   4.536   1.151   2.251  1.1414  1.4692  0.8549
 8213SOL     OW36097   2.644   1.724   2.826  0.1093  0.5040  0.1465
 8213SOL    HW136098   2.624   1.676   2.745  0.3408  1.8889 -0.7207
 8213SOL    HW236099   2.639   1.818   2.810 -1.4687  0.8284  2.4735
 8214SOL     OW36100   0.487   4.698  15.360  0.4103  0.9034 -0.3064
 8214SOL    HW136101   0.474   4.713  15.453  3.1026  0.7771  0.0887
 8214SOL    HW236102   0.422   0.043  15.340 -3.0496 -2.0211  1.0181
 8215SOL     OW36103   1.785   2.985   0.783 -0.5442 -0.6009  0.5518
 8215SOL    HW136104   1.738   2.993   0.700 -0.3436  0.6678  0.5561
 8215SOL    HW236105   1.732   3.044   0.836 -1.2884 -0.1971 -0.6403
 8216SOL     OW36106   4.204   3.298  11.904 -0.3656 -1.0717 -0.0582
 8216SOL    HW136107   4.187   3.334  11.817 -0.1554 -4.4412 -1.4998
 8216SOL    HW236108   4.265   3.228  11.880 -0.6335 -0.4843 -2.4259
 8217SOL     OW36109   1.105   4.181   2.945 -0.0619  0.5203 -0.7020
 8217SOL    HW136110   1.177   4.188   2.882  0.4305  0.8021 -0.1071
 8217SOL    HW236111   1.115   4.095   2.985 -0.5777  0.7438 -0.0861
 8218SOL     OW36112   2.762   0.523   5.657  0.3746  0.1506 -0.0697
 8218SOL    HW136113   2.833   0.470   5.619  1.3927  0.8544  0.8438
 8218SOL    HW236114   2.800   0.610   5.655 -2.2539  1.2862  0.1073
 8219SOL     OW36115   3.488   0.584   7.616  0.4937  0.5190 -0.2315
 8219SOL    HW136116   3.562   0.644   7.610  0.2044  1.1905  2.8051
 8219SOL    HW236117   3.411   0.634   7.645  0.8294  0.4999  0.6790
 8220SOL     OW36118   0.310   4.113   3.727 -0.0679  0.4411 -0.0227
 8220SOL    HW136119   0.385   4.138   3.673 -1.7272  0.5139 -2.2863
 8220SOL    HW236120   0.351   4.118   3.814 -1.0109 -1.6625  0.5435
 8221SOL     OW36121   2.552   0.472   1.002  0.0899  0.3931  0.4994
 8221SOL    HW136122   2.542   0.500   0.911  0.8426 -0.3758  0.1829
 8221SOL    HW236123   2.537   0.552   1.053  0.2971  1.2804 -0.8270
 8222SOL     OW36124   1.257   4.496   8.415  0.4888  0.4310 -0.3752
 8222SOL    HW136125   1.189   4.562   8.429  0.0557 -0.1706  0.4030
 8222SOL    HW236126   1.246   4.476   8.323  0.4703  0.5546 -0.4002
 8223SOL     OW36127   2.680   1.068   2.483 -0.1009 -0.0353 -0.2291
 8223SOL    HW136128   2.772   1.077   2.507 -0.6092  0.4086  1.5963
 8223SOL    HW236129   2.679   1.046   2.390 -0.6466 -0.6950 -0.0790
 8224SOL     OW36130   2.729   0.224   5.519 -0.0315 -0.0212  0.1711
 8224SOL    HW136131   2.707   0.278   5.443 -0.1885  0.5607  0.6350
 8224SOL    HW236132   2.682   0.267   5.591  1.5416 -0.8624  1.7164
 8225SOL     OW36133   2.168   1.961   4.552 -0.4103 -0.1693 -0.0772
 8225SOL    HW136134   2.224   2.039   4.551 -0.8462  0.1755  2.4877
 8225SOL    HW236135   2.088   1.988   4.597 -0.7926  0.3886 -1.0793
 8226SOL     OW36136   2.676   4.509   7.950 -0.4231 -0.2793  0.0530
 8226SOL    HW136137   2.739   4.514   8.021 -0.9493  0.4270  0.4647
 8226SOL    HW236138   2.623   4.580   7.986  0.2142 -0.8417  2.0384
 8227SOL     OW36139   1.223   3.151   2.484  0.0086 -0.5654  1.3235
 8227SOL    HW136140   1.201   3.092   2.411 -1.6032  1.7618 -0.0711
 8227SOL    HW236141   1.200   3.088   2.552 -3.3758  0.4571  1.1232
 8228SOL     OW36142   4.195   3.744   3.094 -0.0650 -0.1864 -0.1650
 8228SOL    HW136143   4.270   3.775   3.043  1.4884 -2.0697  0.9338
 8228SOL    HW236144   4.119   3.776   3.047 -0.3222  1.9952  1.7442
 8229SOL     OW36145   2.203   3.504   0.677 -0.7763 -0.3954  0.5136
 8229SOL    HW136146   2.239   3.419   0.651 -1.4359 -0.7831  0.8519
 8229SOL    HW236147   2.190   3.486   0.770 -1.1525  1.2885  0.7816
 8230SOL     OW36148   2.885   2.952  16.122  0.3768 -0.9348 -0.1865
 8230SOL    HW136149   2.792   2.935  16.135  0.3795 -0.3400  0.6039
 8230SOL    HW236150   2.885   2.951  16.026  0.4184 -1.1650 -0.1848
 8231SOL     OW36151   1.708   1.198   6.373 -0.5532 -0.0788 -0.4367
 8231SOL    HW136152   1.781   1.230   6.426 -0.4955 -2.2050  0.7716
 8231SOL    HW236153   1.751   1.156   6.300 -0.4726  0.5933 -0.7810
 8232SOL     OW36154   3.425   1.862   3.298 -0.1285  0.3954  0.2724
 8232SOL    HW136155   3.384   1.827   3.219 -1.3627 -1.4856  1.7356
 8232SOL    HW236156   3.386   1.949   3.297  0.2403  0.5279 -1.5021
 8233SOL     OW36157   4.480   0.909   7.772 -0.0847  0.5297  0.5976
 8233SOL    HW136158   4.453   0.969   7.703 -1.5502 -0.9804 -0.1421
 8233SOL    HW236159   4.396   0.869   7.795 -0.3270  0.4028 -0.5305
 8234SOL     OW36160   0.056   1.603   5.313 -0.6845  0.3477 -0.1193
 8234SOL    HW136161   0.075   1.638   5.400 -1.2844 -0.2717  0.2661
 8234SOL    HW236162   0.096   1.516   5.324 -0.6038  0.2985 -0.7985
 8235SOL     OW36163   4.657   4.054   7.572  0.1249 -0.6389  0.4517
 8235SOL    HW136164   4.657   4.140   7.613  0.2573 -1.9852  3.3004
 8235SOL    HW236165   4.589   4.066   7.507 -0.0602  0.2588  0.8205
 8236SOL     OW36166   4.274   2.040  13.896 -0.2238  0.2514 -0.0755
 8236SOL    HW136167   4.266   1.947  13.873 -1.1959 -0.1061  1.7309
 8236SOL    HW236168   4.332   2.065  13.825 -0.1577 -2.1830 -0.9064
 8237SOL     OW36169   3.107   1.771   6.691  0.1829 -0.2858 -0.2074
 8237SOL    HW136170   3.057   1.696   6.660 -0.3000  0.2562 -0.7423
 8237SOL    HW236171   3.050   1.813   6.754  0.2931 -1.4045  0.6479
 8238SOL     OW36172   2.068   1.055  15.126 -0.0911 -0.1118  0.1771
 8238SOL    HW136173   2.016   1.003  15.065 -0.2348  2.6331 -2.0421
 8238SOL    HW236174   2.146   0.999  15.120 -0.0626 -0.0463 -0.0652
 8239SOL     OW36175   4.209   4.053   2.171 -0.4945  0.1839  0.7894
 8239SOL    HW136176   4.292   4.086   2.203 -0.2075 -1.8309  2.1314
 8239SOL    HW236177   4.165   4.136   2.154 -0.0370 -0.2049 -2.3090
 8240SOL     OW36178   4.250   0.347   6.937  0.3499 -0.3578  0.3509
 8240SOL    HW136179   4.287   0.423   6.892 -1.4235  0.3025 -0.0123
 8240SOL    HW236180   4.169   0.335   6.888 -1.0144  0.1272  2.4316
 8241SOL     OW36181   3.342   2.697   3.025  0.4051 -0.1805 -0.8589
 8241SOL    HW136182   3.292   2.747   3.090 -1.5698 -0.4485 -2.1576
 8241SOL    HW236183   3.364   2.623   3.082  2.1335  0.4981 -0.6421
 8242SOL     OW36184   1.711   0.256   8.814 -0.3884 -0.7401  0.5855
 8242SOL    HW136185   1.623   0.271   8.848  0.0408  0.7575  1.0434
 8242SOL    HW236186   1.742   0.195   8.881  1.4752 -0.3124  0.1197
 8243SOL     OW36187   1.005   2.704   7.393 -0.3335  0.0617  0.4577
 8243SOL    HW136188   0.944   2.712   7.321  2.0728 -0.6290 -1.6441
 8243SOL    HW236189   0.949   2.714   7.471 -1.5360  1.6950 -0.6208
 8244SOL     OW36190   3.559   2.590  16.719 -0.1077 -0.2058 -0.2178
 8244SOL    HW136191   3.585   2.498  16.727  2.0225  0.3622 -0.4964
 8244SOL    HW236192   3.467   2.573  16.698 -1.0774  0.5325  3.5643
 8245SOL     OW36193   2.736   3.351   8.867  0.2786  0.2229 -0.2824
 8245SOL    HW136194   2.722   3.290   8.940 -1.3038  0.1240 -0.6678
 8245SOL    HW236195   2.720   3.293   8.793 -1.4126 -0.0415  0.2715
 8246SOL     OW36196   4.488   0.522  14.894  0.2423  0.5426 -0.0232
 8246SOL    HW136197   4.401   0.482  14.895  0.6102 -0.2897 -0.5903
 8246SOL    HW236198   4.497   0.552  14.803  0.8336 -0.8288 -0.4315
 8247SOL     OW36199   3.971   3.716  11.318  0.0669 -0.0620 -0.3393
 8247SOL    HW136200   4.003   3.726  11.228 -1.7908  2.0551 -0.7833
 8247SOL    HW236201   3.889   3.765  11.309 -0.2751 -0.5460  0.1904
 8248SOL     OW36202   1.110   3.237   6.574 -0.2676  0.4099 -0.4100
 8248SOL    HW136203   1.186   3.219   6.630 -0.7442  1.5702  0.6017
 8248SOL    HW236204   1.040   3.197   6.625 -1.2402  2.5216 -0.0789
 8249SOL     OW36205   0.693   1.836   7.998  0.2837 -0.3978 -0.2687
 8249SOL    HW136206   0.690   1.806   7.907 -0.6292  2.5933 -1.2370
 8249SOL    HW236207   0.775   1.792   8.016  1.1603  1.7948  1.1151
 8250SOL     OW36208   2.385   0.003   9.408  0.5204  0.3587 -0.2624
 8250SOL    HW136209   2.405   4.681   9.325  0.7024  1.2255 -0.6765
 8250SOL    HW236210   2.433   4.670   9.470  1.2575  1.7615  0.4287
 8251SOL     OW36211   2.483   4.446  13.919  0.2136 -0.4189 -0.1677
 8251SOL    HW136212   2.497   4.352  13.907 -0.3407  0.0514 -4.6672
 8251SOL    HW236213   2.514   4.467  14.007 -0.7674 -2.7624  0.7120
 8252SOL     OW36214   0.050   2.670   4.812 -0.3243  0.2174  0.0069
 8252SOL    HW136215   0.129   2.635   4.852 -1.2900 -1.6267  0.2920
 8252SOL    HW236216   0.063   2.765   4.813  1.4969 -0.0267  0.1249
 8253SOL     OW36217   4.167   3.700   2.433  0.5502 -0.6799 -0.5344
 8253SOL    HW136218   4.241   3.702   2.372  0.1564  0.6258 -0.9665
 8253SOL    HW236219   4.149   3.794   2.433  1.8982 -0.4190 -1.5487
 8254SOL     OW36220   0.859   1.785   8.726 -0.5109 -0.5176  0.2138
 8254SOL    HW136221   0.815   1.808   8.809 -0.2554  2.4201 -0.4437
 8254SOL    HW236222   0.920   1.725   8.768 -0.6420 -1.3772 -0.8363
 8255SOL     OW36223   0.279   1.075   7.677 -0.3925  0.3470 -0.2481
 8255SOL    HW136224   0.186   1.095   7.674 -0.5824 -0.2722  1.4750
 8255SOL    HW236225   0.265   0.981   7.692  3.4434  0.2238  2.6921
 8256SOL     OW36226   1.206   2.016  11.242  0.0635 -0.0989  0.9351
 8256SOL    HW136227   1.251   2.050  11.319 -1.2502 -0.0858  1.6997
 8256SOL    HW236228   1.119   1.999  11.277 -0.8624  0.1487 -1.2464
 8257SOL     OW36229   2.464   1.576   0.355  0.0730  0.0375 -0.2174
 8257SOL    HW136230   2.427   1.578   0.443  1.0151  1.9121  0.1312
 8257SOL    HW236231   2.557   1.566   0.376  0.6031 -0.5211 -2.8953
 8258SOL     OW36232   0.471   1.686   6.918 -0.1466 -0.1009  0.3986
 8258SOL    HW136233   0.473   1.608   6.862  0.2707  0.9766 -1.1005
 8258SOL    HW236234   0.561   1.687   6.951 -0.2650  0.3033  0.7010
 8259SOL     OW36235   1.784   0.698  11.211  0.1733 -0.1148 -0.6269
 8259SOL    HW136236   1.697   0.727  11.185  0.1782  1.2133  0.8408
 8259SOL    HW236237   1.805   0.762  11.279  0.0930 -2.1305  1.3046
 8260SOL     OW36238   4.597   3.958   2.891 -0.3710 -0.4978  0.1002
 8260SOL    HW136239   4.649   3.962   2.810 -0.7681 -3.5184 -0.2784
 8260SOL    HW236240   4.571   4.050   2.897  2.8985  0.3453  1.2837
 8261SOL     OW36241   1.465   4.223   4.978  0.4837  0.0650  0.4350
 8261SOL    HW136242   1.549   4.218   5.022  0.2521 -2.6917  0.5651
 8261SOL    HW236243   1.488   4.261   4.893 -1.4623  1.5439  0.5752
 8262SOL     OW36244   2.475   0.611  12.747  0.3271  0.0454  0.3012
 8262SOL    HW136245   2.459   0.698  12.711 -0.5883  0.1955  1.0901
 8262SOL    HW236246   2.391   0.593  12.790 -1.2042 -0.3328 -2.8178
 8263SOL     OW36247   2.531   3.044   3.094  0.0061  0.6056 -0.1809
 8263SOL    HW136248   2.439   3.067   3.084  0.4536  2.0468 -0.9720
 8263SOL    HW236249   2.575   3.121   3.059 -1.2484  1.0148 -0.8691
 8264SOL     OW36250   0.111   2.109   6.584  0.3550 -0.0381 -0.1456
 8264SOL    HW136251   0.048   2.095   6.654 -0.4671 -1.4359 -1.1417
 8264SOL    HW236252   0.105   2.020   6.549 -0.9133 -0.5845  1.4627
 8265SOL     OW36253   2.096   2.659  11.307  0.3237 -1.0361  0.0560
 8265SOL    HW136254   2.155   2.591  11.273  1.0296 -0.6874  0.6059
 8265SOL    HW236255   2.012   2.612  11.307 -0.5043  0.4437  0.7451
 8266SOL     OW36256   0.925   2.397   1.907 -0.0851  0.3848  0.4415
 8266SOL    HW136257   1.002   2.437   1.867  0.8156 -1.2012  0.5965
 8266SOL    HW236258   0.925   2.318   1.853 -1.0800  0.9276 -0.3612
 8267SOL     OW36259   2.144   4.015   5.717 -0.0016  0.7606 -0.3038
 8267SOL    HW136260   2.233   4.007   5.752  0.2910  1.2205 -0.9554
 8267SOL    HW236261   2.137   4.105   5.684 -0.0172  0.7551 -0.3155
 8268SOL     OW36262   1.636   3.733   2.081 -0.2773 -0.0033  0.0948
 8268SOL    HW136263   1.680   3.776   2.008  1.9262 -1.1109  0.7629
 8268SOL    HW236264   1.698   3.768   2.144 -0.5332  0.9822 -0.1984
 8269SOL     OW36265   0.588   1.933   8.887  0.1762  0.5103  0.8111
 8269SOL    HW136266   0.627   1.944   8.800  0.2360 -2.3445  0.4869
 8269SOL    HW236267   0.495   1.941   8.866  1.0567  3.0130 -2.2276
 8270SOL     OW36268   0.833   3.568   1.103  0.3854 -0.9038  0.0765
 8270SOL    HW136269   0.767   3.546   1.036  2.0413 -0.9876 -1.5194
 8270SOL    HW236270   0.849   3.661   1.091  0.6045 -0.9657 -0.1145
 8271SOL     OW36271   2.028   4.114   8.859 -0.1390 -0.2770  0.1691
 8271SOL    HW136272   1.999   4.201   8.833 -1.8296 -0.6448  0.8400
 8271SOL    HW236273   1.989   4.102   8.946  0.0782  1.7700  0.5373
 8272SOL     OW36274   4.142   2.608   6.164 -0.2848  0.0679 -0.5267
 8272SOL    HW136275   4.119   2.549   6.093  2.1040 -1.8455  0.2940
 8272SOL    HW236276   4.120   2.692   6.124 -1.6972 -1.0605 -2.0854
 8273SOL     OW36277   1.602   3.458   0.280  0.4049 -0.2352  0.2317
 8273SOL    HW136278   1.629   3.516   0.351 -0.4166  0.9396 -0.4090
 8273SOL    HW236279   1.683   3.421   0.244 -1.4905 -2.3442 -1.8216
 8274SOL     OW36280   2.588   0.453   0.385  0.0466 -0.3614 -0.1878
 8274SOL    HW136281   2.611   0.393   0.314  1.6699 -1.6194  1.3960
 8274SOL    HW236282   2.603   0.537   0.342 -1.1698  1.2990  2.6215
 8275SOL     OW36283   0.415   2.048   5.655  0.1865  0.3964 -0.1310
 8275SOL    HW136284   0.353   1.981   5.684  0.6634  0.4385  0.9899
 8275SOL    HW236285   0.373   2.078   5.574  0.5531  0.6809 -0.2147
 8276SOL     OW36286   2.605   1.590   2.165 -0.0548  0.1828  0.1997
 8276SOL    HW136287   2.659   1.661   2.200  0.6868 -0.4097  0.2719
 8276SOL    HW236288   2.649   1.514   2.203 -0.3528  0.2768  0.7189
 8277SOL     OW36289   0.167   4.326  11.005  0.7215 -0.2362 -0.1506
 8277SOL    HW136290   0.081   4.288  11.024  0.9625 -1.4371 -1.5075
 8277SOL    HW236291   0.166   4.399  11.067 -1.2971 -1.0538  0.8163
 8278SOL     OW36292   3.910   2.951  11.836  0.1983 -0.1241  0.5742
 8278SOL    HW136293   3.827   2.905  11.825 -0.5623  1.5713 -0.6922
 8278SOL    HW236294   3.969   2.876  11.846 -0.2903 -0.7571 -1.4211
 8279SOL     OW36295   2.153   0.100   4.279 -0.2069 -1.1308  0.5965
 8279SOL    HW136296   2.215   0.135   4.215  0.3083 -1.8103  0.7349
 8279SOL    HW236297   2.109   0.181   4.305 -1.1467 -0.7398 -2.1550
 8280SOL     OW36298   0.381   1.066   7.035 -0.6963 -0.2041  0.0349
 8280SOL    HW136299   0.458   1.111   6.998 -0.3836 -1.2993 -0.6477
 8280SOL    HW236300   0.324   1.142   7.048  0.9526  1.1686 -0.7265
 8281SOL     OW36301   3.128   1.195   3.854  0.7553  0.7876  0.3540
 8281SOL    HW136302   3.222   1.187   3.838  0.2525  0.2564 -2.3677
 8281SOL    HW236303   3.114   1.289   3.859  2.1758  0.9534  1.2346
 8282SOL     OW36304   0.268   0.332  12.934  0.1466 -0.1986  0.4627
 8282SOL    HW136305   0.173   0.322  12.938  0.0168  1.9053  2.6809
 8282SOL    HW236306   0.285   0.379  13.016  1.8545 -1.8476  1.0473
 8283SOL     OW36307   2.882   2.154  12.498  0.4810  0.5588  0.2432
 8283SOL    HW136308   2.940   2.224  12.467 -1.5368  1.5262 -1.4071
 8283SOL    HW236309   2.927   2.084  12.451 -2.8003 -0.0758 -1.9364
 8284SOL     OW36310   2.388   4.503   3.478  0.0732 -0.2394 -0.1551
 8284SOL    HW136311   2.444   4.438   3.521  2.4485  3.3882  2.2215
 8284SOL    HW236312   2.450   4.542   3.416 -3.3202  2.5405 -1.8076
 8285SOL     OW36313   1.860   2.911   6.184  0.1079 -0.7034 -0.5258
 8285SOL    HW136314   1.858   2.831   6.131 -0.0438 -0.0428 -1.5086
 8285SOL    HW236315   1.951   2.916   6.214  0.2831 -0.3926 -1.1134
 8286SOL     OW36316   4.034   0.677  17.139  0.3054 -0.5438 -0.2290
 8286SOL    HW136317   3.998   0.707  17.223  0.0109 -1.9997  0.1667
 8286SOL    HW236318   4.054   0.764  17.105  0.0400 -1.3939 -2.5550
 8287SOL     OW36319   1.155   1.470   0.083 -0.0596  0.4273  0.3547
 8287SOL    HW136320   1.134   1.377   0.079  2.1605 -0.0872  0.9108
 8287SOL    HW236321   1.249   1.473   0.095 -0.1838  0.3673  1.3281
 8288SOL     OW36322   4.490   2.990   0.980  0.0174  0.1307 -0.5071
 8288SOL    HW136323   4.486   2.896   0.996 -1.1061  0.1866 -0.4248
 8288SOL    HW236324   4.450   3.002   0.894 -1.2238  1.9867  0.3248
 8289SOL     OW36325   4.164   4.117   4.840 -0.1446  0.1428  0.3109
 8289SOL    HW136326   4.078   4.075   4.842 -1.1646  2.4326  2.8712
 8289SOL    HW236327   4.154   4.196   4.788  0.7842  2.1139  3.1309
 8290SOL     OW36328   2.041   4.086   4.766  0.0762 -0.0846 -0.4792
 8290SOL    HW136329   2.106   4.016   4.777  1.2165  1.0316 -0.1212
 8290SOL    HW236330   1.967   4.064   4.823  0.2480 -0.0749 -0.2549
 8291SOL     OW36331   0.389   1.675   2.678  0.1228  0.5248  0.6907
 8291SOL    HW136332   0.462   1.693   2.738  0.5979  1.4008 -0.1483
 8291SOL    HW236333   0.379   1.581   2.693 -1.1677  0.1396 -2.6459
 8292SOL     OW36334   2.273   0.503  12.925 -0.8810 -0.0658  0.4154
 8292SOL    HW136335   2.233   0.434  12.978 -0.2889 -3.4306 -3.4987
 8292SOL    HW236336   2.196   0.531  12.875 -1.2100  0.0399  0.9800
 8293SOL     OW36337   1.001   3.094   5.858 -0.4843  0.2565  0.5480
 8293SOL    HW136338   1.075   3.138   5.817 -0.9681  0.3712 -0.2069
 8293SOL    HW236339   0.931   3.159   5.845 -0.5609  0.2809  1.0823
 8294SOL     OW36340   1.229   0.695  17.533  0.7244 -0.3655 -0.3130
 8294SOL    HW136341   1.181   0.669  17.454  1.2720 -1.9204 -0.1469
 8294SOL    HW236342   1.313   0.656  17.509  1.0663 -1.7575  3.1437
 8295SOL     OW36343   0.685   4.417   2.367  0.7038 -0.1822  0.2719
 8295SOL    HW136344   0.591   4.423   2.354  0.8834  3.2026  0.5419
 8295SOL    HW236345   0.700   4.367   2.286 -1.3645  3.8593 -2.6186
 8296SOL     OW36346   3.213   1.465  15.012  0.5991  0.2481  0.3315
 8296SOL    HW136347   3.270   1.389  14.995  0.4013  0.4591 -1.2981
 8296SOL    HW236348   3.156   1.461  14.936  1.7692  0.7369 -0.5804
 8297SOL     OW36349   2.344   0.339   0.776  0.7157  0.6840 -0.4524
 8297SOL    HW136350   2.396   0.420   0.779  2.9647 -0.7700 -0.4420
 8297SOL    HW236351   2.290   0.344   0.855  1.3648  0.2053  0.0152
 8298SOL     OW36352   0.480   1.050   3.347 -0.3362  0.5443 -0.2172
 8298SOL    HW136353   0.448   1.140   3.351 -0.0687  0.6331 -0.0985
 8298SOL    HW236354   0.562   1.049   3.396 -0.2810  0.3668 -0.3133
 8299SOL     OW36355   3.883   3.875   6.953 -0.4938  0.0255  0.4502
 8299SOL    HW136356   3.971   3.880   6.990 -0.1429  1.0728 -0.5272
 8299SOL    HW236357   3.904   3.802   6.895 -0.1018 -0.0129  0.6396
 8300SOL     OW36358   1.215   1.643  10.981  0.2549  0.3663 -0.6882
 8300SOL    HW136359   1.229   1.728  10.940 -0.2551  0.5150 -0.5532
 8300SOL    HW236360   1.227   1.663  11.074 -1.5782  0.0740 -0.4046
 8301SOL     OW36361   3.040   3.453   7.354  0.3780 -0.4186  0.9551
 8301SOL    HW136362   3.117   3.510   7.354  0.1060 -0.0627  1.8548
 8301SOL    HW236363   2.976   3.516   7.386  0.7794 -0.2427  1.4081
 8302SOL     OW36364   0.235   2.805   7.493 -0.1550  0.2465  0.5458
 8302SOL    HW136365   0.221   2.810   7.587 -2.3692 -0.5631  0.2668
 8302SOL    HW236366   0.315   2.858   7.494 -1.9581  2.9471  1.5252
 8303SOL     OW36367   3.448   4.128   6.939  0.4540  0.0935 -0.0304
 8303SOL    HW136368   3.482   4.144   7.027  2.1743 -1.5533 -0.4077
 8303SOL    HW236369   3.504   4.191   6.893 -0.4163  0.3924 -0.6846
 8304SOL     OW36370   1.928   0.848   7.120  0.7340 -0.2183 -0.1246
 8304SOL    HW136371   1.893   0.775   7.070  2.3121 -0.5617 -0.7062
 8304SOL    HW236372   1.990   0.878   7.053  1.2337  0.4243  0.6291
 8305SOL     OW36373   4.631   1.752   7.356 -0.2523 -0.0991 -0.0464
 8305SOL    HW136374   4.627   1.729   7.449  2.0781 -1.2287 -0.2410
 8305SOL    HW236375   4.677   1.677   7.318  1.9833  0.9325  0.6596
 8306SOL     OW36376   1.725   1.408  11.646  0.0007 -0.2237 -0.3721
 8306SOL    HW136377   1.634   1.418  11.618 -0.4008 -0.3644  0.8620
 8306SOL    HW236378   1.730   1.455  11.730 -0.1181 -1.5423  0.3814
 8307SOL     OW36379   3.958   1.649   7.951  0.2181 -0.4554 -0.0479
 8307SOL    HW136380   4.025   1.711   7.981  0.7558 -1.1125  0.1037
 8307SOL    HW236381   3.987   1.562   7.978 -0.0589 -1.1530 -2.0265
 8308SOL     OW36382   3.789   2.844   2.422 -0.0514  0.1506 -0.1011
 8308SOL    HW136383   3.820   2.934   2.423  0.4116  0.0183 -1.6639
 8308SOL    HW236384   3.861   2.791   2.388  2.3405  1.9505  2.2557
 8309SOL     OW36385   1.595   3.829   2.648 -0.3215  0.5208  0.3588
 8309SOL    HW136386   1.638   3.840   2.732 -0.3997 -1.0396  0.5965
 8309SOL    HW236387   1.504   3.831   2.677 -0.2549 -0.9479  0.6331
 8310SOL     OW36388   1.618   4.481  13.027  0.3808 -0.3832  0.1190
 8310SOL    HW136389   1.713   4.472  13.040  0.2320 -0.4483  1.1069
 8310SOL    HW236390   1.588   4.391  13.024 -0.5880 -0.0973  1.4992
 8311SOL     OW36391   3.704   1.201   2.535  0.0748 -0.2043 -0.1040
 8311SOL    HW136392   3.631   1.144   2.560 -1.0679  0.7076 -1.3329
 8311SOL    HW236393   3.664   1.255   2.467  2.7276  0.2956 -1.2631
 8312SOL     OW36394   1.354   3.444  11.680 -0.0422  0.3133 -0.3884
 8312SOL    HW136395   1.303   3.397  11.614 -0.1946  1.0659 -0.8020
 8312SOL    HW236396   1.415   3.376  11.709  0.2139  1.2739  1.3487
 8313SOL     OW36397   1.134   1.909  17.541 -0.3551  0.1463 -0.8491
 8313SOL    HW136398   1.126   1.828  17.592 -0.9848 -1.7123 -3.9241
 8313SOL    HW236399   1.063   1.891  17.480 -1.5952 -1.2088  0.9829
 8314SOL     OW36400   4.496   2.450  13.512 -0.7836  0.3075 -0.5145
 8314SOL    HW136401   4.485   2.522  13.573  1.3798 -0.4153  0.7393
 8314SOL    HW236402   4.447   2.473  13.433  0.7741 -0.2038 -1.6492
 8315SOL     OW36403   1.495   1.942   4.149  0.2999 -0.2652 -0.6850
 8315SOL    HW136404   1.494   2.013   4.214  0.6981  0.4376 -1.4481
 8315SOL    HW236405   1.403   1.922   4.131  0.4846 -1.1889 -0.6143
 8316SOL     OW36406   0.721   3.838  11.077  0.1749 -0.0122 -0.3017
 8316SOL    HW136407   0.709   3.743  11.068 -0.7995  0.2230 -1.4572
 8316SOL    HW236408   0.709   3.853  11.171  0.8145  0.6007 -0.3247
 8317SOL     OW36409   2.608   3.047  16.432  0.7622  0.1937  0.6849
 8317SOL    HW136410   2.632   3.139  16.424 -0.3422  0.5021  1.0089
 8317SOL    HW236411   2.539   3.042  16.498  2.9202 -0.4358  2.8956
 8318SOL     OW36412   3.090   2.009  12.387 -0.1123  0.3972 -0.1076
 8318SOL    HW136413   3.114   1.927  12.344 -4.2053 -0.9117  0.1551
 8318SOL    HW236414   3.150   2.021  12.460  0.3767  0.8462 -0.5781
 8319SOL     OW36415   1.768   3.716  14.384  0.1329 -0.4636 -0.4720
 8319SOL    HW136416   1.711   3.714  14.460 -1.3626 -0.0405 -1.5827
 8319SOL    HW236417   1.851   3.740  14.426  0.9390  2.0875 -3.4120
 8320SOL     OW36418   4.275   4.717   1.472 -0.1036 -0.2053  0.2681
 8320SOL    HW136419   4.321   4.633   1.472  0.2170 -0.0314 -0.7149
 8320SOL    HW236420   4.181   4.705   1.455  0.1549 -1.2624 -0.4100
 8321SOL     OW36421   2.096   3.351   7.179  0.1254  0.0917 -0.1317
 8321SOL    HW136422   2.050   3.433   7.163 -1.8965 -1.6356 -3.1438
 8321SOL    HW236423   2.053   3.285   7.125 -0.2626 -0.1536  0.4711
 8322SOL     OW36424   0.351   0.852   1.038  0.0540  0.5839 -0.6750
 8322SOL    HW136425   0.447   0.848   1.029  0.0571  0.4520 -0.5827
 8322SOL    HW236426   0.332   0.794   0.964 -1.0705 -1.0159  0.8779
 8323SOL     OW36427   4.372   1.920  12.594  0.4982 -0.7817  0.2096
 8323SOL    HW136428   4.416   2.001  12.570 -1.6157  0.6893  1.2298
 8323SOL    HW236429   4.443   1.858  12.611  1.1115  0.2302  1.2591
 8324SOL     OW36430   4.020   3.365   6.989 -0.3059  0.5527 -0.2637
 8324SOL    HW136431   3.977   3.287   6.952  0.2237  0.6373 -1.0451
 8324SOL    HW236432   3.980   3.352   7.076 -1.2587 -1.4657 -0.9913
 8325SOL     OW36433   4.557   1.393   4.920  0.0295 -0.2832 -0.1013
 8325SOL    HW136434   4.579   1.461   4.984  1.1995 -0.6567 -0.0974
 8325SOL    HW236435   4.590   1.319   4.972  0.6483  0.4163  0.5108
 8326SOL     OW36436   1.458   2.898  13.406 -0.0090  0.4208  0.0159
 8326SOL    HW136437   1.554   2.899  13.399  0.0574 -1.2018  0.6322
 8326SOL    HW236438   1.448   2.814  13.451 -2.6956  1.3214  1.0836
 8327SOL     OW36439   4.185   2.347   6.810  0.8215  0.4157  0.1680
 8327SOL    HW136440   4.196   2.394   6.893 -1.7004  1.3228 -0.0175
 8327SOL    HW236441   4.139   2.412   6.758 -0.2634 -0.5927 -0.1369
 8328SOL     OW36442   2.580   3.014   9.046 -0.2260 -0.6351  0.0977
 8328SOL    HW136443   2.613   2.951   8.982 -1.7656  0.7247 -2.0166
 8328SOL    HW236444   2.662   3.061   9.063  0.0767 -0.9828 -0.3950
 8329SOL     OW36445   3.173   4.093  13.256 -0.0814  0.0581 -0.0642
 8329SOL    HW136446   3.179   4.188  13.256  0.4059  0.0298  0.6376
 8329SOL    HW236447   3.096   4.072  13.202  0.0732 -0.0706 -0.2364
 8330SOL     OW36448   1.417   0.752   3.275 -0.0945 -1.1253  0.1821
 8330SOL    HW136449   1.324   0.761   3.255 -0.2111 -1.5398  0.5298
 8330SOL    HW236450   1.455   0.805   3.206  0.1922 -1.4588  0.0819
 8331SOL     OW36451   3.530   0.210   2.523 -0.1753  0.2791  0.0306
 8331SOL    HW136452   3.612   0.176   2.488 -0.0050  0.0054  0.6952
 8331SOL    HW236453   3.506   0.130   2.570  0.8236  0.5637  1.0085
 8332SOL     OW36454   3.261   0.220  11.077 -0.3395  0.2439 -0.5147
 8332SOL    HW136455   3.214   0.223  11.161 -0.4017 -1.4623 -0.4906
 8332SOL    HW236456   3.326   0.152  11.092 -1.5874 -0.7739  0.2850
 8333SOL     OW36457   1.609   0.972   7.361 -0.1110  0.3690  0.2076
 8333SOL    HW136458   1.621   0.999   7.270  0.7298  0.6366  0.3938
 8333SOL    HW236459   1.525   1.014   7.376  0.2397  0.5141  1.7505
 8334SOL     OW36460   1.990   1.288   2.728  0.3365  0.4218  0.1223
 8334SOL    HW136461   1.964   1.329   2.810 -2.4135 -1.6800  0.2801
 8334SOL    HW236462   1.981   1.195   2.750 -0.3086 -0.0153 -2.0040
 8335SOL     OW36463   0.730   3.804   4.558  0.0567 -0.1078 -0.2789
 8335SOL    HW136464   0.690   3.718   4.564 -0.9573  0.4477  0.9240
 8335SOL    HW236465   0.767   3.796   4.470 -1.3323  1.1610 -0.9834
 8336SOL     OW36466   1.990   4.539  13.350 -0.5086  0.0076  0.2807
 8336SOL    HW136467   1.932   4.565  13.421 -0.6810 -0.4762  0.3155
 8336SOL    HW236468   2.051   4.481  13.395  1.1102  2.5032  1.2699
 8337SOL     OW36469   3.399   3.713  15.823  0.4974 -0.0094  0.1281
 8337SOL    HW136470   3.385   3.706  15.728  0.4335  0.3734  0.1064
 8337SOL    HW236471   3.379   3.805  15.842 -0.4254  0.0196 -0.9099
 8338SOL     OW36472   2.365   2.295  16.621 -0.0766  0.1897 -0.3189
 8338SOL    HW136473   2.344   2.279  16.713  0.6814 -0.3259 -0.2385
 8338SOL    HW236474   2.460   2.284  16.623 -0.1166  0.1473  1.2830
 8339SOL     OW36475   3.494   1.011   5.313  0.2272  0.4064 -0.5373
 8339SOL    HW136476   3.528   1.101   5.323  1.2567 -0.1926  1.4434
 8339SOL    HW236477   3.418   1.032   5.259 -0.9311  0.1220  0.9864
 8340SOL     OW36478   0.088   0.285   3.470 -0.0227 -0.3958 -0.4856
 8340SOL    HW136479   0.039   0.351   3.421  1.3283  0.4480 -0.6882
 8340SOL    HW236480   0.029   0.210   3.458 -2.5558  1.4594  0.3729
 8341SOL     OW36481   0.653   3.506   5.487  0.0732 -0.1546 -0.1122
 8341SOL    HW136482   0.560   3.488   5.472  0.2665 -1.8828  0.8686
 8341SOL    HW236483   0.652   3.523   5.581 -1.1974 -1.7013  0.1407
 8342SOL     OW36484   0.718   0.007   7.468 -0.1957 -0.0362  0.9297
 8342SOL    HW136485   0.747   0.075   7.407 -1.6404 -1.3839 -1.3089
 8342SOL    HW236486   0.783   4.660   7.458  2.2379  2.4747 -0.5027
 8343SOL     OW36487   3.395   0.858   4.123  1.0213 -0.2466  0.5895
 8343SOL    HW136488   3.339   0.851   4.201  1.9657 -1.0122  1.2024
 8343SOL    HW236489   3.425   0.770   4.100 -0.3065 -1.0529  1.9432
 8344SOL     OW36490   2.338   2.885   7.672  0.0184 -0.4057  0.0551
 8344SOL    HW136491   2.250   2.922   7.671  0.3215  0.3213  0.1025
 8344SOL    HW236492   2.373   2.921   7.754 -0.3619  1.3588 -0.5563
 8345SOL     OW36493   2.540   2.941   6.104 -0.1956 -0.0182 -0.6672
 8345SOL    HW136494   2.491   2.979   6.031 -0.6495  0.2182 -0.2304
 8345SOL    HW236495   2.551   3.014   6.165 -0.3892 -1.0559  0.6133
 8346SOL     OW36496   2.314   1.902   7.700  0.0182  0.2101  0.3183
 8346SOL    HW136497   2.389   1.850   7.674  0.0606  0.4483 -0.0322
 8346SOL    HW236498   2.256   1.879   7.628 -0.6912 -1.1324  1.2993
 8347SOL     OW36499   3.527   2.747   3.391 -0.0405 -0.0094 -0.1251
 8347SOL    HW136500   3.513   2.810   3.461  1.1083 -0.6314  0.6675
 8347SOL    HW236501   3.519   2.668   3.444 -0.6694 -0.1172 -0.3827
 8348SOL     OW36502   0.712   1.299   3.950  0.3794  0.6481 -0.1109
 8348SOL    HW136503   0.628   1.345   3.960  1.2822  2.0512  1.0492
 8348SOL    HW236504   0.679   1.217   3.914 -0.4479  1.1234 -0.4201
 8349SOL     OW36505   0.343   3.697   7.661  0.3705 -0.0756 -0.1603
 8349SOL    HW136506   0.266   3.723   7.610  0.1906  0.8461  0.5735
 8349SOL    HW236507   0.398   3.668   7.589  1.9794  0.4010  0.8874
 8350SOL     OW36508   2.639   4.499  12.762 -0.1384 -0.0920 -0.5524
 8350SOL    HW136509   2.674   4.553  12.691  0.7990 -0.2439 -0.2070
 8350SOL    HW236510   2.676   4.416  12.732  0.7201  0.9182 -2.2910
 8351SOL     OW36511   0.445   0.072  11.487 -0.3331  0.5431  0.2112
 8351SOL    HW136512   0.486   0.059  11.402  0.2586 -0.0781  0.5877
 8351SOL    HW236513   0.356   0.095  11.459  0.0885  0.4884 -1.1797
 8352SOL     OW36514   1.704   2.528   7.253  0.5285 -0.0226  0.0086
 8352SOL    HW136515   1.749   2.548   7.171 -1.6166  2.1635 -0.6481
 8352SOL    HW236516   1.621   2.568   7.228  0.7326  0.1702 -0.3643
 8353SOL     OW36517   0.070   0.999   7.979  0.1319 -0.3687  0.4584
 8353SOL    HW136518   0.060   1.093   7.992 -3.3537 -1.0533  2.8078
 8353SOL    HW236519   0.162   0.990   8.002  0.9586  0.7022 -2.4962
 8354SOL     OW36520   3.368   3.126   6.221  0.2325  0.3806 -0.3834
 8354SOL    HW136521   3.443   3.090   6.268 -1.2210 -0.0031  1.6877
 8354SOL    HW236522   3.385   3.215   6.190  0.2392 -0.0496 -1.5811
 8355SOL     OW36523   3.926   1.087   7.441  0.6115 -0.4965 -0.0759
 8355SOL    HW136524   3.845   1.048   7.473 -0.2703  1.0695 -0.4012
 8355SOL    HW236525   3.895   1.147   7.373  1.9099 -2.0678 -2.0496
 8356SOL     OW36526   3.869   0.363   6.316  0.0038  0.1558 -0.3847
 8356SOL    HW136527   3.829   0.298   6.259 -1.7676  1.8219 -1.0515
 8356SOL    HW236528   3.808   0.434   6.297 -3.2507 -2.1259  1.5477
 8357SOL     OW36529   1.296   2.288  14.716 -0.2885 -0.2287 -0.2550
 8357SOL    HW136530   1.367   2.348  14.738  0.4368 -1.0100 -0.4636
 8357SOL    HW236531   1.220   2.345  14.704  0.7508  1.2061 -0.1308
 8358SOL     OW36532   0.586   2.380   7.164 -0.0138  0.4036  0.5121
 8358SOL    HW136533   0.629   2.360   7.081  3.0598  5.8567  0.8112
 8358SOL    HW236534   0.519   2.442   7.134 -0.8431  1.1765  3.9574
 8359SOL     OW36535   1.313   4.138   5.298 -0.7208 -0.2070  0.0165
 8359SOL    HW136536   1.364   4.069   5.256 -1.3320 -0.4738 -0.2995
 8359SOL    HW236537   1.257   4.163   5.224 -1.5129  2.9228  1.6630
 8360SOL     OW36538   3.072   1.743  12.268  0.2602  0.4070  0.4635
 8360SOL    HW136539   3.057   1.679  12.198  3.0413 -0.9576  1.0856
 8360SOL    HW236540   2.986   1.784  12.279 -0.2496 -0.0728 -1.7820
 8361SOL     OW36541   1.626   0.772   5.483 -0.0097  0.4857 -0.3062
 8361SOL    HW136542   1.625   0.676   5.491 -1.0741  0.6238  1.0512
 8361SOL    HW236543   1.547   0.795   5.531 -1.2711 -1.3033 -1.4933
 8362SOL     OW36544   2.984   0.184   3.680 -0.3528 -0.2380  0.3625
 8362SOL    HW136545   2.913   0.194   3.743 -0.5640 -0.7596  0.2114
 8362SOL    HW236546   3.027   0.109   3.721  0.7563  0.6236  0.7447
 8363SOL     OW36547   4.142   3.981   9.381  0.7177 -0.1302  0.6845
 8363SOL    HW136548   4.178   4.029   9.306  1.1174 -2.2532 -0.4544
 8363SOL    HW236549   4.218   3.931   9.410  0.9035 -0.2693 -0.0538
 8364SOL     OW36550   3.348   1.516   2.700  0.3298  0.1337  0.4185
 8364SOL    HW136551   3.347   1.557   2.786  0.9156 -1.1268  1.0339
 8364SOL    HW236552   3.428   1.553   2.661 -0.2982  0.6699 -0.3590
 8365SOL     OW36553   2.115   2.888   3.739 -0.0728  0.1031  0.0579
 8365SOL    HW136554   2.163   2.831   3.799 -0.3871  0.5972  0.7843
 8365SOL    HW236555   2.050   2.932   3.794  0.9208  1.1019  0.4457
 8366SOL     OW36556   0.364   3.967   9.264 -0.1211  0.3243 -0.2503
 8366SOL    HW136557   0.444   3.930   9.300 -1.5820  0.4343  3.2014
 8366SOL    HW236558   0.322   3.993   9.347  3.3873  0.0214  1.6094
 8367SOL     OW36559   0.919   4.303   7.004 -0.4836 -0.1831 -0.7668
 8367SOL    HW136560   0.938   4.382   6.954  2.0045 -0.5513 -0.3871
 8367SOL    HW236561   0.990   4.299   7.068  0.0073  0.0407 -1.2943
 8368SOL     OW36562   1.730   2.494   3.336  0.1055 -0.5505  0.4702
 8368SOL    HW136563   1.727   2.470   3.428  0.5195  0.0804  0.6519
 8368SOL    HW236564   1.778   2.419   3.300  0.0447 -0.3829  0.0378
 8369SOL     OW36565   0.076   1.107   5.470 -0.1160 -0.2405 -0.1006
 8369SOL    HW136566   0.146   1.060   5.516  0.3108 -0.7134 -1.2364
 8369SOL    HW236567   0.112   1.109   5.381  1.3934  1.7783  0.5635
 8370SOL     OW36568   1.761   4.717  12.227  0.5485 -0.0300  0.1924
 8370SOL    HW136569   1.705   0.034  12.294 -0.6855 -1.4041 -0.0399
 8370SOL    HW236570   1.824   0.059  12.195  1.2282 -1.4755 -1.3567
 8371SOL     OW36571   0.030   2.209   8.523 -0.2830 -0.4180 -0.7048
 8371SOL    HW136572   0.116   2.247   8.545 -0.1365 -1.1256 -0.0499
 8371SOL    HW236573   0.024   2.152   8.600 -1.8889 -1.3095 -1.5150
 8372SOL     OW36574   1.490   2.214   7.409  0.4586  0.7181 -0.3693
 8372SOL    HW136575   1.488   2.238   7.317 -0.8445  0.5936 -0.3706
 8372SOL    HW236576   1.397   2.210   7.429  0.4292 -0.1648 -0.7207
 8373SOL     OW36577   4.110   0.645   3.536  0.0343  0.2705 -0.6172
 8373SOL    HW136578   4.191   0.674   3.493 -0.3675  1.7710 -0.3836
 8373SOL    HW236579   4.067   0.601   3.463  0.2615 -2.0763  0.6758
 8374SOL     OW36580   2.559   1.662   3.494  0.2412  0.5218  1.0257
 8374SOL    HW136581   2.583   1.629   3.407  3.1962  0.1272  1.9999
 8374SOL    HW236582   2.643   1.688   3.532  0.9724 -0.1414 -0.1130
 8375SOL     OW36583   4.618   2.400   3.337 -0.1892  0.1403  0.0876
 8375SOL    HW136584   4.655   2.327   3.287  1.7334 -0.0006  1.7055
 8375SOL    HW236585   4.589   2.456   3.265 -2.3453 -1.0644  0.0376
 8376SOL     OW36586   0.341   3.472   1.600 -0.0026  0.0247 -0.1528
 8376SOL    HW136587   0.320   3.396   1.656  0.3508  0.9548  1.2345
 8376SOL    HW236588   0.254   3.477   1.559  0.4612  0.6139 -1.0401
 8377SOL     OW36589   1.037   1.986  13.872 -0.9105 -0.2481  0.4176
 8377SOL    HW136590   1.120   1.942  13.856 -1.1818 -0.2618 -0.9571
 8377SOL    HW236591   1.043   2.047  13.799  0.3650 -2.1245 -1.0166
 8378SOL     OW36592   0.761   2.231   8.719  0.3968 -0.0833 -0.1411
 8378SOL    HW136593   0.789   2.168   8.654  1.7347  0.5469 -0.1816
 8378SOL    HW236594   0.827   2.300   8.715  0.0585  0.2594  0.1764
 8379SOL     OW36595   2.701   3.415   6.673 -0.4011 -0.3864 -0.0168
 8379SOL    HW136596   2.653   3.432   6.591  1.8969  1.9890 -0.8646
 8379SOL    HW236597   2.792   3.418   6.643 -0.9361 -0.8909 -1.7126
 8380SOL     OW36598   3.978   2.490   4.173  0.4933 -0.5023  0.4134
 8380SOL    HW136599   3.892   2.451   4.157 -0.1008  0.4978  1.2253
 8380SOL    HW236600   4.027   2.413   4.203  1.9009  0.2324 -0.0035
 8381SOL     OW36601   2.927   1.976   2.110  0.1679  0.2968 -0.0228
 8381SOL    HW136602   2.976   2.003   2.032  1.8995 -1.4278  0.4912
 8381SOL    HW236603   2.952   2.050   2.165 -0.5200  0.4594  0.0785
 8382SOL     OW36604   3.236   3.304  15.854  0.3344 -0.0673  0.9080
 8382SOL    HW136605   3.190   3.326  15.935  0.4131 -0.5551  1.0853
 8382SOL    HW236606   3.164   3.255  15.814  1.1796 -0.4476 -0.1505
 8383SOL     OW36607   4.627   4.721   3.531  0.2016 -0.3003 -0.0416
 8383SOL    HW136608   4.588   4.640   3.497  0.4970 -0.2886 -0.4084
 8383SOL    HW236609   4.584   0.075   3.490  1.9337  0.0105 -1.2788
 8384SOL     OW36610   2.656   2.541   4.318  0.2257 -0.1998  0.2940
 8384SOL    HW136611   2.669   2.537   4.224 -0.6708 -1.1643  0.2127
 8384SOL    HW236612   2.693   2.458   4.346 -2.0777 -1.7903 -1.4031
 8385SOL     OW36613   4.160   0.405   2.029  0.2540  0.0509 -0.2375
 8385SOL    HW136614   4.189   0.497   2.029  0.7862 -0.1183 -0.4498
 8385SOL    HW236615   4.092   0.403   1.963  0.9089  2.3609 -1.0008
 8386SOL     OW36616   0.798   3.309   5.787  0.4290 -0.7657 -0.4665
 8386SOL    HW136617   0.715   3.349   5.760  0.7064 -1.1131 -1.8704
 8386SOL    HW236618   0.867   3.376   5.788  1.0292 -1.3698 -1.6327
 8387SOL     OW36619   2.591   2.423  16.115 -0.7293 -0.4598  0.0895
 8387SOL    HW136620   2.658   2.460  16.173  1.4901 -1.5832 -1.7744
 8387SOL    HW236621   2.563   2.500  16.066  0.2407 -0.3932 -0.3589
 8388SOL     OW36622   0.608   3.619   6.959  0.7357 -0.2734 -0.2935
 8388SOL    HW136623   0.673   3.588   7.022  0.3575 -2.1143 -0.8007
 8388SOL    HW236624   0.663   3.636   6.883  0.8568  0.6670  0.0132
 8389SOL     OW36625   1.107   0.036   5.383  0.0969 -0.3074  0.1161
 8389SOL    HW136626   1.187   4.713   5.356  0.5278  1.3303 -1.3655
 8389SOL    HW236627   1.087   4.709   5.462 -0.1062  0.2135  0.3925
 8390SOL     OW36628   4.194   3.709  17.475 -0.3779 -0.0540  0.0477
 8390SOL    HW136629   4.179   3.681  17.385 -1.3213  2.5312 -0.5962
 8390SOL    HW236630   4.230   3.630  17.515  1.0584  0.4101 -0.3609
 8391SOL     OW36631   0.404   0.947   7.324 -0.4418 -0.2027  0.2577
 8391SOL    HW136632   0.388   0.860   7.289 -0.9920  1.5033 -3.7689
 8391SOL    HW236633   0.332   1.000   7.289  0.3605 -0.3989 -1.6992
 8392SOL     OW36634   3.275   3.959  15.998  0.1206 -0.5703 -0.1096
 8392SOL    HW136635   3.272   4.031  16.060 -0.1743 -2.4448  2.0391
 8392SOL    HW236636   3.345   3.988  15.939 -1.7783  0.8596 -1.6739
 8393SOL     OW36637   1.561   4.435   6.600  0.2086 -0.6351  0.1359
 8393SOL    HW136638   1.608   4.477   6.673  0.9800  0.6299 -1.0761
 8393SOL    HW236639   1.528   4.357   6.643 -1.3340 -1.1495 -1.9834
 8394SOL     OW36640   1.728   1.127  11.738 -0.2980  0.4795 -0.2962
 8394SOL    HW136641   1.690   1.064  11.677  0.1353 -2.3284  2.3319
 8394SOL    HW236642   1.716   1.205  11.683  0.6630  0.0313 -1.1276
 8395SOL     OW36643   0.368   1.487   3.182 -0.3909  0.2510  0.1800
 8395SOL    HW136644   0.338   1.577   3.169  2.3718  0.8473 -2.1112
 8395SOL    HW236645   0.353   1.455   3.094 -0.4810 -2.0889  1.0416
 8396SOL     OW36646   4.512   4.431   2.772 -0.2725 -0.4137  0.4745
 8396SOL    HW136647   4.598   4.404   2.740  0.4412  1.1112  1.0912
 8396SOL    HW236648   4.522   4.446   2.866 -1.7147  1.0408  0.4059
 8397SOL     OW36649   1.422   2.823   8.929  0.0604  0.0597 -0.2337
 8397SOL    HW136650   1.484   2.752   8.939 -0.1359 -0.3891 -2.1625
 8397SOL    HW236651   1.455   2.893   8.986  3.3613 -0.3989 -1.5966
 8398SOL     OW36652   1.055   2.110   4.262  0.2576 -0.2828 -0.0981
 8398SOL    HW136653   1.045   2.144   4.174  1.1706 -0.0171 -0.1002
 8398SOL    HW236654   1.026   2.019   4.257 -0.3149 -0.1100  0.1310
 8399SOL     OW36655   0.621   2.910  13.669 -0.1039 -0.5020 -0.0160
 8399SOL    HW136656   0.686   2.915  13.739  0.5106  1.3205 -0.7137
 8399SOL    HW236657   0.593   2.819  13.676 -0.1514 -0.5395 -0.6763
 8400SOL     OW36658   1.900   4.683   5.695  0.2826  0.5755 -0.7556
 8400SOL    HW136659   1.845   0.037   5.713 -0.6738 -0.2024 -0.3401
 8400SOL    HW236660   1.865   4.626   5.763 -2.9931  2.3612 -0.9353
 8401SOL     OW36661   2.533   4.118   1.578  0.3616  0.3732 -0.6258
 8401SOL    HW136662   2.535   4.149   1.669 -2.0438  0.3549 -0.5511
 8401SOL    HW236663   2.462   4.171   1.542  0.5959  0.9328 -0.2722
 8402SOL     OW36664   0.953   2.783   4.730 -0.2910  0.0456  1.0036
 8402SOL    HW136665   0.895   2.714   4.762 -1.6159  1.0572  0.7969
 8402SOL    HW236666   0.916   2.855   4.781  1.6340  0.5460  1.7026
 8403SOL     OW36667   1.157   2.588   5.725 -0.7464 -0.2824 -0.3037
 8403SOL    HW136668   1.095   2.516   5.735 -1.6457  0.4754 -0.4360
 8403SOL    HW236669   1.107   2.667   5.704  0.7186  0.1369 -2.1713
 8404SOL     OW36670   3.144   4.078  11.229  0.1659  0.2480 -0.0237
 8404SOL    HW136671   3.214   4.096  11.166 -0.5812 -0.8387 -1.1733
 8404SOL    HW236672   3.164   3.985  11.242  1.8257  0.9175  2.2199
 8405SOL     OW36673   4.626   3.683  12.438 -0.1831  0.1369 -0.2105
 8405SOL    HW136674   4.602   3.616  12.374 -2.7321  0.4599  0.4108
 8405SOL    HW236675   4.698   3.720  12.386  0.0664 -0.1582 -0.0743
 8406SOL     OW36676   2.313   2.486  11.528 -0.3200  0.0927  0.1863
 8406SOL    HW136677   2.353   2.434  11.458 -0.4374  0.4980 -0.1855
 8406SOL    HW236678   2.387   2.541  11.553 -0.8426  0.8481  0.0959
 8407SOL     OW36679   2.901   0.712   3.992 -0.6209  0.7182  0.4744
 8407SOL    HW136680   2.927   0.799   4.021  1.1103  0.1085  0.7654
 8407SOL    HW236681   2.982   0.661   4.001 -1.4480 -0.8855 -1.2194
 8408SOL     OW36682   3.113   3.665   1.903 -0.1153  0.1894  0.1511
 8408SOL    HW136683   3.198   3.624   1.918 -0.1453 -0.3184 -1.0259
 8408SOL    HW236684   3.128   3.721   1.827 -1.0474  1.0037  0.5736
 8409SOL     OW36685   2.947   3.928   7.535 -0.1326  0.2890 -0.0680
 8409SOL    HW136686   2.950   4.024   7.537  3.0949  0.2105 -0.9126
 8409SOL    HW236687   2.911   3.901   7.619 -2.0743  0.5871 -0.8128
 8410SOL     OW36688   4.048   1.182   0.386 -0.5646 -0.5194  0.8205
 8410SOL    HW136689   4.021   1.248   0.448  0.0753  0.8568 -0.3718
 8410SOL    HW236690   4.036   1.095   0.425  1.4175 -1.6370 -1.0458
 8411SOL     OW36691   1.153   4.622   7.799  0.2041  0.3686  0.3106
 8411SOL    HW136692   1.139   4.710   7.834  0.8568 -0.0536  1.6521
 8411SOL    HW236693   1.179   4.573   7.877  0.3388 -1.3390 -0.7801
 8412SOL     OW36694   0.891   1.843   9.645  0.1321  0.0016  0.4877
 8412SOL    HW136695   0.946   1.912   9.683 -0.6363  1.1076 -0.4156
 8412SOL    HW236696   0.888   1.867   9.552 -3.2132 -0.9906  0.3505
 8413SOL     OW36697   1.277   4.426   6.116  0.5419  0.4118  0.1299
 8413SOL    HW136698   1.352   4.427   6.056  0.1283 -3.5241 -0.4627
 8413SOL    HW236699   1.286   4.334   6.141  2.4669  0.3468 -0.7495
 8414SOL     OW36700   1.519   2.155   5.956  0.3641  0.4322 -0.6066
 8414SOL    HW136701   1.451   2.216   5.927  0.9992  1.7992  0.7873
 8414SOL    HW236702   1.595   2.198   5.916  1.2614 -1.1541 -0.5984
 8415SOL     OW36703   0.795   0.997  15.608 -0.1640 -0.2447  0.2679
 8415SOL    HW136704   0.852   1.053  15.661 -0.4033  0.3269 -0.0826
 8415SOL    HW236705   0.814   1.034  15.522 -2.2654  2.5129  0.9829
 8416SOL     OW36706   2.392   2.066   7.878  0.1190 -0.3149 -0.2012
 8416SOL    HW136707   2.342   1.997   7.835  0.4643 -1.1698  0.7580
 8416SOL    HW236708   2.378   2.142   7.822 -1.7887 -0.0220  0.6792
 8417SOL     OW36709   2.525   2.753   6.780  0.7776  0.3054  0.5515
 8417SOL    HW136710   2.452   2.796   6.735  0.5502  0.5400  1.1510
 8417SOL    HW236711   2.499   2.775   6.869  1.6497 -1.5646  1.2690
 8418SOL     OW36712   0.596   0.383  15.588 -0.2893  0.6703 -0.5755
 8418SOL    HW136713   0.619   0.432  15.509 -0.2955  1.6765  0.0537
 8418SOL    HW236714   0.508   0.410  15.615  0.4852  1.6689  0.9383
 8419SOL     OW36715   0.944   0.978  11.828  0.1588 -0.1266 -0.0432
 8419SOL    HW136716   0.987   0.911  11.775  0.1196 -0.9108  0.9267
 8419SOL    HW236717   0.943   0.938  11.914 -0.7178  0.5380  0.2632
 8420SOL     OW36718   2.308   0.720   8.214 -0.2222 -0.3971 -0.1645
 8420SOL    HW136719   2.244   0.688   8.151  1.2930 -2.1229 -0.8073
 8420SOL    HW236720   2.347   0.794   8.168 -0.7040 -0.4594 -0.6681
 8421SOL     OW36721   1.654   0.706   7.581  0.6469 -0.2597 -0.0538
 8421SOL    HW136722   1.634   0.618   7.613 -1.4316 -0.2611 -1.3913
 8421SOL    HW236723   1.716   0.688   7.510  2.0231  0.4312  0.9600
 8422SOL     OW36724   2.307   1.755   4.638  0.2065 -0.3394  0.9547
 8422SOL    HW136725   2.299   1.772   4.732  0.6244  0.3543  0.8644
 8422SOL    HW236726   2.261   1.833   4.608 -0.9046 -0.6031  1.9434
 8423SOL     OW36727   2.899   1.400  16.552  0.5901  0.1437  0.4685
 8423SOL    HW136728   2.924   1.348  16.477  3.3640 -0.6971  1.9763
 8423SOL    HW236729   2.852   1.472  16.509  1.0932  0.9914  1.3229
 8424SOL     OW36730   3.834   3.060   5.359 -0.2928  0.1651  0.3075
 8424SOL    HW136731   3.854   3.073   5.266 -2.4868  1.7883  0.0732
 8424SOL    HW236732   3.759   3.118   5.369  0.7488  1.7946 -1.4562
 8425SOL     OW36733   1.880   1.443   6.210  0.2258  0.3342 -0.2145
 8425SOL    HW136734   1.890   1.348   6.203 -0.7219  0.0535  2.0250
 8425SOL    HW236735   1.885   1.476   6.300 -0.5946  1.8880 -0.7286
 8426SOL     OW36736   1.144   1.285   8.952  0.7763 -0.2688  0.6625
 8426SOL    HW136737   1.186   1.200   8.944  0.8872 -0.3152  1.6671
 8426SOL    HW236738   1.129   1.302   8.859  0.9022  1.3915  0.9538
 8427SOL     OW36739   1.284   3.220   4.977 -0.1891 -0.1771  0.3964
 8427SOL    HW136740   1.272   3.179   5.062 -1.1774 -0.7939 -0.0382
 8427SOL    HW236741   1.325   3.303   5.001  1.6413 -0.2008 -2.5729
 8428SOL     OW36742   2.346   0.268   2.199 -0.1162 -0.3785  0.2422
 8428SOL    HW136743   2.440   0.286   2.205 -0.2482  0.7795 -1.0786
 8428SOL    HW236744   2.347   0.237   2.108 -0.4938  0.8286 -0.1774
 8429SOL     OW36745   1.800   4.360   2.076 -0.7650 -0.0684 -0.0502
 8429SOL    HW136746   1.758   4.328   1.996 -1.2324  1.8850 -0.5767
 8429SOL    HW236747   1.796   4.452   2.050 -3.0927 -0.0122  0.5105
 8430SOL     OW36748   2.919   2.931   7.701  0.5557  0.1702  0.0971
 8430SOL    HW136749   2.995   2.958   7.752 -0.1259 -1.7668  2.1019
 8430SOL    HW236750   2.964   2.908   7.620 -0.3808  0.1177 -0.4101
 8431SOL     OW36751   3.147   4.532   4.878 -0.1544 -0.4595 -0.0530
 8431SOL    HW136752   3.100   4.539   4.961  1.2286  0.3352  0.6700
 8431SOL    HW236753   3.232   4.550   4.920 -1.8007  0.9873  2.7239
 8432SOL     OW36754   0.206   3.548   0.976 -0.2309 -0.1579  0.1606
 8432SOL    HW136755   0.178   3.567   0.886  1.8846  0.4990 -0.3737
 8432SOL    HW236756   0.189   3.455   0.991 -2.9624  0.2364 -0.6498
 8433SOL     OW36757   3.707   1.452   6.837  0.2377  0.1861  0.1984
 8433SOL    HW136758   3.796   1.421   6.856 -0.5749 -2.2391  0.0085
 8433SOL    HW236759   3.669   1.376   6.793 -2.2417 -0.3818  3.3486
 8434SOL     OW36760   2.048   3.908   1.861  0.5064  0.0790  0.4447
 8434SOL    HW136761   1.966   3.926   1.813  1.6404  3.3289 -0.2855
 8434SOL    HW236762   2.025   3.917   1.953 -0.4891  1.8570  0.0234
 8435SOL     OW36763   2.722   0.842   4.696  0.4190 -0.1282  0.0449
 8435SOL    HW136764   2.665   0.892   4.637 -0.4423 -2.0916 -0.7980
 8435SOL    HW236765   2.701   0.752   4.672  0.8941  0.2187 -1.7055
 8436SOL     OW36766   0.367   4.212   1.144  0.1228 -0.0024 -0.3666
 8436SOL    HW136767   0.371   4.135   1.088  0.3469 -1.3710  1.5068
 8436SOL    HW236768   0.429   4.182   1.210  1.8299 -1.4457 -2.6445
 8437SOL     OW36769   4.633   0.338   1.847 -0.2457  0.1980 -0.1261
 8437SOL    HW136770   4.638   0.265   1.910  0.3161 -1.1096 -1.6770
 8437SOL    HW236771   4.716   0.382   1.862 -0.2527  0.0266  0.4452
 8438SOL     OW36772   4.443   1.948   8.075  0.5697 -0.2527  0.2102
 8438SOL    HW136773   4.403   2.009   8.013  1.5745  0.0855 -0.1060
 8438SOL    HW236774   4.487   2.011   8.132  1.8198  0.1471 -1.1876
 8439SOL     OW36775   4.064   3.094   1.178  0.0226 -0.2867 -0.4267
 8439SOL    HW136776   3.989   3.048   1.139  0.0042 -0.8539  0.2700
 8439SOL    HW236777   4.026   3.132   1.257  0.6864  1.9237 -1.1769
 8440SOL     OW36778   1.286   2.327   5.865 -0.7440  0.4627  0.1807
 8440SOL    HW136779   1.191   2.324   5.870 -0.7162  1.9534  1.3720
 8440SOL    HW236780   1.296   2.409   5.816  1.6437 -0.6016 -1.1595
 8441SOL     OW36781   2.173   2.146   6.364 -0.0691 -0.1759 -0.1198
 8441SOL    HW136782   2.157   2.213   6.298 -0.1478  0.9155  1.0141
 8441SOL    HW236783   2.132   2.181   6.443 -0.0558 -2.5649  0.9665
 8442SOL     OW36784   4.719   3.088   1.129 -0.3673  0.1036 -0.7817
 8442SOL    HW136785   4.672   3.063   1.050 -0.7019 -0.3749 -0.4291
 8442SOL    HW236786   0.035   3.002   1.147 -1.4550 -0.4025 -0.9331
 8443SOL     OW36787   2.560   3.516   2.936  0.4072  0.2762 -0.3469
 8443SOL    HW136788   2.484   3.546   2.886  0.1744 -0.0665 -0.2044
 8443SOL    HW236789   2.633   3.555   2.888  0.7242  0.3913  0.2340
 8444SOL     OW36790   2.343   2.392   8.482 -0.0960  0.5242 -0.0624
 8444SOL    HW136791   2.391   2.311   8.497  0.9736  1.6260  2.4065
 8444SOL    HW236792   2.359   2.398   8.388  0.0921  0.2937 -0.0423
 8445SOL     OW36793   3.342   4.700   3.518 -0.2124  0.1994  0.4812
 8445SOL    HW136794   3.258   4.675   3.559  0.3918 -1.5623  0.6321
 8445SOL    HW236795   3.385   4.617   3.538 -2.1584 -0.6402  1.1921
 8446SOL     OW36796   2.115   2.573  17.229  0.1667 -0.4983  0.2080
 8446SOL    HW136797   2.134   2.481  17.247 -1.6772 -0.9459 -0.1682
 8446SOL    HW236798   2.177   2.593  17.158  1.2155 -0.6118  1.0886
 8447SOL     OW36799   2.885   1.925   7.349 -0.1641  0.6467  0.4872
 8447SOL    HW136800   2.906   1.984   7.422  1.0697 -0.0089  0.6675
 8447SOL    HW236801   2.798   1.957   7.327  0.5511  1.4624 -1.1828
 8448SOL     OW36802   3.854   3.698   6.754  0.9034 -0.4377  0.1233
 8448SOL    HW136803   3.841   3.613   6.713  1.6669 -0.3597 -0.2804
 8448SOL    HW236804   3.762   3.706   6.780  1.5390  2.7464  1.3715
 8449SOL     OW36805   4.393   0.562   8.220 -0.1738  0.2974  0.1298
 8449SOL    HW136806   4.336   0.555   8.296 -0.4896 -0.9408 -0.2165
 8449SOL    HW236807   4.411   0.469   8.205  3.5246  1.0521 -0.2102
 8450SOL     OW36808   1.123   4.312   3.773 -0.2121  0.2086  0.6218
 8450SOL    HW136809   1.161   4.342   3.690  0.7769 -0.4531  0.8301
 8450SOL    HW236810   1.125   4.391   3.827 -0.0186  0.4054  0.3288
 8451SOL     OW36811   0.667   4.475   6.027 -0.0462 -0.4668 -0.0999
 8451SOL    HW136812   0.587   4.524   6.046  0.8368  1.6735 -1.9910
 8451SOL    HW236813   0.650   4.395   6.077 -1.2161  0.8259  1.6039
 8452SOL     OW36814   3.273   2.006   1.462 -0.8036 -0.4370 -0.0398
 8452SOL    HW136815   3.270   1.978   1.553  0.5566  2.1089  0.7645
 8452SOL    HW236816   3.235   1.930   1.417 -2.0207 -1.1223  2.1703
 8453SOL     OW36817   3.515   3.967   6.461  0.5234 -0.3963  0.2480
 8453SOL    HW136818   3.491   3.883   6.421 -0.0726  0.1030 -0.4483
 8453SOL    HW236819   3.429   3.987   6.497 -0.0006 -0.2689 -1.0670
 8454SOL     OW36820   1.027   4.706  13.216  0.3325 -0.6327  0.1202
 8454SOL    HW136821   1.008   0.044  13.288  0.2598 -0.7570  0.2057
 8454SOL    HW236822   1.096   4.645  13.245 -0.6829 -2.3859 -1.1734
 8455SOL     OW36823   3.009   4.375   7.249  0.5483  0.1651 -0.1558
 8455SOL    HW136824   2.929   4.406   7.292  1.4558  0.2128  1.4686
 8455SOL    HW236825   3.029   4.457   7.203 -1.1157  0.0193 -1.1414
 8456SOL     OW36826   3.553   2.889   4.896 -0.4827  0.0945  0.1204
 8456SOL    HW136827   3.561   2.827   4.969 -1.7795 -1.0388 -0.7035
 8456SOL    HW236828   3.630   2.871   4.842 -0.6603  1.3484 -0.5512
 8457SOL     OW36829   3.533   3.164   4.166  0.3535 -0.0291  0.0663
 8457SOL    HW136830   3.446   3.194   4.196 -1.1158 -2.6173 -1.6469
 8457SOL    HW236831   3.528   3.163   4.071 -2.2284 -0.3815  0.1936
 8458SOL     OW36832   0.852   0.487   7.708 -0.2028 -0.1303 -0.4998
 8458SOL    HW136833   0.907   0.501   7.631  1.5428  0.5836  0.8653
 8458SOL    HW236834   0.895   0.546   7.770  0.3603 -0.3341 -0.6974
 8459SOL     OW36835   1.542   1.641  13.385 -0.3470  0.4991 -0.2941
 8459SOL    HW136836   1.473   1.636  13.451 -0.2035 -3.5220 -0.4709
 8459SOL    HW236837   1.511   1.713  13.330  1.8773  0.1509 -2.0107
 8460SOL     OW36838   1.930   0.525   8.426 -0.1924 -0.0479  0.3366
 8460SOL    HW136839   1.961   0.522   8.517  0.5373  0.2865  0.1004
 8460SOL    HW236840   1.958   0.438   8.398  0.5379  0.7540 -1.4729
 8461SOL     OW36841   1.289   3.250  11.108 -0.2018  0.2075  0.2140
 8461SOL    HW136842   1.257   3.305  11.037 -1.0963 -0.8966 -0.2438
 8461SOL    HW236843   1.384   3.261  11.107  0.0216 -1.4576  1.8053
 8462SOL     OW36844   1.631   0.219   7.796 -0.2193 -0.4200 -0.0634
 8462SOL    HW136845   1.677   0.229   7.879  2.6309  2.0184 -1.9330
 8462SOL    HW236846   1.570   0.148   7.817  0.9157 -0.4355  3.1435
 8463SOL     OW36847   0.400   0.021   8.849  0.0725 -0.1609  0.0721
 8463SOL    HW136848   0.433   0.086   8.911 -0.4569 -0.4515  0.6481
 8463SOL    HW236849   0.485   4.705   8.826  0.3429  0.1595  0.5268
 8464SOL     OW36850   0.840   4.611   8.939 -1.0430  0.0571 -0.9886
 8464SOL    HW136851   0.772   4.596   9.005  0.2212  1.0926  0.5561
 8464SOL    HW236852   0.915   4.649   8.984 -1.3751  0.4642 -0.7779
 8465SOL     OW36853   4.512   0.517   0.475  0.5507  0.3804 -0.0803
 8465SOL    HW136854   4.505   0.436   0.424  0.8980 -0.5836  1.4167
 8465SOL    HW236855   4.436   0.573   0.453 -2.3302 -2.1010  3.7078
 8466SOL     OW36856   2.036   2.139   8.940  0.0823 -0.1758 -0.8947
 8466SOL    HW136857   2.083   2.112   9.018  0.4569  2.4544 -0.1960
 8466SOL    HW236858   1.996   2.220   8.972  0.2992  0.2073 -1.5928
 8467SOL     OW36859   2.594   1.532  15.171 -0.4688 -0.4153 -0.2003
 8467SOL    HW136860   2.636   1.484  15.099 -2.9136 -0.5247 -1.5329
 8467SOL    HW236861   2.548   1.463  15.218  0.6638 -0.0597  1.4524
 8468SOL     OW36862   0.497   3.587   9.727  0.4294 -0.0121  0.2802
 8468SOL    HW136863   0.585   3.549   9.716  0.4722  0.0331  0.4714
 8468SOL    HW236864   0.524   3.678   9.729 -0.5797  0.2569  1.1531
 8469SOL     OW36865   3.749   1.936   7.119  0.0319 -0.6411  0.1120
 8469SOL    HW136866   3.823   1.908   7.173  1.7081  2.9617 -0.3353
 8469SOL    HW236867   3.713   1.847   7.109 -0.9523 -0.2520  0.1453
 8470SOL     OW36868   1.516   2.539  17.586 -0.1948 -0.0105  0.1353
 8470SOL    HW136869   1.579   2.474  17.617  1.0456  0.1449 -2.0612
 8470SOL    HW236870   1.578   2.608  17.566 -0.0560 -0.5506 -1.3229
 8471SOL     OW36871   4.683   2.199   6.353 -0.9018 -0.2441  0.1020
 8471SOL    HW136872   4.661   2.282   6.395 -0.8800  0.1816 -0.7243
 8471SOL    HW236873   0.043   2.181   6.397 -0.2327 -0.7273 -1.3379
 8472SOL     OW36874   0.194   3.020  12.240  0.0777 -0.4120  0.0900
 8472SOL    HW136875   0.204   3.071  12.320  3.0191 -0.9503  0.0711
 8472SOL    HW236876   0.189   2.928  12.265  0.9176 -0.1874  1.0893
 8473SOL     OW36877   0.743   4.719   5.576  0.2326 -0.3812  0.4927
 8473SOL    HW136878   0.692   0.070   5.541  0.2482 -0.3184  0.6024
 8473SOL    HW236879   0.813   0.056   5.603  0.4002 -0.0763 -0.6266
 8474SOL     OW36880   2.140   0.829   5.516 -0.0522 -0.2369  0.3273
 8474SOL    HW136881   2.119   0.740   5.487 -0.6894  1.1637 -3.4821
 8474SOL    HW236882   2.055   0.873   5.510  0.0100 -0.3667 -1.5001
 8475SOL     OW36883   1.222   4.140   4.988 -0.0528  0.4578 -0.7335
 8475SOL    HW136884   1.205   4.071   4.925 -1.5741 -1.4996  1.8072
 8475SOL    HW236885   1.318   4.141   4.983 -0.1389  1.3425 -2.0905
 8476SOL     OW36886   2.016   1.338  10.707 -0.2338 -0.1939 -0.7368
 8476SOL    HW136887   1.963   1.293  10.642 -1.0661  2.6486 -2.0094
 8476SOL    HW236888   2.088   1.275  10.706 -0.6416 -0.6505 -0.9997
 8477SOL     OW36889   3.780   0.837   8.319  0.1335  0.2282 -0.1332
 8477SOL    HW136890   3.685   0.848   8.323 -0.0315 -0.7711 -1.3214
 8477SOL    HW236891   3.811   0.903   8.381  0.0656 -1.6745  1.9138
 8478SOL     OW36892   2.383   3.593   6.232 -0.0348 -0.1387 -0.2539
 8478SOL    HW136893   2.293   3.627   6.227 -0.8442 -1.8761  2.7846
 8478SOL    HW236894   2.379   3.543   6.313  0.8015 -0.2232 -0.2670
 8479SOL     OW36895   1.672   3.323  14.614 -0.3248 -0.3001  0.2913
 8479SOL    HW136896   1.583   3.317  14.648 -0.8123  1.5042 -0.6518
 8479SOL    HW236897   1.725   3.323  14.693 -0.6581 -0.2521  0.5117
 8480SOL     OW36898   2.736   4.678  12.981  0.4327 -0.2288  0.2356
 8480SOL    HW136899   2.787   4.603  13.012  0.7627 -0.1516 -0.1233
 8480SOL    HW236900   2.698   4.640  12.901 -3.3098 -1.6210  2.6950
 8481SOL     OW36901   3.588   1.274   7.092  0.1322 -0.2834 -0.1371
 8481SOL    HW136902   3.654   1.205   7.104  0.8581  0.4456  0.0474
 8481SOL    HW236903   3.636   1.348   7.057  1.1678 -0.6778  0.4344
 8482SOL     OW36904   3.681   1.826   3.320  0.3884  0.5401  0.8849
 8482SOL    HW136905   3.703   1.737   3.292 -0.7758  0.6610 -0.3875
 8482SOL    HW236906   3.586   1.816   3.315  0.4308  0.9053 -0.6495
 8483SOL     OW36907   3.580   0.943   9.526  0.3173  0.0764  0.0277
 8483SOL    HW136908   3.621   0.871   9.574  0.2999 -1.3081 -2.0459
 8483SOL    HW236909   3.586   0.897   9.442  0.8631  1.1878 -0.5386
 8484SOL     OW36910   3.475   4.483   2.915  0.7895 -0.3237 -0.1917
 8484SOL    HW136911   3.418   4.407   2.905  1.0248 -0.6560  1.0137
 8484SOL    HW236912   3.526   4.455   2.991 -0.5316  1.4709  1.3410
 8485SOL     OW36913   0.946   3.123   6.954  0.1436  0.1024  0.7480
 8485SOL    HW136914   0.971   3.067   6.880  2.5522  0.5471  1.2508
 8485SOL    HW236915   0.983   3.073   7.026  1.1870 -0.2097 -0.0131
 8486SOL     OW36916   3.037   2.638   8.758  0.6132 -0.2922  0.2084
 8486SOL    HW136917   2.993   2.569   8.708  0.8216  1.0647 -1.8580
 8486SOL    HW236918   3.047   2.588   8.839 -1.4875  2.8035  2.3883
 8487SOL     OW36919   2.935   1.591   4.011 -0.6731 -0.2694  0.2566
 8487SOL    HW136920   2.905   1.621   4.097  0.0766 -0.3455  0.5497
 8487SOL    HW236921   3.013   1.541   4.037  0.0536 -1.1901 -3.7433
 8488SOL     OW36922   0.108   2.759   7.160  0.5296 -0.3146  0.2527
 8488SOL    HW136923   0.129   2.844   7.199  0.7204  0.5230 -1.6508
 8488SOL    HW236924   0.178   2.709   7.203 -1.4978 -1.9213  1.6472
 8489SOL     OW36925   0.237   3.457   3.796 -0.2618 -0.2927  0.4134
 8489SOL    HW136926   0.205   3.546   3.812  2.5971  1.0573 -1.5953
 8489SOL    HW236927   0.272   3.473   3.709  0.6158 -0.9102  0.6577
 8490SOL     OW36928   0.437   4.208  11.848 -0.2408  0.2648 -0.0445
 8490SOL    HW136929   0.443   4.115  11.868 -3.3763 -0.1395 -0.9921
 8490SOL    HW236930   0.474   4.248  11.926 -0.0081  0.5741 -0.3110
 8491SOL     OW36931   4.181   2.609  15.957 -0.0669  0.3263 -0.1664
 8491SOL    HW136932   4.219   2.640  16.039 -2.9027 -0.3215  1.3862
 8491SOL    HW236933   4.088   2.613  15.981 -0.8111  0.5545 -3.0685
 8492SOL     OW36934   4.583   0.261   6.867 -0.2362 -0.0586 -0.1567
 8492SOL    HW136935   4.549   0.317   6.797  1.9567  1.0366 -0.3544
 8492SOL    HW236936   4.580   0.328   6.936 -1.2476  1.7860 -1.9812
 8493SOL     OW36937   1.695   0.754   5.902  0.4435 -0.5234 -0.2538
 8493SOL    HW136938   1.609   0.714   5.891  0.1095  0.0642  0.1941
 8493SOL    HW236939   1.751   0.678   5.916  0.1483 -1.3897 -3.5784
 8494SOL     OW36940   0.385   1.915   0.464  0.6858 -0.1390 -0.2083
 8494SOL    HW136941   0.458   1.864   0.499 -1.2086 -3.2481 -0.8376
 8494SOL    HW236942   0.424   2.003   0.457 -0.0291  0.1437 -0.6594
 8495SOL     OW36943   2.143   1.255   5.953  0.4643 -0.3306  0.2086
 8495SOL    HW136944   2.169   1.237   5.862 -0.6324  1.7787 -0.5291
 8495SOL    HW236945   2.051   1.276   5.935  0.6002  0.6719  0.6664
 8496SOL     OW36946   3.691   0.825   5.736  0.4184  0.0588  0.1634
 8496SOL    HW136947   3.602   0.859   5.723 -0.2242 -2.1410 -1.1602
 8496SOL    HW236948   3.724   0.828   5.646 -2.1639 -2.3316 -0.8761
 8497SOL     OW36949   3.327   0.143  16.436  0.5987  0.3487  0.7105
 8497SOL    HW136950   3.261   0.142  16.506 -0.3595  0.7624 -0.1909
 8497SOL    HW236951   3.399   0.103  16.486  1.1966 -0.2370 -0.6274
 8498SOL     OW36952   0.312   0.929   8.091 -0.3115 -0.4317 -0.1335
 8498SOL    HW136953   0.386   0.990   8.104  0.1650 -1.1526  0.5712
 8498SOL    HW236954   0.307   0.878   8.172  0.3109  1.1675  0.9282
 8499SOL     OW36955   1.607   0.652  11.760  0.2015  0.6125 -0.0843
 8499SOL    HW136956   1.627   0.579  11.701 -0.3673  0.2372  0.1905
 8499SOL    HW236957   1.549   0.692  11.696  0.4497 -0.5948 -1.0769
 8500SOL     OW36958   2.773   2.101  17.455  0.0694 -0.2273  0.5550
 8500SOL    HW136959   2.723   2.164  17.507  0.0226 -1.4369  1.9948
 8500SOL    HW236960   2.860   2.141  17.461  0.7151 -1.9107  2.5044
 8501SOL     OW36961   2.842   2.232  12.791  0.6494  0.5695 -0.3993
 8501SOL    HW136962   2.769   2.172  12.779  0.6855  0.5831 -0.6773
 8501SOL    HW236963   2.893   2.191  12.721  0.7102  0.0446 -0.0474
 8502SOL     OW36964   2.032   1.598  12.901  0.0844  0.7335 -0.2059
 8502SOL    HW136965   1.997   1.529  12.958 -0.0954  1.5563  0.6729
 8502SOL    HW236966   2.035   1.665  12.969  2.8663  0.8440 -0.4430
 8503SOL     OW36967   0.468   4.108   1.378  0.0678  0.3802 -0.1047
 8503SOL    HW136968   0.550   4.063   1.400  0.2184  1.0398  0.6910
 8503SOL    HW236969   0.452   4.164   1.454 -1.5998 -0.2529  0.0060
 8504SOL     OW36970   4.685   0.637   6.901 -0.9332 -1.0585 -0.3846
 8504SOL    HW136971   4.633   0.584   6.840  0.4940 -2.2276 -0.5869
 8504SOL    HW236972   0.012   0.686   6.835 -2.7379  2.1715  0.6593
 8505SOL     OW36973   0.010   0.469   3.977  0.7937  0.4020  0.6592
 8505SOL    HW136974   4.655   0.423   4.008 -1.1326  2.0345 -1.7777
 8505SOL    HW236975   0.062   0.403   3.931  0.5900 -1.1466  2.6389
 8506SOL     OW36976   1.817   1.855   9.098 -0.5146  0.4670 -0.0820
 8506SOL    HW136977   1.873   1.894   9.165 -0.8243  0.5760  0.1125
 8506SOL    HW236978   1.827   1.762   9.116  2.6022  0.0063 -4.2165
 8507SOL     OW36979   2.371   4.487  11.402  0.2133 -0.2042 -0.3509
 8507SOL    HW136980   2.279   4.489  11.429  0.2527  1.4443 -0.3694
 8507SOL    HW236981   2.353   4.461  11.311 -0.2196  0.4876 -0.4680
 8508SOL     OW36982   4.512   4.570   7.456 -0.7081 -0.0175  0.0181
 8508SOL    HW136983   4.478   4.660   7.457  2.6582  1.2826 -0.5408
 8508SOL    HW236984   4.447   4.528   7.512  0.5888  0.8058  2.1190
 8509SOL     OW36985   3.994   3.171   8.308  0.6469 -0.7457  0.6162
 8509SOL    HW136986   3.985   3.158   8.214  1.5072 -0.5224  0.5012
 8509SOL    HW236987   3.904   3.201   8.320 -0.7437 -3.8524 -1.8836
 8510SOL     OW36988   3.410   3.157   3.563 -0.4928 -0.0294  0.0094
 8510SOL    HW136989   3.343   3.166   3.631  0.1590 -0.0634  0.6575
 8510SOL    HW236990   3.441   3.068   3.581 -3.6108 -0.9072  0.9932
 8511SOL     OW36991   0.596   4.355   5.781  0.2650  0.0671  0.7720
 8511SOL    HW136992   0.586   4.442   5.742  2.4956  0.5505  1.2815
 8511SOL    HW236993   0.644   4.387   5.857 -0.7435  0.3474  1.2860
 8512SOL     OW36994   4.451   0.143  14.965  0.0883  0.1014 -0.0328
 8512SOL    HW136995   4.486   0.203  14.899 -0.9660  1.2054  0.4052
 8512SOL    HW236996   4.520   0.077  14.971 -0.8855 -1.0252 -1.1866
 8513SOL     OW36997   4.403   4.623  12.539 -0.0412  0.6194  0.2285
 8513SOL    HW136998   4.466   4.631  12.467  1.0163 -3.1273  0.7704
 8513SOL    HW236999   4.367   4.712  12.549  0.2436  0.7464  0.1231
 8514SOL     OW37000   1.239   1.197   5.640  0.2133 -0.1041  0.6360
 8514SOL    HW137001   1.157   1.169   5.600  1.6159 -0.4862 -1.9228
 8514SOL    HW237002   1.296   1.158   5.574  0.3560  0.6713  0.2937
 8515SOL     OW37003   4.345   2.039   3.457 -0.0095 -0.1597  0.1323
 8515SOL    HW137004   4.394   1.972   3.505  0.8833 -2.1429 -3.5095
 8515SOL    HW237005   4.258   2.017   3.491 -1.1274 -0.4357 -2.9002
 8516SOL     OW37006   4.349   1.928  10.432  0.0910  0.3827 -0.0273
 8516SOL    HW137007   4.411   1.856  10.446 -1.0232 -0.2179  1.8955
 8516SOL    HW237008   4.277   1.892  10.485  1.1103  1.3362  2.0196
 8517SOL     OW37009   1.709   2.229   5.794 -0.1612 -0.4684 -0.0994
 8517SOL    HW137010   1.693   2.142   5.756  1.0136 -1.9558  2.7739
 8517SOL    HW237011   1.739   2.287   5.724 -0.2527  0.4517  0.6231
 8518SOL     OW37012   0.880   3.506   1.399 -0.0451 -0.3776 -0.1674
 8518SOL    HW137013   0.857   3.532   1.310 -2.9011  0.2470  0.7492
 8518SOL    HW237014   0.953   3.445   1.384  0.6426  0.3584  0.1921
 8519SOL     OW37015   3.380   4.329  13.383  0.3729 -0.9963 -0.2945
 8519SOL    HW137016   3.312   4.320  13.449  1.4586 -0.7908  0.8684
 8519SOL    HW237017   3.369   4.419  13.353  2.0717 -0.6153  0.1903
 8520SOL     OW37018   0.820   3.417   4.665  0.4581  0.7339  0.4370
 8520SOL    HW137019   0.891   3.482   4.666  0.0978  1.1365 -0.0620
 8520SOL    HW237020   0.748   3.468   4.628  0.4709 -1.6285 -2.8540
 8521SOL     OW37021   1.742   0.713   3.742  0.3792 -0.5929  0.3097
 8521SOL    HW137022   1.684   0.638   3.760 -0.6948 -0.3191 -2.0287
 8521SOL    HW237023   1.739   0.715   3.646  1.4713 -1.9608  0.2554
 8522SOL     OW37024   0.719   4.204   2.156  0.1237  0.0469 -0.1162
 8522SOL    HW137025   0.632   4.211   2.116  0.4149  2.9964 -0.2688
 8522SOL    HW237026   0.735   4.112   2.135  3.2429  0.9312 -1.6328
 8523SOL     OW37027   3.757   0.518  17.346  0.0416  0.1525  0.1883
 8523SOL    HW137028   3.667   0.489  17.357 -0.2594 -0.0095 -2.7955
 8523SOL    HW237029   3.744   0.586  17.281  3.3011  0.1828 -0.4615
 8524SOL     OW37030   1.668   3.866  13.568  0.3972  0.0116 -0.2934
 8524SOL    HW137031   1.702   3.803  13.506 -0.9840 -1.1531  0.1583
 8524SOL    HW237032   1.718   3.945  13.545 -0.1440  0.1445 -0.9918
 8525SOL     OW37033   3.938   2.745   4.220 -0.6154 -0.7427  0.2110
 8525SOL    HW137034   3.940   2.651   4.200 -0.3121 -0.6490 -0.2004
 8525SOL    HW237035   3.939   2.730   4.315 -1.1781 -0.0391  0.3256
 8526SOL     OW37036   1.678   4.471   4.066 -0.3046  0.3699 -0.1990
 8526SOL    HW137037   1.661   4.556   4.106  0.3033 -0.1770  1.2128
 8526SOL    HW237038   1.764   4.482   4.024  0.6996  0.1588  1.7794
 8527SOL     OW37039   0.947   2.961   2.560  0.4968  0.2155  0.1794
 8527SOL    HW137040   0.975   2.965   2.468  1.4249  2.5881  0.5584
 8527SOL    HW237041   1.030   2.969   2.606  0.3549 -1.6318  0.7402
 8528SOL     OW37042   0.612   0.716  10.702  0.0945 -0.3817 -0.0447
 8528SOL    HW137043   0.692   0.701  10.652 -0.6104 -1.4507 -0.8598
 8528SOL    HW237044   0.644   0.773  10.772  0.1525  0.4535 -0.7540
 8529SOL     OW37045   1.407   2.590   4.362  0.1867  0.1768 -0.4655
 8529SOL    HW137046   1.400   2.618   4.270 -1.3887  1.5051  0.0540
 8529SOL    HW237047   1.349   2.661   4.389  0.6759  0.5111 -0.2898
 8530SOL     OW37048   4.142   0.693   4.920 -0.4809 -0.5241 -0.3666
 8530SOL    HW137049   4.184   0.734   4.844  3.1847  2.2525  3.1725
 8530SOL    HW237050   4.092   0.619   4.886 -0.9279  0.1863 -1.2663
 8531SOL     OW37051   2.727   2.583  11.870 -0.2535  0.8011 -0.1426
 8531SOL    HW137052   2.673   2.618  11.942  0.9709 -0.4440  1.3806
 8531SOL    HW237053   2.685   2.498  11.857  0.4251  0.5425 -0.6268
 8532SOL     OW37054   0.762   4.206   9.363 -0.9042  0.0842  0.1668
 8532SOL    HW137055   0.816   4.284   9.351 -0.5763 -0.3184 -0.9932
 8532SOL    HW237056   0.836   4.145   9.372  1.1218  2.6930  1.0153
 8533SOL     OW37057   1.157   1.120   0.279  0.0831  0.7710 -0.0255
 8533SOL    HW137058   1.170   1.026   0.292  0.4772  0.7594 -0.4514
 8533SOL    HW237059   1.109   1.144   0.358 -0.1094  0.5859 -0.0860
 8534SOL     OW37060   0.621   4.648   4.712 -0.3415  0.2376 -0.2186
 8534SOL    HW137061   0.544   4.626   4.764 -0.7390  3.8007  0.7206
 8534SOL    HW237062   0.694   4.606   4.757 -1.5074  1.5212  2.8471
 8535SOL     OW37063   3.778   4.187   3.123 -0.4194 -0.0984  0.1070
 8535SOL    HW137064   3.792   4.207   3.030 -0.2815 -0.3317  0.0776
 8535SOL    HW237065   3.782   4.092   3.112  0.9609  0.1585 -1.6225
 8536SOL     OW37066   0.143   2.744  14.132  0.1881 -0.2782  0.1662
 8536SOL    HW137067   0.078   2.811  14.111 -1.1118 -2.0594 -1.4024
 8536SOL    HW237068   0.137   2.765  14.225  0.8345 -1.7124  0.5353
 8537SOL     OW37069   4.138   0.613   7.177 -0.5549  0.0442 -0.1212
 8537SOL    HW137070   4.132   0.702   7.213  0.9647 -0.4564  1.4059
 8537SOL    HW237071   4.232   0.611   7.157 -0.1504  1.1265  1.6513
 8538SOL     OW37072   2.694   4.469  17.543 -0.1093 -0.7277 -0.5366
 8538SOL    HW137073   2.712   4.484  17.450 -2.0048  1.5964 -0.5186
 8538SOL    HW237074   2.603   4.442  17.544  0.2198 -1.8381 -1.3624
 8539SOL     OW37075   0.422   1.261   7.511  0.1610 -0.2810 -0.5113
 8539SOL    HW137076   0.344   1.292   7.464  0.6277  2.0454  0.2496
 8539SOL    HW237077   0.378   1.190   7.557  2.0371 -1.1610 -0.0870
 8540SOL     OW37078   2.305   1.423   6.366  0.3531  0.2266 -0.1809
 8540SOL    HW137079   2.354   1.407   6.286  0.1116  2.0073 -0.6774
 8540SOL    HW237080   2.243   1.490   6.336  0.3964  0.0163 -0.7369
 8541SOL     OW37081   2.745   2.001   5.459  0.0266  0.0847  0.0680
 8541SOL    HW137082   2.799   1.994   5.537  0.9238  0.0726 -0.5553
 8541SOL    HW237083   2.664   2.017   5.507  0.0641 -1.8746  0.7811
 8542SOL     OW37084   2.395   4.036   8.577  0.3093  0.3445  0.2409
 8542SOL    HW137085   2.337   4.034   8.653  0.6307  0.5399  0.4943
 8542SOL    HW237086   2.382   4.124   8.541 -1.8039 -0.9995 -2.2630
 8543SOL     OW37087   0.921   1.631   7.435  0.6437  0.9691 -0.1435
 8543SOL    HW137088   0.920   1.549   7.483  1.6093  1.5670  0.9054
 8543SOL    HW237089   0.950   1.616   7.345 -0.5990 -3.2592  0.1894
 8544SOL     OW37090   1.024   2.036   2.652 -0.3358 -0.6583  0.1754
 8544SOL    HW137091   1.006   2.045   2.746 -1.4030 -2.4516  0.1462
 8544SOL    HW237092   1.086   1.965   2.671  1.4908  1.0710  0.6320
 8545SOL     OW37093   0.380   0.273   1.573  0.4390 -0.0713  0.5658
 8545SOL    HW137094   0.384   0.364   1.543  1.2742 -0.4780 -0.5475
 8545SOL    HW237095   0.370   0.219   1.494  3.8424 -0.7814  0.6204
 8546SOL     OW37096   0.955   0.743   9.545 -0.3065  0.7087 -0.2465
 8546SOL    HW137097   0.974   0.651   9.531  1.6473  0.8326  1.6473
 8546SOL    HW237098   1.016   0.779   9.481  1.0812  0.8929  1.1729
 8547SOL     OW37099   4.598   3.084   8.324 -0.1044 -0.4529 -0.2779
 8547SOL    HW137100   4.586   3.008   8.380 -3.1324 -0.7753 -1.3623
 8547SOL    HW237101   4.657   3.038   8.264 -0.8975  1.6899 -2.7046
 8548SOL     OW37102   4.381   2.276   4.572 -0.3338  0.1219 -0.1413
 8548SOL    HW137103   4.434   2.211   4.525 -1.0400  0.0348 -0.8225
 8548SOL    HW237104   4.291   2.243   4.570  0.0789 -1.0381  0.4596
 8549SOL     OW37105   1.261   3.369   2.317 -0.2367  0.2577  0.7696
 8549SOL    HW137106   1.310   3.298   2.358  0.9219  0.6410  0.0439
 8549SOL    HW237107   1.225   3.320   2.244  2.4144 -0.5062 -0.0173
 8550SOL     OW37108   0.131   0.444   1.988 -0.1059 -0.0585 -0.0116
 8550SOL    HW137109   0.138   0.400   2.073  0.0275 -0.1766 -0.0831
 8550SOL    HW237110   0.217   0.442   1.945  0.4293 -0.1428  1.0788
 8551SOL     OW37111   1.645   2.216   6.403 -0.4777  0.1732 -0.0040
 8551SOL    HW137112   1.565   2.263   6.382 -0.7691  0.7888  2.4028
 8551SOL    HW237113   1.605   2.142   6.448  1.7609 -0.6762  0.5921
 8552SOL     OW37114   4.674   2.966   5.033  0.2089  0.3907 -0.2594
 8552SOL    HW137115   0.009   3.034   4.996  0.4709  0.1523 -0.2861
 8552SOL    HW237116   4.675   2.929   4.945 -2.0504 -2.5004  0.9653
 8553SOL     OW37117   1.053   2.325   9.992 -0.5171 -0.2919  0.2833
 8553SOL    HW137118   1.115   2.379   9.944 -1.1376  0.5735  0.4619
 8553SOL    HW237119   0.973   2.326   9.939 -0.2889 -0.2907 -0.0591
 8554SOL     OW37120   2.580   1.431   0.988  0.1046 -0.4453 -0.6182
 8554SOL    HW137121   2.648   1.365   1.001 -0.8984 -1.4665 -0.5746
 8554SOL    HW237122   2.602   1.500   1.051 -1.5329  0.7790 -1.3652
 8555SOL     OW37123   4.672   3.884   8.633  0.0558  0.2199  0.2373
 8555SOL    HW137124   4.672   3.821   8.561 -2.7113  0.2733  0.1812
 8555SOL    HW237125   4.585   3.921   8.620 -0.1758 -0.6105 -0.5263
 8556SOL     OW37126   0.572   3.776  15.760  0.2324  0.1595  1.0496
 8556SOL    HW137127   0.532   3.693  15.786 -0.8032 -0.3082 -2.1030
 8556SOL    HW237128   0.558   3.777  15.665  0.0045 -0.6496  1.0756
 8557SOL     OW37129   1.168   4.356   8.668 -0.2346 -0.4518  0.1628
 8557SOL    HW137130   1.202   4.429   8.720 -3.1132 -0.2219  1.7262
 8557SOL    HW237131   1.167   4.399   8.583 -1.3906 -1.3264 -0.2777
 8558SOL     OW37132   2.269   3.621  14.668  0.0338 -0.1881 -0.1691
 8558SOL    HW137133   2.187   3.578  14.693  0.0695 -0.1792 -0.0401
 8558SOL    HW237134   2.297   3.656  14.752  1.6198 -1.8777  0.0175
 8559SOL     OW37135   3.971   4.042   5.237 -0.3412  0.3861 -0.1668
 8559SOL    HW137136   3.910   3.969   5.234  0.4708 -0.2654 -0.5777
 8559SOL    HW237137   3.961   4.069   5.329 -3.5181 -0.0059 -0.3682
 8560SOL     OW37138   0.245   3.458   6.116  0.4498  0.1660  0.1837
 8560SOL    HW137139   0.272   3.377   6.073  0.9437 -0.5749  1.9195
 8560SOL    HW237140   0.160   3.440   6.156  1.4220 -0.0026  2.1778
 8561SOL     OW37141   3.651   1.662   2.194  0.2970 -0.0071 -0.1010
 8561SOL    HW137142   3.608   1.577   2.190 -1.6514  1.0023 -0.7482
 8561SOL    HW237143   3.643   1.679   2.288 -1.2560  2.1534 -0.6141
 8562SOL     OW37144   1.526   1.749   3.937 -0.1694  0.9083 -1.1133
 8562SOL    HW137145   1.534   1.824   3.996  1.4679 -0.1615  0.0142
 8562SOL    HW237146   1.487   1.691   4.002  0.5884  0.4345 -1.0786
 8563SOL     OW37147   1.396   4.253  12.238 -0.2347 -0.1756  0.0333
 8563SOL    HW137148   1.447   4.242  12.318  0.6689 -0.9567 -0.6509
 8563SOL    HW237149   1.332   4.187  12.265 -0.4753  0.1019  0.1407
 8564SOL     OW37150   1.630   3.036  16.387 -0.5175 -1.0215 -0.0472
 8564SOL    HW137151   1.553   3.077  16.427 -0.9878 -1.4115 -0.5661
 8564SOL    HW237152   1.623   3.068  16.297  3.7668  1.0615  0.3689
 8565SOL     OW37153   0.835   0.987   7.238 -0.7782  0.3958  0.0409
 8565SOL    HW137154   0.851   0.953   7.326  2.0195 -0.4612 -0.7781
 8565SOL    HW237155   0.760   1.045   7.250  0.7991  2.3691  0.3599
 8566SOL     OW37156   2.010   4.020  13.136  0.1872  0.7223  0.3182
 8566SOL    HW137157   2.031   3.983  13.222 -0.6043  1.0720  0.6665
 8566SOL    HW237158   2.012   3.946  13.075 -1.5051 -0.5534  1.7742
 8567SOL     OW37159   1.137   2.345  14.959  0.5522 -0.7981  0.2155
 8567SOL    HW137160   1.064   2.356  14.897  0.2799 -0.5462  0.5787
 8567SOL    HW237161   1.212   2.369  14.905  1.9011 -3.8704  0.7696
 8568SOL     OW37162   3.734   1.721  14.390  0.5905  0.2989  0.2503
 8568SOL    HW137163   3.661   1.763  14.435 -1.0315 -0.5867 -1.5398
 8568SOL    HW237164   3.765   1.792  14.333 -0.0088  0.6049  0.3084
 8569SOL     OW37165   1.664   3.174   3.891  0.6439  0.1004  0.0167
 8569SOL    HW137166   1.706   3.248   3.848 -0.9008  0.2960 -1.1640
 8569SOL    HW237167   1.623   3.220   3.964  1.3083  0.4230  0.1897
 8570SOL     OW37168   0.518   2.117   7.211  0.1631 -0.3814  0.0895
 8570SOL    HW137169   0.455   2.118   7.139 -0.1609 -1.7136  0.3481
 8570SOL    HW237170   0.554   2.204   7.196 -2.0871  1.0642  2.9962
 8571SOL     OW37171   3.603   1.380   7.669  0.2416  0.1708 -0.2713
 8571SOL    HW137172   3.576   1.472   7.675 -0.6141 -0.1494  0.8121
 8571SOL    HW237173   3.521   1.346   7.705  1.2348 -1.2423  0.6399
 8572SOL     OW37174   2.971   0.955  10.061  0.1880 -0.0843 -0.8350
 8572SOL    HW137175   3.032   1.024  10.037  1.2306 -0.4491  0.7884
 8572SOL    HW237176   2.883   0.991  10.047  0.8521  0.8768 -2.5958
 8573SOL     OW37177   3.458   0.715  11.943  0.0756 -0.2136  0.1554
 8573SOL    HW137178   3.553   0.712  11.943  0.0645 -0.5273 -0.5292
 8573SOL    HW237179   3.433   0.650  12.009  2.6991  0.3531  1.7111
 8574SOL     OW37180   2.297   1.354   9.442 -0.2629 -0.0337  0.2687
 8574SOL    HW137181   2.263   1.441   9.418  1.1859  0.3112 -0.5428
 8574SOL    HW237182   2.223   1.317   9.490 -0.2127 -0.9246 -0.3480
 8575SOL     OW37183   4.574   0.019  11.541 -0.2541  0.0399 -0.4074
 8575SOL    HW137184   4.564   0.043  11.449  0.4297  1.5413 -0.0973
 8575SOL    HW237185   4.503   4.678  11.546 -0.4863  0.4505  1.3813
 8576SOL     OW37186   2.087   3.518   9.299  0.1281  0.1869 -0.5806
 8576SOL    HW137187   2.009   3.573   9.307 -0.6746 -1.4643  2.9085
 8576SOL    HW237188   2.090   3.464   9.378 -1.8764  1.8070  0.6093
 8577SOL     OW37189   4.612   2.563   5.061 -0.0539  0.2243  0.0607
 8577SOL    HW137190   4.667   2.494   5.024 -1.4544 -1.1689  0.5722
 8577SOL    HW237191   4.675   2.606   5.119  0.9849 -0.3696 -0.6297
 8578SOL     OW37192   4.319   1.178  11.715  0.6868  0.1058 -0.3064
 8578SOL    HW137193   4.367   1.097  11.728 -3.6196 -2.1400  1.5854
 8578SOL    HW237194   4.379   1.240  11.756 -0.3753  0.5643  0.5640
 8579SOL     OW37195   2.545   0.576   3.554  0.2485 -0.4261 -0.4269
 8579SOL    HW137196   2.558   0.538   3.468  0.8553 -0.5237 -0.2891
 8579SOL    HW237197   2.602   0.652   3.545  1.4026 -1.3643 -1.0283
 8580SOL     OW37198   1.230   1.016   2.555 -0.2003  0.0535 -0.5803
 8580SOL    HW137199   1.141   1.012   2.519 -0.7319 -0.2281  0.7559
 8580SOL    HW237200   1.232   0.951   2.626 -2.3955  0.5676 -0.0482
 8581SOL     OW37201   0.071   4.129   0.587  0.1444 -0.2771 -0.0438
 8581SOL    HW137202   0.114   4.187   0.650 -0.9572 -0.0805  0.5276
 8581SOL    HW237203   0.020   4.195   0.540  0.6743  0.2876  0.1761
 8582SOL     OW37204   2.536   2.078   4.655 -0.2486 -0.1190 -0.2599
 8582SOL    HW137205   2.583   2.160   4.667  2.2717 -1.1986 -2.8888
 8582SOL    HW237206   2.559   2.062   4.563  1.5953 -2.6605  0.6395
 8583SOL     OW37207   0.770   0.491   4.427 -0.1844  0.4233  0.0363
 8583SOL    HW137208   0.856   0.478   4.466 -0.2037  0.2285  0.0144
 8583SOL    HW237209   0.793   0.539   4.347  2.5325 -0.4151  0.3324
 8584SOL     OW37210   1.091   3.069  11.168  0.4850 -0.6452 -0.0590
 8584SOL    HW137211   1.119   2.993  11.117  0.1165 -0.0057 -1.2084
 8584SOL    HW237212   1.167   3.128  11.163 -0.2014  0.2411 -0.0618
 8585SOL     OW37213   1.352   1.040   3.968  0.6459 -0.0697 -0.1553
 8585SOL    HW137214   1.304   0.957   3.972  1.0983 -0.4892 -3.1770
 8585SOL    HW237215   1.441   1.004   3.964  1.0956  0.8574  1.6738
 8586SOL     OW37216   0.528   2.170   6.527  0.5571 -0.5852  0.3471
 8586SOL    HW137217   0.617   2.203   6.520  0.4385 -0.1366  0.9712
 8586SOL    HW237218   0.507   2.199   6.616  1.2339  1.2934 -0.1212
 8587SOL     OW37219   3.789   0.206   6.674 -0.0183  0.4127 -0.2725
 8587SOL    HW137220   3.818   0.174   6.759  0.3258  1.7181  0.1011
 8587SOL    HW237221   3.786   0.129   6.618  1.6455  0.5228 -0.5096
 8588SOL     OW37222   0.113   1.550   0.294 -0.2839 -0.3044  0.5015
 8588SOL    HW137223   0.146   1.608   0.362 -1.9148  1.0150  0.1746
 8588SOL    HW237224   0.029   1.534   0.337 -1.7056  3.7105 -0.8189
 8589SOL     OW37225   3.531   3.167   4.756  0.1193 -0.1346  0.0945
 8589SOL    HW137226   3.614   3.125   4.776  0.8843  2.1089  1.5799
 8589SOL    HW237227   3.476   3.101   4.715  0.6367  0.1324 -1.0153
 8590SOL     OW37228   3.408   4.086   8.943 -0.5518  0.0622  0.6352
 8590SOL    HW137229   3.459   4.068   9.022 -2.5108  0.7823  2.0396
 8590SOL    HW237230   3.467   4.155   8.911  0.8109 -2.2067 -1.7279
 8591SOL     OW37231   2.654   1.555  17.514  0.5787  0.4300 -0.2381
 8591SOL    HW137232   2.658   1.506  17.596  0.6601  1.1572  0.1881
 8591SOL    HW237233   2.714   1.625  17.538  0.5424  1.2763 -2.6423
 8592SOL     OW37234   2.763   0.160   3.966  0.3753  0.1031 -0.6138
 8592SOL    HW137235   2.709   0.219   3.913  0.3821  1.1783  0.5794
 8592SOL    HW237236   2.715   0.077   3.961  2.0057 -0.7458 -1.8761
 8593SOL     OW37237   4.603   2.536   8.931  0.2759 -0.5424 -0.5539
 8593SOL    HW137238   4.587   2.566   9.021 -2.2095 -1.5188 -0.6876
 8593SOL    HW237239   4.698   2.519   8.930  0.2988 -0.2741 -2.1565
 8594SOL     OW37240   0.648   1.531   4.980  0.3669 -0.1787 -0.3264
 8594SOL    HW137241   0.728   1.565   4.941  0.0471  0.1160 -0.7198
 8594SOL    HW237242   0.674   1.453   5.030 -0.1250 -0.1701 -0.0488
 8595SOL     OW37243   1.158   1.215   7.773  0.4418 -0.0304 -0.0250
 8595SOL    HW137244   1.157   1.149   7.843  1.6647 -0.2975 -0.2583
 8595SOL    HW237245   1.196   1.286   7.824 -1.4369  0.4778  0.6767
 8596SOL     OW37246   4.382   4.635  17.257  0.4365 -0.1386 -0.0554
 8596SOL    HW137247   4.436   4.556  17.247 -0.2530 -0.3781 -1.8297
 8596SOL    HW237248   4.350   4.641  17.167 -1.6209 -1.6227  0.5702
 8597SOL     OW37249   2.941   4.075   1.979 -0.1758  0.1120 -0.1702
 8597SOL    HW137250   2.895   4.006   2.026  0.8994  0.5096  1.4922
 8597SOL    HW237251   3.027   4.064   2.021 -0.9064  0.6114  1.4239
 8598SOL     OW37252   2.843   3.263   7.650  0.8394  0.1249 -0.2322
 8598SOL    HW137253   2.824   3.304   7.565 -0.2119 -0.1259 -0.1267
 8598SOL    HW237254   2.881   3.340   7.693  0.0164  0.4264 -0.0363
 8599SOL     OW37255   0.914   4.000   4.443 -0.8097  0.0619  0.0408
 8599SOL    HW137256   0.864   4.079   4.461 -0.2891  0.2907  0.4627
 8599SOL    HW237257   0.958   4.019   4.360 -0.3680 -2.6946 -0.3700
 8600SOL     OW37258   2.390   0.917   6.906 -0.0568 -0.1635  0.0062
 8600SOL    HW137259   2.394   0.994   6.850  2.3607  0.5741  1.2167
 8600SOL    HW237260   2.446   0.951   6.975  2.7599 -0.1791 -2.2735
 8601SOL     OW37261   2.141   3.666   6.027 -0.4207 -0.5185 -0.1213
 8601SOL    HW137262   2.062   3.613   6.016 -1.5428  0.4224  3.3981
 8601SOL    HW237263   2.148   3.697   5.937  2.3922 -0.8413 -0.0118
 8602SOL     OW37264   4.284   3.787   2.674 -0.2607 -0.1114  0.0123
 8602SOL    HW137265   4.220   3.730   2.718  1.2041 -0.4878  1.6099
 8602SOL    HW237266   4.260   3.757   2.586 -2.3165  0.0505  0.5118
 8603SOL     OW37267   2.399   0.930   8.062  0.1912  0.9268  0.2241
 8603SOL    HW137268   2.449   0.954   7.984 -1.8280  2.2760 -0.6339
 8603SOL    HW237269   2.414   1.010   8.112 -0.1921  0.6219  0.8226
 8604SOL     OW37270   1.702   3.614   3.045  0.4905  0.1265  0.2139
 8604SOL    HW137271   1.785   3.583   3.082  0.1799 -0.3972  0.4582
 8604SOL    HW237272   1.641   3.557   3.090  1.1369  0.1640  1.1404
 8605SOL     OW37273   4.508   4.227  13.873 -0.2397 -0.2386 -0.5585
 8605SOL    HW137274   4.428   4.220  13.820  0.0489 -1.5999 -0.8271
 8605SOL    HW237275   4.561   4.300  13.843 -1.8664  0.1821 -2.3952
 8606SOL     OW37276   2.484   3.990   7.593  0.1445 -0.0453  0.1642
 8606SOL    HW137277   2.493   3.985   7.688 -1.2021  2.1995  0.3999
 8606SOL    HW237278   2.405   4.044   7.590  0.0176 -0.2406 -0.0525
 8607SOL     OW37279   2.353   2.689  12.444 -0.5097 -0.2199  0.2538
 8607SOL    HW137280   2.390   2.777  12.450  0.6233 -0.6183 -0.9238
 8607SOL    HW237281   2.334   2.651  12.530 -2.9785  0.6562  0.0791
 8608SOL     OW37282   1.419   3.249  15.926  0.1434  0.4135  0.0483
 8608SOL    HW137283   1.396   3.340  15.905 -1.2308 -0.0785 -0.5681
 8608SOL    HW237284   1.340   3.222  15.972  1.0157 -1.6986  0.2871
 8609SOL     OW37285   4.203   3.828   3.375  0.7000  0.0839 -0.0501
 8609SOL    HW137286   4.234   3.769   3.444  1.1774 -1.3708 -1.4903
 8609SOL    HW237287   4.166   3.762   3.316  1.4083 -0.2839 -0.0935
 8610SOL     OW37288   1.333   3.937   8.964  0.5025 -0.2889  0.4596
 8610SOL    HW137289   1.423   3.958   8.942 -0.0460  2.1680  0.6173
 8610SOL    HW237290   1.299   3.885   8.891 -0.9055  0.0227  0.8774
 8611SOL     OW37291   4.628   0.107   5.299 -0.1018  0.3249  0.6259
 8611SOL    HW137292   4.578   0.149   5.229  1.7715  0.9029 -0.3572
 8611SOL    HW237293   4.559   0.104   5.365  0.1925  0.9586  0.9633
 8612SOL     OW37294   3.674   1.242  16.047 -0.2408 -0.5713 -0.4179
 8612SOL    HW137295   3.627   1.159  16.035  1.7928 -1.3787 -2.6709
 8612SOL    HW237296   3.765   1.215  16.034  0.3590  1.4534 -0.2970
 8613SOL     OW37297   2.974   1.071   5.753  0.2233  0.4744  0.5685
 8613SOL    HW137298   3.031   1.001   5.786  1.4365  0.4370 -1.5621
 8613SOL    HW237299   2.900   1.061   5.813  1.0068 -0.3834  1.4013
 8614SOL     OW37300   0.516   1.065  11.293  0.6935 -0.3413 -0.1128
 8614SOL    HW137301   0.586   1.130  11.286 -1.5601  1.9067 -2.2047
 8614SOL    HW237302   0.548   1.003  11.228  3.0477 -1.0359  1.7157
 8615SOL     OW37303   1.894   1.958   2.889 -0.4590  0.0039  0.7052
 8615SOL    HW137304   1.979   1.941   2.931  0.1450  0.2930 -0.4165
 8615SOL    HW237305   1.856   2.033   2.934 -2.9015  0.7116 -2.5166
 8616SOL     OW37306   0.687   3.310   1.843 -0.1653 -0.1659  1.1510
 8616SOL    HW137307   0.687   3.245   1.913 -1.9042 -0.0607  1.2353
 8616SOL    HW237308   0.634   3.272   1.773  0.0022  2.3777 -0.3688
 8617SOL     OW37309   0.108   4.233   1.695 -0.1606 -0.2208 -0.0672
 8617SOL    HW137310   0.136   4.214   1.606 -2.9591  0.6585 -1.1344
 8617SOL    HW237311   0.026   4.184   1.700  0.3339 -1.0202  0.3379
 8618SOL     OW37312   1.293   3.405   2.835 -0.1574  0.1738 -0.4597
 8618SOL    HW137313   1.220   3.448   2.880  0.1005  0.6899 -0.5296
 8618SOL    HW237314   1.253   3.319   2.822  0.1601 -0.1699  0.8704
 8619SOL     OW37315   1.159   1.802  11.467  0.0332  0.1898  0.0451
 8619SOL    HW137316   1.162   1.778  11.559 -0.0888 -0.8153 -0.2111
 8619SOL    HW237317   1.254   1.808  11.455  0.2695 -1.0585  1.3236
 8620SOL     OW37318   3.009   0.222   5.460 -0.1414  0.0178  0.4561
 8620SOL    HW137319   2.918   0.248   5.475 -0.4001 -0.5821 -0.0645
 8620SOL    HW237320   2.988   0.161   5.389  2.8047  0.6762 -0.9740
 8621SOL     OW37321   2.882   1.202   0.272 -0.0205  0.0591 -0.3594
 8621SOL    HW137322   2.870   1.107   0.272 -2.9996  0.4404 -0.6045
 8621SOL    HW237323   2.811   1.236   0.327 -0.9055 -2.1104 -0.1399
 8622SOL     OW37324   1.341   1.737   1.943  0.0342 -0.5910  0.5696
 8622SOL    HW137325   1.343   1.782   2.027  0.5273  1.5878 -0.6144
 8622SOL    HW237326   1.258   1.691   1.955 -1.4629  1.7897 -0.6504
 8623SOL     OW37327   2.845   1.016   7.531 -0.2680 -0.9123 -0.4086
 8623SOL    HW137328   2.844   1.030   7.436 -1.8776 -1.9835 -0.5402
 8623SOL    HW237329   2.776   1.073   7.562  0.3292 -0.3488 -0.1104
 8624SOL     OW37330   3.236   2.122   5.379 -0.3797  0.1605 -0.4749
 8624SOL    HW137331   3.266   2.082   5.461 -1.4564  2.1169  0.8745
 8624SOL    HW237332   3.212   2.205   5.421  1.9205  0.6555 -0.1400
 8625SOL     OW37333   1.081   2.202   0.008 -0.2139  0.3335  0.2032
 8625SOL    HW137334   1.094   2.117   0.049  1.5368  0.0694 -0.9105
 8625SOL    HW237335   1.167   2.244   0.009 -0.1406  0.1797  0.2819
 8626SOL     OW37336   1.003   0.888   1.652  0.5648 -0.1595  0.3508
 8626SOL    HW137337   1.080   0.886   1.709 -0.0308 -2.2554  1.0618
 8626SOL    HW237338   0.971   0.977   1.668 -0.8572 -0.7168  0.5412
 8627SOL     OW37339   2.925   2.828  11.901  0.1079  0.3213  0.5656
 8627SOL    HW137340   2.931   2.736  11.874  3.9175  0.8906 -0.6103
 8627SOL    HW237341   2.896   2.831  11.991  0.3127  0.6651  0.6213
 8628SOL     OW37342   4.504   1.044   4.741 -0.1536  0.3605 -0.1426
 8628SOL    HW137343   4.458   1.008   4.666 -3.1727  0.3937  1.6948
 8628SOL    HW237344   4.531   1.132   4.716 -0.4778  0.1977 -1.0499
 8629SOL     OW37345   1.975   1.947   0.913 -0.0336  0.3595 -0.3534
 8629SOL    HW137346   2.021   1.873   0.875  0.4838  0.7245 -0.4282
 8629SOL    HW237347   2.049   1.986   0.960  1.1402 -2.2130 -0.1133
 8630SOL     OW37348   3.788   3.738   8.019  0.3922 -0.7074 -0.0552
 8630SOL    HW137349   3.874   3.698   8.034  0.2370 -1.5707 -1.5444
 8630SOL    HW237350   3.770   3.790   8.097  0.9713  0.2775 -0.5806
 8631SOL     OW37351   4.331   2.644   8.574 -0.2108  0.2833 -0.1495
 8631SOL    HW137352   4.292   2.731   8.576  0.0266  0.3725  0.5662
 8631SOL    HW237353   4.251   2.592   8.572 -0.3062  0.3888  1.0322
 8632SOL     OW37354   4.309   2.465   8.852 -0.5516 -0.5973 -0.3159
 8632SOL    HW137355   4.237   2.402   8.857  0.1856 -1.2912  1.4185
 8632SOL    HW237356   4.276   2.524   8.920 -0.9732 -0.5682 -0.5389
 8633SOL     OW37357   1.275   0.393   0.977 -0.6316  0.5668  0.5722
 8633SOL    HW137358   1.274   0.451   0.901 -0.4926  1.6803  1.4370
 8633SOL    HW237359   1.259   0.463   1.040 -1.2322 -0.2820  1.3682
 8634SOL     OW37360   1.216   4.607   1.823 -0.5098 -0.4716 -0.1343
 8634SOL    HW137361   1.155   4.545   1.863  0.6269 -1.1822  0.4859
 8634SOL    HW237362   1.154   4.650   1.764  0.4769 -0.8192 -1.4179
 8635SOL     OW37363   4.357   2.532  16.909  0.2426  0.0248 -0.1591
 8635SOL    HW137364   4.369   2.589  16.985  1.2075 -0.3385 -0.0432
 8635SOL    HW237365   4.411   2.461  16.945 -0.2362 -0.7005 -0.8729
 8636SOL     OW37366   1.834   2.220   4.101 -0.0064  0.0661  0.5753
 8636SOL    HW137367   1.907   2.261   4.054 -0.7973 -0.3958 -1.0528
 8636SOL    HW237368   1.758   2.257   4.057 -0.0298  0.3029  0.8129
 8637SOL     OW37369   2.883   4.489   1.364 -0.3368 -0.0732 -0.0089
 8637SOL    HW137370   2.893   4.583   1.350 -0.2609  0.4147  3.1259
 8637SOL    HW237371   2.793   4.464   1.345 -0.4055 -0.3143  0.6116
 8638SOL     OW37372   3.357   0.270   4.885  0.3727  1.0032 -0.1924
 8638SOL    HW137373   3.420   0.340   4.867 -0.8634  2.4127  0.9483
 8638SOL    HW237374   3.339   0.257   4.792 -0.8764 -0.9509  0.3324
 8639SOL     OW37375   0.470   3.094   6.112 -0.3087 -0.0854 -0.4962
 8639SOL    HW137376   0.393   3.074   6.166  1.0689  1.2074  1.8757
 8639SOL    HW237377   0.505   3.166   6.163 -0.2346 -0.0321 -0.6209
 8640SOL     OW37378   0.070   3.992  14.114 -0.1043  0.0021 -0.1363
 8640SOL    HW137379   4.716   4.005  14.057 -0.6376  1.7478  0.9852
 8640SOL    HW237380   0.081   3.898  14.100 -0.7056 -0.1012  0.0777
 8641SOL     OW37381   0.652   0.924   4.810  0.0702  0.0569  0.1953
 8641SOL    HW137382   0.687   0.885   4.730 -1.1325 -0.2880 -0.1486
 8641SOL    HW237383   0.728   0.982   4.818  0.7714 -0.7786 -0.4471
 8642SOL     OW37384   2.013   3.492   9.900 -0.4366  0.1448  0.3260
 8642SOL    HW137385   2.058   3.418   9.940  2.7266  1.4053 -0.9120
 8642SOL    HW237386   1.943   3.506   9.964 -0.5304 -1.0530  0.4855
 8643SOL     OW37387   2.423   0.333   7.109 -0.2311 -0.1428 -0.5116
 8643SOL    HW137388   2.488   0.263   7.113  0.8662  0.8276 -1.3825
 8643SOL    HW237389   2.342   0.284   7.126 -0.3133 -0.0587 -0.6586
 8644SOL     OW37390   3.468   0.624   3.637  0.4055  0.3925  0.0190
 8644SOL    HW137391   3.482   0.700   3.693 -0.3554  0.5663 -0.0331
 8644SOL    HW237392   3.375   0.608   3.652  0.3332 -0.8933 -1.8019
 8645SOL     OW37393   4.519   2.153   5.538 -0.3219 -0.2286  0.5014
 8645SOL    HW137394   4.481   2.153   5.450  0.4355  0.9095  0.1728
 8645SOL    HW237395   4.446   2.113   5.585 -0.3446 -0.1709  0.5156
 8646SOL     OW37396   0.894   0.371   7.972 -0.5231  0.1526  0.1850
 8646SOL    HW137397   0.823   0.306   7.970 -0.6251  0.2360  1.1548
 8646SOL    HW237398   0.966   0.324   7.931  1.0460  0.8088  2.2420
 8647SOL     OW37399   0.191   1.852   4.666  0.1300  0.1754 -0.2552
 8647SOL    HW137400   0.101   1.839   4.636  0.1572 -0.1610 -0.1954
 8647SOL    HW237401   0.229   1.765   4.679 -0.9670 -0.0632  1.5076
 8648SOL     OW37402   0.736   3.324   9.931  0.4122 -0.0465 -0.1190
 8648SOL    HW137403   0.736   3.254   9.865  2.1084  0.5785 -0.7975
 8648SOL    HW237404   0.645   3.352   9.928 -0.2259 -1.5045  4.2932
 8649SOL     OW37405   2.869   3.801   6.213  0.8197 -0.3866 -0.3128
 8649SOL    HW137406   2.849   3.880   6.265  0.2646 -0.6093 -0.1884
 8649SOL    HW237407   2.804   3.807   6.143 -1.6182 -0.1595  1.9522
 8650SOL     OW37408   3.739   1.637  13.705  0.1155 -0.3500  0.4354
 8650SOL    HW137409   3.829   1.659  13.680  0.1886 -1.3301 -0.1285
 8650SOL    HW237410   3.768   1.617  13.795  2.6232 -0.6620 -0.4311
 8651SOL     OW37411   0.184   4.272   6.087 -0.8029  0.4875 -0.4814
 8651SOL    HW137412   0.205   4.291   5.995  4.0168  0.1306  0.5147
 8651SOL    HW237413   0.151   4.183   6.082 -0.5033  0.2064  2.3930
 8652SOL     OW37414   1.697   4.631   1.618 -0.1411  0.0028 -0.0911
 8652SOL    HW137415   1.711   4.536   1.618  1.6080  0.2634 -0.6432
 8652SOL    HW237416   1.790   4.641   1.636  0.1525 -2.9191  0.0015
 8653SOL     OW37417   3.750   0.715  11.943 -0.1671 -0.3044 -0.3490
 8653SOL    HW137418   3.792   0.709  11.857 -1.5288  0.8541 -1.0911
 8653SOL    HW237419   3.725   0.807  11.943  2.0971  0.3124  0.2314
 8654SOL     OW37420   3.441   2.535   3.538  0.5116  0.2010  0.2805
 8654SOL    HW137421   3.487   2.506   3.616 -0.1381 -0.5553  0.3729
 8654SOL    HW237422   3.466   2.463   3.480 -2.6067  0.4588 -1.4394
 8655SOL     OW37423   0.151   0.133   5.856  0.0125  0.2410  0.0299
 8655SOL    HW137424   0.167   0.145   5.763 -0.3860 -0.2049 -0.0923
 8655SOL    HW237425   0.082   0.067   5.865  0.6273 -0.3572  0.3519
 8656SOL     OW37426   0.362   0.524   8.449  0.4838  0.0439  0.4059
 8656SOL    HW137427   0.412   0.535   8.530  0.5229 -1.0214  0.5310
 8656SOL    HW237428   0.298   0.454   8.463  1.2483 -0.5792  0.8137
 8657SOL     OW37429   1.118   0.291   5.360 -0.2600 -0.4608 -0.5406
 8657SOL    HW137430   1.212   0.275   5.348 -0.1448  1.3304 -2.0445
 8657SOL    HW237431   1.089   0.203   5.386 -3.2782  0.7416  0.0622
 8658SOL     OW37432   0.242   1.156   1.743  0.0146  0.5786  0.0905
 8658SOL    HW137433   0.239   1.066   1.713  0.5516  0.1186  1.4363
 8658SOL    HW237434   0.328   1.178   1.706  0.2375 -0.3614  0.0513
 8659SOL     OW37435   0.291   1.138   1.012  0.7314 -0.1102 -0.1356
 8659SOL    HW137436   0.224   1.143   1.081  0.8385  0.8843 -0.1024
 8659SOL    HW237437   0.309   1.045   1.021  0.1388 -0.4730 -2.8321
 8660SOL     OW37438   3.176   0.427  16.007  0.1108  0.3531  0.4244
 8660SOL    HW137439   3.211   0.508  15.969  2.3661 -0.9444 -0.2522
 8660SOL    HW237440   3.251   0.392  16.054  1.9149  0.9075 -2.0194
 8661SOL     OW37441   0.144   4.225   2.429 -0.5883 -0.0254 -0.3793
 8661SOL    HW137442   0.103   4.253   2.346  1.1396  0.2227 -1.1484
 8661SOL    HW237443   0.194   4.147   2.405  0.4294  0.9499 -1.4759
 8662SOL     OW37444   0.757   3.917  11.789  0.1113 -0.1591  0.1866
 8662SOL    HW137445   0.709   3.945  11.867 -1.5248  0.5128 -1.0454
 8662SOL    HW237446   0.751   3.997  11.737  0.6986  0.2952  0.8202
 8663SOL     OW37447   1.385   1.818   8.985  0.7140  0.4303 -0.4819
 8663SOL    HW137448   1.392   1.727   9.015 -1.0823  0.0293 -1.3029
 8663SOL    HW237449   1.298   1.837   9.021  0.8176 -0.1617  0.0715
 8664SOL     OW37450   1.350   0.248  14.019 -0.7561 -0.2730  0.3277
 8664SOL    HW137451   1.323   0.308  13.950  2.7122  0.4411 -0.3576
 8664SOL    HW237452   1.289   0.175  14.008 -1.1440  0.1778 -0.5020
 8665SOL     OW37453   3.435   0.285   3.295 -0.2853 -0.1530 -0.0415
 8665SOL    HW137454   3.510   0.272   3.353 -0.0536  4.1366  0.6574
 8665SOL    HW237455   3.489   0.312   3.220 -1.9195 -0.0637 -1.1705
 8666SOL     OW37456   0.683   3.372   7.460  0.0226  0.1990  0.5837
 8666SOL    HW137457   0.676   3.448   7.518 -0.2759 -1.2088  2.3845
 8666SOL    HW237458   0.758   3.325   7.498 -0.7421 -2.7742 -1.5869
 8667SOL     OW37459   4.567   0.144  16.645 -0.1375 -0.2959 -0.3263
 8667SOL    HW137460   4.506   0.175  16.712  2.2925  0.6896  1.4066
 8667SOL    HW237461   4.637   0.109  16.701 -0.1755 -0.3853 -0.3344
 8668SOL     OW37462   4.694   0.564   8.370  0.3333 -0.2082 -0.5883
 8668SOL    HW137463   4.626   0.507   8.407 -0.8056  1.3228 -0.3136
 8668SOL    HW237464   0.056   0.537   8.408 -1.9381 -0.9358  3.9455
 8669SOL     OW37465   2.895   0.975  11.286 -0.4037  0.2460  0.1436
 8669SOL    HW137466   2.812   0.997  11.328 -0.0938  1.6238  0.0548
 8669SOL    HW237467   2.940   0.939  11.363 -0.8968 -0.1837  0.2318
 8670SOL     OW37468   1.596   1.344  13.547  0.3054  0.2153  0.3052
 8670SOL    HW137469   1.592   1.398  13.626 -3.1283  1.0300 -0.3913
 8670SOL    HW237470   1.598   1.259  13.590  1.0952 -0.3739 -0.9058
 8671SOL     OW37471   3.777   4.552   2.177  0.1292 -0.1057  0.3562
 8671SOL    HW137472   3.705   4.570   2.238 -0.1264  1.8688 -0.5292
 8671SOL    HW237473   3.852   4.535   2.234 -1.2512  1.3992  2.6671
 8672SOL     OW37474   1.241   3.408   0.967  1.0012  0.2529 -0.3332
 8672SOL    HW137475   1.322   3.426   1.016 -0.4217  1.9625  1.4072
 8672SOL    HW237476   1.248   3.313   0.973  0.9881  0.1758 -1.4313
 8673SOL     OW37477   0.062   3.700   2.686 -0.2143 -0.0846 -0.0915
 8673SOL    HW137478   0.155   3.683   2.674 -0.2857  0.7285 -1.8858
 8673SOL    HW237479   0.064   3.684   2.780 -1.9505  2.5807  0.3968
 8674SOL     OW37480   3.238   0.815   4.356  0.6135  0.2079 -0.5719
 8674SOL    HW137481   3.226   0.730   4.398  0.2400  0.6405  0.1875
 8674SOL    HW237482   3.293   0.853   4.423  2.7933  1.1167 -2.8984
 8675SOL     OW37483   4.509   2.030   7.017 -0.1764  0.2153  0.3659
 8675SOL    HW137484   4.418   2.040   6.986 -0.1815 -0.0351  0.2982
 8675SOL    HW237485   4.499   1.945   7.060 -2.9676 -0.5298 -1.7197
 8676SOL     OW37486   3.241   0.753   6.823  0.3039 -0.0562 -0.8535
 8676SOL    HW137487   3.318   0.796   6.785  2.0189 -1.8765  0.5160
 8676SOL    HW237488   3.273   0.664   6.838 -0.2192  0.5519  3.8958
 8677SOL     OW37489   1.629   1.028   3.513 -0.0166 -0.0790 -0.3889
 8677SOL    HW137490   1.643   0.946   3.465 -1.7500  0.9018 -2.5399
 8677SOL    HW237491   1.621   1.085   3.437  0.0314  1.2336  0.5870
 8678SOL     OW37492   0.400   3.989   0.676  0.0734 -0.2635  0.4797
 8678SOL    HW137493   0.401   4.039   0.594 -2.4381  0.2633  0.7650
 8678SOL    HW237494   0.342   4.045   0.727 -1.6667 -1.4796 -0.1537
 8679SOL     OW37495   0.266   3.151   2.712 -0.3649 -0.0061 -0.0648
 8679SOL    HW137496   0.233   3.067   2.679  1.7179 -0.6993 -0.4086
 8679SOL    HW237497   0.186   3.182   2.755 -0.8335 -1.2202 -0.0639
 8680SOL     OW37498   4.262   3.508  14.427  0.2516  0.1412 -0.4537
 8680SOL    HW137499   4.183   3.563  14.428  0.0373 -0.1986  2.8652
 8680SOL    HW237500   4.309   3.557  14.494 -0.6055 -1.1594  1.1104
 8681SOL     OW37501   2.848   3.479   2.251 -0.2732  0.3241 -0.1057
 8681SOL    HW137502   2.889   3.394   2.266 -3.5416 -1.2460 -0.1620
 8681SOL    HW237503   2.915   3.507   2.188  0.2727 -1.8230 -0.4759
 8682SOL     OW37504   3.357   0.815   2.980 -0.4550 -0.2072 -0.5638
 8682SOL    HW137505   3.265   0.841   2.976  0.2504  2.3597 -0.1267
 8682SOL    HW237506   3.363   0.765   2.898 -1.7399 -2.7508  0.8890
 8683SOL     OW37507   3.375   2.093   3.642  0.0606  0.1378 -0.1858
 8683SOL    HW137508   3.327   2.011   3.655  1.0573 -0.6417 -1.5660
 8683SOL    HW237509   3.462   2.063   3.617  0.4754  0.5778  0.7124
 8684SOL     OW37510   1.492   0.731   7.243 -0.5595  0.2187  0.4288
 8684SOL    HW137511   1.478   0.728   7.148  0.8167 -1.8704  0.2741
 8684SOL    HW237512   1.543   0.812   7.246 -1.1101  0.5723  0.2126
 8685SOL     OW37513   4.090   0.432  17.051 -0.7231  0.2297 -0.0602
 8685SOL    HW137514   4.086   0.522  17.082  1.1540  0.6293 -0.9283
 8685SOL    HW237515   4.017   0.424  16.989  0.1768 -1.6464 -0.8931
 8686SOL     OW37516   3.175   1.893   2.812  0.0395  0.7837  1.0429
 8686SOL    HW137517   3.105   1.836   2.782 -0.7773  1.5436  1.5273
 8686SOL    HW237518   3.191   1.847   2.895 -3.1433 -1.8684  0.1581
 8687SOL     OW37519   1.866   0.509   7.201 -0.5467  0.6200 -0.6355
 8687SOL    HW137520   1.785   0.464   7.177 -0.9898  1.0281  0.1021
 8687SOL    HW237521   1.839   0.572   7.268 -2.4544 -0.0375 -0.7923
 8688SOL     OW37522   2.791   3.899   3.683 -0.4162 -0.0256 -0.1074
 8688SOL    HW137523   2.859   3.854   3.734 -1.6035 -1.6270  0.0913
 8688SOL    HW237524   2.778   3.832   3.615  0.7491 -1.0149  0.6310
 8689SOL     OW37525   4.591   2.920   0.066  0.0337 -0.2084 -0.0237
 8689SOL    HW137526   4.515   2.883   0.020 -1.6705  1.2162  1.7025
 8689SOL    HW237527   4.562   2.918   0.156 -0.3095 -1.5019 -0.1562
 8690SOL     OW37528   0.591   0.484   7.711  0.1137 -0.3966 -0.3913
 8690SOL    HW137529   0.587   0.512   7.803  1.2191  0.1390 -0.5026
 8690SOL    HW237530   0.686   0.489   7.699 -0.0066  0.1302 -1.0986
 8691SOL     OW37531   0.072   3.341   0.219 -0.0119  0.5992 -0.1256
 8691SOL    HW137532   0.084   3.421   0.168  3.6906  0.1170 -0.0168
 8691SOL    HW237533   0.050   3.373   0.307  0.8613 -0.8416  0.6074
 8692SOL     OW37534   0.750   2.818   3.612  0.1813 -0.0744  0.1353
 8692SOL    HW137535   0.690   2.860   3.674 -1.2350 -0.9277 -0.6735
 8692SOL    HW237536   0.835   2.827   3.656 -0.0453  0.0264  0.5555
 8693SOL     OW37537   3.493   2.863   8.156  0.0364 -0.2664  0.2776
 8693SOL    HW137538   3.426   2.814   8.204  0.3486  0.3863  1.3928
 8693SOL    HW237539   3.507   2.927   8.226  0.1603 -1.3111  1.2199
 8694SOL     OW37540   0.083   2.190   2.318 -0.2411  0.5169  0.5297
 8694SOL    HW137541   0.040   2.271   2.289 -0.7284 -0.0041 -0.2108
 8694SOL    HW237542   0.111   2.206   2.408  0.2108 -0.8092  0.6243
 8695SOL     OW37543   4.151   1.075   7.597  0.0352 -0.1023  0.3903
 8695SOL    HW137544   4.080   1.094   7.535  0.3450  0.7148  0.2819
 8695SOL    HW237545   4.110   0.993   7.624 -0.1421 -0.3380 -0.6090
 8696SOL     OW37546   2.343   0.403   3.679  0.6969 -0.4849 -0.2436
 8696SOL    HW137547   2.363   0.420   3.771 -0.0386 -1.7710  0.1506
 8696SOL    HW237548   2.425   0.430   3.637  0.7107  0.0849  0.1474
 8697SOL     OW37549   2.193   1.134   2.457  0.1781  0.2115  0.5680
 8697SOL    HW137550   2.236   1.055   2.489 -0.8737 -1.0747 -1.2289
 8697SOL    HW237551   2.240   1.142   2.374 -0.4983 -1.0696  0.0699
 8698SOL     OW37552   0.580   2.649   8.016 -0.3701 -0.3349  0.2768
 8698SOL    HW137553   0.618   2.693   8.093  0.6647 -2.1038  0.7643
 8698SOL    HW237554   0.517   2.595   8.064 -0.5080 -0.7468 -0.3733
 8699SOL     OW37555   3.415   0.739   8.683 -0.6516  0.6114  0.2441
 8699SOL    HW137556   3.350   0.685   8.639  0.6463 -1.1167  0.4294
 8699SOL    HW237557   3.476   0.748   8.610  2.2182  0.3576  2.5998
 8700SOL     OW37558   1.223   1.835   7.345 -0.1376  0.3589  0.3301
 8700SOL    HW137559   1.161   1.908   7.347 -2.2894 -1.4982  0.9135
 8700SOL    HW237560   1.174   1.776   7.288 -0.1399 -1.6278  2.4013
 8701SOL     OW37561   1.936   4.620   1.781  0.6246 -0.0525  0.6480
 8701SOL    HW137562   1.963   4.711   1.767  0.5509 -0.3782 -1.5770
 8701SOL    HW237563   1.897   4.619   1.869  0.8080 -1.5956  0.7096
 8702SOL     OW37564   2.047   3.188   1.807 -0.7929  0.2992 -0.2536
 8702SOL    HW137565   2.033   3.183   1.712 -0.4833  1.6724 -0.3730
 8702SOL    HW237566   1.976   3.231   1.854  0.4641  0.2982  1.6446
 8703SOL     OW37567   0.618   1.986   3.001  0.4518  0.2737 -0.5901
 8703SOL    HW137568   0.659   2.036   3.071  0.3150 -0.4487 -0.0016
 8703SOL    HW237569   0.622   2.050   2.930  1.0738 -0.4638 -1.2179
 8704SOL     OW37570   1.035   2.625  14.834 -0.2603 -0.3631 -0.5544
 8704SOL    HW137571   0.950   2.599  14.870 -0.0198 -0.5583 -0.1285
 8704SOL    HW237572   1.019   2.622  14.740 -2.0746  1.9561 -0.3330
 8705SOL     OW37573   3.404   1.727   9.418  0.3559 -0.0308 -0.0316
 8705SOL    HW137574   3.370   1.739   9.507  1.1037 -2.4368  0.5702
 8705SOL    HW237575   3.368   1.809   9.383 -1.2759 -1.6251 -2.0767
 8706SOL     OW37576   0.965   0.882  17.468  0.4436  0.4583  0.6809
 8706SOL    HW137577   0.923   0.797  17.464  3.5620 -1.1088  0.9150
 8706SOL    HW237578   0.933   0.917  17.552  0.9649  1.0038  0.6591
 8707SOL     OW37579   2.268   0.108   6.756  0.1683  0.2676  0.0698
 8707SOL    HW137580   2.296   0.059   6.833  1.9126  1.0211 -0.0804
 8707SOL    HW237581   2.305   0.196   6.763 -1.4018  0.9231 -0.0041
 8708SOL     OW37582   0.553   3.047   5.061  0.2842 -0.0981  0.0779
 8708SOL    HW137583   0.571   2.957   5.034  1.3609 -0.0004  0.4690
 8708SOL    HW237584   0.460   3.029   5.074  0.8206 -0.0109  4.0203
 8709SOL     OW37585   0.727   1.521   5.939  0.0532 -0.5423 -0.0449
 8709SOL    HW137586   0.660   1.540   6.004 -0.2464  0.1771 -0.5569
 8709SOL    HW237587   0.732   1.605   5.893 -3.3619  0.0100  0.6257
 8710SOL     OW37588   2.783   1.782   2.301  0.0958  0.1427  0.1907
 8710SOL    HW137589   2.838   1.839   2.246 -1.3928  1.4453  0.0410
 8710SOL    HW237590   2.845   1.752   2.366  0.3303  1.9896  0.8139
 8711SOL     OW37591   2.913   0.180   1.785  0.2620  0.4507 -0.5369
 8711SOL    HW137592   2.971   0.132   1.726  3.3825  1.3024  1.9141
 8711SOL    HW237593   2.985   0.222   1.831 -0.4003  1.4269 -0.3999
 8712SOL     OW37594   2.122   2.347  15.043  0.9727  0.0264 -0.1990
 8712SOL    HW137595   2.197   2.291  15.023  1.3826  0.4163  0.2447
 8712SOL    HW237596   2.118   2.347  15.139 -1.0225 -3.4323 -0.3117
 8713SOL     OW37597   2.941   0.064   2.306  0.3817  0.0120 -0.1269
 8713SOL    HW137598   3.015   0.049   2.364  0.9953 -2.2965 -1.5026
 8713SOL    HW237599   2.954   0.001   2.235 -0.0139 -0.5209  0.2740
 8714SOL     OW37600   2.418   0.314   4.289 -0.2342 -0.1240  0.6099
 8714SOL    HW137601   2.379   0.280   4.209  0.1028 -2.0754  1.2721
 8714SOL    HW237602   2.446   0.401   4.262  2.5301 -1.0093  0.6014
 8715SOL     OW37603   4.220   2.965   6.659  0.0559  0.3259 -0.4867
 8715SOL    HW137604   4.136   2.934   6.692  0.4178 -0.0060  0.1271
 8715SOL    HW237605   4.197   3.014   6.580  0.4215 -3.1239 -2.6811
 8716SOL     OW37606   3.051   1.387  15.251 -0.0639 -0.5641 -0.4552
 8716SOL    HW137607   3.099   1.393  15.168 -0.1455  1.4416 -0.3617
 8716SOL    HW237608   2.962   1.370  15.220  0.4980 -2.5172 -0.9913
 8717SOL     OW37609   3.187   4.428   0.881  0.2373 -0.5583  1.0411
 8717SOL    HW137610   3.236   4.359   0.837 -2.3823 -2.1500  0.6027
 8717SOL    HW237611   3.108   4.381   0.908 -0.1055 -1.6370 -1.8614
 8718SOL     OW37612   4.342   0.101   8.729 -0.0272  0.0196 -0.5938
 8718SOL    HW137613   4.395   0.022   8.717  0.5533  0.1652  0.9365
 8718SOL    HW237614   4.364   0.131   8.817  0.5647  1.0906 -1.0982
 8719SOL     OW37615   2.524   1.063   6.327 -0.0557  0.2771  0.1700
 8719SOL    HW137616   2.440   1.087   6.288 -1.3963  1.2228  3.5750
 8719SOL    HW237617   2.503   0.989   6.384 -0.2149  0.8899  0.9242
 8720SOL     OW37618   0.684   4.197   7.017 -0.3709 -0.1233 -0.1214
 8720SOL    HW137619   0.774   4.230   7.012 -1.9185  4.2459  0.7167
 8720SOL    HW237620   0.643   4.230   7.098 -0.1476  3.2342 -1.3561
 8721SOL     OW37621   0.008   2.712   8.095 -0.0207 -0.0041  0.8483
 8721SOL    HW137622   0.027   2.619   8.104 -0.8078 -0.1810  0.6319
 8721SOL    HW237623   0.051   2.746   8.173  0.3110  1.2091  0.1418
 8722SOL     OW37624   2.743   2.775   8.179 -0.8239 -0.0620 -0.3445
 8722SOL    HW137625   2.782   2.811   8.259 -0.4571  2.0659 -1.4828
 8722SOL    HW237626   2.650   2.782   8.204 -0.6885  0.5145  0.0056
 8723SOL     OW37627   1.373   0.198   7.606 -0.6329  0.3435 -0.3366
 8723SOL    HW137628   1.307   0.168   7.669  1.1258  0.7822  1.7511
 8723SOL    HW237629   1.360   0.291   7.624 -1.6748 -0.1270  1.3792
 8724SOL     OW37630   0.438   4.448  15.226  0.0668  0.0607  0.0914
 8724SOL    HW137631   0.389   4.517  15.270 -1.5800 -0.2351 -1.2917
 8724SOL    HW237632   0.501   4.417  15.292 -0.4470  0.3163  0.6957
 8725SOL     OW37633   0.743   2.467   3.577 -0.0259 -0.6619  0.2017
 8725SOL    HW137634   0.833   2.487   3.550 -0.5877 -0.3928 -1.5028
 8725SOL    HW237635   0.696   2.531   3.523  1.8597  0.9413  0.4428
 8726SOL     OW37636   4.232   3.238   6.831  0.2560  0.1482  0.2208
 8726SOL    HW137637   4.155   3.245   6.888 -0.3416 -0.6652 -0.4970
 8726SOL    HW237638   4.256   3.158   6.877  0.4512  1.0780  1.7359
 8727SOL     OW37639   1.170   0.023   3.024 -0.3835  0.3097  0.6262
 8727SOL    HW137640   1.233   0.056   3.088  1.0723 -0.8604 -0.1889
 8727SOL    HW237641   1.185   4.652   3.037  0.5637  0.3039 -0.4649
 8728SOL     OW37642   3.346   0.526   4.714  0.7084  0.3441 -0.1213
 8728SOL    HW137643   3.325   0.436   4.689  1.0091  1.0247 -2.8437
 8728SOL    HW237644   3.290   0.568   4.649 -0.5450  0.5448  1.0802
 8729SOL     OW37645   3.172   3.587  13.824  0.9119  0.1416 -0.6142
 8729SOL    HW137646   3.111   3.615  13.756 -1.5747 -0.7260  1.2675
 8729SOL    HW237647   3.138   3.504  13.858  1.4248  0.7870  1.4644
 8730SOL     OW37648   3.420   3.755   2.743  0.2044 -0.8081 -0.3024
 8730SOL    HW137649   3.469   3.835   2.764 -0.4709 -0.8904  1.5829
 8730SOL    HW237650   3.377   3.746   2.828  0.4196  0.6699 -0.0353
 8731SOL     OW37651   2.426   1.870   2.296  0.0565  0.1586 -0.2684
 8731SOL    HW137652   2.340   1.830   2.308  0.8899 -1.8605 -0.8816
 8731SOL    HW237653   2.470   1.816   2.230  0.8485  1.7379 -1.0317
 8732SOL     OW37654   1.277   0.282  10.564  0.4342  0.0372 -0.6711
 8732SOL    HW137655   1.269   0.333  10.645 -0.9472 -0.0400 -0.7658
 8732SOL    HW237656   1.197   0.304  10.517  0.2579 -0.6546 -0.6938
 8733SOL     OW37657   4.095   1.564  14.841 -0.0503  0.0780 -0.1530
 8733SOL    HW137658   4.184   1.581  14.810 -0.0656  0.8357  0.2175
 8733SOL    HW237659   4.106   1.602  14.928 -1.3540  1.7563 -0.7143
 8734SOL     OW37660   1.684   2.508   7.821 -0.6603  0.1182 -0.6918
 8734SOL    HW137661   1.596   2.472   7.826  0.0876 -1.1773  2.8652
 8734SOL    HW237662   1.658   2.583   7.767  0.0709 -1.9328 -3.8787
 8735SOL     OW37663   3.740   1.467   5.527 -0.1502 -0.5144  0.0664
 8735SOL    HW137664   3.783   1.423   5.600 -1.2881 -1.6805  0.0222
 8735SOL    HW237665   3.810   1.525   5.498 -0.3060 -0.4431 -0.1685
 8736SOL     OW37666   0.986   2.021   7.457 -0.2684  0.1202 -0.9230
 8736SOL    HW137667   1.018   1.968   7.529 -2.1557  1.4460  0.9184
 8736SOL    HW237668   0.892   2.016   7.474  0.1933  0.2760  1.5749
 8737SOL     OW37669   2.627   1.469   1.887 -0.5525  0.1937  0.0682
 8737SOL    HW137670   2.682   1.409   1.937  0.0891 -0.4049 -1.3687
 8737SOL    HW237671   2.600   1.528   1.958 -1.7697  0.8360 -0.9295
 8738SOL     OW37672   0.886   0.848  11.097 -0.2802  0.1496 -0.1544
 8738SOL    HW137673   0.792   0.835  11.105 -0.4421  1.7093  0.4096
 8738SOL    HW237674   0.883   0.943  11.111 -1.2519  0.1081 -0.0897
 8739SOL     OW37675   0.815   0.503   7.322  0.0756  0.1698 -0.3104
 8739SOL    HW137676   0.870   0.554   7.381  0.1108 -1.0239  0.7045
 8739SOL    HW237677   0.777   0.573   7.270  0.5597  0.5747 -0.1139
 8740SOL     OW37678   2.317   0.744   3.782 -0.0312 -0.0266 -0.2716
 8740SOL    HW137679   2.230   0.751   3.744 -0.1748  0.6762  0.1902
 8740SOL    HW237680   2.367   0.739   3.701 -1.1562  0.6608 -1.0081
 8741SOL     OW37681   0.649   3.565   0.890  0.2671  0.7038 -0.8706
 8741SOL    HW137682   0.578   3.615   0.850 -0.1849 -0.1679 -1.1541
 8741SOL    HW237683   0.638   3.475   0.858 -1.9705  0.3141  0.9777
 8742SOL     OW37684   1.035   3.676  15.101  0.0340  0.1654 -0.5264
 8742SOL    HW137685   1.095   3.622  15.051  0.8802  0.3721  0.2760
 8742SOL    HW237686   1.004   3.628  15.179  3.1781 -0.9495  0.0246
 8743SOL     OW37687   4.355   0.049   5.068  0.0869 -0.4209  0.5153
 8743SOL    HW137688   4.412   0.125   5.056 -2.4636  1.3005 -0.8398
 8743SOL    HW237689   4.417   4.704   5.095  0.5230 -0.8644 -1.6387
 8744SOL     OW37690   0.827   0.573   3.933 -0.1226  0.1864  0.5619
 8744SOL    HW137691   0.774   0.527   3.999 -0.4241  1.5624  1.2685
 8744SOL    HW237692   0.905   0.579   3.988 -0.4476  0.2702  1.0181
 8745SOL     OW37693   2.418   0.625   1.481  0.5013 -0.6840 -0.4450
 8745SOL    HW137694   2.432   0.530   1.491  1.0087 -0.6308 -0.6680
 8745SOL    HW237695   2.510   0.636   1.502  1.1388 -0.7984 -3.1504
 8746SOL     OW37696   1.397   3.859   3.087  0.4287  0.8492  0.3698
 8746SOL    HW137697   1.457   3.924   3.126  0.8469  1.2758 -0.9615
 8746SOL    HW237698   1.404   3.781   3.142 -1.3455 -0.0874 -0.7351
 8747SOL     OW37699   1.584   2.229   3.916  0.2212  0.5378 -0.2388
 8747SOL    HW137700   1.647   2.192   3.854 -0.1593 -1.2072  0.4215
 8747SOL    HW237701   1.502   2.203   3.873 -0.3262  1.7921  0.0438
 8748SOL     OW37702   0.139   2.521   1.810  0.9347 -0.2581  0.1250
 8748SOL    HW137703   0.223   2.477   1.796  1.0904 -0.1904  0.8290
 8748SOL    HW237704   0.124   2.510   1.904 -1.5713 -1.5194 -0.4420
 8749SOL     OW37705   4.154   1.477   6.580  0.3749  0.0219 -0.2562
 8749SOL    HW137706   4.243   1.503   6.557  0.5542 -0.6727 -0.3260
 8749SOL    HW237707   4.125   1.560   6.619  1.4370 -0.5942  1.8807
 8750SOL     OW37708   0.563   4.660   3.485  0.1236  0.4076  0.1663
 8750SOL    HW137709   0.476   4.647   3.448 -0.0906 -0.9129  1.1383
 8750SOL    HW237710   0.555   0.015   3.542  0.8514  0.8563 -0.3330
 8751SOL     OW37711   1.629   3.285   6.668 -0.0794 -0.0842 -0.2366
 8751SOL    HW137712   1.630   3.282   6.764  0.2424 -0.0079 -0.2365
 8751SOL    HW237713   1.696   3.218   6.653 -0.3839 -0.1742 -1.1753
 8752SOL     OW37714   1.996   4.433   5.397 -0.0607  0.8993 -0.4377
 8752SOL    HW137715   1.995   4.348   5.351 -1.5156  0.2414  0.8158
 8752SOL    HW237716   1.906   4.464   5.390  0.4029  1.9799 -1.6714
 8753SOL     OW37717   0.196   0.196   4.966  0.2326 -0.8478  0.8208
 8753SOL    HW137718   0.166   0.225   5.052  2.4004 -0.4589  1.4440
 8753SOL    HW237719   0.249   0.273   4.943  0.3748 -1.0929  0.3236
 8754SOL     OW37720   3.803   3.751   4.899 -0.5769 -0.0598 -0.6800
 8754SOL    HW137721   3.751   3.676   4.926 -2.1793  0.5529 -2.0870
 8754SOL    HW237722   3.765   3.766   4.813 -1.9949  3.6154  0.6020
 8755SOL     OW37723   4.009   3.817  16.615 -0.2319 -0.0850  0.4001
 8755SOL    HW137724   4.078   3.750  16.616 -0.6075 -0.4371  2.2876
 8755SOL    HW237725   3.942   3.767  16.569 -1.3682  0.6849  1.2393
 8756SOL     OW37726   1.785   0.806   2.788 -0.2268  0.3068 -0.5462
 8756SOL    HW137727   1.705   0.836   2.831 -0.0425  0.8692 -0.5932
 8756SOL    HW237728   1.844   0.874   2.820 -0.9133  0.1914  0.9705
 8757SOL     OW37729   0.658   1.695   9.620 -0.9042  0.0063 -0.0880
 8757SOL    HW137730   0.606   1.758   9.669 -3.1844 -1.3317 -0.7819
 8757SOL    HW237731   0.696   1.758   9.559 -1.9591 -0.7879 -1.5767
 8758SOL     OW37732   3.141   4.054  14.326  0.6866 -0.9110 -0.2189
 8758SOL    HW137733   3.191   4.096  14.255 -1.4234  1.2648 -0.4082
 8758SOL    HW237734   3.175   4.093  14.407  1.6156  1.6026 -1.7824
 8759SOL     OW37735   1.363   4.226   6.314 -0.2732  0.6173  0.0163
 8759SOL    HW137736   1.362   4.152   6.254 -2.5742  1.4388 -0.9736
 8759SOL    HW237737   1.310   4.188   6.385  0.8643  2.4614  1.8494
 8760SOL     OW37738   0.831   1.273   4.516 -0.0904  0.2280  0.2656
 8760SOL    HW137739   0.745   1.242   4.544 -0.0832  0.7861  0.9030
 8760SOL    HW237740   0.880   1.265   4.598 -0.8675 -1.0156  0.6167
 8761SOL     OW37741   1.521   0.171   0.151  0.2025 -0.5540  0.2479
 8761SOL    HW137742   1.613   0.199   0.158 -0.5410  2.3749 -1.6533
 8761SOL    HW237743   1.498   0.202   0.239  0.5316  0.4553 -0.0203
 8762SOL     OW37744   2.121   3.130  16.205 -0.1355  0.1218 -0.3373
 8762SOL    HW137745   2.103   3.038  16.185  0.9422 -0.4883  1.4028
 8762SOL    HW237746   2.042   3.178  16.182  0.3406  0.8557 -0.4257
 8763SOL     OW37747   2.509   2.703   3.303  0.5816 -0.0558  0.0904
 8763SOL    HW137748   2.476   2.689   3.214  1.7126 -0.8631 -0.2047
 8763SOL    HW237749   2.563   2.625   3.318 -1.3250 -1.2757  0.7474
 8764SOL     OW37750   4.716   4.064   9.332 -0.2910 -0.5616  0.1981
 8764SOL    HW137751   0.002   3.980   9.287 -0.0033 -0.9775  1.0310
 8764SOL    HW237752   4.709   4.122   9.257 -1.2491 -1.6716 -0.5824
 8765SOL     OW37753   3.965   2.413  15.412  0.6113 -0.0134  0.2385
 8765SOL    HW137754   3.998   2.458  15.490 -1.3036  1.8893 -0.0453
 8765SOL    HW237755   3.898   2.354  15.446  1.2557 -0.8202  0.1072
 8766SOL     OW37756   3.786   1.259   9.850  0.7665 -0.3038 -0.7619
 8766SOL    HW137757   3.831   1.300   9.925  0.1827  0.4397 -0.8151
 8766SOL    HW237758   3.855   1.260   9.784 -0.7600  0.4349 -2.3199
 8767SOL     OW37759   1.270   1.272   2.513 -0.9953  0.3407 -0.5310
 8767SOL    HW137760   1.185   1.310   2.492 -1.7869 -1.1958 -0.0874
 8767SOL    HW237761   1.240   1.182   2.521  0.8971 -0.0790  1.7244
 8768SOL     OW37762   1.592   2.022   9.050  0.2634  0.0458 -0.2996
 8768SOL    HW137763   1.519   1.962   9.059  0.2105  0.2951  0.9307
 8768SOL    HW237764   1.656   1.968   9.096 -1.4317 -0.2272  1.6762
 8769SOL     OW37765   1.440   0.423   6.510  0.0877  0.0219  0.9212
 8769SOL    HW137766   1.351   0.401   6.538 -0.1889  1.0063  0.8147
 8769SOL    HW237767   1.494   0.367   6.566  1.1787 -0.9125 -1.0753
 8770SOL     OW37768   4.486   2.670   6.607 -0.2438 -0.0311  0.1339
 8770SOL    HW137769   4.407   2.665   6.555 -0.3493  0.8996  0.2019
 8770SOL    HW237770   4.502   2.762   6.627  1.4933 -0.6959  1.9265
 8771SOL     OW37771   1.464   0.500   2.873  0.0891  0.0767 -0.4620
 8771SOL    HW137772   1.376   0.467   2.853  0.1068 -0.7340  0.8356
 8771SOL    HW237773   1.477   0.445   2.950  2.9131  0.7943 -0.4193
 8772SOL     OW37774   1.953   1.482  16.493  0.4571  0.3239 -0.1254
 8772SOL    HW137775   1.976   1.392  16.516 -1.7787 -0.7053 -1.9242
 8772SOL    HW237776   1.890   1.498  16.563 -0.7880 -1.1197 -0.9254
 8773SOL     OW37777   0.792   3.872   9.158  0.4473 -0.4923 -0.2554
 8773SOL    HW137778   0.884   3.897   9.164 -0.3909  1.7611  2.9456
 8773SOL    HW237779   0.747   3.955   9.142 -1.0385 -1.0151  1.2112
 8774SOL     OW37780   0.595   4.139   9.601 -0.2371  0.4920  0.1803
 8774SOL    HW137781   0.538   4.075   9.559 -2.4857  1.2906  1.9999
 8774SOL    HW237782   0.656   4.159   9.530 -0.4238 -1.5414 -0.5715
 8775SOL     OW37783   1.454   0.762   7.942  0.0527 -0.2692 -0.4761
 8775SOL    HW137784   1.445   0.792   7.851 -1.7352 -1.9702 -0.8612
 8775SOL    HW237785   1.485   0.846   7.975  4.0067 -2.4265  1.2859
 8776SOL     OW37786   0.800   3.607   8.495  0.0593 -0.1619 -0.7601
 8776SOL    HW137787   0.821   3.699   8.475  2.8916 -0.0972  2.7237
 8776SOL    HW237788   0.889   3.572   8.496 -0.6282 -1.9633 -1.8004
 8777SOL     OW37789   1.140   1.051   4.843  0.1884  0.2242  0.5938
 8777SOL    HW137790   1.091   1.008   4.774  0.0981  1.1012  0.1136
 8777SOL    HW237791   1.114   0.992   4.915  0.0680 -0.4307  0.0118
 8778SOL     OW37792   3.167   2.103   4.576  0.2290 -0.2368  0.3731
 8778SOL    HW137793   3.246   2.050   4.583 -0.6503 -1.2724  2.4991
 8778SOL    HW237794   3.204   2.169   4.517  0.5955 -0.2568  0.5843
 8779SOL     OW37795   1.665   2.659   5.722 -0.5597 -0.3073  0.1103
 8779SOL    HW137796   1.576   2.648   5.689 -0.5651 -0.7986  0.2858
 8779SOL    HW237797   1.711   2.698   5.648 -2.3793 -0.9016 -1.3108
 8780SOL     OW37798   0.896   4.023   2.776 -0.5076  0.2712  0.0972
 8780SOL    HW137799   0.853   4.042   2.859 -1.3977 -0.3423 -0.2211
 8780SOL    HW237800   0.827   4.031   2.710 -0.9699 -1.8950  0.3318
 8781SOL     OW37801   0.469   3.247   7.724  0.0273 -0.0037 -0.3857
 8781SOL    HW137802   0.473   3.284   7.812  0.6896  0.7442 -0.7264
 8781SOL    HW237803   0.541   3.287   7.675  0.3026  1.0997  0.9294
 8782SOL     OW37804   1.874   1.510   3.928  0.3879 -0.2926  0.0192
 8782SOL    HW137805   1.812   1.509   4.001  1.6646  0.2384  1.0996
 8782SOL    HW237806   1.873   1.605   3.919 -2.9182  0.0077  3.8374
 8783SOL     OW37807   2.372   3.890   6.634 -0.0499  0.1107  0.0826
 8783SOL    HW137808   2.330   3.804   6.624  0.3893 -0.0492 -0.4462
 8783SOL    HW237809   2.294   3.943   6.647 -0.1460  0.5053 -1.9622
 8784SOL     OW37810   0.945   2.659   1.150  0.1364 -0.5706  0.0967
 8784SOL    HW137811   0.902   2.690   1.229 -0.2668  2.1045 -1.1875
 8784SOL    HW237812   0.969   2.737   1.100 -1.5192 -0.5606 -0.6651
 8785SOL     OW37813   0.212   1.339   7.057  0.9494  0.2357  0.2683
 8785SOL    HW137814   0.125   1.372   7.034  0.6715 -2.5019 -2.6509
 8785SOL    HW237815   0.270   1.365   6.986  1.2415 -1.6476 -0.2001
 8786SOL     OW37816   1.510   3.938   5.442  0.0375  0.2648  0.1107
 8786SOL    HW137817   1.474   3.855   5.474 -1.1384  2.2572  4.0342
 8786SOL    HW237818   1.511   3.918   5.348 -1.4766 -0.6700  0.3051
 8787SOL     OW37819   2.926   1.932   5.659  0.3961  0.2072  0.1370
 8787SOL    HW137820   2.856   1.887   5.706 -2.0090  2.0995 -1.6838
 8787SOL    HW237821   2.998   1.872   5.678 -0.0279 -0.1998  0.4704
 8788SOL     OW37822   3.781   0.053   8.338 -0.2167 -0.3628  0.2481
 8788SOL    HW137823   3.814   0.087   8.421 -0.0639  2.8469 -1.1454
 8788SOL    HW237824   3.861   0.046   8.286 -1.3643 -3.4942 -1.0895
 8789SOL     OW37825   3.265   1.106  16.163 -0.0166  0.0280  0.3105
 8789SOL    HW137826   3.199   1.057  16.114  1.1491 -3.8077  2.5851
 8789SOL    HW237827   3.350   1.085  16.124 -0.5397 -0.1136 -0.7762
 8790SOL     OW37828   4.379   3.973   1.065  0.2807 -0.1162  0.4639
 8790SOL    HW137829   4.463   3.927   1.057  0.6590  1.0289 -2.3958
 8790SOL    HW237830   4.407   4.050   1.115 -0.3294 -0.6163  1.5506
 8791SOL     OW37831   1.218   1.536   6.303 -0.2482  0.3260  0.4629
 8791SOL    HW137832   1.256   1.618   6.273  1.0748  0.0039  1.2655
 8791SOL    HW237833   1.152   1.524   6.235 -1.4301  1.6806  1.3613
 8792SOL     OW37834   0.323   0.863  12.446 -0.0157  0.3878 -0.3464
 8792SOL    HW137835   0.296   0.955  12.453  3.1951  1.4235 -1.2410
 8792SOL    HW237836   0.415   0.876  12.421  0.4054  1.3007  1.7453
 8793SOL     OW37837   0.776   0.943   5.365 -0.2731  0.2771 -0.1762
 8793SOL    HW137838   0.790   0.848   5.359  1.7655  0.5335  0.6625
 8793SOL    HW237839   0.721   0.950   5.287 -1.9613  0.0860  0.9912
 8794SOL     OW37840   0.974   0.175   6.793  0.3732  0.3231  0.1198
 8794SOL    HW137841   0.919   0.101   6.818  0.7286  0.3995  1.1407
 8794SOL    HW237842   0.912   0.237   6.755 -0.9290  0.0332  1.7927
 8795SOL     OW37843   0.956   0.228   9.715 -0.0996  0.0256 -0.4607
 8795SOL    HW137844   0.928   0.312   9.752  1.4413  1.0651 -1.6217
 8795SOL    HW237845   1.052   0.234   9.716 -0.3128  3.2444  0.8538
 8796SOL     OW37846   3.450   1.488   9.305  0.4709 -0.1263  0.8358
 8796SOL    HW137847   3.427   1.570   9.348  0.9320  0.3628  0.1492
 8796SOL    HW237848   3.529   1.509   9.256 -0.6709  0.6838 -0.6528
 8797SOL     OW37849   1.841   3.677  15.601 -0.0447 -0.0067  0.4088
 8797SOL    HW137850   1.754   3.714  15.616 -0.3382  0.6307 -2.9125
 8797SOL    HW237851   1.884   3.737  15.662  1.7263 -0.0577 -0.8084
 8798SOL     OW37852   2.330   4.430   8.080 -0.3697  1.0410  0.0327
 8798SOL    HW137853   2.344   4.343   8.043  2.2074  1.6074 -0.3664
 8798SOL    HW237854   2.412   4.437   8.129  0.8313 -2.0703 -1.5461
 8799SOL     OW37855   4.667   4.052   6.025 -0.3845  0.2567  0.4062
 8799SOL    HW137856   4.666   3.959   6.005 -1.1034  0.2315  0.5561
 8799SOL    HW237857   4.696   4.049   6.116 -0.7019 -0.8880  0.4743
 8800SOL     OW37858   2.887   4.254   2.344 -0.9808  0.2006 -0.3324
 8800SOL    HW137859   2.965   4.202   2.366 -0.9103  0.5890  0.3449
 8800SOL    HW237860   2.816   4.191   2.357 -1.3877  0.4009 -1.5813
 8801SOL     OW37861   0.583   0.005   8.013 -0.1168 -0.5093  0.3287
 8801SOL    HW137862   0.678   4.715   8.016  0.1195  1.0145 -0.5098
 8801SOL    HW237863   0.577   0.099   7.995 -1.8020 -0.9405 -1.4111
 8802SOL     OW37864   2.489   0.008   4.370  0.4150 -0.0355 -0.8560
 8802SOL    HW137865   2.459   0.081   4.317  1.0826  0.7108 -0.2005
 8802SOL    HW237866   2.541   0.049   4.439 -0.8816  0.9801 -0.4754
 8803SOL     OW37867   1.222   1.341   8.376 -0.0048 -0.1622 -0.6188
 8803SOL    HW137868   1.166   1.398   8.428 -0.2068 -1.7247  0.8709
 8803SOL    HW237869   1.308   1.350   8.418 -0.5320 -2.0895  0.8732
 8804SOL     OW37870   4.526   1.867   4.730 -0.3095 -0.1631 -0.4281
 8804SOL    HW137871   4.529   1.936   4.662  0.9616  1.5169  1.3366
 8804SOL    HW237872   4.534   1.783   4.685 -1.0621 -0.2655 -0.3644
 8805SOL     OW37873   0.791   4.160   7.316  0.3977 -0.0842 -0.3772
 8805SOL    HW137874   0.705   4.194   7.293  0.8136  1.6809  0.6561
 8805SOL    HW237875   0.831   4.239   7.352 -2.8311  2.1129 -1.7045
 8806SOL     OW37876   2.674   3.412   0.575  0.4441  0.0978  0.1775
 8806SOL    HW137877   2.697   3.486   0.632 -1.0762  0.4117  0.3845
 8806SOL    HW237878   2.666   3.346   0.643  1.7244 -0.2134  0.0305
 8807SOL     OW37879   0.187   2.761  12.325 -0.0972 -0.3101 -0.4041
 8807SOL    HW137880   0.117   2.756  12.390  0.3798  2.0577  0.3040
 8807SOL    HW237881   0.255   2.703  12.360 -0.2536 -0.6333 -0.6386
 8808SOL     OW37882   4.570   1.717   2.061  0.8250  0.0284  0.6153
 8808SOL    HW137883   4.520   1.705   1.980  0.9315 -0.3662  0.6050
 8808SOL    HW237884   4.586   1.625   2.081 -0.8816 -0.3371  0.2885
 8809SOL     OW37885   1.158   2.803   4.078  0.4793  0.3266  0.1204
 8809SOL    HW137886   1.222   2.732   4.079 -0.6681 -0.6659  3.5139
 8809SOL    HW237887   1.089   2.747   4.042  2.1953 -0.7712 -1.4443
 8810SOL     OW37888   4.192   1.059  17.618  0.2469  0.0008 -0.6633
 8810SOL    HW137889   4.139   1.023  17.547 -1.3343  1.1710 -0.0929
 8810SOL    HW237890   4.192   1.152  17.595  2.1602  0.0777 -0.2881
 8811SOL     OW37891   0.499   3.675   7.436  0.7950  0.0290 -0.1573
 8811SOL    HW137892   0.576   3.732   7.429  1.0154 -0.5677 -2.5657
 8811SOL    HW237893   0.514   3.614   7.363 -1.4977 -3.0889  1.9517
 8812SOL     OW37894   1.198   1.932  10.911 -0.1217  0.5796  0.0579
 8812SOL    HW137895   1.144   2.002  10.876 -1.0919 -0.4663 -0.5514
 8812SOL    HW237896   1.274   1.987  10.931 -0.1778  0.1235  1.5442
 8813SOL     OW37897   0.304   0.338   9.735  1.1207  0.5061 -0.1336
 8813SOL    HW137898   0.381   0.323   9.788  0.4116 -2.0383  0.1881
 8813SOL    HW237899   0.291   0.430   9.756 -2.6007 -0.1522  0.4604
 8814SOL     OW37900   3.666   2.851   4.369  0.1787 -0.0578 -0.1266
 8814SOL    HW137901   3.642   2.941   4.392 -1.1018 -0.6344  0.8168
 8814SOL    HW237902   3.578   2.815   4.361  0.2852  0.2705 -2.7633
 8815SOL     OW37903   0.674   2.493   7.813 -0.3610  0.2806 -0.5483
 8815SOL    HW137904   0.594   2.443   7.795  0.6423 -1.6332  0.2214
 8815SOL    HW237905   0.645   2.556   7.878  2.2957 -2.1852  3.0367
 8816SOL     OW37906   2.629   1.805   3.206 -0.2967  0.9626 -0.3024
 8816SOL    HW137907   2.558   1.865   3.183 -0.3941  0.9212 -0.1152
 8816SOL    HW237908   2.619   1.723   3.158  0.0739  1.6100 -1.4807
 8817SOL     OW37909   3.848   0.813   1.828 -0.5414  0.0608 -0.7219
 8817SOL    HW137910   3.845   0.766   1.911 -0.3552 -1.4402 -1.5651
 8817SOL    HW237911   3.871   0.901   1.858 -0.0904 -0.3824  0.2364
 8818SOL     OW37912   2.297   3.288   3.147 -0.6891  0.6136 -0.3000
 8818SOL    HW137913   2.281   3.228   3.220  1.7672  0.3870  0.0473
 8818SOL    HW237914   2.241   3.247   3.082 -0.4491  2.8325 -1.9133
 8819SOL     OW37915   4.681   4.324   6.247 -0.3487 -0.6679 -0.0340
 8819SOL    HW137916   4.674   4.236   6.283 -2.7752 -1.2448 -1.8285
 8819SOL    HW237917   0.038   4.316   6.194  1.1447 -0.6144  2.2388
 8820SOL     OW37918   3.454   0.670   1.949 -0.5341 -0.0948  0.1158
 8820SOL    HW137919   3.487   0.609   1.883 -3.0287 -2.1258  0.7118
 8820SOL    HW237920   3.492   0.753   1.920 -0.4186  0.1751  1.0467
 8821SOL     OW37921   2.054   2.359   3.013 -0.1809  0.4920  0.4387
 8821SOL    HW137922   2.055   2.315   2.928  0.5188 -1.4217  1.4527
 8821SOL    HW237923   1.963   2.392   3.015 -2.1296 -4.8182 -2.0885
 8822SOL     OW37924   3.165   3.824   3.893 -0.7528 -0.5216 -0.6230
 8822SOL    HW137925   3.258   3.803   3.898 -0.9272 -0.3192  3.3796
 8822SOL    HW237926   3.160   3.912   3.932  0.3628 -0.6970 -0.0932
 8823SOL     OW37927   1.223   1.388   1.649 -0.4143 -0.1258  0.0241
 8823SOL    HW137928   1.293   1.414   1.709  0.3657 -3.3358  0.5043
 8823SOL    HW237929   1.264   1.356   1.568 -2.2705 -1.7157 -0.2813
 8824SOL     OW37930   4.635   0.899   4.946  0.4654 -0.2426  0.8943
 8824SOL    HW137931   4.604   0.810   4.931 -2.0808  0.7398  0.2444
 8824SOL    HW237932   4.574   0.952   4.894  1.5802  0.1152 -0.0409
 8825SOL     OW37933   1.923   0.487   3.262  0.2561 -0.5765 -0.4886
 8825SOL    HW137934   1.942   0.546   3.335  1.5150  0.9338 -2.0511
 8825SOL    HW237935   2.003   0.493   3.210  0.9337 -0.5697  0.5366
 8826SOL     OW37936   2.445   1.052   5.059 -0.4860  0.1182 -0.2574
 8826SOL    HW137937   2.376   1.004   5.105 -0.2014  2.4829  2.6124
 8826SOL    HW237938   2.394   1.077   4.982 -1.0376  1.9080  0.6861
 8827SOL     OW37939   3.764   2.429   0.850  0.0872  0.1866 -0.3467
 8827SOL    HW137940   3.798   2.507   0.806  0.2831  0.0547 -0.4293
 8827SOL    HW237941   3.724   2.376   0.781  0.0084 -1.4804  0.9890
 8828SOL     OW37942   1.118   3.174   3.501 -0.4972  0.1143  0.0119
 8828SOL    HW137943   1.209   3.169   3.474 -0.0158  2.1808  1.3168
 8828SOL    HW237944   1.122   3.148   3.593 -0.1865 -0.6401 -0.2109
 8829SOL     OW37945   0.830   4.120   8.312 -0.1436  0.7455 -0.2480
 8829SOL    HW137946   0.869   4.170   8.384  0.1530 -1.1783  0.9316
 8829SOL    HW237947   0.744   4.161   8.302 -0.0506 -0.0763 -4.1338
 8830SOL     OW37948   1.411   3.605   8.051  0.3619  0.1951 -0.2790
 8830SOL    HW137949   1.335   3.663   8.042  1.3276  0.9546 -3.7550
 8830SOL    HW237950   1.483   3.668   8.052  0.0552  0.5466 -0.4723
 8831SOL     OW37951   4.115   2.973  15.622 -0.3878  0.0495 -0.0016
 8831SOL    HW137952   4.177   2.955  15.692 -0.2160 -1.0760 -0.4522
 8831SOL    HW237953   4.111   2.884  15.587  2.1262  0.5049 -1.4562
 8832SOL     OW37954   2.903   1.274   4.288 -0.3096 -0.2457 -0.1436
 8832SOL    HW137955   2.828   1.329   4.266 -2.2031 -2.9941 -0.5665
 8832SOL    HW237956   2.928   1.311   4.373  1.9783  0.4082 -1.1022
 8833SOL     OW37957   3.106   3.188   7.639  0.7222 -0.0680 -0.0305
 8833SOL    HW137958   3.124   3.139   7.719 -0.7144  1.0285  0.9685
 8833SOL    HW237959   3.010   3.189   7.639  0.7241 -0.1509 -0.5999
 8834SOL     OW37960   3.758   4.110   8.913 -0.4029  0.0917 -0.6027
 8834SOL    HW137961   3.847   4.089   8.940  0.0231  0.4478 -1.7172
 8834SOL    HW237962   3.708   4.060   8.978  0.4342 -1.8713 -1.5000
 8835SOL     OW37963   3.513   0.780   9.328  0.2228  0.3401 -0.6507
 8835SOL    HW137964   3.578   0.715   9.298 -1.3034 -0.4109 -2.3868
 8835SOL    HW237965   3.444   0.722   9.359  1.0547  0.0932  0.7144
 8836SOL     OW37966   3.704   2.351   3.933 -0.7633  0.1741  0.2508
 8836SOL    HW137967   3.664   2.276   3.889  2.7265 -2.2415  1.1920
 8836SOL    HW237968   3.723   2.305   4.015 -2.2310 -0.4528  0.2441
 8837SOL     OW37969   1.577   4.663   4.631  0.2484 -0.4955 -0.0473
 8837SOL    HW137970   1.646   4.650   4.566 -0.5571  2.0173 -1.4208
 8837SOL    HW237971   1.619   4.711   4.702 -1.5995 -1.7169  1.8690
 8838SOL     OW37972   0.186   3.909   7.239  0.3395 -0.0468 -0.2177
 8838SOL    HW137973   0.099   3.882   7.211  0.0545 -0.6480  1.2357
 8838SOL    HW237974   0.231   3.835   7.281  0.3345  0.3808  0.5249
 8839SOL     OW37975   1.664   0.991   5.735  0.0786 -0.1248  0.4212
 8839SOL    HW137976   1.569   1.005   5.738 -0.0706 -1.8110  3.4598
 8839SOL    HW237977   1.667   0.920   5.799 -0.9820 -1.3622 -0.8942
 8840SOL     OW37978   1.932   3.235   5.434  0.0770 -0.0942 -0.5145
 8840SOL    HW137979   1.935   3.286   5.516 -0.3733 -1.2764  0.2318
 8840SOL    HW237980   2.002   3.270   5.378  0.3512  0.1514 -0.0299
 8841SOL     OW37981   3.615   0.358   3.114 -0.0698 -0.4605  0.9918
 8841SOL    HW137982   3.632   0.422   3.045 -0.0070 -1.8608 -0.2814
 8841SOL    HW237983   3.603   0.278   3.062 -1.7443  0.9419 -0.7806
 8842SOL     OW37984   3.432   0.279  10.563  0.7711 -0.0463 -0.1367
 8842SOL    HW137985   3.377   0.252  10.637  0.1120  0.2244 -0.5328
 8842SOL    HW237986   3.380   0.340  10.511  0.7728 -0.0544 -0.1477
 8843SOL     OW37987   2.229   2.357  12.631  0.2390 -0.8836 -0.4194
 8843SOL    HW137988   2.159   2.332  12.692  0.9394 -1.9847 -0.0707
 8843SOL    HW237989   2.272   2.272  12.637  1.3422 -0.3044 -0.0936
 8844SOL     OW37990   4.170   3.725   4.469  0.2994 -0.2019 -0.2097
 8844SOL    HW137991   4.255   3.694   4.502 -0.5491 -0.3007  1.8987
 8844SOL    HW237992   4.117   3.647   4.484 -0.4744  0.2817 -0.4397
 8845SOL     OW37993   0.736   3.638   1.590 -0.3226  0.0258  0.2134
 8845SOL    HW137994   0.804   3.598   1.536 -0.3027 -0.1081  0.3353
 8845SOL    HW237995   0.769   3.609   1.675 -0.2554  2.0071  0.8713
 8846SOL     OW37996   3.206   0.107   0.806 -0.0250  0.0826  0.2044
 8846SOL    HW137997   3.246   0.021   0.794 -2.6105 -1.0855  0.1977
 8846SOL    HW237998   3.277   0.167   0.830 -0.8618  1.2493 -0.2476
 8847SOL     OW37999   1.796   2.677   9.759 -0.2847 -0.3006 -0.0254
 8847SOL    HW138000   1.729   2.702   9.822 -1.2950 -0.2060 -1.1433
 8847SOL    HW238001   1.874   2.657   9.811  0.1559  2.3146  0.3438
 8848SOL     OW38002   0.674   3.526   7.688 -0.7590  0.0396  0.1485
 8848SOL    HW138003   0.652   3.616   7.664  1.2598  0.9176  1.5534
 8848SOL    HW238004   0.753   3.536   7.742 -2.0328 -0.0580  2.0052
 8849SOL     OW38005   2.385   1.519  12.641  0.0052  1.0330 -0.1529
 8849SOL    HW138006   2.293   1.533  12.616 -1.4139 -3.0148  2.8249
 8849SOL    HW238007   2.426   1.538  12.557 -1.4977  0.9382 -0.9140
 8850SOL     OW38008   2.641   0.696   7.018  0.0412  0.2855 -0.0612
 8850SOL    HW138009   2.603   0.783   7.035 -0.8857 -0.2778  0.7638
 8850SOL    HW238010   2.562   0.643   7.031  0.1564  0.4836  1.4952
 8851SOL     OW38011   1.302   1.682   5.660  0.3011 -0.1150  0.0245
 8851SOL    HW138012   1.319   1.707   5.570  1.1400  1.6448  0.6709
 8851SOL    HW238013   1.373   1.727   5.706  1.1385  0.9429 -2.3210
 8852SOL     OW38014   2.639   2.017   7.324 -0.1684 -0.0029 -0.0652
 8852SOL    HW138015   2.611   2.064   7.403  0.0865 -1.7880  1.0927
 8852SOL    HW238016   2.569   1.954   7.308 -0.2663 -0.0622  0.5795
 8853SOL     OW38017   3.215   2.712   6.457 -0.5084 -0.1953  0.4245
 8853SOL    HW138018   3.293   2.763   6.478 -0.6893 -0.8242  2.5827
 8853SOL    HW238019   3.210   2.674   6.545 -1.7954 -2.0718 -0.4518
 8854SOL     OW38020   2.619   0.700  16.666 -0.2236  0.2453  0.4113
 8854SOL    HW138021   2.597   0.779  16.618  0.7583  0.9902  1.2109
 8854SOL    HW238022   2.652   0.653  16.589  2.1004  2.0544  0.3340
 8855SOL     OW38023   0.946   1.004   2.504  0.7224  0.0707 -0.0255
 8855SOL    HW138024   0.939   1.073   2.439  1.2831 -1.0760 -1.3167
 8855SOL    HW238025   0.867   0.957   2.478  0.8592  0.9933 -2.0882
 8856SOL     OW38026   0.521   4.193  12.199  0.3977 -0.4235 -0.0378
 8856SOL    HW138027   0.453   4.195  12.266  0.3159 -0.7696 -0.1112
 8856SOL    HW238028   0.533   4.288  12.190 -3.3450  0.0654  0.3190
 8857SOL     OW38029   1.943   0.876   4.271  0.5605  0.0953  0.0868
 8857SOL    HW138030   1.909   0.822   4.343 -2.5517  3.9939  1.5258
 8857SOL    HW238031   1.958   0.960   4.313 -0.6349  1.6312 -2.6223
 8858SOL     OW38032   0.470   4.221   5.465 -0.6965 -0.5698  0.1341
 8858SOL    HW138033   0.527   4.181   5.532 -1.0941  1.3792  1.6316
 8858SOL    HW238034   0.503   4.311   5.462 -0.3043 -0.6825  0.9814
 8859SOL     OW38035   4.127   1.176  16.596  0.1297  0.0962 -0.0269
 8859SOL    HW138036   4.154   1.184  16.688 -1.2844  1.0027  0.3187
 8859SOL    HW238037   4.034   1.201  16.606  1.0003  3.2246  0.4551
 8860SOL     OW38038   3.388   3.793  11.011 -0.3366 -0.1750 -0.1884
 8860SOL    HW138039   3.351   3.708  11.036  2.1653 -0.7486  1.5772
 8860SOL    HW238040   3.317   3.842  10.969  0.0743 -1.5827 -2.5330
 8861SOL     OW38041   1.505   1.127   6.526  0.0532  0.3906 -0.2646
 8861SOL    HW138042   1.574   1.146   6.462  2.7619 -3.6108  1.4472
 8861SOL    HW238043   1.431   1.184   6.504 -0.1426 -0.8295 -2.7511
 8862SOL     OW38044   4.213   2.220  15.572 -0.0369 -0.3658  0.3505
 8862SOL    HW138045   4.295   2.269  15.568 -1.3002  1.6547 -1.2922
 8862SOL    HW238046   4.167   2.262  15.645 -1.2936  0.7068 -1.0386
 8863SOL     OW38047   0.751   2.405  17.197  0.2394 -0.1506  0.1546
 8863SOL    HW138048   0.826   2.464  17.191  0.3259  0.0063  2.7596
 8863SOL    HW238049   0.710   2.401  17.111  2.3651  0.5607 -0.8937
 8864SOL     OW38050   0.708   2.942   4.538 -0.0582 -0.4402 -0.3515
 8864SOL    HW138051   0.660   3.025   4.539 -1.1568 -1.0571 -1.6300
 8864SOL    HW238052   0.641   2.874   4.530 -0.6619  0.0362  0.5307
 8865SOL     OW38053   0.159   0.645   4.125  0.4743  0.0790  0.3944
 8865SOL    HW138054   0.082   0.662   4.179 -0.1076 -0.1349 -0.3770
 8865SOL    HW238055   0.120   0.594   4.054  2.0792 -1.4335  0.5704
 8866SOL     OW38056   2.612   3.789   4.309 -0.0394  0.4905 -0.1984
 8866SOL    HW138057   2.666   3.779   4.230 -0.0630  1.6860 -0.3725
 8866SOL    HW238058   2.544   3.726   4.283  1.1836  0.1370 -2.5350
 8867SOL     OW38059   1.061   0.666   3.532 -0.0613  0.3575  0.1027
 8867SOL    HW138060   1.121   0.662   3.607  1.0961  0.0582 -0.8392
 8867SOL    HW238061   0.996   0.603   3.562  0.2285 -0.4569 -0.9993
 8868SOL     OW38062   1.484   0.708   1.855 -0.2465 -0.2430 -0.2004
 8868SOL    HW138063   1.454   0.628   1.898 -1.4976  0.6708  0.6215
 8868SOL    HW238064   1.566   0.738   1.895 -2.5768  1.9393  2.9818
 8869SOL     OW38065   4.231   2.090   8.874 -0.2322 -0.1632  0.5659
 8869SOL    HW138066   4.304   2.112   8.815 -0.1928 -0.0938  0.6407
 8869SOL    HW238067   4.167   2.159   8.856 -0.3951  0.0336  1.9176
 8870SOL     OW38068   4.066   0.322   9.078  0.5131  0.1301 -0.4060
 8870SOL    HW138069   4.127   0.326   9.151 -0.2866  2.0664  0.1429
 8870SOL    HW238070   4.123   0.351   9.007 -0.0570  0.2623 -0.8144
 8871SOL     OW38071   3.232   3.153   3.784 -0.4257  0.2085 -0.0309
 8871SOL    HW138072   3.271   3.080   3.831  0.9299 -0.2168 -1.8194
 8871SOL    HW238073   3.291   3.225   3.807  1.1034  0.0082 -3.3366
 8872SOL     OW38074   3.820   0.914   6.219 -0.1245 -0.0967 -0.3543
 8872SOL    HW138075   3.808   0.948   6.130  0.8255  0.3372 -0.3141
 8872SOL    HW238076   3.890   0.969   6.253  0.9350  0.3840 -3.3036
 8873SOL     OW38077   2.115   3.220   7.960 -0.7856 -0.4022  0.2377
 8873SOL    HW138078   2.194   3.250   8.005 -2.3110  0.4442  2.3613
 8873SOL    HW238079   2.116   3.129   7.988 -1.0260  0.2548  2.4032
 8874SOL     OW38080   1.470   1.367   6.239  0.9842  0.5977  0.1193
 8874SOL    HW138081   1.387   1.395   6.201  0.2920  0.0505  1.2281
 8874SOL    HW238082   1.445   1.362   6.331  0.7643 -0.4868  0.0064
 8875SOL     OW38083   4.622   4.667   4.673 -0.0701  0.0812 -0.2578
 8875SOL    HW138084   4.552   4.603   4.688  1.6774 -2.0487 -1.0901
 8875SOL    HW238085   4.667   4.652   4.757 -1.0146 -1.7358 -0.0578
 8876SOL     OW38086   3.852   0.892   8.722  1.0672 -0.2633  0.1394
 8876SOL    HW138087   3.766   0.920   8.751  0.8036 -1.2203  0.2628
 8876SOL    HW238088   3.912   0.946   8.774  0.8260 -2.5407  2.7633
 8877SOL     OW38089   2.951   1.592   6.549  0.1656 -0.1802 -0.5997
 8877SOL    HW138090   2.875   1.552   6.506 -1.1582  0.5086  1.0688
 8877SOL    HW238091   3.029   1.538   6.534  0.6731  1.0225 -2.1893
 8878SOL     OW38092   1.989   4.691   8.894 -0.0802  0.1184 -0.1108
 8878SOL    HW138093   2.010   0.006   8.809 -1.9296  1.5725  0.0921
 8878SOL    HW238094   2.017   0.045   8.943  0.9180  0.8986 -1.8956
 8879SOL     OW38095   1.432   0.747   3.682 -0.3934 -0.1384 -0.5998
 8879SOL    HW138096   1.354   0.691   3.688 -0.5553 -0.0641 -2.1793
 8879SOL    HW238097   1.491   0.694   3.629  0.0420  0.8029 -1.0536
 8880SOL     OW38098   2.862   1.129  11.063 -0.0724 -0.3428 -0.3828
 8880SOL    HW138099   2.884   1.058  11.123  0.6791  1.6951  1.7513
 8880SOL    HW238100   2.780   1.164  11.099  0.1041 -1.9269  1.5140
 8881SOL     OW38101   3.007   3.775  10.341 -0.6797  0.2354 -1.1238
 8881SOL    HW138102   2.969   3.712  10.280  0.3801 -0.6271 -0.8855
 8881SOL    HW238103   2.931   3.831  10.355 -1.1050 -0.6228 -0.0167
 8882SOL     OW38104   2.041   2.801  10.401  0.0603  0.8092 -0.4587
 8882SOL    HW138105   2.124   2.848  10.394  0.2896  0.7256  1.8779
 8882SOL    HW238106   1.989   2.865  10.351 -1.5038 -0.3337 -0.3013
 8883SOL     OW38107   1.944   0.925  14.145  0.1601  0.1505 -0.2691
 8883SOL    HW138108   2.024   0.873  14.139  0.3888  0.3890  0.7143
 8883SOL    HW238109   1.983   1.012  14.158 -0.5706  0.2987  0.9362
 8884SOL     OW38110   2.127   1.864   7.489 -0.4818 -0.7801 -0.5590
 8884SOL    HW138111   2.070   1.941   7.499 -0.5620 -0.6758 -1.8516
 8884SOL    HW238112   2.079   1.806   7.429 -2.4791  1.7805 -1.4430
 8885SOL     OW38113   2.397   0.921   5.494  0.3918 -0.2983  0.2974
 8885SOL    HW138114   2.360   0.964   5.417  1.6601 -0.3757 -0.3536
 8885SOL    HW238115   2.316   0.887   5.533 -0.4859  0.0609 -1.2334
 8886SOL     OW38116   3.645   2.513   2.978  0.3994 -0.5816 -0.4207
 8886SOL    HW138117   3.667   2.556   3.060  1.1337 -2.5712  0.4284
 8886SOL    HW238118   3.620   2.427   3.012 -0.6077 -0.5285 -1.0327
 8887SOL     OW38119   1.844   2.574  11.137 -0.4139  0.6322 -0.0132
 8887SOL    HW138120   1.902   2.538  11.070 -0.4131  0.4295  0.0957
 8887SOL    HW238121   1.876   2.538  11.220  1.4981  0.2415 -0.9022
 8888SOL     OW38122   2.685   0.052   1.518 -0.0655 -0.2044  0.0365
 8888SOL    HW138123   2.714   0.142   1.530 -0.3351 -0.0261 -0.6846
 8888SOL    HW238124   2.636   0.048   1.436  1.8125 -2.7280 -0.9768
 8889SOL     OW38125   0.590   2.182   3.965  0.0755 -0.3506  0.1680
 8889SOL    HW138126   0.497   2.199   3.977  0.4521  1.2701  0.8406
 8889SOL    HW238127   0.613   2.259   3.912 -1.8586  0.7967  0.9887
 8890SOL     OW38128   1.170   2.942   5.164  0.1841 -0.0051  0.0911
 8890SOL    HW138129   1.167   2.906   5.254  2.2292  0.7762  0.4725
 8890SOL    HW238130   1.155   3.034   5.184 -0.5868  0.3816 -2.2849
 8891SOL     OW38131   0.224   4.297   3.419 -0.4950  0.4732  1.3733
 8891SOL    HW138132   0.184   4.227   3.368  0.1658  0.1229  1.3306
 8891SOL    HW238133   0.305   4.249   3.437 -1.3927 -0.2900  3.3803
 8892SOL     OW38134   4.411   1.788   7.175  0.5821 -0.5857 -0.4542
 8892SOL    HW138135   4.474   1.774   7.245 -0.9379 -0.2999  0.9718
 8892SOL    HW238136   4.358   1.709   7.163  0.3266 -0.5679  0.5902
 8893SOL     OW38137   0.969   4.314   4.900 -0.2531 -0.3231  0.3545
 8893SOL    HW138138   0.986   4.301   4.807  0.8518 -0.9204  0.6414
 8893SOL    HW238139   0.959   4.223   4.928  3.6728 -0.0942  2.4720
 8894SOL     OW38140   1.981   1.769   4.199  0.8246  0.5789 -0.3841
 8894SOL    HW138141   1.903   1.825   4.197  0.1340 -0.3928 -0.8848
 8894SOL    HW238142   1.958   1.708   4.269 -0.6660 -0.7725 -2.0244
 8895SOL     OW38143   2.377   0.329  11.506  0.0689 -0.2488  0.0230
 8895SOL    HW138144   2.385   0.416  11.545  1.8530 -0.1378 -0.5905
 8895SOL    HW238145   2.283   0.337  11.493 -0.0161 -3.1997 -1.0668
 8896SOL     OW38146   4.087   3.098   8.798  0.2529  0.3680  0.1549
 8896SOL    HW138147   4.081   3.178   8.745 -0.5462  0.2379  0.0432
 8896SOL    HW238148   4.134   3.120   8.878  0.7002  1.0101 -0.2827
 8897SOL     OW38149   0.553   2.879  16.920  0.3371  0.2057 -0.8940
 8897SOL    HW138150   0.640   2.908  16.948  1.9423 -2.5228 -3.0914
 8897SOL    HW238151   0.528   2.964  16.883 -0.5933  0.3860  0.1733
 8898SOL     OW38152   3.313   4.411  12.955  0.9112 -0.1328 -0.4350
 8898SOL    HW138153   3.353   4.345  13.012  1.0295 -0.1349 -0.5188
 8898SOL    HW238154   3.326   4.362  12.874  0.1261 -1.0017 -0.0273
 8899SOL     OW38155   3.305   0.522   6.955  0.1526  0.0349  0.4506
 8899SOL    HW138156   3.385   0.522   7.007  0.7553  1.1905 -0.4685
 8899SOL    HW238157   3.248   0.555   7.024  0.9846 -0.1517  1.2177
 8900SOL     OW38158   1.288   0.960   6.888  0.9774  0.5686 -0.8497
 8900SOL    HW138159   1.209   0.966   6.940  0.7279 -1.6576 -0.9824
 8900SOL    HW238160   1.249   0.923   6.808  0.1307  0.7957 -0.5377
 8901SOL     OW38161   4.021   2.238  16.181  0.1596 -0.2911 -0.1019
 8901SOL    HW138162   4.020   2.290  16.262  0.3166 -0.6700  0.1470
 8901SOL    HW238163   4.059   2.153  16.205 -1.2696 -0.3656  1.8579
 8902SOL     OW38164   1.307   3.544   4.620 -0.5922 -0.7551  0.5819
 8902SOL    HW138165   1.274   3.455   4.608  1.2257 -1.1287 -1.6592
 8902SOL    HW238166   1.383   3.533   4.563  0.1929  0.6294  1.3655
 8903SOL     OW38167   4.546   1.821   5.685 -0.5137  0.2222 -0.2219
 8903SOL    HW138168   4.505   1.737   5.663  0.9128 -0.4008 -0.5105
 8903SOL    HW238169   4.540   1.851   5.594 -0.4403  0.5141 -0.1324
 8904SOL     OW38170   4.338   0.449  11.922 -0.3690 -0.1815  0.4514
 8904SOL    HW138171   4.252   0.452  11.965  2.0139  0.6801  5.1329
 8904SOL    HW238172   4.397   0.453  11.997  2.0806 -1.5982 -1.4117
 8905SOL     OW38173   2.346   3.674   4.853 -0.4537 -0.1711  0.3862
 8905SOL    HW138174   2.320   3.597   4.803  1.7556  0.3364 -1.5255
 8905SOL    HW238175   2.440   3.682   4.836 -0.1213 -3.6509  0.5071
 8906SOL     OW38176   3.214   3.955  10.316 -0.4714  0.2491  0.1789
 8906SOL    HW138177   3.148   3.886  10.313 -1.1385  0.9387 -1.0383
 8906SOL    HW238178   3.247   3.938  10.229  1.5228 -0.4919  1.0890
 8907SOL     OW38179   3.074   4.366   4.222  0.0238  0.1365  0.0489
 8907SOL    HW138180   3.165   4.393   4.210 -0.9154  2.3826 -1.8408
 8907SOL    HW238181   3.033   4.436   4.273 -0.8651  0.8582 -1.6523
 8908SOL     OW38182   2.725   3.615   5.496 -0.3076  0.2841 -0.3450
 8908SOL    HW138183   2.784   3.592   5.425  0.7679  0.1823  0.5807
 8908SOL    HW238184   2.777   3.608   5.576  1.1243 -0.9115 -1.3678
 8909SOL     OW38185   2.366   0.979  10.441 -0.9547  0.4657 -0.2445
 8909SOL    HW138186   2.394   0.956  10.530  0.6922 -0.7040 -1.0596
 8909SOL    HW238187   2.329   1.066  10.457 -0.3840  0.7834 -0.6605
 8910SOL     OW38188   0.243   3.126  12.495 -0.4333  0.2841  0.5376
 8910SOL    HW138189   0.245   3.042  12.541 -2.3412  0.5544  1.1337
 8910SOL    HW238190   0.231   3.184  12.571 -0.0986  1.3665 -0.2349
 8911SOL     OW38191   2.245   0.694   7.315  0.0626  0.4459  0.0028
 8911SOL    HW138192   2.312   0.659   7.374  1.6603  2.9338 -0.3767
 8911SOL    HW238193   2.246   0.789   7.325 -0.3848  0.5162 -0.6120
 8912SOL     OW38194   3.799   0.171   2.461 -0.6687 -0.2272  0.4708
 8912SOL    HW138195   3.871   0.232   2.476  0.9329 -1.4864 -2.1463
 8912SOL    HW238196   3.825   0.141   2.374 -2.4608  0.3056 -0.2586
 8913SOL     OW38197   3.534   3.847   5.178 -0.0212  0.5023  0.2392
 8913SOL    HW138198   3.500   3.898   5.104  5.6638  2.9503 -0.7454
 8913SOL    HW238199   3.459   3.820   5.230 -0.9219  1.4499 -0.5478
 8914SOL     OW38200   0.265   2.716   6.440  0.6813  0.2957  0.3723
 8914SOL    HW138201   0.323   2.792   6.441  0.0278  0.8255 -1.9091
 8914SOL    HW238202   0.318   2.652   6.486  0.0373  0.2431  1.0354
 8915SOL     OW38203   0.281   0.230   2.940 -0.0130 -0.1142  0.4376
 8915SOL    HW138204   0.352   0.295   2.938  3.2082 -3.5995  0.6910
 8915SOL    HW238205   0.239   0.241   2.855  1.7135 -3.2601 -0.8147
 8916SOL     OW38206   2.551   0.944   4.110 -0.0555  0.1970  0.0028
 8916SOL    HW138207   2.517   0.867   4.156 -0.6639  0.3985 -0.1092
 8916SOL    HW238208   2.567   0.908   4.023  0.8938 -0.1312  0.3102
 8917SOL     OW38209   1.410   0.929  10.662  0.3285  0.3563 -0.7540
 8917SOL    HW138210   1.432   0.969  10.746 -1.1800 -1.1097  0.3529
 8917SOL    HW238211   1.315   0.917  10.670  0.4364 -0.1879 -0.2922
 8918SOL     OW38212   1.740   3.581  10.967  0.9025 -0.2815  0.6780
 8918SOL    HW138213   1.817   3.524  10.970  0.5753 -0.7562  0.0624
 8918SOL    HW238214   1.788   3.661  10.943 -0.3866  0.3733  0.2993
 8919SOL     OW38215   4.285   2.062   6.822 -0.1899  0.2247  0.3964
 8919SOL    HW138216   4.246   2.149   6.829  0.3086  0.5659 -1.0095
 8919SOL    HW238217   4.200   2.019   6.808  0.5461 -1.1022  0.0180
 8920SOL     OW38218   0.730   0.168   6.056 -0.2499 -0.8046  0.3930
 8920SOL    HW138219   0.801   0.143   6.116 -0.6402 -0.7446  0.8785
 8920SOL    HW238220   0.768   0.191   5.971  1.0805 -1.6578  0.7554
 8921SOL     OW38221   0.295   1.396  11.894  0.5547 -0.7682  0.0929
 8921SOL    HW138222   0.246   1.389  11.812  2.0368 -2.9387 -0.6226
 8921SOL    HW238223   0.382   1.365  11.867  0.7272  1.2538 -1.6547
 8922SOL     OW38224   2.740   3.790  15.924 -0.0936  0.1437 -0.0674
 8922SOL    HW138225   2.716   3.778  16.016 -1.3025 -0.5281 -0.4713
 8922SOL    HW238226   2.714   3.705  15.889  1.9991 -0.3955 -0.2887
 8923SOL     OW38227   2.711   1.891   2.554 -0.1249 -0.3774  0.3702
 8923SOL    HW138228   2.712   1.863   2.462  1.7710 -0.0724  0.2962
 8923SOL    HW238229   2.622   1.863   2.574 -0.2571 -1.5667 -1.8488
 8924SOL     OW38230   4.687   0.805   0.449 -0.1213  0.4902  0.2923
 8924SOL    HW138231   4.662   0.883   0.401  1.7625  1.1408  0.3528
 8924SOL    HW238232   0.059   0.806   0.435  0.2711 -0.8385  2.7943
 8925SOL     OW38233   1.621   4.462   4.849  0.2401  0.2615 -0.1015
 8925SOL    HW138234   1.606   4.493   4.759  1.2344 -0.4895 -0.5197
 8925SOL    HW238235   1.710   4.429   4.840  0.9778  1.9160  1.0308
 8926SOL     OW38236   0.146   0.579  12.776  0.2147 -0.1549 -0.1930
 8926SOL    HW138237   0.186   0.494  12.797  2.0663  0.7638  0.0479
 8926SOL    HW238238   0.188   0.598  12.692  2.4078  1.3915  1.2594
 8927SOL     OW38239   2.108   3.576  15.890  0.2658 -0.2493  0.3842
 8927SOL    HW138240   2.052   3.652  15.901 -0.0736 -0.5216  0.5438
 8927SOL    HW238241   2.054   3.522  15.832  0.6915 -1.0748  0.7489
 8928SOL     OW38242   0.452   4.405   2.234 -0.1266  0.6249  0.8215
 8928SOL    HW138243   0.386   4.465   2.200 -1.8719 -0.6151  1.9795
 8928SOL    HW238244   0.447   4.341   2.163 -2.3478  1.5085  0.1918
 8929SOL     OW38245   0.074   1.908   5.739 -0.5355  0.1117 -0.9299
 8929SOL    HW138246   0.004   1.842   5.745 -0.1972 -0.3334 -1.7996
 8929SOL    HW238247   0.090   1.929   5.831  1.6746 -0.0645 -1.2930
 8930SOL     OW38248   3.548   0.945   7.817 -0.0168 -0.0967 -0.2618
 8930SOL    HW138249   3.537   0.860   7.861  0.0614  0.5640  1.0203
 8930SOL    HW238250   3.508   1.010   7.874  0.4528 -0.1782  0.1543
 8931SOL     OW38251   0.156   3.843   0.633 -0.1207 -0.1259  0.0978
 8931SOL    HW138252   0.133   3.931   0.663 -0.4574 -0.1407 -0.1057
 8931SOL    HW238253   0.251   3.849   0.629 -0.1656  0.1587 -0.6352
 8932SOL     OW38254   0.312   0.227   6.024  0.1284 -0.1969 -0.3655
 8932SOL    HW138255   0.248   0.183   5.969 -2.0416 -0.2638  2.1991
 8932SOL    HW238256   0.319   0.165   6.097  1.6329  1.8090  1.2151
 8933SOL     OW38257   3.746   3.748   4.631  0.1742  0.0631  0.2027
 8933SOL    HW138258   3.669   3.805   4.641 -0.7237 -1.2247  0.6092
 8933SOL    HW238259   3.700   3.676   4.586  1.7566 -1.5946  1.2821
 8934SOL     OW38260   2.081   3.869   3.673  0.3885  0.3607 -0.4640
 8934SOL    HW138261   2.038   3.840   3.754 -0.5739  1.2007 -0.6792
 8934SOL    HW238262   2.007   3.854   3.615 -0.4974  0.5002  0.6253
 8935SOL     OW38263   1.275   4.713  13.722 -0.0859 -0.0130  0.1460
 8935SOL    HW138264   1.236   4.632  13.689 -0.4548  1.0128 -1.9309
 8935SOL    HW238265   1.245   0.002  13.813  2.3820  1.9014  0.7116
 8936SOL     OW38266   2.760   4.605   0.098  0.0345 -0.1558 -0.4890
 8936SOL    HW138267   2.748   4.517   0.134 -1.5229  1.0941  2.0148
 8936SOL    HW238268   2.747   4.588   0.005 -2.4094  1.1394 -0.3813
 8937SOL     OW38269   3.494   2.467   3.796 -0.1711  0.3289  0.0331
 8937SOL    HW138270   3.423   2.404   3.807 -0.5093  0.7033 -0.0226
 8937SOL    HW238271   3.547   2.434   3.869  0.2096 -0.3346 -0.5414
 8938SOL     OW38272   2.277   1.750   6.628  0.0666 -0.0474  0.7392
 8938SOL    HW138273   2.364   1.738   6.590  0.3415 -1.2552  1.7248
 8938SOL    HW238274   2.219   1.770   6.554  0.4859 -2.2994 -0.2012
 8939SOL     OW38275   1.202   2.358  10.782 -0.5019 -0.0662  0.2054
 8939SOL    HW138276   1.297   2.348  10.788 -0.2857  0.4913 -2.5601
 8939SOL    HW238277   1.178   2.372  10.874 -2.7306  0.2901 -0.4157
 8940SOL     OW38278   2.309   0.508   0.054  0.0548  0.3864 -0.0634
 8940SOL    HW138279   2.347   0.432   0.098  0.4666 -0.0851 -1.2069
 8940SOL    HW238280   2.369   0.577   0.079 -0.5257  0.0587  2.2149
 8941SOL     OW38281   0.422   3.353   8.990 -1.1453 -0.3658 -0.1897
 8941SOL    HW138282   0.458   3.429   9.034  0.4786 -3.8206  4.4312
 8941SOL    HW238283   0.498   3.312   8.949 -0.3241 -1.0394  2.0446
 8942SOL     OW38284   2.617   3.423   7.866 -0.1860  0.3823  0.7187
 8942SOL    HW138285   2.699   3.382   7.893  0.1717  1.3167  1.0316
 8942SOL    HW238286   2.571   3.342   7.845 -1.0398  1.4819 -1.7081
 8943SOL     OW38287   3.792   4.283   3.515 -0.0526 -0.1645  0.1083
 8943SOL    HW138288   3.825   4.214   3.572  0.6051  1.2134  1.3851
 8943SOL    HW238289   3.702   4.252   3.508 -0.0671  0.0898 -0.8977
 8944SOL     OW38290   0.880   2.996  11.360 -0.2549  0.1805  0.2940
 8944SOL    HW138291   0.938   3.001  11.436 -0.4234 -0.0843  0.4399
 8944SOL    HW238292   0.941   3.034  11.297  1.3883 -0.4522  1.4955
 8945SOL     OW38293   0.561   3.473   5.754  0.0838 -0.7127  0.4905
 8945SOL    HW138294   0.530   3.553   5.796 -0.3691 -0.7532  0.2316
 8945SOL    HW238295   0.514   3.412   5.811  1.6750 -1.8888  0.5707
 8946SOL     OW38296   3.694   4.586   3.514 -0.5088 -0.2065  0.1311
 8946SOL    HW138297   3.655   4.654   3.460  0.1763 -0.9008 -1.2401
 8946SOL    HW238298   3.788   4.583   3.496 -1.0835  1.7594 -3.0459
 8947SOL     OW38299   2.271   0.671   8.481 -0.1904  0.2880  0.0955
 8947SOL    HW138300   2.245   0.580   8.498 -0.2487 -0.0461 -1.7165
 8947SOL    HW238301   2.268   0.673   8.385  1.4562  1.6794  0.0799
 8948SOL     OW38302   4.278   4.452   8.979  0.6766 -0.0577  0.0502
 8948SOL    HW138303   4.258   4.541   9.005 -1.7960 -0.4032 -0.6352
 8948SOL    HW238304   4.347   4.441   9.043  1.1991 -2.2084 -0.8574
 8949SOL     OW38305   2.772   4.598   2.172 -0.0836  0.6734  0.2822
 8949SOL    HW138306   2.837   4.565   2.110 -0.0451  1.2365  0.0173
 8949SOL    HW238307   2.688   4.557   2.148  0.4792 -0.3746  0.1082
 8950SOL     OW38308   1.765   4.125   7.096 -0.0579  0.0420 -0.0708
 8950SOL    HW138309   1.682   4.079   7.113  0.7569 -1.8642 -1.2337
 8950SOL    HW238310   1.827   4.070   7.144 -0.4072  0.7042  1.1401
 8951SOL     OW38311   1.787   2.565   7.514 -0.0467  0.1738 -0.2439
 8951SOL    HW138312   1.758   2.568   7.423  0.3833  0.8485 -0.3539
 8951SOL    HW238313   1.710   2.603   7.556 -0.4318  0.2425 -1.0121
 8952SOL     OW38314   3.367   2.983   3.946 -0.5241  0.0372 -0.2330
 8952SOL    HW138315   3.412   2.988   4.030 -1.1368  1.6945 -0.0100
 8952SOL    HW238316   3.394   2.899   3.909 -3.3966 -0.0062 -2.2498
 8953SOL     OW38317   1.479   2.441   9.333  0.2640  0.2931 -0.1778
 8953SOL    HW138318   1.563   2.452   9.377  1.7096 -0.4392 -2.7149
 8953SOL    HW238319   1.426   2.422   9.410  2.1877  1.6432  1.4658
 8954SOL     OW38320   3.336   0.630   2.185 -0.1000 -0.0572  0.7611
 8954SOL    HW138321   3.396   0.612   2.258 -0.1908 -1.5207  0.4745
 8954SOL    HW238322   3.389   0.647   2.107 -1.8582 -1.6240 -0.7806
 8955SOL     OW38323   3.267   2.646  14.787  0.2553  0.2014 -0.0750
 8955SOL    HW138324   3.249   2.725  14.838 -0.4488  1.5107 -2.3442
 8955SOL    HW238325   3.188   2.598  14.809  0.4493 -0.6656 -1.2670
 8956SOL     OW38326   0.311   1.951   3.864  0.1969 -0.0748 -0.4798
 8956SOL    HW138327   0.251   1.924   3.933 -1.7752 -1.2136 -2.6263
 8956SOL    HW238328   0.364   1.871   3.858 -0.2208 -0.3513 -0.4356
 8957SOL     OW38329   3.488   1.654   6.147  0.0939  0.2621  0.3881
 8957SOL    HW138330   3.490   1.656   6.243  2.5001  0.1991  0.3525
 8957SOL    HW238331   3.450   1.567   6.136  0.9378  0.0207 -0.6137
 8958SOL     OW38332   3.763   4.546   3.132  0.0110 -0.2521  0.8175
 8958SOL    HW138333   3.688   4.497   3.166 -1.1824  0.0091 -1.4296
 8958SOL    HW238334   3.835   4.498   3.172  1.5090  1.1347 -0.2095
 8959SOL     OW38335   1.821   2.281  14.135 -0.1525 -0.0938  0.4487
 8959SOL    HW138336   1.727   2.286  14.119 -0.0279 -0.5129 -0.4507
 8959SOL    HW238337   1.846   2.306  14.046 -0.1897  3.1017  1.3406
 8960SOL     OW38338   2.029   0.944   8.122  0.0017 -0.3822  0.2743
 8960SOL    HW138339   2.024   0.855   8.157 -0.0470 -0.1289  0.9026
 8960SOL    HW238340   2.064   0.990   8.198  2.1527 -0.4775 -0.6609
 8961SOL     OW38341   0.691   2.956  17.170  0.1796  0.1505 -0.3008
 8961SOL    HW138342   0.704   2.923  17.259  1.4838 -0.4160 -0.7029
 8961SOL    HW238343   0.770   2.937  17.119  0.8294  0.9810  0.3866
 8962SOL     OW38344   4.594   1.091  15.209 -0.5516 -0.3752  0.2052
 8962SOL    HW138345   4.670   1.130  15.165 -1.5707  1.2295 -0.1740
 8962SOL    HW238346   4.590   1.141  15.290 -0.5848 -0.2260  0.1122
 8963SOL     OW38347   1.838   3.677   4.432 -0.1596 -0.1889  0.0877
 8963SOL    HW138348   1.816   3.742   4.499  0.6314  0.3170 -0.1417
 8963SOL    HW238349   1.885   3.618   4.490 -0.5969 -1.0946 -0.4805
 8964SOL     OW38350   2.318   4.256   1.493  0.0166 -0.0410 -0.7300
 8964SOL    HW138351   2.291   4.235   1.403  0.4965 -0.0545 -0.8693
 8964SOL    HW238352   2.267   4.333   1.518 -0.6917 -1.1065  1.1067
 8965SOL     OW38353   0.632   4.601   1.302 -0.1402 -0.0916 -0.2880
 8965SOL    HW138354   0.545   4.569   1.330  0.4769  0.2034  1.9838
 8965SOL    HW238355   0.650   4.530   1.240  1.4201 -0.2353  0.3222
 8966SOL     OW38356   3.039   4.454  10.743 -0.4051 -0.7122 -0.0542
 8966SOL    HW138357   3.005   4.498  10.822 -0.0751  2.6789 -1.7865
 8966SOL    HW238358   3.077   4.529  10.697 -0.7596 -1.0701 -0.9224
 8967SOL     OW38359   1.509   4.699   8.337 -0.1063  0.3274 -0.3473
 8967SOL    HW138360   1.422   4.666   8.315  0.3804 -1.4587  0.4227
 8967SOL    HW238361   1.503   0.066   8.303  2.2210  0.5729 -0.0967
 8968SOL     OW38362   0.955   0.946   4.188  0.2162 -0.2077  0.1019
 8968SOL    HW138363   0.971   1.037   4.165  0.5478 -0.5249 -0.9180
 8968SOL    HW238364   0.882   0.969   4.246  0.6099 -0.4807  0.6955
 8969SOL     OW38365   1.141   2.986   9.045  0.0008 -0.6781 -0.3172
 8969SOL    HW138366   1.220   2.932   9.040 -0.0445 -0.7219 -0.5521
 8969SOL    HW238367   1.125   3.018   8.956  0.1310  0.9559  0.2514
 8970SOL     OW38368   3.610   1.144   4.275  0.1073 -0.8142  0.5569
 8970SOL    HW138369   3.647   1.058   4.255  1.5466  0.1279 -0.7092
 8970SOL    HW238370   3.650   1.144   4.362 -0.4738 -0.5395  0.8224
 8971SOL     OW38371   2.366   0.181   1.955 -0.2019 -0.1367 -0.2272
 8971SOL    HW138372   2.440   0.217   1.907 -0.8962 -0.3341 -1.4329
 8971SOL    HW238373   2.347   0.104   1.902 -1.4384 -0.1705  0.2611
 8972SOL     OW38374   1.275   4.148   3.317 -0.2748  0.3739  0.2931
 8972SOL    HW138375   1.316   4.230   3.290  2.4642 -1.0511  0.1344
 8972SOL    HW238376   1.310   4.089   3.249  0.3859 -1.3201  2.1128
 8973SOL     OW38377   3.200   0.258   5.679 -0.3305  0.0359  0.4566
 8973SOL    HW138378   3.137   0.268   5.607  0.7422  1.0244 -0.3477
 8973SOL    HW238379   3.248   0.184   5.641 -2.4874 -1.2778  0.2983
 8974SOL     OW38380   2.560   1.760   7.500  0.1388 -0.4323  0.4685
 8974SOL    HW138381   2.490   1.785   7.441  3.0813  1.4550 -2.2541
 8974SOL    HW238382   2.545   1.667   7.488 -1.9589 -0.1259  0.7482
 8975SOL     OW38383   4.071   3.432   4.044 -0.0466 -0.8464 -0.0507
 8975SOL    HW138384   4.090   3.358   3.986  0.0880 -1.0670  0.2750
 8975SOL    HW238385   4.141   3.495   4.026 -0.0451 -0.8436 -0.0352
 8976SOL     OW38386   0.105   1.113  12.128 -0.1448 -0.2136 -0.4319
 8976SOL    HW138387   0.055   1.125  12.208 -3.2146  0.0068 -2.3815
 8976SOL    HW238388   0.189   1.136  12.168  0.7567 -3.0018 -0.7244
 8977SOL     OW38389   4.042   1.645   7.075  0.8671  0.0854  0.3512
 8977SOL    HW138390   4.008   1.719   7.126 -2.8696 -0.9056 -0.6805
 8977SOL    HW238391   4.108   1.606   7.132 -1.7705 -0.1491  3.2730
 8978SOL     OW38392   2.845   1.936   8.632  0.0037  0.1894  0.4142
 8978SOL    HW138393   2.936   1.921   8.659  0.1974 -1.1393 -0.9561
 8978SOL    HW238394   2.852   1.933   8.536 -0.6574  2.5925  0.2928
 8979SOL     OW38395   0.105   1.756   6.789 -0.0490  0.4584 -0.2025
 8979SOL    HW138396   0.153   1.734   6.868  1.1941 -0.2704 -1.1673
 8979SOL    HW238397   0.036   1.690   6.782 -1.5913  1.8670  1.5074
 8980SOL     OW38398   2.911   0.151  13.113 -0.6515 -0.1935 -0.0057
 8980SOL    HW138399   2.821   0.172  13.089  1.0418  2.8444 -3.7643
 8980SOL    HW238400   2.935   0.197  13.194 -2.9214  1.4991 -0.3062
 8981SOL     OW38401   3.118   0.575  13.564 -0.4746  0.3679 -0.0149
 8981SOL    HW138402   3.132   0.546  13.474 -2.1338 -0.8418  0.1060
 8981SOL    HW238403   3.165   0.658  13.568  0.7239 -0.3865  1.5190
 8982SOL     OW38404   3.000   2.218  17.493 -0.0581 -0.0976  0.2169
 8982SOL    HW138405   2.994   2.314  17.490  0.6540 -0.0840 -0.8055
 8982SOL    HW238406   3.045   2.207  17.410 -2.0207  1.8524 -1.1111
 8983SOL     OW38407   4.028   4.529   8.272  0.5493  0.6835  0.5611
 8983SOL    HW138408   3.978   4.539   8.353  0.7062  3.3374  0.3501
 8983SOL    HW238409   3.999   4.445   8.237  0.9024  1.1057 -0.7526
 8984SOL     OW38410   1.747   0.891   4.816  0.1312 -0.0934  0.6185
 8984SOL    HW138411   1.832   0.857   4.845  0.3408 -0.5107 -0.4742
 8984SOL    HW238412   1.687   0.820   4.838  1.7239 -1.6438 -0.0337
 8985SOL     OW38413   4.170   2.528   4.475 -0.3356 -0.0362  0.4867
 8985SOL    HW138414   4.263   2.503   4.473  0.0327  1.3868 -0.4199
 8985SOL    HW238415   4.148   2.475   4.398 -1.3543  1.4869 -0.2654
 8986SOL     OW38416   1.925   3.142   7.097  0.0228  0.3037 -0.4376
 8986SOL    HW138417   1.947   3.061   7.142  0.1423 -0.1246 -1.2666
 8986SOL    HW238418   1.854   3.172   7.154 -1.0873  2.3447 -2.8830
 8987SOL     OW38419   2.377   3.706  14.888  0.4620  0.3249  0.5102
 8987SOL    HW138420   2.370   3.715  14.983  1.1903  1.6034  0.4420
 8987SOL    HW238421   2.445   3.769  14.865  0.8685 -0.9143 -1.6864
 8988SOL     OW38422   4.014   2.024   4.756  0.3791 -0.5343 -0.0511
 8988SOL    HW138423   4.097   1.985   4.785 -0.9733 -2.6480  0.9335
 8988SOL    HW238424   4.038   2.116   4.742  1.5352 -1.0192 -1.1943
 8989SOL     OW38425   0.994   0.338   8.664 -0.2987  0.1437  0.1902
 8989SOL    HW138426   1.049   0.364   8.738  0.9776  1.5099 -1.2194
 8989SOL    HW238427   0.928   0.276   8.694 -1.3599  0.3443 -1.7067
 8990SOL     OW38428   3.600   0.502   8.137  0.0052 -0.5352 -0.4624
 8990SOL    HW138429   3.577   0.566   8.070  2.5101  0.4541 -0.3701
 8990SOL    HW238430   3.666   0.442   8.102  0.1610 -0.9041  0.4501
 8991SOL     OW38431   2.919   4.099  13.068 -0.8293 -0.1063  0.2882
 8991SOL    HW138432   2.853   4.061  13.009 -3.8555 -1.9389  4.8389
 8991SOL    HW238433   2.881   4.184  13.088  0.2827  0.1795  1.1367
 8992SOL     OW38434   3.115   3.188   4.122  0.3934 -0.4645  0.2848
 8992SOL    HW138435   3.114   3.106   4.073 -2.5598  0.2169 -0.7685
 8992SOL    HW238436   3.065   3.235   4.056 -0.2490 -1.0500  0.3539
 8993SOL     OW38437   2.064   2.727   2.530  0.2253 -0.2422 -0.0452
 8993SOL    HW138438   2.151   2.696   2.503  0.2025  0.0212 -0.4248
 8993SOL    HW238439   2.026   2.751   2.445  1.1556 -1.7415 -0.8906
 8994SOL     OW38440   3.378   2.898   8.725  0.4234 -0.3305 -0.3674
 8994SOL    HW138441   3.457   2.872   8.677  1.2368 -0.2176  0.9291
 8994SOL    HW238442   3.401   2.990   8.741 -0.4666 -0.1118 -0.3436
 8995SOL     OW38443   2.741   1.623   6.132  0.3276 -0.1580  0.6128
 8995SOL    HW138444   2.741   1.527   6.130 -1.6464 -0.1603  1.1143
 8995SOL    HW238445   2.690   1.637   6.053  0.2338 -0.4723  0.6202
 8996SOL     OW38446   1.800   0.671  13.788 -0.3534 -0.6585  1.0084
 8996SOL    HW138447   1.765   0.724  13.860  0.4767  1.3386 -0.0589
 8996SOL    HW238448   1.894   0.685  13.790 -0.3658 -0.5008  0.4911
 8997SOL     OW38449   1.168   3.934  11.151  0.9337  0.1689 -0.5605
 8997SOL    HW138450   1.172   3.926  11.055 -1.8909 -0.4177 -0.6092
 8997SOL    HW238451   1.255   3.897  11.168  1.2790  0.5859 -1.4207
 8998SOL     OW38452   3.843   2.577  16.934  0.0936  0.3507  0.5222
 8998SOL    HW138453   3.765   2.632  16.934  0.0104  0.2145 -1.6128
 8998SOL    HW238454   3.866   2.597  17.025 -0.1532  0.3994  0.5742
 8999SOL     OW38455   0.660   1.925  14.244  0.0832 -0.6637 -0.0946
 8999SOL    HW138456   0.731   1.899  14.186 -0.6106  0.4048 -1.4335
 8999SOL    HW238457   0.583   1.887  14.201 -0.0163  1.3874 -1.7079
 9000SOL     OW38458   4.606   1.395  14.284 -0.4460 -0.1916  0.1637
 9000SOL    HW138459   4.584   1.342  14.208  0.5730  1.8605 -1.5480
 9000SOL    HW238460   4.652   1.326  14.331  1.3828  0.8483 -0.1159
 9001SOL     OW38461   4.094   1.983   5.255  0.8107  0.3502 -0.1364
 9001SOL    HW138462   4.065   1.902   5.214 -2.2187  1.7415 -0.7634
 9001SOL    HW238463   4.010   2.016   5.288  0.3891  0.4267 -1.2848
 9002SOL     OW38464   2.218   1.907   8.403  0.3668 -0.0183 -0.6508
 9002SOL    HW138465   2.142   1.849   8.414 -2.2681  3.8292  1.5175
 9002SOL    HW238466   2.272   1.841   8.360 -0.9357 -1.6257  0.1892
 9003SOL     OW38467   4.584   0.898   6.716  0.1680 -0.2997 -0.6623
 9003SOL    HW138468   4.666   0.853   6.732 -0.4843 -0.7543  1.3661
 9003SOL    HW238469   4.604   0.969   6.655 -0.4495  0.1887 -0.3000
 9004SOL     OW38470   3.455   0.457   2.376 -0.1853  0.0487  0.5068
 9004SOL    HW138471   3.531   0.454   2.318 -0.7891 -0.3525 -0.2690
 9004SOL    HW238472   3.485   0.423   2.460  0.5662  0.8302  0.5506
 9005SOL     OW38473   1.658   1.354   9.859  0.9758 -0.2139 -0.1447
 9005SOL    HW138474   1.649   1.272   9.908 -0.6059 -0.5146 -0.9124
 9005SOL    HW238475   1.667   1.419   9.929 -1.9423 -0.6585  0.6620
 9006SOL     OW38476   1.747   1.723  11.107 -0.4395  0.3077  0.0911
 9006SOL    HW138477   1.661   1.703  11.069 -1.3547  1.3135  1.6350
 9006SOL    HW238478   1.785   1.785  11.045 -0.0538  0.0579  0.0828
 9007SOL     OW38479   2.044   4.160   7.575 -0.2957 -0.7256 -0.3287
 9007SOL    HW138480   1.968   4.184   7.522 -0.0677 -1.4006 -0.9533
 9007SOL    HW238481   2.064   4.069   7.557 -0.7830 -0.3988 -2.5190
 9008SOL     OW38482   4.302   3.920   4.688  0.3836  0.0342 -1.0486
 9008SOL    HW138483   4.313   3.840   4.740 -1.2849  0.5374  0.1036
 9008SOL    HW238484   4.269   3.981   4.754  1.2139 -1.3124  0.5950
 9009SOL     OW38485   0.306   0.687   0.829  0.0199 -0.0207 -0.3397
 9009SOL    HW138486   0.238   0.648   0.885  0.2207  1.9078  1.2652
 9009SOL    HW238487   0.332   0.605   0.788  1.9751  1.1795 -1.4867
 9010SOL     OW38488   2.135   0.771  12.604 -0.5704 -0.3243 -0.5658
 9010SOL    HW138489   2.217   0.820  12.611 -1.0584  0.4330 -0.2373
 9010SOL    HW238490   2.121   0.762  12.510  0.6031 -3.3300 -0.4625
 9011SOL     OW38491   0.253   1.993   5.923 -0.1063 -0.8902 -0.3552
 9011SOL    HW138492   0.296   2.077   5.939 -0.6621 -0.8256  0.7778
 9011SOL    HW238493   0.210   1.985   6.008 -1.3671  0.3330 -0.8894
 9012SOL     OW38494   3.453   3.762   0.312 -0.1770  0.4045 -0.2859
 9012SOL    HW138495   3.457   3.805   0.226  0.2584 -1.0336 -0.9943
 9012SOL    HW238496   3.519   3.816   0.356 -0.3653  0.7706 -0.4534
 9013SOL     OW38497   3.630   4.641   4.896  0.5071 -0.3224  0.1261
 9013SOL    HW138498   3.667   4.686   4.820 -0.2881 -1.1393 -0.7442
 9013SOL    HW238499   3.693   4.577   4.929 -0.4116 -0.7184  1.1135
 9014SOL     OW38500   0.109   3.306  13.556  0.2210  0.4172  0.2798
 9014SOL    HW138501   0.075   3.390  13.526 -0.3107  0.4098  0.8674
 9014SOL    HW238502   0.191   3.328  13.602  0.5137  0.2987 -0.1847
 9015SOL     OW38503   0.228   3.434  10.601  0.3564  0.1779  0.2421
 9015SOL    HW138504   0.167   3.484  10.656  0.2907 -0.1151  0.4362
 9015SOL    HW238505   0.280   3.384  10.663 -0.9133  0.9338  1.9214
 9016SOL     OW38506   1.738   3.879  17.486  0.0874  0.2167 -0.4648
 9016SOL    HW138507   1.753   3.867  17.393  0.6771 -1.1994 -0.1865
 9016SOL    HW238508   1.755   3.973  17.495 -1.3211  0.4534 -0.3388
 9017SOL     OW38509   3.933   2.380   5.293 -0.1662  0.1541  0.0831
 9017SOL    HW138510   3.964   2.311   5.352  0.1562  0.5802  0.4060
 9017SOL    HW238511   3.995   2.448   5.316 -0.6522  0.1320  1.4720
 9018SOL     OW38512   3.986   0.667   4.003 -0.1687  0.4556 -0.0346
 9018SOL    HW138513   3.986   0.604   4.076  2.9155  0.0877 -0.3628
 9018SOL    HW238514   4.031   0.616   3.936 -1.7302  0.4301 -1.0679
 9019SOL     OW38515   0.141   1.457  14.216 -0.0412  0.0058  0.1349
 9019SOL    HW138516   0.185   1.450  14.300 -0.8818  0.2261  0.5999
 9019SOL    HW238517   0.055   1.456  14.258  0.2482 -2.2312  0.6275
 9020SOL     OW38518   1.010   3.888   8.097  0.9517 -0.3518  0.5938
 9020SOL    HW138519   0.952   3.964   8.097  0.8172 -0.4567 -0.2494
 9020SOL    HW238520   1.013   3.862   8.190  0.6531 -1.5986  0.2579
 9021SOL     OW38521   0.744   3.809   0.978 -0.0000  0.0885 -0.3349
 9021SOL    HW138522   0.701   3.728   0.949 -0.0370 -0.1438  0.3714
 9021SOL    HW238523   0.669   3.867   0.963  0.3025  1.0429  1.8265
 9022SOL     OW38524   1.168   3.968  15.963 -0.1241 -0.1281 -0.1143
 9022SOL    HW138525   1.141   4.059  15.952  1.2833  0.4967  1.4442
 9022SOL    HW238526   1.153   3.928  15.878 -0.9103  1.6609 -0.8038
 9023SOL     OW38527   4.393   0.924   5.955  0.5210  0.0003  0.5229
 9023SOL    HW138528   4.483   0.956   5.959  1.1327 -1.7757  0.7685
 9023SOL    HW238529   4.370   0.956   5.868 -0.5069 -1.1183  0.3855
 9024SOL     OW38530   1.378   1.341   0.858  0.4544 -0.0205 -0.3061
 9024SOL    HW138531   1.452   1.358   0.916 -2.0200  3.2709  1.9284
 9024SOL    HW238532   1.411   1.276   0.796  1.4258  0.4079 -0.2334
 9025SOL     OW38533   2.991   0.102   8.292  0.0859 -0.3999 -0.2206
 9025SOL    HW138534   3.086   0.098   8.280  0.5183  0.7675  2.8217
 9025SOL    HW238535   2.975   0.182   8.242 -0.2037 -1.1852 -1.3785
 9026SOL     OW38536   4.231   0.216   8.509  0.3997  0.3926  0.3816
 9026SOL    HW138537   4.299   0.208   8.443 -0.9675  1.3219 -1.1266
 9026SOL    HW238538   4.271   0.174   8.585  4.3922  0.6112 -1.6249
 9027SOL     OW38539   2.877   1.052   4.817 -0.9179 -0.3310  0.7693
 9027SOL    HW138540   2.909   1.060   4.728  0.0286 -1.0344  1.0453
 9027SOL    HW238541   2.825   0.973   4.802  0.5429 -0.9151 -1.1306
 9028SOL     OW38542   1.734   4.537   5.852 -0.1713 -0.0920 -0.5502
 9028SOL    HW138543   1.771   4.477   5.917  3.4221  1.1265 -1.4515
 9028SOL    HW238544   1.737   4.479   5.776  0.8367  2.0016 -2.1076
 9029SOL     OW38545   2.587   0.429   3.334  0.0033 -0.4464 -0.1849
 9029SOL    HW138546   2.652   0.477   3.285 -1.2215 -0.5916 -1.9388
 9029SOL    HW238547   2.521   0.402   3.270 -0.1575  0.5616 -0.4378
 9030SOL     OW38548   4.576   4.587   6.644  0.0980 -0.2266  0.0787
 9030SOL    HW138549   4.562   4.521   6.577  1.2750  0.1374 -0.5185
 9030SOL    HW238550   4.485   4.612   6.661 -0.4445 -1.1081 -1.6039
 9031SOL     OW38551   4.667   3.652   9.366  0.2548  0.0513 -0.4123
 9031SOL    HW138552   4.717   3.572   9.352 -1.0352 -0.9022  0.4691
 9031SOL    HW238553   4.660   3.661   9.462  0.6547  0.8300 -0.4549
 9032SOL     OW38554   3.660   2.645   5.626  0.2234  0.4603 -0.8366
 9032SOL    HW138555   3.653   2.707   5.553 -1.1262  1.8235  0.4534
 9032SOL    HW238556   3.683   2.562   5.585  0.4480  0.3203 -0.4341
 9033SOL     OW38557   1.208   1.127   3.754 -0.0240 -0.4779 -0.5135
 9033SOL    HW138558   1.245   1.085   3.832 -0.7548 -1.3075 -0.6137
 9033SOL    HW238559   1.261   1.100   3.679  1.0650 -0.2599  0.1753
 9034SOL     OW38560   4.691   2.946   2.431  0.6667  0.2643  0.5713
 9034SOL    HW138561   4.672   3.013   2.364  1.0985  1.4576  1.6421
 9034SOL    HW238562   4.641   2.875   2.391 -0.9531  1.2003  0.9268
 9035SOL     OW38563   1.180   2.219   1.143  0.8117 -0.5423  0.8415
 9035SOL    HW138564   1.262   2.226   1.191  1.5141 -2.5965 -0.0591
 9035SOL    HW238565   1.198   2.127   1.126 -0.0648 -0.9249  2.0364
 9036SOL     OW38566   0.764   0.514  15.815  0.1197  0.2513 -0.5368
 9036SOL    HW138567   0.801   0.589  15.770  0.6664  1.2317  1.5535
 9036SOL    HW238568   0.705   0.475  15.750 -0.6521  2.5488 -1.2055
 9037SOL     OW38569   1.917   0.986   8.852  0.8056  0.2658 -0.7016
 9037SOL    HW138570   1.981   0.935   8.901  1.0092 -2.3449 -3.7095
 9037SOL    HW238571   1.953   0.978   8.764  2.2187  0.2548 -0.1257
 9038SOL     OW38572   4.343   0.384   8.968  0.1421  0.3567  0.1222
 9038SOL    HW138573   4.361   0.292   8.986  0.6710  0.5639  0.6379
 9038SOL    HW238574   4.412   0.428   9.017 -0.9167 -0.3684  2.2740
 9039SOL     OW38575   1.105   4.091   8.527  0.2324 -0.4608 -0.7673
 9039SOL    HW138576   1.195   4.059   8.536  0.5133  0.8819  1.0777
 9039SOL    HW238577   1.058   4.084   8.610  0.9052  1.3085 -0.2313
 9040SOL     OW38578   2.101   2.317   6.160 -0.2884 -0.1691 -0.0214
 9040SOL    HW138579   2.134   2.382   6.099 -0.8800  1.1287  1.0465
 9040SOL    HW238580   2.009   2.332   6.136  0.2730  0.1308 -1.9863
 9041SOL     OW38581   2.441   1.406   6.096 -0.3709 -0.5691 -0.2802
 9041SOL    HW138582   2.349   1.429   6.082 -0.3885 -1.6040 -1.8149
 9041SOL    HW238583   2.448   1.343   6.025 -0.1091 -3.2076  2.0863
 9042SOL     OW38584   1.372   3.158   4.697  0.0657 -0.3328  0.3361
 9042SOL    HW138585   1.307   3.173   4.629  0.1662  1.3510  0.6251
 9042SOL    HW238586   1.322   3.184   4.774 -2.3767  1.1892 -1.7725
 9043SOL     OW38587   2.770   0.072  15.749  0.2579  0.4790  0.2439
 9043SOL    HW138588   2.762   0.113  15.835 -1.1444  0.4249  0.1336
 9043SOL    HW238589   2.858   0.035  15.762 -0.8489 -1.1131  3.1430
 9044SOL     OW38590   4.196   3.513   1.715 -0.1010 -0.4004  0.2062
 9044SOL    HW138591   4.169   3.424   1.693 -1.8523  0.4803 -1.2269
 9044SOL    HW238592   4.278   3.497   1.763 -0.6415 -2.1407  0.5498
 9045SOL     OW38593   3.605   3.089  17.019 -0.2174 -0.0663  0.1198
 9045SOL    HW138594   3.680   3.036  17.046 -1.4419 -1.3516  0.9742
 9045SOL    HW238595   3.623   3.115  16.929 -0.7547  0.7884  0.2591
 9046SOL     OW38596   3.781   3.144   7.455 -0.0990 -0.1567 -0.1094
 9046SOL    HW138597   3.868   3.185   7.452 -0.1153 -0.1133  0.0515
 9046SOL    HW238598   3.799   3.058   7.418 -0.5388  0.5619 -2.0466
 9047SOL     OW38599   1.471   1.461   4.050  0.2577  0.1485 -0.8036
 9047SOL    HW138600   1.471   1.451   3.955  1.8732  2.5526 -1.0477
 9047SOL    HW238601   1.564   1.452   4.072 -0.1181  0.4600  0.8770
 9048SOL     OW38602   2.944   2.027   2.948 -0.2559  0.0754  0.1269
 9048SOL    HW138603   2.862   2.038   2.898 -1.1236  0.3689  1.6181
 9048SOL    HW238604   3.015   2.013   2.886 -1.7800  0.3153 -1.6858
 9049SOL     OW38605   1.947   1.720   7.350  0.2493  0.2901 -0.5938
 9049SOL    HW138606   1.883   1.674   7.296  0.4199 -0.4146 -0.1913
 9049SOL    HW238607   1.885   1.729   7.423 -1.3801  4.7920 -2.5200
 9050SOL     OW38608   2.980   0.774   1.201 -0.7237 -0.3444 -0.4314
 9050SOL    HW138609   2.959   0.867   1.210 -0.0643 -0.2106 -0.2516
 9050SOL    HW238610   3.021   0.760   1.116 -0.8080  1.4421 -0.7817
 9051SOL     OW38611   1.199   2.637   7.143  0.3245  0.2983  0.4535
 9051SOL    HW138612   1.175   2.661   7.233 -0.3240  2.6702 -0.3682
 9051SOL    HW238613   1.294   2.634   7.132  0.5796  2.6306  2.1191
 9052SOL     OW38614   2.240   0.608   4.402 -0.3125 -0.1218  0.6259
 9052SOL    HW138615   2.164   0.654   4.437 -0.4940  0.6742 -0.8227
 9052SOL    HW238616   2.203   0.561   4.328  0.7524 -0.0997  0.0893
 9053SOL     OW38617   0.201   3.868   4.699 -0.0173  0.2251  0.1937
 9053SOL    HW138618   0.131   3.909   4.750 -2.5617 -2.6520 -0.9770
 9053SOL    HW238619   0.234   3.952   4.668 -0.3984  1.1766  2.3386
 9054SOL     OW38620   1.392   0.057  16.311 -0.2813 -0.6487  0.2123
 9054SOL    HW138621   1.394   0.150  16.289 -1.8303 -0.0562  2.5845
 9054SOL    HW238622   1.305   0.035  16.280 -1.3281  1.1358  1.8772
 9055SOL     OW38623   3.099   2.675   7.810 -0.1418  0.2736 -0.3923
 9055SOL    HW138624   3.182   2.722   7.825 -0.2139  0.1941  0.2835
 9055SOL    HW238625   3.056   2.713   7.887 -0.5986  0.0834 -0.5555
 9056SOL     OW38626   3.068   1.781   0.388  0.3534 -0.8669 -0.0595
 9056SOL    HW138627   3.142   1.802   0.331  0.5655 -2.3691 -0.3244
 9056SOL    HW238628   3.120   1.751   0.463  2.1541  1.2716 -0.4365
 9057SOL     OW38629   0.951   1.755   2.970 -0.4707 -0.4895  0.3684
 9057SOL    HW138630   1.020   1.716   3.024  1.5618  0.3280 -1.6393
 9057SOL    HW238631   0.986   1.839   2.938 -0.7483 -1.0941 -1.4975
 9058SOL     OW38632   4.691   4.241   8.053  0.2796  0.0990  0.0147
 9058SOL    HW138633   0.004   4.172   8.109 -1.7555 -1.1558 -0.2523
 9058SOL    HW238634   0.050   4.280   8.019  1.6097 -1.3612  1.5463
 9059SOL     OW38635   3.106   2.230   6.355 -0.1373  0.5035 -0.3442
 9059SOL    HW138636   3.189   2.182   6.350 -1.5245 -1.5607 -3.2696
 9059SOL    HW238637   3.136   2.320   6.347 -0.5374  0.4423 -2.5538
 9060SOL     OW38638   2.180   0.229  16.084 -0.2677 -0.0431 -0.3009
 9060SOL    HW138639   2.152   0.294  16.149 -3.2714 -1.7703  0.1513
 9060SOL    HW238640   2.132   0.255  16.006 -0.0527 -0.3429 -0.5295
 9061SOL     OW38641   0.998   4.621   8.647  0.5822  0.8909 -0.5152
 9061SOL    HW138642   1.045   4.703   8.635  0.1224  1.0268 -1.4206
 9061SOL    HW238643   1.019   4.605   8.739 -2.3409 -0.9439 -0.1535
 9062SOL     OW38644   4.149   1.051   9.302  0.2939  0.4120  0.3152
 9062SOL    HW138645   4.228   1.022   9.256 -0.3372 -1.3177  0.3086
 9062SOL    HW238646   4.152   0.984   9.370 -0.7767 -0.5509 -0.5892
 9063SOL     OW38647   4.696   0.769   8.609  0.7329  0.4892 -1.3491
 9063SOL    HW138648   4.714   0.703   8.676  0.2669  1.5287 -0.2063
 9063SOL    HW238649   4.629   0.731   8.551  0.9603  2.1893 -2.7114
 9064SOL     OW38650   4.572   3.782   5.303  0.1272  0.0943  0.6355
 9064SOL    HW138651   4.515   3.855   5.328 -0.2627  0.0159 -0.0425
 9064SOL    HW238652   4.657   3.821   5.324 -0.1684 -0.0044  2.0321
 9065SOL     OW38653   2.056   2.716   5.778  0.0826  0.4926  0.0542
 9065SOL    HW138654   2.147   2.696   5.797 -0.1352  1.0983  1.7170
 9065SOL    HW238655   2.041   2.682   5.689  1.1922 -0.2652  0.1577
 9066SOL     OW38656   3.528   2.693  11.984  0.0077  0.5568 -0.2282
 9066SOL    HW138657   3.501   2.718  12.072 -2.1199  1.0393 -1.0042
 9066SOL    HW238658   3.460   2.630  11.959 -0.2635 -0.0553  2.0492
 9067SOL     OW38659   4.072   1.567   4.029 -0.8403 -0.6434  0.9105
 9067SOL    HW138660   4.037   1.481   4.006  0.6127 -0.8226 -0.5908
 9067SOL    HW238661   4.009   1.623   3.983 -1.4591 -0.5529  1.8589
 9068SOL     OW38662   4.000   1.056   1.901  0.1612 -0.0490 -0.3723
 9068SOL    HW138663   3.972   1.122   1.964 -2.3438 -1.3836 -0.0514
 9068SOL    HW238664   4.009   1.113   1.825  0.2140  0.4570  0.0121
 9069SOL     OW38665   1.862   4.369  16.106  0.1016  0.4588  0.4031
 9069SOL    HW138666   1.817   4.422  16.041 -1.3897  1.7981  2.5493
 9069SOL    HW238667   1.790   4.306  16.116  1.3140 -0.9485  0.3455
 9070SOL     OW38668   1.257   3.527   6.886  0.0549 -0.5715 -0.1429
 9070SOL    HW138669   1.343   3.565   6.907 -0.6935  1.3740 -0.6548
 9070SOL    HW238670   1.262   3.512   6.792 -2.0887  2.9943 -0.8055
 9071SOL     OW38671   1.904   3.637   8.635  0.0906  0.0848  0.8499
 9071SOL    HW138672   1.867   3.680   8.558  1.3019  0.3033  0.3969
 9071SOL    HW238673   1.830   3.645   8.695 -0.0538 -0.8309  0.7961
 9072SOL     OW38674   2.426   2.165  12.752 -0.0259  0.2919 -0.0069
 9072SOL    HW138675   2.506   2.170  12.700  0.4290 -0.7933  0.5866
 9072SOL    HW238676   2.448   2.219  12.828  1.5646  0.8632 -0.8735
 9073SOL     OW38677   0.858   1.316   0.051 -0.0574  0.2188 -0.7046
 9073SOL    HW138678   0.943   1.286   0.018  0.3794  2.8000 -1.9157
 9073SOL    HW238679   0.849   1.250   0.120 -1.2900  0.0308 -1.0549
 9074SOL     OW38680   3.196   4.262   7.423 -0.3306 -0.4968 -0.2357
 9074SOL    HW138681   3.149   4.333   7.378  2.1867  1.0925 -0.3583
 9074SOL    HW238682   3.135   4.237   7.492  0.8548  1.7765  1.6428
 9075SOL     OW38683   0.394   0.805   6.721  0.4994 -0.7639  0.7860
 9075SOL    HW138684   0.413   0.739   6.654 -2.0027  0.2477 -0.8952
 9075SOL    HW238685   0.408   0.890   6.679 -1.4023 -0.6445  0.4142
 9076SOL     OW38686   3.093   3.265   6.708 -0.0427  0.6089  0.4341
 9076SOL    HW138687   3.041   3.340   6.677 -2.1519 -1.0786 -0.0509
 9076SOL    HW238688   3.054   3.256   6.795  0.1848  1.0012  0.5805
 9077SOL     OW38689   2.567   1.847  11.929  0.2717  0.2471  0.3482
 9077SOL    HW138690   2.635   1.909  11.904 -0.7835  1.4008  0.3790
 9077SOL    HW238691   2.606   1.759  11.926 -2.1604 -0.7960 -0.8435
 9078SOL     OW38692   3.223   1.639   6.331  0.0138 -0.4224  0.0244
 9078SOL    HW138693   3.143   1.618   6.282 -0.8491 -0.9081  1.6236
 9078SOL    HW238694   3.200   1.708   6.394 -0.5534  0.1042 -0.7521
 9079SOL     OW38695   2.582   2.623   0.933 -0.1321 -0.2587 -0.6460
 9079SOL    HW138696   2.488   2.610   0.946  0.1021  0.1870  1.3877
 9079SOL    HW238697   2.582   2.664   0.847 -0.2264 -0.1914 -0.6138
 9080SOL     OW38698   0.842   1.436  13.396  0.1961  0.5831  0.2387
 9080SOL    HW138699   0.920   1.402  13.353  0.1667 -1.4474  1.8075
 9080SOL    HW238700   0.830   1.519  13.350  3.4881  1.2433  0.5647
 9081SOL     OW38701   2.321   0.551   6.287  0.1920  0.0231  0.0597
 9081SOL    HW138702   2.314   0.594   6.372 -0.3759 -1.1555  0.6116
 9081SOL    HW238703   2.226   0.543   6.281  0.4732 -2.3789 -1.3919
 9082SOL     OW38704   4.559   3.141  12.903  0.3624  0.1594  0.1565
 9082SOL    HW138705   4.617   3.198  12.952 -1.7721  0.7017  2.0668
 9082SOL    HW238706   4.495   3.144  12.974  1.2601  1.0793  0.9217
 9083SOL     OW38707   2.663   0.831   3.266  0.2739  0.0397  0.4744
 9083SOL    HW138708   2.636   0.899   3.204 -0.2699 -0.0283  0.6399
 9083SOL    HW238709   2.717   0.776   3.209 -1.6389 -2.3610  1.0263
 9084SOL     OW38710   0.597   0.371  14.334  0.3657  0.0204 -0.3015
 9084SOL    HW138711   0.633   0.452  14.371 -1.0308  1.5047 -2.2040
 9084SOL    HW238712   0.531   0.362  14.403 -0.9749  1.0797 -1.4438
 9085SOL     OW38713   3.005   2.147   5.950  0.1064  0.5219 -0.1522
 9085SOL    HW138714   3.091   2.153   5.993 -0.7893 -0.3915  1.7525
 9085SOL    HW238715   2.990   2.052   5.951  0.8546  0.3995 -0.1894
 9086SOL     OW38716   1.102   0.077   2.763 -0.5111 -0.4475  0.3876
 9086SOL    HW138717   1.092   4.713   2.723  2.1975  0.7759 -2.9554
 9086SOL    HW238718   1.132   0.053   2.851 -0.9780  0.8419  0.9008
 9087SOL     OW38719   2.480   2.612   3.874  0.6490 -0.1455  0.4075
 9087SOL    HW138720   2.473   2.517   3.883 -0.3130 -0.1222 -0.0887
 9087SOL    HW238721   2.555   2.618   3.814 -0.3520  0.4263 -0.7677
 9088SOL     OW38722   3.608   0.504   4.563  0.8164  0.1666  0.1651
 9088SOL    HW138723   3.519   0.495   4.594  0.0880 -1.8428 -2.4262
 9088SOL    HW238724   3.659   0.463   4.633 -0.0108 -0.1397  0.5756
 9089SOL     OW38725   2.969   4.583   1.746  0.2565  0.2726 -0.4928
 9089SOL    HW138726   2.987   4.633   1.666 -0.8231  1.0637 -0.2450
 9089SOL    HW238727   2.874   4.577   1.740  0.4277 -1.0927 -1.7714
 9090SOL     OW38728   0.913   0.926   0.062 -0.5587 -0.5046  0.0972
 9090SOL    HW138729   0.882   1.009   0.099  1.6147 -0.0100  0.8379
 9090SOL    HW238730   0.846   0.864   0.089 -0.8835  0.1157  0.7251
 9091SOL     OW38731   2.470   4.106   8.903 -0.2593  0.8516 -0.2311
 9091SOL    HW138732   2.400   4.058   8.859 -0.3938  1.3395 -0.5496
 9091SOL    HW238733   2.424   4.174   8.952  0.6116  2.2234 -1.3043
 9092SOL     OW38734   0.312   2.181   6.302  0.2618  0.3850  0.4561
 9092SOL    HW138735   0.261   2.258   6.278  0.2004  0.0236 -0.5448
 9092SOL    HW238736   0.358   2.208   6.382  4.2755 -1.6617 -1.2083
 9093SOL     OW38737   3.661   0.797   7.604  1.2825  0.3567  0.1974
 9093SOL    HW138738   3.629   0.855   7.673 -0.0330 -1.4349  1.1022
 9093SOL    HW238739   3.691   0.854   7.533  1.4683 -0.9276 -0.7413
 9094SOL     OW38740   4.649   1.436   3.572 -0.4845  0.3300  0.6237
 9094SOL    HW138741   4.612   1.523   3.558  0.4427  0.3199 -1.9371
 9094SOL    HW238742   0.021   1.450   3.563 -0.5750  1.1288  0.9667
 9095SOL     OW38743   4.582   4.506  15.878  0.2467  0.3552  0.0755
 9095SOL    HW138744   4.523   4.551  15.939 -0.2289  0.1254 -0.2163
 9095SOL    HW238745   4.550   4.541  15.795 -2.2700 -1.0378  0.4515
 9096SOL     OW38746   2.597   4.174   5.092  0.1366 -0.0360 -0.5879
 9096SOL    HW138747   2.581   4.142   5.003 -0.0316 -0.7885 -0.2887
 9096SOL    HW238748   2.649   4.253   5.077 -1.5084  1.1210 -0.1600
 9097SOL     OW38749   1.056   4.362  17.581  0.2232 -0.1902 -0.1583
 9097SOL    HW138750   1.043   4.273  17.548  0.1019  0.2717 -1.3659
 9097SOL    HW238751   1.057   4.399  17.493  1.0690  0.4338  0.1156
 9098SOL     OW38752   0.492   3.994  10.002 -0.1722  0.1432  0.4993
 9098SOL    HW138753   0.497   4.081   9.961  1.6097 -0.2694 -0.1279
 9098SOL    HW238754   0.488   3.949   9.917 -1.9305  1.0680  0.0853
 9099SOL     OW38755   2.839   4.655   5.639  0.6726 -0.2781 -0.1107
 9099SOL    HW138756   2.836   4.717   5.567 -2.7541 -2.4153 -1.8487
 9099SOL    HW238757   2.931   4.639   5.658  0.6151 -0.2829  0.1631
 9100SOL     OW38758   2.685   0.503   3.982 -0.2205 -0.3592  0.0547
 9100SOL    HW138759   2.636   0.511   4.064  0.2804 -0.1506  0.3400
 9100SOL    HW238760   2.764   0.557   3.993 -0.1676 -0.2754 -0.7270
 9101SOL     OW38761   2.731   3.182  12.546  0.4199  0.2432  0.1317
 9101SOL    HW138762   2.825   3.194  12.531  0.6896 -0.8416  0.9314
 9101SOL    HW238763   2.713   3.090  12.526 -2.8080  0.7886  0.5187
 9102SOL     OW38764   1.768   2.504   8.230 -0.4420 -0.3685  0.1078
 9102SOL    HW138765   1.759   2.409   8.221  0.7629 -0.5208  0.5473
 9102SOL    HW238766   1.818   2.526   8.151 -0.6090  0.2497  0.1785
 9103SOL     OW38767   3.147   0.687   8.967 -0.4065  0.3415 -0.1646
 9103SOL    HW138768   3.154   0.750   8.895 -1.0998  1.8656  1.1060
 9103SOL    HW238769   3.224   0.632   8.951  0.1696  0.8693  0.8710
 9104SOL     OW38770   1.682   1.074  14.998  0.3612  0.2720 -0.3506
 9104SOL    HW138771   1.720   0.997  15.040 -1.2786  0.4794  1.5203
 9104SOL    HW238772   1.759   1.131  14.997 -0.0176  0.7433 -1.7453
 9105SOL     OW38773   1.281   0.652  16.227 -0.7466  0.2577  0.1417
 9105SOL    HW138774   1.230   0.723  16.268 -1.2185  0.5146 -0.8965
 9105SOL    HW238775   1.361   0.657  16.279 -0.0206  0.7707 -1.0352
 9106SOL     OW38776   2.265   2.581   6.085  0.1119 -0.1902 -0.3008
 9106SOL    HW138777   2.289   2.625   6.004 -1.3905  2.6301  0.7559
 9106SOL    HW238778   2.306   2.645   6.143  1.7768 -1.3499 -0.2247
 9107SOL     OW38779   4.154   4.014   6.554 -0.0107  0.3212 -0.3192
 9107SOL    HW138780   4.182   3.936   6.506  2.5852  0.0951  1.5226
 9107SOL    HW238781   4.063   3.999   6.578  0.5577  0.3013  1.7804
 9108SOL     OW38782   0.233   4.369   6.480  0.6599 -0.8083 -0.3058
 9108SOL    HW138783   0.212   4.419   6.401  0.6357 -0.5718 -0.1499
 9108SOL    HW238784   0.184   4.412   6.550  1.9584  0.0274  0.0796
 9109SOL     OW38785   3.874   3.324   2.158  0.0488  0.0198  0.2525
 9109SOL    HW138786   3.948   3.384   2.161 -0.1627  0.2854  0.0973
 9109SOL    HW238787   3.833   3.342   2.243  0.8273  0.6474  0.4938
 9110SOL     OW38788   2.269   2.182   4.713  0.6208  0.2437 -0.0024
 9110SOL    HW138789   2.359   2.171   4.683  0.0018 -0.3640 -1.6664
 9110SOL    HW238790   2.269   2.109   4.774  0.1790  0.0795 -0.1944
 9111SOL     OW38791   4.441   3.801  17.279  0.1888 -0.1174  0.1311
 9111SOL    HW138792   4.358   3.847  17.263  0.1639  0.2217  1.2602
 9111SOL    HW238793   4.461   3.756  17.197 -0.4414  0.5823 -0.4173
 9112SOL     OW38794   1.930   1.602   3.080  0.1676 -0.0663 -0.0754
 9112SOL    HW138795   1.969   1.635   3.161 -1.5719 -0.4281  0.9270
 9112SOL    HW238796   1.979   1.641   3.008 -0.4330 -0.1433 -0.5258
 9113SOL     OW38797   2.897   0.919   9.666 -0.4497  0.2890  0.1375
 9113SOL    HW138798   2.970   0.896   9.609 -1.9402 -0.0218 -1.6537
 9113SOL    HW238799   2.910   0.866   9.745  2.6526  1.2292  0.2480
 9114SOL     OW38800   3.281   2.185  16.368  0.2414 -0.5096 -0.0137
 9114SOL    HW138801   3.330   2.158  16.445  1.4126 -3.6880 -1.8457
 9114SOL    HW238802   3.321   2.124  16.305  2.3912  0.6009  0.2873
 9115SOL     OW38803   3.592   0.952  12.683 -0.6963 -0.3121  0.4178
 9115SOL    HW138804   3.686   0.939  12.677 -0.7928 -0.5851 -0.4778
 9115SOL    HW238805   3.570   0.916  12.769 -1.4272  0.0987  0.4064
 9116SOL     OW38806   3.888   2.799   5.451 -0.0825 -0.3729  0.1423
 9116SOL    HW138807   3.877   2.893   5.436  0.2171 -0.7426 -2.4708
 9116SOL    HW238808   3.818   2.768   5.393 -0.2632  0.0878  0.1145
 9117SOL     OW38809   1.191   3.362   6.181 -0.2337  0.4547 -0.6191
 9117SOL    HW138810   1.139   3.289   6.147  0.3300 -0.6724  0.9384
 9117SOL    HW238811   1.249   3.385   6.108  1.4771 -3.9888 -0.6635
 9118SOL     OW38812   1.629   1.064   2.891 -0.3466 -0.0116  0.1962
 9118SOL    HW138813   1.537   1.092   2.893 -0.7133 -1.1210 -1.1383
 9118SOL    HW238814   1.647   1.053   2.985 -0.7985  0.2517  0.3139
 9119SOL     OW38815   2.616   3.679   6.531 -0.2447  0.3358  0.1180
 9119SOL    HW138816   2.534   3.687   6.484  0.7236  1.0630 -1.4593
 9119SOL    HW238817   2.629   3.764   6.573  1.1442 -0.7693  1.9329
 9120SOL     OW38818   3.930   3.808   5.766  0.1028  0.4220 -0.3514
 9120SOL    HW138819   4.006   3.781   5.714 -1.0158 -1.9369 -0.7818
 9120SOL    HW238820   3.876   3.870   5.717  0.4329  1.9791  1.2482
 9121SOL     OW38821   0.291   2.284   4.466 -0.0991  0.1264  0.2085
 9121SOL    HW138822   0.295   2.191   4.487  0.6226 -0.1055 -0.9562
 9121SOL    HW238823   0.330   2.284   4.379 -1.8276 -1.3267 -0.5423
 9122SOL     OW38824   1.015   4.601   7.564  0.2154 -0.0960 -0.3531
 9122SOL    HW138825   1.034   4.688   7.531  1.6983  0.0242  0.8355
 9122SOL    HW238826   1.060   4.605   7.649  0.6401 -1.8990 -0.4963
 9123SOL     OW38827   2.392   3.151   4.976 -0.0322 -0.7421 -0.2040
 9123SOL    HW138828   2.439   3.069   4.992  0.3906 -0.7941 -1.7104
 9123SOL    HW238829   2.300   3.132   4.995  0.1986  1.0877  2.7207
 9124SOL     OW38830   4.324   2.873   8.326  0.2002  0.3366 -0.3076
 9124SOL    HW138831   4.233   2.896   8.347  0.6976  2.0117  0.0519
 9124SOL    HW238832   4.374   2.910   8.398  0.7345 -1.5368  0.2850
 9125SOL     OW38833   0.258   1.997   6.782  0.3328 -0.7172 -0.1970
 9125SOL    HW138834   0.169   1.963   6.789  0.2112 -0.8052 -2.1797
 9125SOL    HW238835   0.240   2.045   6.701 -1.3589 -0.9916  0.0289
 9126SOL     OW38836   3.158   4.677   4.645 -0.3225  0.1706  0.0426
 9126SOL    HW138837   3.227   0.020   4.661 -1.0262  2.0016 -4.4140
 9126SOL    HW238838   3.147   4.634   4.730 -1.1760 -1.4124 -0.8693
 9127SOL     OW38839   3.246   3.146   5.456 -0.1664 -0.4693 -0.0699
 9127SOL    HW138840   3.207   3.233   5.444 -2.8652 -1.8193 -1.0207
 9127SOL    HW238841   3.238   3.134   5.551  2.1344 -1.2619  0.0152
 9128SOL     OW38842   4.681   0.240   8.893 -0.3765  0.2310 -0.1875
 9128SOL    HW138843   4.683   0.243   8.989  0.2440 -0.0263 -0.1955
 9128SOL    HW238844   4.587   0.240   8.876 -0.1899  1.2033 -1.2729
 9129SOL     OW38845   0.053   4.339   6.808  0.2080 -0.2842  0.2168
 9129SOL    HW138846   0.100   4.335   6.892  0.2492 -1.1829  0.1488
 9129SOL    HW238847   4.684   4.350   6.834 -0.1972 -0.7209 -1.0270
 9130SOL     OW38848   2.063   2.111  10.478 -0.0183 -0.1067 -0.4047
 9130SOL    HW138849   2.158   2.096  10.481 -0.2696 -1.5514  0.1903
 9130SOL    HW238850   2.046   2.094  10.386 -2.0487  0.5354 -0.1532
 9131SOL     OW38851   1.923   4.484   4.004 -0.0776 -0.1805 -0.1496
 9131SOL    HW138852   1.933   4.392   4.028  0.6658 -0.2906 -0.8500
 9131SOL    HW238853   2.006   4.522   4.032  0.2904 -0.0741 -1.3548
 9132SOL     OW38854   2.729   2.804   8.918 -0.1150 -0.9930  0.1991
 9132SOL    HW138855   2.704   2.714   8.898 -1.6963 -0.1740 -1.5152
 9132SOL    HW238856   2.770   2.793   9.003 -0.1572 -3.2804 -0.0924
 9133SOL     OW38857   0.165   0.226   2.686 -0.1910  0.2279 -0.2902
 9133SOL    HW138858   0.080   0.248   2.648 -1.1503 -2.2299  0.4046
 9133SOL    HW238859   0.217   0.266   2.617  1.1568  3.8072  2.8191
 9134SOL     OW38860   2.877   1.150   9.417  0.2618 -0.0014 -0.0327
 9134SOL    HW138861   2.922   1.207   9.355 -0.5450  0.7742  0.0829
 9134SOL    HW238862   2.951   1.100   9.449  1.3798  1.3622 -0.4766
 9135SOL     OW38863   2.279   2.410   4.193  0.2188 -0.5771 -0.2285
 9135SOL    HW138864   2.227   2.436   4.270  0.8907  1.4521 -0.4537
 9135SOL    HW238865   2.282   2.497   4.153  0.9567 -1.0288 -1.1518
 9136SOL     OW38866   0.746   0.213   4.318  0.4906  0.1013  0.7366
 9136SOL    HW138867   0.744   0.308   4.328 -0.1338  0.3238 -1.4355
 9136SOL    HW238868   0.788   0.185   4.400 -0.9483 -0.6957  1.2056
 9137SOL     OW38869   0.798   1.715  13.248 -0.2106  0.0249  0.3027
 9137SOL    HW138870   0.810   1.770  13.325  1.6484 -0.0643  0.0837
 9137SOL    HW238871   0.886   1.723  13.211 -1.1530  0.8456 -1.7475
 9138SOL     OW38872   2.050   4.595   6.467 -0.0707  0.9133  0.3087
 9138SOL    HW138873   1.968   4.573   6.422  0.1882  1.6586 -0.5405
 9138SOL    HW238874   2.079   4.523   6.523 -1.1992 -0.4452 -0.8345
 9139SOL     OW38875   4.006   3.237   3.310 -0.0176  0.3262  0.5048
 9139SOL    HW138876   3.977   3.327   3.319 -0.5911 -0.0449  2.2277
 9139SOL    HW238877   4.082   3.251   3.253  2.0957 -2.2411  2.6733
 9140SOL     OW38878   0.995   0.744  10.006  0.4557  0.0746 -0.5350
 9140SOL    HW138879   0.933   0.776   9.939  0.6644  0.0418 -0.7453
 9140SOL    HW238880   0.944   0.766  10.084 -0.3834 -0.1636 -1.0121
 9141SOL     OW38881   4.399   0.466  12.657  0.4559  0.0199  0.2593
 9141SOL    HW138882   4.424   0.453  12.566 -1.3451  0.2422 -0.2508
 9141SOL    HW238883   4.421   0.558  12.675 -1.6206  0.7592 -1.0351
 9142SOL     OW38884   3.772   4.605  12.905 -0.2928  0.0641  0.1745
 9142SOL    HW138885   3.858   4.563  12.898  0.0985  0.8553  0.2310
 9142SOL    HW238886   3.751   4.570  12.991 -1.2359 -0.7614 -0.4065
 9143SOL     OW38887   1.717   1.486   4.156  0.4576  0.4616 -0.5511
 9143SOL    HW138888   1.702   1.532   4.239  0.7225 -0.3401 -0.0552
 9143SOL    HW238889   1.770   1.415   4.194 -0.5333 -0.0547 -0.1405
 9144SOL     OW38890   0.648   1.176   2.484  0.0649  0.0944 -0.2515
 9144SOL    HW138891   0.696   1.239   2.538 -1.8091  0.2894  1.1778
 9144SOL    HW238892   0.601   1.125   2.550 -0.3499 -1.1511 -1.5145
 9145SOL     OW38893   1.995   1.737   8.438 -0.0803 -0.0518 -0.7013
 9145SOL    HW138894   1.915   1.753   8.388  0.6802  2.3603 -1.1515
 9145SOL    HW238895   2.022   1.652   8.404 -3.0896 -1.0388 -0.6394
 9146SOL     OW38896   0.171   4.690   1.623  0.4374 -0.3866  0.6791
 9146SOL    HW138897   0.142   0.033   1.686  3.0320  1.3244  0.0859
 9146SOL    HW238898   0.258   4.677   1.661  0.8128  1.4799  0.4486
 9147SOL     OW38899   1.050   0.691   1.059  0.3755  0.1017  0.2376
 9147SOL    HW138900   0.994   0.763   1.086  0.2247 -1.1067  3.1447
 9147SOL    HW238901   0.998   0.664   0.984  0.5516 -0.0618  0.1725
 9148SOL     OW38902   1.606   0.209   4.809 -0.0092  0.0178 -0.4240
 9148SOL    HW138903   1.521   0.220   4.851 -0.2271 -2.7585 -0.1263
 9148SOL    HW238904   1.659   0.165   4.876  0.8569  0.9767 -0.4871
 9149SOL     OW38905   1.533   3.569   6.099  0.1061  0.4402 -0.2348
 9149SOL    HW138906   1.573   3.487   6.128 -0.1481 -0.0363 -1.2337
 9149SOL    HW238907   1.570   3.636   6.156 -0.8447 -0.3955  1.3554
 9150SOL     OW38908   0.557   1.765   4.618 -0.0808  0.1206  0.7798
 9150SOL    HW138909   0.574   1.787   4.709  0.1562  1.8575  0.2977
 9150SOL    HW238910   0.605   1.682   4.616 -1.9362 -0.9357 -1.0129
 9151SOL     OW38911   2.989   3.098   1.401 -0.4121 -0.2309 -0.0042
 9151SOL    HW138912   2.962   3.039   1.331  4.4518 -1.0440 -1.2253
 9151SOL    HW238913   3.064   3.138   1.357  0.2328 -0.8430  0.5375
 9152SOL     OW38914   0.586   0.092   4.038 -0.6269 -0.5287  0.1724
 9152SOL    HW138915   0.520   0.091   3.969  0.8604 -0.9456 -1.2390
 9152SOL    HW238916   0.641   0.016   4.019 -1.4950 -1.0588 -0.2056
 9153SOL     OW38917   2.691   0.682   6.340 -0.9106 -0.2393  0.6638
 9153SOL    HW138918   2.639   0.637   6.274  0.3816  0.6083 -0.9369
 9153SOL    HW238919   2.763   0.620   6.356  1.6559  2.5973  0.1758
 9154SOL     OW38920   1.045   2.007   2.915 -0.3477 -0.1467 -0.5627
 9154SOL    HW138921   1.123   1.999   2.969  0.8952 -0.7956 -2.4521
 9154SOL    HW238922   1.032   2.101   2.928 -1.4369 -0.1003 -1.9326
 9155SOL     OW38923   1.862   4.694  14.055  0.2086  0.1880  0.0305
 9155SOL    HW138924   1.797   4.631  14.086  0.8592 -0.8741 -0.7529
 9155SOL    HW238925   1.900   4.717  14.140  0.3101  0.9474 -0.2158
 9156SOL     OW38926   4.389   0.693  13.539  0.2011  0.3667 -0.3167
 9156SOL    HW138927   4.413   0.601  13.553 -0.6746  0.2201  0.1873
 9156SOL    HW238928   4.316   0.693  13.601  2.2978  0.4315  2.1528
 9157SOL     OW38929   1.892   3.509   0.401 -0.1984  0.1504 -0.5832
 9157SOL    HW138930   1.920   3.419   0.418 -0.2595  0.4471  1.1256
 9157SOL    HW238931   1.876   3.541   0.490 -0.0411  0.2327 -0.5850
 9158SOL     OW38932   1.778   2.348  12.884 -0.6537 -0.1673 -0.4727
 9158SOL    HW138933   1.872   2.328  12.886 -0.4565  0.3749 -3.5084
 9158SOL    HW238934   1.773   2.372  12.976 -1.2922 -0.0370 -0.5416
 9159SOL     OW38935   1.965   4.368  16.685 -0.5390 -0.5275 -0.2389
 9159SOL    HW138936   2.028   4.422  16.734  0.3816 -0.6362 -1.3038
 9159SOL    HW238937   1.896   4.362  16.751  2.3193 -1.1426  2.7042
 9160SOL     OW38938   0.803   1.189   5.712  0.4605  0.0781 -0.3423
 9160SOL    HW138939   0.735   1.170   5.647  0.1067 -0.0305  0.0569
 9160SOL    HW238940   0.792   1.284   5.706  0.6062  0.0271 -1.3913
 9161SOL     OW38941   2.340   3.996   3.590  0.9570 -0.7771 -0.0957
 9161SOL    HW138942   2.404   3.929   3.567  0.9965  0.1303 -2.6392
 9161SOL    HW238943   2.261   3.941   3.581 -0.3279  0.7755  1.6755
 9162SOL     OW38944   4.300   2.100  10.222  0.4671  0.1727 -0.0892
 9162SOL    HW138945   4.320   2.033  10.287 -0.0157  1.1711  1.0821
 9162SOL    HW238946   4.370   2.158  10.250  0.2923  0.8701 -1.1013
 9163SOL     OW38947   0.916   2.033   6.791  0.5508  0.4405 -0.1601
 9163SOL    HW138948   0.981   2.038   6.721 -0.2437 -0.3625 -0.9633
 9163SOL    HW238949   0.966   2.073   6.861 -1.2270 -0.0702  1.3935
 9164SOL     OW38950   2.456   2.188  15.695  0.2184  0.1971  0.0611
 9164SOL    HW138951   2.507   2.109  15.676 -1.0660 -0.5483 -0.2852
 9164SOL    HW238952   2.452   2.184  15.790  1.1462  1.7768  0.1722
 9165SOL     OW38953   3.885   3.565   3.894  0.0097 -0.0986  0.1260
 9165SOL    HW138954   3.919   3.501   3.957 -0.3565 -1.2995 -0.9067
 9165SOL    HW238955   3.885   3.509   3.816  1.4845 -1.2629  0.9649
 9166SOL     OW38956   1.170   3.757   5.966  0.0215 -0.4531 -0.1080
 9166SOL    HW138957   1.085   3.730   6.000 -0.2786 -0.9773 -1.2849
 9166SOL    HW238958   1.214   3.671   5.965  0.1431 -0.4196  1.9508
 9167SOL     OW38959   3.903   0.768   3.676 -1.0271  0.7683  0.0249
 9167SOL    HW138960   3.974   0.711   3.644  0.9274  2.0064  2.1238
 9167SOL    HW238961   3.946   0.830   3.735 -0.3861  0.5711 -0.2343
 9168SOL     OW38962   2.638   0.767   6.739  0.1506  0.4974 -0.6000
 9168SOL    HW138963   2.638   0.759   6.834  0.9687 -2.7624 -0.8831
 9168SOL    HW238964   2.572   0.702   6.717  0.1865  0.3562 -0.2906
 9169SOL     OW38965   1.871   1.906   4.452  0.1599  0.0376 -0.0807
 9169SOL    HW138966   1.949   1.940   4.406  0.5325  0.0909  0.5842
 9169SOL    HW238967   1.882   1.968   4.525  0.7359  1.3089 -1.2521
 9170SOL     OW38968   1.561   2.104   2.493 -0.0477  0.3465  0.9481
 9170SOL    HW138969   1.611   2.047   2.434  0.2861 -0.7046  2.2509
 9170SOL    HW238970   1.523   2.033   2.544  2.9820 -0.6428  1.8390
 9171SOL     OW38971   3.734   3.846   2.340  0.7016 -0.3386 -0.3443
 9171SOL    HW138972   3.800   3.896   2.388  0.5284 -2.5862  2.2112
 9171SOL    HW238973   3.650   3.890   2.354  1.2081  0.4171  0.3028
 9172SOL     OW38974   0.744   4.673  10.696 -0.0224  0.0084  0.1907
 9172SOL    HW138975   0.697   4.590  10.692 -1.7254  0.8982  1.6726
 9172SOL    HW238976   0.710   0.002  10.623  1.4098 -0.0956 -0.5541
 9173SOL     OW38977   3.099   0.538   4.022  0.0406  0.5320 -0.5590
 9173SOL    HW138978   3.063   0.457   4.059  0.4901  1.3999  1.7644
 9173SOL    HW238979   3.179   0.542   4.075  0.1565 -0.4070 -0.6620
 9174SOL     OW38980   3.813   0.594   2.427  0.7643 -0.1197 -0.2075
 9174SOL    HW138981   3.874   0.667   2.414 -0.5385  0.8107 -1.1025
 9174SOL    HW238982   3.850   0.560   2.508 -2.1960  0.1486  1.2463
 9175SOL     OW38983   1.122   3.908   5.724  0.1605  0.6213 -0.4162
 9175SOL    HW138984   1.074   3.982   5.688 -0.6785 -0.7031 -2.0574
 9175SOL    HW238985   1.160   3.949   5.801  0.5608 -2.0209  0.8030
 9176SOL     OW38986   3.700   0.250   3.416  0.2632 -0.3625  0.3552
 9176SOL    HW138987   3.696   0.160   3.383  1.5342 -0.4476  0.4263
 9176SOL    HW238988   3.788   0.255   3.453  0.6897 -0.3978 -0.6361
 9177SOL     OW38989   2.559   3.685   9.313  0.2406  0.1636  0.3772
 9177SOL    HW138990   2.575   3.599   9.274 -0.8753  0.1766 -0.1187
 9177SOL    HW238991   2.477   3.668   9.361 -0.7949  0.3608 -1.3303
 9178SOL     OW38992   3.820   0.192   2.731 -0.2591  0.3456  0.2212
 9178SOL    HW138993   3.800   0.210   2.639 -0.3855 -0.4201  0.1040
 9178SOL    HW238994   3.740   0.218   2.776 -0.2570  1.2783 -0.3183
 9179SOL     OW38995   1.113   4.026   4.238 -0.0372 -0.1183 -0.0856
 9179SOL    HW138996   1.189   4.030   4.179 -0.0679  2.0737  0.0128
 9179SOL    HW238997   1.083   3.937   4.223  0.9597 -0.3385 -0.7801
 9180SOL     OW38998   4.618   1.523  13.587 -0.4615 -0.2703 -0.6608
 9180SOL    HW138999   4.620   1.608  13.630  0.2653 -0.4424 -0.3517
 9180SOL    HW239000   4.608   1.547  13.495 -1.4498 -2.2056 -1.0681
 9181SOL     OW39001   1.108   0.584  15.553  0.3229 -0.5948  0.3203
 9181SOL    HW139002   1.115   0.530  15.632  0.4559 -1.6238 -0.3917
 9181SOL    HW239003   1.088   0.517  15.487  2.3742 -0.9484  0.0444
 9182SOL     OW39004   1.323   0.990   3.072 -0.5176  0.5115  0.2615
 9182SOL    HW139005   1.279   1.035   3.000 -0.3179  0.5971  0.1941
 9182SOL    HW239006   1.286   1.042   3.143  0.4839  1.0837  0.3619
 9183SOL     OW39007   0.952   2.407   5.758 -0.2418  0.1624  0.0775
 9183SOL    HW139008   0.959   2.416   5.853  0.9234 -0.4811  0.0556
 9183SOL    HW239009   0.860   2.413   5.732  0.4657  1.2356 -2.1871
 9184SOL     OW39010   2.637   3.953   6.651 -0.1495  0.5506 -0.6156
 9184SOL    HW139011   2.670   3.901   6.724  0.6730  0.9862 -0.6790
 9184SOL    HW239012   2.542   3.937   6.651 -0.2286  0.8833 -3.3649
 9185SOL     OW39013   0.581   0.549  13.655  0.1927  0.7188 -0.0973
 9185SOL    HW139014   0.560   0.536  13.562 -0.3553 -0.9847  0.2786
 9185SOL    HW239015   0.528   0.623  13.684  0.8563 -0.1224  3.1783
 9186SOL     OW39016   4.687   1.236  17.047 -0.2769 -0.3678 -0.3517
 9186SOL    HW139017   4.704   1.283  17.129 -0.1295 -0.9546 -0.0500
 9186SOL    HW239018   0.055   1.244  17.015  0.0292 -1.1401  0.3324
 9187SOL     OW39019   0.082   1.324   1.836  0.0464 -0.0026  0.1316
 9187SOL    HW139020   0.146   1.254   1.826 -0.1088 -0.2228  0.6596
 9187SOL    HW239021   0.099   1.372   1.755 -2.7202  2.2440  0.8650
 9188SOL     OW39022   1.531   3.212   2.184  0.2293  0.3653  0.2184
 9188SOL    HW139023   1.601   3.182   2.125 -0.4960  1.9139 -1.4447
 9188SOL    HW239024   1.483   3.257   2.114  1.3512 -0.4605 -1.0935
 9189SOL     OW39025   0.356   3.276   1.155  0.4949  0.0575 -0.4128
 9189SOL    HW139026   0.333   3.255   1.246 -2.4163  2.4331 -0.5884
 9189SOL    HW239027   0.272   3.275   1.109  0.8093  0.8303 -1.0048
 9190SOL     OW39028   0.923   2.228   7.161 -0.3518  0.1796 -0.5296
 9190SOL    HW139029   0.876   2.248   7.242 -1.3749 -0.2303 -1.0245
 9190SOL    HW239030   0.989   2.298   7.158 -0.5759  0.3114 -2.5080
 9191SOL     OW39031   3.293   2.625   8.036  0.1376 -0.2727  0.6399
 9191SOL    HW139032   3.206   2.585   8.037 -1.2822  2.8609  1.1633
 9191SOL    HW239033   3.318   2.633   8.128  1.4160  0.6390  0.2024
 9192SOL     OW39034   3.175   1.209   2.426  0.3137  0.0217 -0.5928
 9192SOL    HW139035   3.190   1.190   2.333  1.2212 -0.9009 -0.2532
 9192SOL    HW239036   3.264   1.188   2.455 -0.5906 -1.5313  1.0258
 9193SOL     OW39037   0.371   4.593   5.921 -0.0114  0.1495  0.3845
 9193SOL    HW139038   0.312   4.592   5.846 -1.4783 -1.8192  1.5724
 9193SOL    HW239039   0.455   4.591   5.875 -2.0567  0.2301 -3.2728
 9194SOL     OW39040   4.020   1.691  16.570  0.3463  0.1141 -0.1774
 9194SOL    HW139041   3.958   1.688  16.497  0.7877 -2.9436 -0.4488
 9194SOL    HW239042   4.074   1.614  16.550 -0.0463 -1.0271  3.2404
 9195SOL     OW39043   3.580   4.037  13.328  0.0914  0.0399 -0.2595
 9195SOL    HW139044   3.496   4.014  13.288  0.0606 -0.3631  0.0387
 9195SOL    HW239045   3.590   3.967  13.392 -0.4161  1.7686  1.7271
 9196SOL     OW39046   1.245   4.205   7.593 -0.2175 -0.0917  0.6040
 9196SOL    HW139047   1.194   4.144   7.541  0.8072  1.6162 -2.4437
 9196SOL    HW239048   1.188   4.222   7.667 -0.8084 -0.8197  0.3148
 9197SOL     OW39049   0.966   1.516   1.650 -0.4797 -0.5845 -0.2985
 9197SOL    HW139050   1.043   1.463   1.629 -0.5338 -0.6938 -0.2193
 9197SOL    HW239051   0.964   1.501   1.744  0.7642  0.6154 -0.0777
 9198SOL     OW39052   0.799   4.070   6.780 -0.0343 -0.3190 -1.0101
 9198SOL    HW139053   0.741   4.098   6.850  0.3610  0.0310 -0.8197
 9198SOL    HW239054   0.732   4.026   6.729  0.1997 -0.4104 -1.2381
 9199SOL     OW39055   4.423   2.195   6.229  0.6492 -0.1032  0.7524
 9199SOL    HW139056   4.390   2.270   6.279  0.8502  0.7610 -0.3832
 9199SOL    HW239057   4.511   2.196   6.266  1.9984  1.0588 -2.4154
 9200SOL     OW39058   2.021   3.626  17.549  0.6857 -0.3175  0.4766
 9200SOL    HW139059   1.967   3.601  17.474 -0.1431  1.4227  0.4754
 9200SOL    HW239060   1.950   3.635  17.612 -0.3864 -0.3143 -0.7451
 9201SOL     OW39061   2.260   2.657  17.452  0.4197 -0.0296 -0.5814
 9201SOL    HW139062   2.184   2.658  17.393  0.1422 -1.4478 -0.2353
 9201SOL    HW239063   2.232   2.597  17.520 -2.9670  1.2706 -0.8618
 9202SOL     OW39064   4.079   1.139   4.029  0.3055  0.0014 -0.0577
 9202SOL    HW139065   4.049   1.059   3.985  2.4120 -0.0761 -1.3745
 9202SOL    HW239066   4.082   1.103   4.117  1.2953  0.0809 -0.0545
 9203SOL     OW39067   1.144   0.580   1.560  0.3498 -0.4425 -0.2767
 9203SOL    HW139068   1.058   0.622   1.560  0.4496 -0.2375  4.1414
 9203SOL    HW239069   1.159   0.570   1.466  1.1358 -0.5251 -0.1428
 9204SOL     OW39070   0.927   2.643   9.170  0.3371 -0.3017  0.0504
 9204SOL    HW139071   0.939   2.738   9.163  0.8266 -0.3485  0.2595
 9204SOL    HW239072   0.925   2.641   9.266 -2.6106  1.8347  0.0423
 9205SOL     OW39073   0.583   4.638   5.765  0.4812  0.3163 -0.1854
 9205SOL    HW139074   0.661   4.651   5.711  0.2657  1.2504 -0.2640
 9205SOL    HW239075   0.561   0.005   5.792 -0.8544  1.1215 -4.0457
 9206SOL     OW39076   2.384   1.188   4.086  0.2544  0.5333  0.0270
 9206SOL    HW139077   2.396   1.165   3.994 -4.8446 -2.0134 -0.0289
 9206SOL    HW239078   2.448   1.129   4.126 -1.0379  0.8373  2.5204
 9207SOL     OW39079   3.745   0.295   8.093  0.1006  0.3154 -0.6810
 9207SOL    HW139080   3.795   0.260   8.167 -0.3538  1.4246  0.1670
 9207SOL    HW239081   3.798   0.248   8.029 -2.6388 -2.2212 -1.0559
 9208SOL     OW39082   2.599   0.591   4.236 -0.4893  0.2886  0.0267
 9208SOL    HW139083   2.657   0.632   4.301 -2.6876  0.0743  2.1414
 9208SOL    HW239084   2.520   0.644   4.224 -1.0392 -0.8221 -1.2802
 9209SOL     OW39085   0.976   1.987  11.364 -0.1707  0.4275 -0.0271
 9209SOL    HW139086   0.943   2.048  11.430  1.1804 -0.4150  1.4462
 9209SOL    HW239087   1.017   1.917  11.416 -0.3802  1.7060  1.8769
 9210SOL     OW39088   1.703   0.156   7.227 -0.4145  0.6336 -0.5895
 9210SOL    HW139089   1.778   0.113   7.269 -0.4092  0.9890 -0.2355
 9210SOL    HW239090   1.631   0.110   7.270  0.0075  2.2299  1.8149
 9211SOL     OW39091   1.404   0.561  11.137 -0.3342  0.0011 -0.6886
 9211SOL    HW139092   1.478   0.539  11.081 -0.3411  0.7136 -0.9679
 9211SOL    HW239093   1.447   0.560  11.223 -2.4314  1.5929  0.3855
 9212SOL     OW39094   1.965   3.032  17.540 -0.4225 -0.2133  0.4824
 9212SOL    HW139095   2.046   2.986  17.562  0.2935  0.3372 -1.0242
 9212SOL    HW239096   1.990   3.107  17.487 -1.8491  1.5191  2.2776
 9213SOL     OW39097   0.482   2.694  10.741 -0.0409  0.2365 -0.7161
 9213SOL    HW139098   0.536   2.631  10.789 -1.3532  0.4151  0.9817
 9213SOL    HW239099   0.392   2.666  10.757 -0.2935  2.2325  1.2706
 9214SOL     OW39100   0.172   4.052   6.972 -0.2457  0.0466  0.2098
 9214SOL    HW139101   0.186   4.146   6.977 -0.7827  0.1992 -1.1391
 9214SOL    HW239102   0.172   4.027   7.065  1.0076  0.6143  0.3635
 9215SOL     OW39103   0.510   2.030   3.584  0.5409  0.6952 -0.2820
 9215SOL    HW139104   0.557   2.098   3.537  0.2537  0.8465 -0.3444
 9215SOL    HW239105   0.511   2.054   3.677 -0.4897  1.2164 -0.4109
 9216SOL     OW39106   0.364   2.935  12.659 -0.3091  0.3892 -0.1639
 9216SOL    HW139107   0.370   2.863  12.596  1.0316 -2.3020  2.9849
 9216SOL    HW239108   0.298   2.903  12.721 -0.2467  0.0857 -0.2508
 9217SOL     OW39109   4.225   0.128   2.614 -0.4534  0.4102  0.6627
 9217SOL    HW139110   4.165   0.086   2.552  0.7065 -2.3560  1.3825
 9217SOL    HW239111   4.289   0.061   2.638  0.4077  0.2239 -2.0770
 9218SOL     OW39112   4.630   3.586   6.442  0.6631 -0.1555  0.3406
 9218SOL    HW139113   4.606   3.668   6.484 -1.6355 -0.1110 -1.0654
 9218SOL    HW239114   4.657   3.539   6.521  1.4897  3.0145  1.9359
 9219SOL     OW39115   3.642   0.493   2.185  0.5459 -0.3610 -0.0328
 9219SOL    HW139116   3.732   0.464   2.167  0.3311 -0.6318 -0.6630
 9219SOL    HW239117   3.646   0.586   2.163 -3.1818 -0.1024  0.3983
 9220SOL     OW39118   4.351   3.579   8.773 -0.1480  0.5959  0.1477
 9220SOL    HW139119   4.374   3.495   8.812 -0.3958  1.4072  2.0046
 9220SOL    HW239120   4.341   3.574   8.677  0.4546  1.6446  0.0298
 9221SOL     OW39121   2.422   1.316  11.409 -0.2903  0.0400  0.2058
 9221SOL    HW139122   2.382   1.385  11.462 -0.9081  0.7834 -1.2348
 9221SOL    HW239123   2.423   1.245  11.474 -0.9732 -0.4161 -0.2922
 9222SOL     OW39124   2.608   2.844  16.230  0.4486 -0.5103  0.1119
 9222SOL    HW139125   2.620   2.909  16.300  2.6870  0.1576 -0.8914
 9222SOL    HW239126   2.572   2.782  16.294 -0.8210 -1.5606 -1.6203
 9223SOL     OW39127   1.110   3.033  11.509  0.2111  0.0530 -0.0713
 9223SOL    HW139128   1.144   3.119  11.484 -0.2219  1.6092  4.8121
 9223SOL    HW239129   1.144   2.982  11.436  1.4272  0.3374  0.2841
 9224SOL     OW39130   0.102   4.395   2.812 -0.0523 -0.2033 -0.2159
 9224SOL    HW139131   0.054   4.334   2.757 -1.5844  0.1312  0.7542
 9224SOL    HW239132   0.169   4.433   2.755  0.9565  0.0763  1.1540
 9225SOL     OW39133   1.821   2.725   5.954  0.4966  0.2578 -0.5206
 9225SOL    HW139134   1.762   2.724   5.878 -2.0633 -0.3152  1.4445
 9225SOL    HW239135   1.900   2.733   5.901  1.2170 -1.1727  0.3597
 9226SOL     OW39136   4.264   0.736   9.249 -0.2198  0.0544  1.0923
 9226SOL    HW139137   4.326   0.809   9.237 -0.9378  0.5707  0.5680
 9226SOL    HW239138   4.238   0.723   9.341 -0.2056  0.6970  1.1888
 9227SOL     OW39139   2.782   3.428  16.556 -0.0840 -0.0578  0.0417
 9227SOL    HW139140   2.829   3.467  16.630  1.4474 -0.5557 -0.6720
 9227SOL    HW239141   2.780   3.503  16.496 -1.1358 -0.4111 -0.3531
 9228SOL     OW39142   2.494   0.221   1.021  0.0963  0.1102 -0.5316
 9228SOL    HW139143   2.515   0.245   1.112  3.5455 -1.2740 -0.9692
 9228SOL    HW239144   2.521   0.303   0.981 -1.1463  0.3037 -0.9972
 9229SOL     OW39145   1.635   0.702   6.465 -0.0143  0.7165  0.7300
 9229SOL    HW139146   1.584   0.632   6.505 -1.2817  0.8922 -0.6103
 9229SOL    HW239147   1.640   0.759   6.543 -2.3244  1.6277  0.2046
 9230SOL     OW39148   0.516   1.972   7.734  0.4064  0.0427  0.3686
 9230SOL    HW139149   0.518   1.877   7.734 -3.0036 -0.0319 -0.8557
 9230SOL    HW239150   0.451   1.988   7.666  1.5656  1.3323 -0.4484
 9231SOL     OW39151   3.602   2.899   8.581  0.3384  0.6587  0.3649
 9231SOL    HW139152   3.590   2.933   8.492 -1.9158  0.9474  0.7641
 9231SOL    HW239153   3.667   2.965   8.602 -1.2278  1.5867  2.3570
 9232SOL     OW39154   2.205   0.874   7.841 -0.1814 -0.0985 -0.5143
 9232SOL    HW139155   2.154   0.952   7.865 -0.8529 -0.0944 -1.9760
 9232SOL    HW239156   2.259   0.855   7.918 -2.1445 -1.5322  0.4938
 9233SOL     OW39157   4.288   3.324   6.416  0.3011  0.2198 -0.4566
 9233SOL    HW139158   4.234   3.247   6.397 -2.1754  1.7457  0.3154
 9233SOL    HW239159   4.291   3.345   6.322  0.6119 -1.0325 -0.7275
 9234SOL     OW39160   0.974   1.228   4.744  0.6186  0.1770 -0.4514
 9234SOL    HW139161   1.037   1.297   4.724 -1.6573  1.9436 -1.5566
 9234SOL    HW239162   1.033   1.161   4.776 -0.7410 -1.1219 -0.6409
 9235SOL     OW39163   1.377   3.872   8.307 -0.1834  0.3454  0.0840
 9235SOL    HW139164   1.428   3.940   8.353  1.1533  0.5227 -1.6312
 9235SOL    HW239165   1.447   3.807   8.300 -2.0087 -1.3664 -2.0687
 9236SOL     OW39166   1.745   3.272   7.768  0.2701  0.3347 -0.8286
 9236SOL    HW139167   1.674   3.280   7.832  0.1033  3.3408 -1.3790
 9236SOL    HW239168   1.771   3.181   7.783 -2.0801 -0.1280  0.4331
 9237SOL     OW39169   0.180   1.556   1.132 -0.1999  0.5030  0.2787
 9237SOL    HW139170   0.193   1.631   1.189  1.2188  1.7728 -1.7314
 9237SOL    HW239171   0.112   1.586   1.071  0.1617 -2.7855 -1.7345
 9238SOL     OW39172   2.480   1.261   4.578  0.1736  0.4253  0.0378
 9238SOL    HW139173   2.429   1.329   4.622  1.1198  1.1624  0.0205
 9238SOL    HW239174   2.545   1.234   4.642  0.3353  2.6497  0.8246
 9239SOL     OW39175   4.511   2.167   4.337 -0.3557  0.1380 -0.1542
 9239SOL    HW139176   4.420   2.140   4.326 -0.4122  0.3733 -0.2531
 9239SOL    HW239177   4.525   2.213   4.254 -0.5791  0.8407  0.2030
 9240SOL     OW39178   0.888   3.156  11.004 -0.9572 -0.0250  0.1452
 9240SOL    HW139179   0.963   3.120  11.052 -0.2453 -0.4477 -1.2542
 9240SOL    HW239180   0.835   3.205  11.066  1.0488 -0.3656  2.1473
 9241SOL     OW39181   1.335   0.541   8.908  0.0551 -0.1310 -0.3335
 9241SOL    HW139182   1.431   0.539   8.911  0.0159 -3.0416 -1.1161
 9241SOL    HW239183   1.328   0.629   8.871  0.8951  0.1652  0.1982
 9242SOL     OW39184   3.520   4.175   3.178  0.8252 -0.5069  0.5385
 9242SOL    HW139185   3.611   4.200   3.167  0.6520  0.2237  0.7760
 9242SOL    HW239186   3.537   4.081   3.181 -0.3045 -0.7050  0.9436
 9243SOL     OW39187   1.770   0.814   4.472 -0.0805 -0.7313  0.3555
 9243SOL    HW139188   1.676   0.799   4.464 -0.1624 -0.4221  0.7153
 9243SOL    HW239189   1.776   0.900   4.512 -0.0567 -0.3048 -0.5738
 9244SOL     OW39190   2.906   1.291   5.487  0.5357  0.4219 -0.7393
 9244SOL    HW139191   2.930   1.383   5.478 -1.4688  0.9890 -0.2026
 9244SOL    HW239192   2.940   1.295   5.576 -3.5653 -1.3963  0.8867
 9245SOL     OW39193   3.538   1.807   5.550  0.1723  0.1267 -0.0421
 9245SOL    HW139194   3.506   1.766   5.631 -0.3928 -1.2040 -0.9363
 9245SOL    HW239195   3.474   1.876   5.532  1.6732  0.9607 -2.1057
 9246SOL     OW39196   2.562   0.569   2.543 -0.0828  0.0071  0.5425
 9246SOL    HW139197   2.602   0.541   2.626  0.1552 -0.6580  0.1963
 9246SOL    HW239198   2.612   0.526   2.474  1.4242  0.4749  1.3517
 9247SOL     OW39199   4.033   4.296   4.680  0.4190  0.0903  0.2836
 9247SOL    HW139200   4.007   4.212   4.644  0.1095  1.0132 -1.6343
 9247SOL    HW239201   4.051   4.356   4.608 -1.6960  0.8858  0.4330
 9248SOL     OW39202   0.639   1.331   8.603  1.1338 -0.8002 -0.1839
 9248SOL    HW139203   0.682   1.404   8.647 -0.8523 -0.0837  0.5507
 9248SOL    HW239204   0.705   1.314   8.535  1.4291  0.4364 -0.1980
 9249SOL     OW39205   2.867   2.275   6.859 -0.0791 -0.4776  0.3593
 9249SOL    HW139206   2.834   2.222   6.932 -0.1993  2.8790  2.7439
 9249SOL    HW239207   2.875   2.204   6.795  0.4215 -1.7717  1.8524
 9250SOL     OW39208   2.985   2.973   9.799  0.1213  0.1014 -0.2734
 9250SOL    HW139209   2.997   3.047   9.859  0.6878  0.0919 -0.3790
 9250SOL    HW239210   2.920   3.009   9.738 -0.2028  0.6971  0.4275
 9251SOL     OW39211   4.209   0.035  12.914 -0.4669 -0.5788 -0.0137
 9251SOL    HW139212   4.213   0.068  13.004  0.6370 -0.1241 -0.2329
 9251SOL    HW239213   4.202   0.109  12.855 -1.8645 -2.2294 -1.9059
 9252SOL     OW39214   3.757   4.366   5.511  0.1551  0.2148  0.2388
 9252SOL    HW139215   3.681   4.404   5.465  0.9872  0.7705 -0.6788
 9252SOL    HW239216   3.712   4.313   5.577 -0.4276  1.4866  0.8528
 9253SOL     OW39217   4.474   0.315   8.101  0.2566 -0.4026  0.6185
 9253SOL    HW139218   4.569   0.320   8.092  0.0286  2.3357 -0.1642
 9253SOL    HW239219   4.448   0.312   8.009 -1.5434  1.9523  1.0656
 9254SOL     OW39220   3.723   3.071  11.301 -0.1218 -0.3896  0.3311
 9254SOL    HW139221   3.789   3.097  11.237 -0.4358  1.6785  0.8443
 9254SOL    HW239222   3.703   2.983  11.270  0.0299 -0.5662  0.7230
 9255SOL     OW39223   0.863   2.721   4.405 -0.1054 -0.2107  0.5832
 9255SOL    HW139224   0.879   2.778   4.481 -0.5414  2.2250 -1.1675
 9255SOL    HW239225   0.873   2.635   4.446  0.3115 -0.6648 -0.5028
 9256SOL     OW39226   0.455   2.342   6.770  0.5492 -0.0783  0.0676
 9256SOL    HW139227   0.408   2.313   6.848 -0.9765  0.8395 -0.5109
 9256SOL    HW239228   0.537   2.370   6.811 -1.2599  0.6813  3.1105
 9257SOL     OW39229   1.696   1.580   1.865 -0.1057  0.4308  0.0430
 9257SOL    HW139230   1.739   1.626   1.937  0.9516 -1.8373  0.8638
 9257SOL    HW239231   1.706   1.488   1.889  0.7827  0.4287 -0.3410
 9258SOL     OW39232   3.655   3.306   7.113 -0.0219 -0.3385  0.3118
 9258SOL    HW139233   3.749   3.308   7.131  0.0355  3.1368 -0.4958
 9258SOL    HW239234   3.615   3.299   7.200  1.9510  1.2974  1.3580
 9259SOL     OW39235   4.128   3.707   5.610 -0.3174 -0.3069 -0.6596
 9259SOL    HW139236   4.138   3.692   5.516  0.9699  1.5014 -0.8085
 9259SOL    HW239237   4.190   3.644   5.646 -0.7278 -1.4281 -1.9373
 9260SOL     OW39238   1.025   3.332   9.378  0.0521  0.1751  0.2336
 9260SOL    HW139239   1.045   3.401   9.314 -0.8539  0.8660  0.6909
 9260SOL    HW239240   1.108   3.284   9.375 -0.3140 -0.5654  2.1273
 9261SOL     OW39241   3.242   1.733   6.009  0.5500 -0.1202 -0.0625
 9261SOL    HW139242   3.208   1.645   6.027 -3.6295  1.4852 -0.1161
 9261SOL    HW239243   3.320   1.730   6.064 -0.4582  3.7812  1.6453
 9262SOL     OW39244   0.168   0.597  14.863  0.0830 -0.4909  0.3963
 9262SOL    HW139245   0.252   0.553  14.857  0.3071 -0.2901  2.1689
 9262SOL    HW239246   0.107   0.561  14.798 -1.5758  1.1146  1.0461
 9263SOL     OW39247   1.157   3.050  10.629 -0.1966 -0.2170  0.3519
 9263SOL    HW139248   1.100   3.013  10.698 -0.2020 -2.6512 -0.9507
 9263SOL    HW239249   1.193   2.969  10.593 -0.6060 -0.3119  0.1561
 9264SOL     OW39250   1.974   3.011   5.760  0.1744 -0.4498  0.0384
 9264SOL    HW139251   2.028   2.933   5.778  0.2726 -0.2623  0.5677
 9264SOL    HW239252   2.036   3.078   5.731 -0.2634 -0.1837 -0.2694
 9265SOL     OW39253   0.684   2.080   6.284 -0.4857  0.3261 -0.0810
 9265SOL    HW139254   0.630   2.060   6.361  1.0086 -0.4519  0.7760
 9265SOL    HW239255   0.653   2.014   6.223 -0.8202  0.9144 -0.5461
 9266SOL     OW39256   2.665   3.231   8.302 -0.0918 -0.2354  0.1147
 9266SOL    HW139257   2.654   3.294   8.373  0.9581 -0.9491  0.9111
 9266SOL    HW239258   2.756   3.241   8.276 -0.0086  0.8844  0.8149
 9267SOL     OW39259   0.980   2.604   4.004  0.3820 -0.0591 -0.2005
 9267SOL    HW139260   0.909   2.597   4.068 -0.4592  2.5543 -0.8449
 9267SOL    HW239261   0.962   2.534   3.941 -1.5648  0.8623 -0.6736
 9268SOL     OW39262   0.503   2.261   4.985  0.2727  0.5649  0.9060
 9268SOL    HW139263   0.471   2.197   5.049 -0.6300 -1.1144 -1.2229
 9268SOL    HW239264   0.592   2.228   4.972 -0.5543 -0.5730 -1.6661
 9269SOL     OW39265   4.122   2.249   1.729  0.2510  0.2642  0.0047
 9269SOL    HW139266   4.203   2.220   1.686  0.6857  2.9009 -0.9351
 9269SOL    HW239267   4.129   2.186   1.801 -0.1421 -0.4363 -0.5775
 9270SOL     OW39268   2.111   0.341  11.520  0.5909  0.0207  0.2008
 9270SOL    HW139269   2.075   0.429  11.537  1.0247 -0.2045  2.3798
 9270SOL    HW239270   2.048   0.281  11.561 -0.6443  1.6091  0.6412
 9271SOL     OW39271   2.544   4.353   7.503  0.3468  0.1184  0.0494
 9271SOL    HW139272   2.449   4.356   7.491  0.2652  2.0063  1.2148
 9271SOL    HW239273   2.548   4.365   7.598 -0.1846  1.4267 -0.1003
 9272SOL     OW39274   1.781   3.086  12.522 -0.0375 -0.4983  0.2340
 9272SOL    HW139275   1.760   3.133  12.603  1.8497  0.3094  0.2701
 9272SOL    HW239276   1.877   3.087  12.521 -0.0241 -1.1140  1.6828
 9273SOL     OW39277   3.635   0.477  10.086 -0.1647  0.4663 -0.6076
 9273SOL    HW139278   3.627   0.475   9.991  0.2455  1.2541 -0.6604
 9273SOL    HW239279   3.624   0.386  10.113 -1.4830 -0.1146 -3.1942
 9274SOL     OW39280   4.248   4.553   4.305  0.0231  0.6029 -0.1844
 9274SOL    HW139281   4.247   4.502   4.225  0.9387  0.3231 -0.0153
 9274SOL    HW239282   4.333   4.552   4.349 -0.3488  1.0266  0.5453
 9275SOL     OW39283   3.843   2.281   1.919  0.5221  0.3037 -0.0615
 9275SOL    HW139284   3.917   2.276   1.859  0.9442  1.0253  0.4051
 9275SOL    HW239285   3.801   2.363   1.893  1.5813  1.4375  1.8340
 9276SOL     OW39286   2.973   2.540  16.096  0.6806 -0.4837 -0.4648
 9276SOL    HW139287   3.013   2.623  16.124 -1.7925  0.9630 -1.2743
 9276SOL    HW239288   2.905   2.523  16.162  2.0060 -2.1699  0.4806
 9277SOL     OW39289   4.104   1.102   6.230 -0.0359  0.1242  0.2991
 9277SOL    HW139290   4.066   1.182   6.265 -1.7874 -0.8739  0.6596
 9277SOL    HW239291   4.122   1.135   6.142 -0.5460 -0.9054 -0.1970
 9278SOL     OW39292   0.912   0.606   5.834  0.0483  0.2501 -0.2986
 9278SOL    HW139293   0.896   0.633   5.744  0.1527  2.1072  0.2384
 9278SOL    HW239294   0.889   0.687   5.880  3.2154  0.7019  0.5411
 9279SOL     OW39295   4.306   0.967   2.568  0.2971  0.4421 -0.9216
 9279SOL    HW139296   4.255   0.892   2.598 -1.0548  1.1652 -1.3840
 9279SOL    HW239297   4.354   0.920   2.499  0.2812 -1.7221  0.5311
 9280SOL     OW39298   4.546   0.032  15.435 -0.0426  0.0827  0.1925
 9280SOL    HW139299   4.503   0.099  15.383  4.2853  1.1481 -1.9740
 9280SOL    HW239300   4.609   0.003  15.369  1.4644  1.1612  1.1557
 9281SOL     OW39301   2.898   4.345  14.870  0.0989  0.3367  0.2801
 9281SOL    HW139302   2.925   4.430  14.905  1.8224 -0.3038  0.5183
 9281SOL    HW239303   2.835   4.376  14.805  1.0711 -1.2037 -1.3916
 9282SOL     OW39304   3.954   2.465   7.181  0.2868  0.2363  0.2945
 9282SOL    HW139305   3.957   2.423   7.267  3.2298 -1.9860 -0.8854
 9282SOL    HW239306   3.871   2.510   7.194 -0.8524 -1.9013  0.4773
 9283SOL     OW39307   3.605   3.655   6.695  0.2506 -0.1563  0.6586
 9283SOL    HW139308   3.544   3.718   6.734 -0.6660 -1.6749  1.6763
 9283SOL    HW239309   3.588   3.657   6.601 -1.0418 -0.4625  0.8802
 9284SOL     OW39310   1.963   1.555   4.486 -0.4038  0.7918 -0.1666
 9284SOL    HW139311   2.014   1.475   4.472 -0.1072  1.7416 -4.3264
 9284SOL    HW239312   2.007   1.621   4.540 -0.3252  0.6986 -0.1151
 9285SOL     OW39313   2.838   0.715   4.353 -0.1664 -0.2215  0.0632
 9285SOL    HW139314   2.898   0.661   4.302  0.6304  1.7099 -1.0895
 9285SOL    HW239315   2.853   0.803   4.318  0.1376 -0.4351 -0.3519
 9286SOL     OW39316   1.609   4.367   9.723  0.1308 -0.4686 -0.2829
 9286SOL    HW139317   1.533   4.350   9.668  0.3047  0.8034 -0.9364
 9286SOL    HW239318   1.684   4.318   9.687  0.6487  0.3493 -0.3336
 9287SOL     OW39319   4.541   3.524   5.251  0.3722 -0.4879  0.1541
 9287SOL    HW139320   4.578   3.510   5.338  1.9362 -0.0781 -0.4542
 9287SOL    HW239321   4.540   3.619   5.261  0.0507 -0.4361 -0.3414
 9288SOL     OW39322   1.159   2.847   6.103  0.0666 -0.3672  0.3469
 9288SOL    HW139323   1.197   2.783   6.043  0.0357  0.2041 -0.2770
 9288SOL    HW239324   1.128   2.801   6.181  0.7529 -0.5789  0.4925
 9289SOL     OW39325   2.803   0.335  15.534  0.3709  0.0375  0.2428
 9289SOL    HW139326   2.751   0.299  15.607 -1.8908  2.7989 -0.0021
 9289SOL    HW239327   2.873   0.270  15.532 -0.3128 -0.6925  0.2072
 9290SOL     OW39328   0.425   2.483   8.186 -0.6831  0.2194  0.3072
 9290SOL    HW139329   0.361   2.473   8.256  2.1694  0.4378  2.9440
 9290SOL    HW239330   0.435   2.389   8.170 -0.4101  0.2137  0.5240
 9291SOL     OW39331   4.347   3.767  12.082 -0.4530 -0.1686 -0.2017
 9291SOL    HW139332   4.420   3.721  12.123 -0.3389  1.4026  1.3538
 9291SOL    HW239333   4.297   3.686  12.067  1.1636 -0.7866 -2.2430
 9292SOL     OW39334   4.604   1.452   2.089  0.2333  0.0033 -0.0704
 9292SOL    HW139335   4.677   1.455   2.028 -1.4789  1.4434 -2.0479
 9292SOL    HW239336   4.548   1.386   2.049 -0.1869  0.6719 -0.5931
 9293SOL     OW39337   3.127   0.372   5.264  0.4184  0.1872  0.9447
 9293SOL    HW139338   3.132   0.301   5.201 -0.5024  1.2065 -0.3009
 9293SOL    HW239339   3.088   0.326   5.339 -1.1046  0.3908  0.2911
 9294SOL     OW39340   3.761   1.834   4.129  0.3591  0.1213 -0.5689
 9294SOL    HW139341   3.796   1.753   4.093 -0.1939 -0.5291  0.3406
 9294SOL    HW239342   3.709   1.860   4.053  0.2435 -0.3224 -0.6440
 9295SOL     OW39343   4.109   2.490   3.934 -0.4638 -0.1974  0.2179
 9295SOL    HW139344   4.035   2.533   3.892  0.6232 -0.2183 -1.7330
 9295SOL    HW239345   4.097   2.492   4.029  1.1175 -1.0302  0.4326
 9296SOL     OW39346   2.959   0.409  15.824  0.5200 -0.0932  0.2990
 9296SOL    HW139347   3.015   0.345  15.780  0.3258 -0.3276  0.3902
 9296SOL    HW239348   3.004   0.429  15.906 -0.3343  1.3893  0.4203
 9297SOL     OW39349   2.368   0.016   5.266  0.0666  0.0903  0.2234
 9297SOL    HW139350   2.316   4.701   5.337 -1.0650  0.5471 -0.3721
 9297SOL    HW239351   2.332   0.104   5.261  1.9402  0.8635  0.4968
 9298SOL     OW39352   1.387   0.200   5.317 -0.7503  0.3428 -0.0237
 9298SOL    HW139353   1.389   0.162   5.229  0.8326  0.6794 -0.1405
 9298SOL    HW239354   1.480   0.198   5.342 -0.9057  1.9218  0.6802
 9299SOL     OW39355   2.630   2.776   5.253 -0.6356 -0.5439 -0.0495
 9299SOL    HW139356   2.659   2.782   5.344  0.3112  0.1766 -0.4050
 9299SOL    HW239357   2.705   2.731   5.213 -0.4090 -0.9771  0.8647
 9300SOL     OW39358   1.759   2.213   4.364  0.4333 -0.2792  0.0453
 9300SOL    HW139359   1.843   2.174   4.384 -0.7011 -1.8645  1.6534
 9300SOL    HW239360   1.775   2.224   4.270  0.0654  3.3961  0.4021
 9301SOL     OW39361   3.056   2.489  15.830 -0.0149  0.2568 -0.0755
 9301SOL    HW139362   2.966   2.508  15.804 -0.2514  0.2526  0.7485
 9301SOL    HW239363   3.040   2.484  15.924  1.1817  0.3996  0.1372
 9302SOL     OW39364   1.842   2.550   4.980  0.2522  0.0418  0.0253
 9302SOL    HW139365   1.886   2.630   4.954 -0.3007 -0.0504 -1.1867
 9302SOL    HW239366   1.755   2.573   4.947 -0.6354 -2.4206  0.6167
 9303SOL     OW39367   3.829   3.847   9.036 -0.7355  0.7596 -0.3635
 9303SOL    HW139368   3.830   3.812   9.126  1.9828 -0.7239 -0.9877
 9303SOL    HW239369   3.898   3.913   9.045 -0.6852  0.8574 -1.5676
 9304SOL     OW39370   3.776   1.217   0.281 -0.1038 -0.9517  0.3165
 9304SOL    HW139371   3.706   1.152   0.285 -0.6752 -0.3627 -0.1535
 9304SOL    HW239372   3.853   1.163   0.262 -0.5425 -1.2097 -0.7361
 9305SOL     OW39373   1.476   4.619   1.459  0.1819  0.1141 -0.4256
 9305SOL    HW139374   1.411   4.557   1.495  0.8444 -0.7901 -0.7996
 9305SOL    HW239375   1.547   4.596   1.519  0.8531 -0.2016 -1.3462
 9306SOL     OW39376   2.844   4.561   8.171 -0.1989  0.0521 -0.0417
 9306SOL    HW139377   2.894   4.632   8.210 -0.6074 -0.2912  1.1077
 9306SOL    HW239378   2.849   4.498   8.243  1.6706  0.1102 -0.1282
 9307SOL     OW39379   4.199   2.411   9.222 -0.2182  0.1212  0.5313
 9307SOL    HW139380   4.174   2.468   9.149 -0.9286 -0.5707  0.2292
 9307SOL    HW239381   4.125   2.417   9.282 -0.2272 -0.5758  0.5927
 9308SOL     OW39382   0.864   3.349   2.741 -0.1577 -0.3507 -0.8065
 9308SOL    HW139383   0.866   3.401   2.661  1.5954  0.7141 -0.0654
 9308SOL    HW239384   0.956   3.332   2.760  0.5682  2.3873 -1.9555
 9309SOL     OW39385   2.094   1.171  11.634 -0.2539 -0.3319 -0.7547
 9309SOL    HW139386   2.057   1.147  11.718  2.3256 -0.3188  0.3839
 9309SOL    HW239387   2.042   1.246  11.604 -0.3355  0.1982  0.7377
 9310SOL     OW39388   3.266   1.956   7.061  0.6650 -1.2166  0.2396
 9310SOL    HW139389   3.179   1.928   7.089 -0.6337  0.5321 -2.0459
 9310SOL    HW239390   3.284   2.047   7.085 -3.6905  0.3092 -2.3567
 9311SOL     OW39391   4.082   1.322   5.699  0.0209  0.0920  0.1117
 9311SOL    HW139392   4.061   1.415   5.700  2.5308  0.6563  0.0034
 9311SOL    HW239393   3.992   1.294   5.685  0.1234 -0.0499 -0.2629
 9312SOL     OW39394   4.392   4.149   6.541  0.8448 -0.3327  0.0880
 9312SOL    HW139395   4.444   4.128   6.618  0.8242  0.5721  0.3549
 9312SOL    HW239396   4.309   4.103   6.553  0.3491  0.6001  0.2610
 9313SOL     OW39397   2.071   0.629  13.358  0.0410 -0.6007  0.1524
 9313SOL    HW139398   2.140   0.628  13.424 -1.3617 -1.0867  1.6115
 9313SOL    HW239399   2.002   0.591  13.412  1.1712 -1.1492  1.2187
 9314SOL     OW39400   2.682   3.526  10.347 -0.0138 -0.0189 -0.1272
 9314SOL    HW139401   2.620   3.550  10.279 -0.1028 -2.6040 -0.9448
 9314SOL    HW239402   2.763   3.513  10.297 -0.0674  1.1634 -0.5134
 9315SOL     OW39403   1.536   1.989   1.635 -0.0630 -0.0917  0.0438
 9315SOL    HW139404   1.603   1.930   1.670 -1.5095  0.2541  3.4520
 9315SOL    HW239405   1.461   1.952   1.681  0.2160  0.3048  0.8177
 9316SOL     OW39406   1.958   0.869   3.805  0.2936  0.8749 -0.5703
 9316SOL    HW139407   1.871   0.838   3.778  0.0438 -0.3100  1.6281
 9316SOL    HW239408   2.017   0.845   3.734  1.4958  0.3461  0.6137
 9317SOL     OW39409   4.198   3.011   4.689 -0.8898 -0.0316 -0.1673
 9317SOL    HW139410   4.185   2.957   4.611 -1.0842 -1.0571  0.5794
 9317SOL    HW239411   4.252   2.956   4.747 -0.2445  0.6078 -0.1467
 9318SOL     OW39412   0.088   0.281  15.933  0.1257 -0.0143  0.1033
 9318SOL    HW139413   0.084   0.291  16.028  2.1179 -2.4745  0.4573
 9318SOL    HW239414   0.072   0.186  15.933  1.5272 -0.2573  0.1679
 9319SOL     OW39415   1.862   0.380   5.501 -0.1456 -0.1824  0.8224
 9319SOL    HW139416   1.849   0.451   5.438  0.3036  0.3263  1.3051
 9319SOL    HW239417   1.850   0.420   5.587 -1.4976  0.0931  0.5009
 9320SOL     OW39418   1.046   4.145   6.272  0.1916 -0.3255 -0.2421
 9320SOL    HW139419   1.006   4.229   6.293  0.2351 -0.0750 -1.1643
 9320SOL    HW239420   1.103   4.134   6.348  0.1733 -2.0657 -0.4579
 9321SOL     OW39421   1.180   1.988   4.543  0.4139 -0.1847 -0.7488
 9321SOL    HW139422   1.182   1.994   4.447  1.7663  0.4484 -0.6743
 9321SOL    HW239423   1.220   2.074   4.549 -0.5900  0.2900 -0.8231
 9322SOL     OW39424   1.956   2.174  17.600  0.0351 -0.3373  0.4616
 9322SOL    HW139425   1.948   2.092  17.553  0.0295 -2.1648  3.6531
 9322SOL    HW239426   1.916   2.155  17.685  0.4073 -1.9039  0.2837
 9323SOL     OW39427   0.628   0.650   7.968  0.5815  0.0838 -0.0311
 9323SOL    HW139428   0.533   0.640   7.974  0.3000  2.3918 -0.4704
 9323SOL    HW239429   0.641   0.664   8.062 -0.2976 -0.0678  0.1202
 9324SOL     OW39430   1.840   3.222   2.697 -0.3042 -0.0574  0.1691
 9324SOL    HW139431   1.904   3.156   2.669 -0.7205 -0.1997 -0.4497
 9324SOL    HW239432   1.898   3.297   2.684  0.0551 -0.1417  1.2590
 9325SOL     OW39433   0.264   4.192   0.796  0.0903  0.6837 -0.2006
 9325SOL    HW139434   0.320   4.224   0.867  0.5092  1.8236 -1.0503
 9325SOL    HW239435   0.197   4.260   0.799  1.6441  2.2684 -1.9271
 9326SOL     OW39436   4.207   4.321   3.311  0.4614  0.2998 -0.1541
 9326SOL    HW139437   4.114   4.339   3.300  0.0571 -0.3420  2.2117
 9326SOL    HW239438   4.227   4.388   3.377 -1.3785  0.5595  0.1318
 9327SOL     OW39439   1.117   0.413   8.983  0.0112 -0.3701 -0.3739
 9327SOL    HW139440   1.165   0.451   8.910 -0.2240 -0.9989 -0.8603
 9327SOL    HW239441   1.178   0.428   9.054  0.0658 -2.1780 -0.0335
 9328SOL     OW39442   1.361   2.468   0.910  0.1251 -0.4121  1.0795
 9328SOL    HW139443   1.323   2.509   0.987  0.4974 -0.1555  1.1310
 9328SOL    HW239444   1.457   2.466   0.920  0.0807  0.5996  1.6163
 9329SOL     OW39445   1.523   0.812  10.922 -0.4933  0.4727 -0.1548
 9329SOL    HW139446   1.562   0.725  10.915  1.1289  1.1265  0.7268
 9329SOL    HW239447   1.485   0.814  11.010 -0.4016  0.9446 -0.1219
 9330SOL     OW39448   2.112   1.825   2.317  0.1031  0.0730 -0.2594
 9330SOL    HW139449   2.070   1.843   2.401  0.4955 -0.9071  0.1449
 9330SOL    HW239450   2.098   1.733   2.294 -1.0310 -0.2203  1.6924
 9331SOL     OW39451   4.176   3.275   4.704  0.0082 -0.4193 -0.3157
 9331SOL    HW139452   4.161   3.299   4.795  1.1348  1.0959 -0.5327
 9331SOL    HW239453   4.190   3.180   4.709 -1.0389 -0.5913 -0.5165
 9332SOL     OW39454   3.629   0.026   4.068 -0.4096  0.0532  0.1439
 9332SOL    HW139455   3.568   4.676   4.080  0.0002 -0.3809 -0.4113
 9332SOL    HW239456   3.652   0.012   3.976  0.4259  0.0773  0.3489
 9333SOL     OW39457   4.006   2.730  12.894 -0.0812  0.3381  0.1312
 9333SOL    HW139458   3.955   2.810  12.878  0.2276  0.9607  2.2997
 9333SOL    HW239459   4.032   2.708  12.804  0.6937 -0.2116  0.4927
 9334SOL     OW39460   1.896   4.173   3.841  0.1888 -0.2466 -0.0255
 9334SOL    HW139461   1.892   4.160   3.936  2.1075  0.7536  0.1847
 9334SOL    HW239462   1.987   4.199   3.833 -0.2933  1.9447  1.5280
 9335SOL     OW39463   3.668   3.737   3.792  0.0931 -0.0170 -0.7486
 9335SOL    HW139464   3.736   3.678   3.825 -0.5725 -0.2137  0.2913
 9335SOL    HW239465   3.699   3.822   3.824  1.8834 -0.5970 -0.9747
 9336SOL     OW39466   4.092   4.657   5.077 -0.1592 -0.2116 -0.5972
 9336SOL    HW139467   4.035   0.012   5.078 -2.8435 -2.1924 -0.8652
 9336SOL    HW239468   4.177   4.701   5.074 -0.7803  1.1198  1.5184
 9337SOL     OW39469   2.655   2.633   3.649 -0.0556  0.4414  0.1573
 9337SOL    HW139470   2.597   2.694   3.604 -2.7005 -2.8807 -0.8338
 9337SOL    HW239471   2.682   2.587   3.570 -2.5400 -0.4877 -0.1550
 9338SOL     OW39472   1.908   1.218   2.087 -0.1659 -0.2152 -0.4857
 9338SOL    HW139473   1.987   1.266   2.111  0.1898  0.2882 -2.6220
 9338SOL    HW239474   1.942   1.150   2.029  0.1581 -0.4725  0.0132
 9339SOL     OW39475   0.132   2.926   3.241  0.0400 -0.9090 -0.1576
 9339SOL    HW139476   0.214   2.901   3.283 -1.3394 -1.1360  2.3821
 9339SOL    HW239477   0.083   2.956   3.317  0.7526 -0.0570 -0.0345
 9340SOL     OW39478   0.194   0.778   5.453 -0.2733 -0.2081 -0.4519
 9340SOL    HW139479   0.168   0.744   5.367  0.9869  1.8578 -1.6366
 9340SOL    HW239480   0.146   0.719   5.512  0.8964 -0.7953 -0.0869
 9341SOL     OW39481   2.963   3.499   7.724 -0.1559  0.4116 -0.1666
 9341SOL    HW139482   3.039   3.539   7.767 -0.3146  2.1580 -1.5160
 9341SOL    HW239483   2.934   3.568   7.665  1.9373  0.4480 -1.1532
 9342SOL     OW39484   0.256   2.437   3.972 -0.0304  0.1710 -0.7247
 9342SOL    HW139485   0.181   2.461   4.026  0.6519  0.9647 -0.1301
 9342SOL    HW239486   0.331   2.483   4.009  0.4757 -1.6109  0.4799
 9343SOL     OW39487   0.518   0.965   2.234  0.7057  0.1926 -0.2537
 9343SOL    HW139488   0.442   0.923   2.193  1.2111 -1.0382  0.0458
 9343SOL    HW239489   0.571   0.994   2.160  2.8190 -1.1470  0.7338
 9344SOL     OW39490   0.290   2.124   8.982 -0.2152  0.5624 -0.0368
 9344SOL    HW139491   0.293   2.042   8.932 -0.1161  0.2858  0.4182
 9344SOL    HW239492   0.279   2.194   8.917  1.7567 -1.2192 -2.2884
 9345SOL     OW39493   1.523   3.986  16.213  0.1932  0.0193  0.7394
 9345SOL    HW139494   1.436   3.947  16.202  0.4887  0.1890 -2.4028
 9345SOL    HW239495   1.580   3.914  16.184 -1.8696 -0.8344 -1.2343
 9346SOL     OW39496   3.075   0.434  11.977  0.4010 -0.4060 -0.6876
 9346SOL    HW139497   3.045   0.353  12.017 -2.7031  3.1529  4.1203
 9346SOL    HW239498   3.148   0.451  12.036  0.6797 -0.0095 -1.1492
 9347SOL     OW39499   1.731   0.231  16.622 -0.2807  0.1542  0.0128
 9347SOL    HW139500   1.820   0.264  16.631 -0.3087 -0.0198  0.9051
 9347SOL    HW239501   1.737   0.174  16.545  2.2980  1.2741 -0.5979
 9348SOL     OW39502   0.746   3.060  12.410  0.3946  0.2275  0.2040
 9348SOL    HW139503   0.795   3.052  12.328  0.2814  2.1642 -0.0575
 9348SOL    HW239504   0.662   3.016  12.401  0.0287  1.0425 -0.3982
 9349SOL     OW39505   3.487   1.837   8.409 -0.6131 -0.3986  0.2447
 9349SOL    HW139506   3.488   1.932   8.397 -0.7861 -0.2858  1.1130
 9349SOL    HW239507   3.488   1.796   8.322 -0.9922 -1.1728  0.6004
 9350SOL     OW39508   1.862   1.240   8.241  0.5264 -0.0814 -0.0736
 9350SOL    HW139509   1.797   1.296   8.197 -0.3405 -0.3727  0.8325
 9350SOL    HW239510   1.826   1.152   8.234 -1.2983  0.9188 -3.2505
 9351SOL     OW39511   3.046   2.722  13.211  0.0574  0.2434 -0.1830
 9351SOL    HW139512   3.093   2.719  13.295  0.6979 -0.7346 -0.5772
 9351SOL    HW239513   2.966   2.672  13.229 -0.3118  1.0735  0.4609
 9352SOL     OW39514   4.189   1.311   2.864 -0.0796  0.1388 -0.1356
 9352SOL    HW139515   4.284   1.321   2.862 -0.0181 -0.2506  1.1021
 9352SOL    HW239516   4.153   1.399   2.867  0.6748  0.3853  1.8255
 9353SOL     OW39517   2.363   1.626   4.174 -0.2861 -1.0784  0.4141
 9353SOL    HW139518   2.322   1.541   4.189 -2.4836 -0.1409 -0.2954
 9353SOL    HW239519   2.440   1.604   4.121  0.4075 -0.5000  1.1844
 9354SOL     OW39520   0.217   0.535   5.896 -0.8257 -0.5878  0.4226
 9354SOL    HW139521   0.270   0.521   5.975 -1.4285  1.6632  1.2072
 9354SOL    HW239522   0.135   0.511   5.938 -0.7106 -2.0155 -0.1630
 9355SOL     OW39523   1.538   1.666   3.266  0.3682 -0.0075  0.2539
 9355SOL    HW139524   1.582   1.719   3.199 -0.5888 -1.3736 -1.4417
 9355SOL    HW239525   1.610   1.637   3.322  1.5833  0.8241 -0.8787
 9356SOL     OW39526   4.045   1.557   2.871  0.3503  0.0353  0.1033
 9356SOL    HW139527   3.977   1.519   2.815  0.9989 -0.1720 -0.5384
 9356SOL    HW239528   3.999   1.598   2.944 -0.0093 -1.1192  0.5263
 9357SOL     OW39529   4.319   4.343   4.148  0.0246 -0.1752  0.0823
 9357SOL    HW139530   4.385   4.308   4.208 -0.1566 -0.9354 -0.1550
 9357SOL    HW239531   4.328   4.308   4.060  3.2634  1.4137 -0.2176
 9358SOL     OW39532   4.425   1.100   3.579  0.1698 -0.2512  0.1032
 9358SOL    HW139533   4.512   1.064   3.561  0.2455 -0.2939  0.5612
 9358SOL    HW239534   4.449   1.154   3.654 -0.6036  0.7291 -0.3580
 9359SOL     OW39535   3.880   2.195   8.210 -0.0791 -0.0255 -0.5047
 9359SOL    HW139536   3.946   2.264   8.221 -0.2697  0.0282  0.3128
 9359SOL    HW239537   3.801   2.246   8.226  0.9394  1.6071 -0.6523
 9360SOL     OW39538   1.478   0.247   3.411 -0.0069 -0.4255  0.3032
 9360SOL    HW139539   1.543   0.217   3.347 -0.8026  1.2506 -1.3062
 9360SOL    HW239540   1.470   0.341   3.394 -0.5234 -0.8905 -2.0526
 9361SOL     OW39541   3.775   1.614  13.990  0.3162 -0.0021  0.5444
 9361SOL    HW139542   3.813   1.570  14.065 -0.3837  0.9733  1.4834
 9361SOL    HW239543   3.687   1.635  14.022 -0.2683  2.0872 -2.4305
 9362SOL     OW39544   3.342   4.676  11.141 -0.0992  0.1896  0.0051
 9362SOL    HW139545   3.308   4.604  11.195 -1.5332  0.0402 -1.1073
 9362SOL    HW239546   3.345   4.627  11.059 -0.2665 -1.0864  0.7552
 9363SOL     OW39547   4.120   3.817   6.121 -0.0123  0.2717  0.2521
 9363SOL    HW139548   4.202   3.768   6.128  0.0835 -0.0237 -2.7765
 9363SOL    HW239549   4.054   3.751   6.099  0.8628 -1.0244  1.5193
 9364SOL     OW39550   0.990   1.331   6.522 -0.1012  0.4022  0.3079
 9364SOL    HW139551   1.002   1.278   6.600 -0.9779 -0.3484 -0.0687
 9364SOL    HW239552   1.032   1.415   6.543  0.1965 -0.0962  1.6934
 9365SOL     OW39553   3.245   4.412  11.196 -0.1419  0.3506 -0.0084
 9365SOL    HW139554   3.211   4.371  11.275 -1.0716  0.5823 -0.2918
 9365SOL    HW239555   3.182   4.366  11.141 -0.6986  1.1929 -0.0771
 9366SOL     OW39556   3.091   1.224   6.692 -0.1720 -0.4750 -0.3793
 9366SOL    HW139557   3.088   1.304   6.639 -0.2054  0.5485  1.1641
 9366SOL    HW239558   3.022   1.244   6.754  0.0090  0.3488 -0.4471
 9367SOL     OW39559   0.312   0.463   5.656 -0.3305 -0.2719  0.2408
 9367SOL    HW139560   0.276   0.478   5.744  1.3647 -0.1491  0.9074
 9367SOL    HW239561   0.269   0.538   5.614 -0.2452 -0.6359 -0.4858
 9368SOL     OW39562   4.178   2.240  12.169  0.3303  0.3942  0.1118
 9368SOL    HW139563   4.132   2.169  12.124 -0.9702  0.1201  1.8926
 9368SOL    HW239564   4.168   2.215  12.260  2.5289 -2.0511 -0.3185
 9369SOL     OW39565   3.814   4.172   7.236 -0.1843 -0.1244 -0.2387
 9369SOL    HW139566   3.795   4.194   7.327  0.2625  2.6815 -0.8477
 9369SOL    HW239567   3.828   4.256   7.194 -2.0015 -0.2261 -1.0568
 9370SOL     OW39568   2.058   0.517   6.473  0.1197  0.2494 -0.2034
 9370SOL    HW139569   1.971   0.489   6.499 -0.2162 -0.5135 -2.1751
 9370SOL    HW239570   2.054   0.530   6.378 -0.6336  0.0348 -0.1957
 9371SOL     OW39571   4.181   2.132   3.960  0.1483 -0.2328 -0.1546
 9371SOL    HW139572   4.108   2.122   4.022 -1.2058  1.0734 -1.5460
 9371SOL    HW239573   4.202   2.039   3.950  0.8190 -0.1015  0.0300
 9372SOL     OW39574   4.640   1.599   5.078 -0.1157  0.5869 -0.3494
 9372SOL    HW139575   4.692   1.676   5.052 -1.6018  0.5115 -3.6275
 9372SOL    HW239576   4.680   1.576   5.161 -0.9078 -1.0629 -0.4370
 9373SOL     OW39577   2.849   2.728   4.443  0.8652 -0.4703 -0.1010
 9373SOL    HW139578   2.870   2.729   4.536  1.1233 -0.0753 -0.1639
 9373SOL    HW239579   2.773   2.670   4.438 -0.4002  1.0879  0.7525
 9374SOL     OW39580   1.094   4.398   9.032  0.0930  0.5411  0.0448
 9374SOL    HW139581   1.102   4.431   9.121  0.1394  1.2434 -0.2209
 9374SOL    HW239582   1.141   4.315   9.042  2.5163  2.0817  1.3750
 9375SOL     OW39583   1.096   2.705  15.118 -0.2918  0.4036  0.1228
 9375SOL    HW139584   1.013   2.722  15.163 -0.5756  0.3609 -0.3827
 9375SOL    HW239585   1.063   2.644  15.052 -0.4833  1.1096 -0.4456
 9376SOL     OW39586   0.143   3.208   4.125 -0.1642 -0.2202 -0.2559
 9376SOL    HW139587   0.058   3.242   4.098  0.9871  1.6031 -1.5502
 9376SOL    HW239588   0.148   3.135   4.063 -1.3461  1.2559 -2.0876
 9377SOL     OW39589   0.727   1.615   6.268  0.1270  0.2001  0.5289
 9377SOL    HW139590   0.648   1.581   6.310 -0.1352  1.0677  0.7359
 9377SOL    HW239591   0.787   1.616   6.343 -0.8745  1.2249  1.2982
 9378SOL     OW39592   0.945   1.303   9.436  0.2629 -0.9832  0.0765
 9378SOL    HW139593   0.926   1.294   9.343  2.0395 -0.1444 -0.3647
 9378SOL    HW239594   0.948   1.215   9.473 -0.7315 -0.7768  0.6641
 9379SOL     OW39595   4.251   0.621  13.767 -0.4645  0.4520 -0.2377
 9379SOL    HW139596   4.255   0.580  13.854  1.7991 -1.1491 -1.0826
 9379SOL    HW239597   4.171   0.578  13.737 -0.1616  1.0642 -1.9359
 9380SOL     OW39598   1.013   2.212   5.557  0.5824 -0.0274 -0.2720
 9380SOL    HW139599   0.998   2.250   5.644 -0.0282  0.6599 -0.6811
 9380SOL    HW239600   1.050   2.126   5.578  1.5770  0.1068 -1.5156
 9381SOL     OW39601   3.633   1.894   9.631  0.2727 -0.1130 -0.0171
 9381SOL    HW139602   3.539   1.893   9.648  0.0461 -1.5915 -1.3644
 9381SOL    HW239603   3.646   1.986   9.653 -0.8347  0.2081 -0.6975
 9382SOL     OW39604   3.639   1.252   6.670  0.2633  0.1164 -0.2869
 9382SOL    HW139605   3.544   1.237   6.678  0.2334  1.3927  1.5713
 9382SOL    HW239606   3.646   1.229   6.577 -0.1310  1.6542 -0.6919
 9383SOL     OW39607   2.575   4.270   1.792  0.2711 -0.2020  0.1173
 9383SOL    HW139608   2.646   4.269   1.856 -0.3610 -1.8604  0.8031
 9383SOL    HW239609   2.533   4.350   1.824 -0.8943 -0.7654 -0.0052
 9384SOL     OW39610   4.612   1.078   5.916 -0.3572 -0.4875  0.3157
 9384SOL    HW139611   4.704   1.088   5.942 -0.6207 -0.8854  1.3767
 9384SOL    HW239612   4.607   1.171   5.893  1.0452 -1.4251 -3.8345
 9385SOL     OW39613   1.035   0.438   5.091 -0.5890  0.1809 -0.1285
 9385SOL    HW139614   1.094   0.379   5.138 -2.8496 -2.1713 -0.2322
 9385SOL    HW239615   1.077   0.522   5.110 -1.4438  0.5330  0.1872
 9386SOL     OW39616   2.963   0.954   8.713  0.0690 -0.0691 -0.2483
 9386SOL    HW139617   2.951   1.047   8.733  2.5448  0.1871  0.0336
 9386SOL    HW239618   3.059   0.953   8.707  0.1836  0.8818  1.5644
 9387SOL     OW39619   0.307   1.992   4.470  0.3841  0.0351  0.1599
 9387SOL    HW139620   0.263   1.949   4.543 -3.6225  3.4130 -0.2783
 9387SOL    HW239621   0.241   1.972   4.403  0.1912 -0.3925  0.4765
 9388SOL     OW39622   1.206   1.240   5.262  0.4741 -0.3026  0.0941
 9388SOL    HW139623   1.264   1.176   5.303 -0.9859 -0.0800  2.4758
 9388SOL    HW239624   1.216   1.238   5.167  1.4742 -0.3824  0.1990
 9389SOL     OW39625   1.189   0.915  15.002 -0.4302 -0.0103 -0.2250
 9389SOL    HW139626   1.125   0.947  14.938 -0.1115 -0.8530 -0.9539
 9389SOL    HW239627   1.270   0.948  14.963 -0.8869  0.6454 -0.6261
 9390SOL     OW39628   4.389   2.968   0.681  0.3203  0.3235 -0.1110
 9390SOL    HW139629   4.297   2.984   0.663  0.0745 -0.4663  0.4720
 9390SOL    HW239630   4.409   2.888   0.632 -0.4345 -0.6308  1.1644
 9391SOL     OW39631   3.620   4.522   1.239 -0.2390  0.8319  0.1786
 9391SOL    HW139632   3.564   4.504   1.315  0.9272 -2.2133  0.3426
 9391SOL    HW239633   3.646   4.433   1.213  1.5320  1.6716 -0.9438
 9392SOL     OW39634   4.088   3.299   2.504  0.0639  0.2075 -0.1406
 9392SOL    HW139635   4.063   3.361   2.435  1.8904  0.4309 -0.6216
 9392SOL    HW239636   4.177   3.332   2.520 -0.0012  0.6514 -0.6901
 9393SOL     OW39637   2.772   1.157   5.947 -0.0028 -0.4852  0.0357
 9393SOL    HW139638   2.680   1.171   5.928  0.8937  2.4097 -2.1724
 9393SOL    HW239639   2.773   1.063   5.962 -2.2266 -0.8372 -2.0707
 9394SOL     OW39640   0.755   4.615   3.976  0.3882 -0.2959 -0.0684
 9394SOL    HW139641   0.720   4.530   3.949 -0.2671  0.0417 -0.2805
 9394SOL    HW239642   0.772   4.592   4.067 -2.0956  0.7121  0.6665
 9395SOL     OW39643   0.771   1.350   1.470 -0.2929 -0.6840  0.0815
 9395SOL    HW139644   0.689   1.379   1.429  0.2392 -1.5608 -1.5903
 9395SOL    HW239645   0.785   1.416   1.538  2.7871 -0.6136 -0.6140
 9396SOL     OW39646   0.405   3.057   3.935 -0.2875  0.1507  0.3601
 9396SOL    HW139647   0.382   3.040   4.027  3.8861 -0.4659  1.3177
 9396SOL    HW239648   0.318   3.055   3.896 -0.2053  1.4377  0.1063
 9397SOL     OW39649   1.521   0.108   1.695  0.0708  0.0549  0.3611
 9397SOL    HW139650   1.482   0.157   1.622 -0.5887  0.2211  0.8262
 9397SOL    HW239651   1.586   0.061   1.643 -0.6478 -0.5446  0.0033
 9398SOL     OW39652   1.066   1.094   2.897  0.2923 -0.2533  0.5592
 9398SOL    HW139653   1.117   1.161   2.944  0.8289 -1.5539  1.8398
 9398SOL    HW239654   1.032   1.131   2.815  2.1518  2.8461  1.1850
 9399SOL     OW39655   2.358   4.140   8.022 -0.2998 -0.3175  0.7037
 9399SOL    HW139656   2.330   4.175   7.937  1.2536  0.3617  0.4755
 9399SOL    HW239657   2.284   4.087   8.054 -0.7848  0.3530  0.6979
 9400SOL     OW39658   3.618   1.013  16.856  0.4524 -0.2413  0.2492
 9400SOL    HW139659   3.545   1.016  16.918  1.1314 -0.9058  1.0716
 9400SOL    HW239660   3.587   0.943  16.798  2.2165  1.3517 -2.6339
 9401SOL     OW39661   3.917   1.508   4.757 -0.0427  0.2601 -0.7413
 9401SOL    HW139662   3.950   1.502   4.846  0.4606 -0.2171 -0.9608
 9401SOL    HW239663   3.839   1.453   4.753 -0.9265  1.5737 -1.6505
 9402SOL     OW39664   0.846   0.577   8.646 -0.1101  0.6297 -0.3054
 9402SOL    HW139665   0.898   0.497   8.647 -1.5972 -0.3243 -0.1587
 9402SOL    HW239666   0.761   0.535   8.651  0.2830  0.0119  1.2054
 9403SOL     OW39667   1.016   3.957   6.915 -0.4637  0.0265 -0.0081
 9403SOL    HW139668   0.954   4.013   6.870  2.0001 -1.2766 -5.1250
 9403SOL    HW239669   0.972   3.872   6.922 -1.1636  0.3240 -0.8585
 9404SOL     OW39670   1.937   3.341   2.044  0.4379  0.0440  1.0164
 9404SOL    HW139671   1.943   3.366   2.137  0.3625 -1.1850  1.3515
 9404SOL    HW239672   1.868   3.397   2.008  0.2310 -0.9396 -0.0979
 9405SOL     OW39673   0.676   3.734  11.456  0.0270 -0.1124  0.0173
 9405SOL    HW139674   0.635   3.777  11.532 -0.9420  0.2506 -0.7086
 9405SOL    HW239675   0.746   3.798  11.441 -0.0055  0.1825  1.0924
 9406SOL     OW39676   3.123   3.506   0.513 -0.4041  0.3716 -0.3591
 9406SOL    HW139677   3.070   3.539   0.585 -0.3964  2.3448 -1.2559
 9406SOL    HW239678   3.087   3.420   0.491  0.0058  0.2761 -0.6649
 9407SOL     OW39679   3.749   1.487   8.321 -0.6814 -0.2838 -0.3552
 9407SOL    HW139680   3.794   1.551   8.375  1.0658 -1.3907 -0.4804
 9407SOL    HW239681   3.788   1.414   8.370 -0.6442  0.7039  1.0801
 9408SOL     OW39682   1.139   0.072   7.405 -0.2653  0.1583 -0.6188
 9408SOL    HW139683   1.142   0.168   7.408  2.3643  0.0214  0.6606
 9408SOL    HW239684   1.098   0.059   7.319 -3.7870 -2.8998  1.5167
 9409SOL     OW39685   4.096   4.261   8.923 -0.6499  0.4333  0.1973
 9409SOL    HW139686   4.138   4.345   8.939  1.5224 -1.1030  2.6021
 9409SOL    HW239687   4.021   4.294   8.873 -3.1138 -2.4657  1.9456
 9410SOL     OW39688   0.885   0.639   1.643 -0.0983  0.1994  0.3560
 9410SOL    HW139689   0.812   0.622   1.703 -2.6638  2.2016 -2.2243
 9410SOL    HW239690   0.891   0.735   1.639  2.9275 -0.0813 -1.5157
 9411SOL     OW39691   2.693   2.735   6.422 -0.1372  0.1428 -0.0498
 9411SOL    HW139692   2.781   2.704   6.403  0.2871  1.9529 -1.0758
 9411SOL    HW239693   2.653   2.650   6.440 -1.7692  0.9820  0.3019
 9412SOL     OW39694   1.770   3.647   7.914  0.3701 -0.1939  0.0950
 9412SOL    HW139695   1.822   3.669   7.837 -1.2097  2.0286 -0.3678
 9412SOL    HW239696   1.799   3.561   7.944  0.9879 -0.3259 -0.8734
 9413SOL     OW39697   4.720   3.947   2.600  0.1735 -0.4440  0.3223
 9413SOL    HW139698   0.055   3.874   2.621  0.8353 -0.6464 -2.1757
 9413SOL    HW239699   0.020   3.967   2.509 -1.4562  0.2017  0.0602
 9414SOL     OW39700   0.949   1.505   8.266 -0.4868  0.0763 -0.3446
 9414SOL    HW139701   0.928   1.568   8.334 -0.3639 -0.7104  0.4156
 9414SOL    HW239702   1.019   1.555   8.224 -0.1049  0.6238  0.9499
 9415SOL     OW39703   1.367   0.907   4.842  0.1346 -0.0458 -0.2410
 9415SOL    HW139704   1.354   0.836   4.779  2.0185  1.1466 -1.9705
 9415SOL    HW239705   1.294   0.965   4.820 -0.8266 -1.6166 -1.1964
 9416SOL     OW39706   0.360   1.792   1.898 -0.2722 -0.4967 -0.1646
 9416SOL    HW139707   0.434   1.794   1.958 -1.0735 -2.4963  0.8870
 9416SOL    HW239708   0.291   1.793   1.964 -0.1346 -0.6838 -0.0200
 9417SOL     OW39709   1.078   2.972   4.496  0.7021  0.3129  0.0282
 9417SOL    HW139710   1.036   2.994   4.414  2.3668 -1.8283 -1.3953
 9417SOL    HW239711   1.007   2.969   4.561  1.2160  2.3507  0.6802
 9418SOL     OW39712   4.220   1.746   6.556 -0.0417  0.7170 -0.4090
 9418SOL    HW139713   4.282   1.788   6.496  1.3543  2.0853  2.0023
 9418SOL    HW239714   4.289   1.705   6.607 -2.5042 -1.4002  1.2280
 9419SOL     OW39715   2.442   3.262   7.301  0.2165 -0.1352  0.4287
 9419SOL    HW139716   2.395   3.332   7.347 -2.3027 -1.5236 -0.0638
 9419SOL    HW239717   2.500   3.233   7.371 -0.2854 -0.1325  0.8433
 9420SOL     OW39718   0.138   4.098   1.463 -0.0270 -0.3785  0.2919
 9420SOL    HW139719   0.143   4.018   1.516 -2.5250 -1.2408 -0.8043
 9420SOL    HW239720   0.103   4.060   1.382 -2.4994  2.5905 -0.0389
 9421SOL     OW39721   3.254   2.857   2.816 -0.2796  0.3743 -0.3160
 9421SOL    HW139722   3.176   2.806   2.793 -0.8971  1.3415 -0.3835
 9421SOL    HW239723   3.287   2.797   2.883  0.1914  1.4937  0.4614
 9422SOL     OW39724   1.124   0.730   6.006 -1.1030 -0.6554  0.1772
 9422SOL    HW139725   1.207   0.686   6.027  0.2762  1.0162 -1.7466
 9422SOL    HW239726   1.112   0.691   5.920  0.4208 -0.3342 -0.1815
 9423SOL     OW39727   1.822   0.401   6.575  0.4634 -0.1912 -0.1056
 9423SOL    HW139728   1.741   0.364   6.610  1.6465  0.0974  2.9499
 9423SOL    HW239729   1.874   0.380   6.653 -1.1975 -2.5336  0.3759
 9424SOL     OW39730   0.503   0.426  14.646  0.5176  0.1111 -0.8329
 9424SOL    HW139731   0.424   0.371  14.650  0.0046  1.0174  1.6992
 9424SOL    HW239732   0.462   0.512  14.648 -1.2394 -0.7583  1.0235
 9425SOL     OW39733   3.616   3.144   2.120  0.2410  0.0777  0.1460
 9425SOL    HW139734   3.658   3.157   2.205 -0.2313 -2.5335  0.7814
 9425SOL    HW239735   3.617   3.048   2.121 -0.1023  0.0363 -2.9593
 9426SOL     OW39736   2.968   0.784   5.252 -0.7097 -0.0440  0.1703
 9426SOL    HW139737   3.045   0.811   5.301 -0.8968 -0.1693  0.5347
 9426SOL    HW239738   2.944   0.860   5.199  0.4858 -0.0974 -0.4306
 9427SOL     OW39739   1.212   2.297   0.740  0.5642 -0.3655 -0.3549
 9427SOL    HW139740   1.261   2.359   0.795  2.4431 -2.5889  0.4883
 9427SOL    HW239741   1.205   2.348   0.659 -2.8508 -1.7505 -0.9326
 9428SOL     OW39742   1.150   2.752  12.130 -0.2735 -0.1100  0.1040
 9428SOL    HW139743   1.241   2.741  12.157  0.2770  3.7004 -0.1444
 9428SOL    HW239744   1.159   2.742  12.036 -0.5193 -1.9123  0.2727
 9429SOL     OW39745   4.586   2.344   2.766  0.1038  0.9159 -0.4042
 9429SOL    HW139746   4.573   2.262   2.814  1.1432  0.9238 -0.0991
 9429SOL    HW239747   4.574   2.316   2.675  1.1067  0.9031 -0.5391
 9430SOL     OW39748   1.888   3.447  15.451  0.1334 -0.7239  0.3665
 9430SOL    HW139749   1.810   3.429  15.399 -0.9674 -0.0239  1.7856
 9430SOL    HW239750   1.873   3.534  15.485  0.4863 -1.0457  1.3402
 9431SOL     OW39751   1.347   1.001   3.548 -0.6010  0.6052 -0.1579
 9431SOL    HW139752   1.433   1.039   3.527  0.0481  0.8773  2.8884
 9431SOL    HW239753   1.370   0.924   3.600 -0.4520 -0.8151 -2.3711
 9432SOL     OW39754   2.716   4.533   1.688 -0.0118  0.5080  0.5816
 9432SOL    HW139755   2.633   4.528   1.736  0.7047 -1.5099  1.5743
 9432SOL    HW239756   2.698   4.614   1.640  1.5971 -0.3417 -1.4176
 9433SOL     OW39757   1.535   0.585  13.373  0.3331  0.0914  0.1256
 9433SOL    HW139758   1.465   0.604  13.437  1.2351  2.0732  0.5186
 9433SOL    HW239759   1.604   0.547  13.428 -0.9159  1.7938  2.8864
 9434SOL     OW39760   4.614   4.415  12.790  0.1030 -0.2539 -1.0738
 9434SOL    HW139761   4.650   4.503  12.779 -0.3312  0.1798  1.0678
 9434SOL    HW239762   4.661   4.389  12.869 -1.7437 -1.7956 -0.4924
 9435SOL     OW39763   0.909   0.664   7.964  0.0882 -0.0041  0.7488
 9435SOL    HW139764   0.890   0.679   8.057 -2.2070  0.2977  0.2283
 9435SOL    HW239765   0.923   0.569   7.966 -0.1035 -0.0397  0.3931
 9436SOL     OW39766   2.198   3.632   5.223  0.8038 -0.1364 -0.1647
 9436SOL    HW139767   2.134   3.699   5.200  0.6345  0.6961  2.6631
 9436SOL    HW239768   2.182   3.575   5.148  0.3826 -0.3962  0.1224
 9437SOL     OW39769   3.710   3.664   9.924 -0.4261 -0.2637  0.4111
 9437SOL    HW139770   3.781   3.609   9.956  0.3655  0.7770  0.4550
 9437SOL    HW239771   3.650   3.669   9.998 -0.1072 -0.6408  0.6931
 9438SOL     OW39772   1.145   2.770   8.096 -0.2520 -0.6206 -0.9803
 9438SOL    HW139773   1.240   2.769   8.084 -0.0924 -2.1448  0.2816
 9438SOL    HW239774   1.146   2.831   8.169  3.1026  0.2338 -1.7842
 9439SOL     OW39775   2.790   1.772   8.873  0.2746 -0.2065  0.2343
 9439SOL    HW139776   2.865   1.802   8.823  1.5095 -2.4246  0.7771
 9439SOL    HW239777   2.801   1.677   8.865  1.4193 -0.1077  0.5604
 9440SOL     OW39778   1.067   2.565   8.455 -0.0213 -0.4872 -0.0338
 9440SOL    HW139779   1.033   2.578   8.543 -1.0434  0.5135 -0.5715
 9440SOL    HW239780   1.155   2.602   8.465  0.5136 -1.7009 -0.2099
 9441SOL     OW39781   2.351   3.497  16.355  0.5502  0.2624 -0.6987
 9441SOL    HW139782   2.365   3.558  16.282 -1.3609  1.0335 -0.4240
 9441SOL    HW239783   2.321   3.562  16.419 -0.4867 -1.2724  0.3470
 9442SOL     OW39784   4.365   2.376  14.157  0.0862  0.1527  0.4862
 9442SOL    HW139785   4.437   2.317  14.178  1.0513  0.0854 -3.0329
 9442SOL    HW239786   4.347   2.338  14.071 -1.3400  0.6691  0.5539
 9443SOL     OW39787   1.644   2.124   2.920 -0.3306 -0.4731  0.6525
 9443SOL    HW139788   1.632   2.202   2.974  2.5750  0.5802 -0.2515
 9443SOL    HW239789   1.706   2.164   2.860 -0.4749 -0.5809  0.4298
 9444SOL     OW39790   1.870   2.627  17.325  0.1669  0.2370 -0.1677
 9444SOL    HW139791   1.837   2.555  17.271 -1.8779  0.9490  0.1294
 9444SOL    HW239792   1.951   2.634  17.274 -1.3025  0.4545 -2.4988
 9445SOL     OW39793   2.266   0.754  17.044 -0.5750  0.4265 -0.2554
 9445SOL    HW139794   2.360   0.761  17.027 -0.3825 -1.3746 -0.0197
 9445SOL    HW239795   2.247   0.673  16.996 -0.5600 -0.0351  0.5159
 9446SOL     OW39796   4.585   3.345   8.285  0.3266  0.4122  0.0291
 9446SOL    HW139797   4.588   3.253   8.311  4.1548  0.6150  0.2770
 9446SOL    HW239798   4.670   3.360   8.244 -0.5158  2.7145 -0.8988
 9447SOL     OW39799   0.896   3.095   8.832  0.1920  0.0493 -0.0624
 9447SOL    HW139800   0.821   3.047   8.867  0.3017  0.0010  0.1040
 9447SOL    HW239801   0.899   3.179   8.877  4.5646 -1.9555  3.2912
 9448SOL     OW39802   1.504   3.322   4.058 -0.0930 -0.0384 -0.7607
 9448SOL    HW139803   1.420   3.368   4.067  0.1607  0.2994 -0.1171
 9448SOL    HW239804   1.520   3.290   4.147 -0.5337 -0.4700 -0.8356
 9449SOL     OW39805   1.983   1.092   4.452  1.0923  0.6289 -0.5230
 9449SOL    HW139806   2.040   1.158   4.490  0.5463  0.6251  0.3115
 9449SOL    HW239807   1.901   1.126   4.488  1.3408  0.9248 -0.2377
 9450SOL     OW39808   4.477   0.800   7.333 -0.0358 -0.4067  0.0116
 9450SOL    HW139809   4.404   0.754   7.291  0.9633 -1.5253 -0.5312
 9450SOL    HW239810   4.532   0.837   7.264 -2.2711 -0.0949 -1.5838
 9451SOL     OW39811   1.188   2.751   8.814 -0.1401  0.6101 -0.3587
 9451SOL    HW139812   1.272   2.780   8.850  0.9187  0.6581 -2.8068
 9451SOL    HW239813   1.209   2.785   8.727 -2.6109  1.1587 -0.7261
 9452SOL     OW39814   4.173   0.214  12.102 -0.2876 -0.1561 -0.2839
 9452SOL    HW139815   4.243   0.171  12.151 -0.0271  0.0513 -0.4737
 9452SOL    HW239816   4.181   0.151  12.030 -0.6561  0.2741 -0.6979
 9453SOL     OW39817   0.213   4.296   5.050  0.0895  0.6994 -0.0928
 9453SOL    HW139818   0.200   4.277   5.143  1.8557  2.6196  0.5450
 9453SOL    HW239819   0.305   4.271   5.045 -0.2655 -0.5920 -0.2377
 9454SOL     OW39820   2.038   3.298   7.491  0.2112  0.1017 -0.0024
 9454SOL    HW139821   2.087   3.334   7.417  0.8241  1.7950  1.1996
 9454SOL    HW239822   2.078   3.341   7.567  0.1191  3.2082 -1.6769
 9455SOL     OW39823   0.350   2.217   5.989  0.2740 -0.0179 -0.7236
 9455SOL    HW139824   0.274   2.275   5.999  1.8969  1.8141  1.1759
 9455SOL    HW239825   0.384   2.215   6.078 -0.4022  2.5867 -0.3952
 9456SOL     OW39826   1.006   2.343  14.725 -0.3714 -0.3378  0.4878
 9456SOL    HW139827   0.956   2.423  14.712 -0.6801 -0.3769  1.4332
 9456SOL    HW239828   0.939   2.285  14.763  1.6377 -2.2090  1.1648
 9457SOL     OW39829   3.225   4.449   6.850 -0.0999  0.0833 -0.1963
 9457SOL    HW139830   3.233   4.425   6.942 -0.2045  1.4467  0.1737
 9457SOL    HW239831   3.163   4.519   6.869  1.2926  1.0861  0.6496
 9458SOL     OW39832   1.863   4.077   4.124  0.1593 -0.5749  0.4460
 9458SOL    HW139833   1.933   4.020   4.156  0.9940 -0.3712 -1.0198
 9458SOL    HW239834   1.887   4.153   4.178 -1.0583 -0.4773  0.8555
 9459SOL     OW39835   0.959   4.221   5.929  0.5890  0.3596 -0.1847
 9459SOL    HW139836   1.011   4.144   5.948 -1.3344 -1.4490 -2.2019
 9459SOL    HW239837   0.899   4.205   6.002 -0.9127  0.5436 -1.3689
 9460SOL     OW39838   1.534   1.189   5.132 -0.5768 -0.2522  0.2285
 9460SOL    HW139839   1.462   1.247   5.108  0.6809  0.8993 -0.8082
 9460SOL    HW239840   1.591   1.252   5.178  0.1500  0.0436 -1.0956
 9461SOL     OW39841   2.083   2.371   4.712  0.4958 -0.6230  0.0297
 9461SOL    HW139842   2.095   2.422   4.793  0.4750 -0.7339  0.1021
 9461SOL    HW239843   2.150   2.304   4.725 -0.8546 -1.8034  0.9507
 9462SOL     OW39844   4.033   4.285   6.557  0.0847  0.3546 -0.4320
 9462SOL    HW139845   4.018   4.301   6.650 -0.3894  2.0298 -0.8104
 9462SOL    HW239846   4.059   4.192   6.556  0.2328  0.3918 -0.0259
 9463SOL     OW39847   1.234   0.677   9.478  0.0631 -0.2633 -0.0168
 9463SOL    HW139848   1.177   0.739   9.432 -2.1045 -0.7846  1.9204
 9463SOL    HW239849   1.221   0.700   9.570 -1.1940  0.5991 -0.4018
 9464SOL     OW39850   2.887   0.154   0.628 -0.3723 -0.6491 -0.1669
 9464SOL    HW139851   2.815   0.198   0.674 -0.6900  0.2213 -1.4963
 9464SOL    HW239852   2.924   0.216   0.566  1.5472 -1.2376  0.3917
 9465SOL     OW39853   3.753   2.075   3.348 -0.0057  0.2772  0.3050
 9465SOL    HW139854   3.732   1.983   3.331  1.2455  0.0773 -0.1343
 9465SOL    HW239855   3.732   2.112   3.262 -0.4172  0.7604  0.6110
 9466SOL     OW39856   0.910   1.350   7.872 -0.4098 -0.4056 -0.4853
 9466SOL    HW139857   0.994   1.352   7.827 -0.5792 -1.4484 -0.8605
 9466SOL    HW239858   0.855   1.313   7.802 -1.1970  1.9790 -1.1168
 9467SOL     OW39859   2.359   4.262   3.883  0.5172  0.0875  0.4685
 9467SOL    HW139860   2.281   4.251   3.829  0.2138 -0.0306  0.9311
 9467SOL    HW239861   2.419   4.192   3.858 -0.4087 -1.1363  1.6857
 9468SOL     OW39862   3.526   0.550   7.087 -0.4900  0.2695 -0.3418
 9468SOL    HW139863   3.608   0.591   7.061 -0.7673  0.5984 -0.7176
 9468SOL    HW239864   3.548   0.520   7.175  0.9377  1.1969 -0.3978
 9469SOL     OW39865   3.080   0.678   4.788 -0.3440  0.0687  0.5170
 9469SOL    HW139866   3.001   0.705   4.835 -1.8604 -1.6308 -1.0784
 9469SOL    HW239867   3.126   0.645   4.865  0.6343 -1.6089 -0.7935
 9470SOL     OW39868   3.689   2.569   9.648  0.1757 -0.6401 -0.0181
 9470SOL    HW139869   3.622   2.637   9.640 -0.2187 -1.1591 -1.1520
 9470SOL    HW239870   3.707   2.568   9.554  0.5669 -3.2085  0.0699
 9471SOL     OW39871   3.173   2.877  17.135  0.4063  0.2691 -0.5475
 9471SOL    HW139872   3.152   2.806  17.196  0.9381 -0.2961 -1.0062
 9471SOL    HW239873   3.209   2.839  17.055  0.6409  0.6550 -0.6238
 9472SOL     OW39874   1.450   2.572   2.994 -0.2345 -0.3101  0.1327
 9472SOL    HW139875   1.448   2.590   2.900 -0.6390  1.4779  0.4956
 9472SOL    HW239876   1.428   2.658   3.030 -2.0580 -0.5987 -0.2761
 9473SOL     OW39877   1.266   2.036   7.980  0.8034  0.3317 -0.6960
 9473SOL    HW139878   1.271   2.000   8.069  1.1922 -2.2837 -1.7888
 9473SOL    HW239879   1.184   2.086   7.982  0.7613  0.1387  2.9899
 9474SOL     OW39880   1.712   3.838  17.214  0.6348 -0.3706  1.0045
 9474SOL    HW139881   1.696   3.932  17.206  1.5135 -0.2416  0.7529
 9474SOL    HW239882   1.621   3.813  17.200 -0.9951  5.2129  1.3741
 9475SOL     OW39883   4.541   3.417  10.574  0.7101 -0.2134  0.1728
 9475SOL    HW139884   4.582   3.331  10.564  0.0256 -0.7535  2.1142
 9475SOL    HW239885   4.607   3.475  10.610 -1.1042  1.5868  0.5729
 9476SOL     OW39886   1.112   3.857   2.772 -0.3355 -0.0002 -0.4388
 9476SOL    HW139887   1.046   3.925   2.761  1.0621  1.3095 -0.5817
 9476SOL    HW239888   1.069   3.829   2.853  1.8285  1.2270  1.1336
 9477SOL     OW39889   2.740   1.047  10.825 -0.6010  0.0745  0.5417
 9477SOL    HW139890   2.788   1.076  10.902 -0.1398  0.2970  0.1678
 9477SOL    HW239891   2.803   0.983  10.793 -2.5739 -1.2762 -0.6637
 9478SOL     OW39892   2.435   1.183  16.625  0.1126  0.3239  0.2809
 9478SOL    HW139893   2.498   1.203  16.555 -1.3505 -1.3218 -1.5031
 9478SOL    HW239894   2.476   1.219  16.704  0.5628  2.4755 -0.9302
 9479SOL     OW39895   3.875   0.457   4.488  0.2407 -0.0764  0.3067
 9479SOL    HW139896   3.849   0.417   4.405 -3.6054  2.8876  0.0940
 9479SOL    HW239897   3.791   0.479   4.529  1.1922  0.5431  1.9205
 9480SOL     OW39898   0.936   1.549  12.005 -0.2215  0.3946  0.1387
 9480SOL    HW139899   0.980   1.632  12.024  0.0905 -0.1051  1.5890
 9480SOL    HW239900   1.003   1.481  12.004  0.2221  0.7982  2.1818
 9481SOL     OW39901   1.368   1.029   5.816 -0.4126  0.1195  0.1433
 9481SOL    HW139902   1.327   1.087   5.752 -1.7762 -2.7222 -1.5632
 9481SOL    HW239903   1.301   1.015   5.883  0.0343 -0.5680  0.4451
 9482SOL     OW39904   1.488   0.725   9.420  0.0120  0.2592 -0.5427
 9482SOL    HW139905   1.537   0.798   9.457 -0.5857  1.1835 -1.5646
 9482SOL    HW239906   1.398   0.735   9.451 -0.0099  0.6879 -0.7375
 9483SOL     OW39907   2.048   0.441   2.978  0.5883 -0.3660 -0.6216
 9483SOL    HW139908   2.101   0.509   3.019  1.3537  0.9219 -3.7629
 9483SOL    HW239909   1.994   0.490   2.915 -1.4033 -1.7322  0.0107
 9484SOL     OW39910   0.478   2.179  14.950 -0.2606 -0.1259 -0.1513
 9484SOL    HW139911   0.403   2.226  14.913  0.4553  1.7589  0.7861
 9484SOL    HW239912   0.434   2.119  15.010  2.8285 -0.6343  1.6429
 9485SOL     OW39913   3.260   0.108   8.260 -0.4181 -0.2500 -0.7921
 9485SOL    HW139914   3.302   0.148   8.184  0.0136 -0.4991 -0.6883
 9485SOL    HW239915   3.313   0.028   8.266 -0.5912 -0.2408  0.8607
 9486SOL     OW39916   1.562   0.423   1.444 -0.4964 -0.3458 -0.4351
 9486SOL    HW139917   1.576   0.335   1.411  1.0097 -0.3646  0.2604
 9486SOL    HW239918   1.486   0.408   1.501  0.5837 -2.2420  0.4870
 9487SOL     OW39919   1.372   4.269  14.083  0.1892  0.1954  0.0902
 9487SOL    HW139920   1.396   4.176  14.075  0.0761 -0.1396  3.5605
 9487SOL    HW239921   1.315   4.262  14.160 -0.8475 -0.8044 -0.7510
 9488SOL     OW39922   0.203   4.532  14.924 -0.3353 -0.1814 -0.3180
 9488SOL    HW139923   0.233   4.525  14.834  1.6329  1.2889  0.2165
 9488SOL    HW239924   0.206   4.443  14.959 -1.6199 -0.1127 -0.0441
 9489SOL     OW39925   3.859   0.932   4.866 -0.4735  0.3337 -0.0958
 9489SOL    HW139926   3.830   0.841   4.863  1.7459 -0.3770  0.0551
 9489SOL    HW239927   3.774   0.976   4.868 -1.6853 -1.9719 -0.3011
 9490SOL     OW39928   0.844   4.320   0.240  0.0803 -0.5024 -0.2736
 9490SOL    HW139929   0.766   4.302   0.188 -0.6801 -2.4199  1.5576
 9490SOL    HW239930   0.907   4.347   0.173  0.5355  0.4039  0.5111
 9491SOL     OW39931   4.714   4.685  17.323  0.0547  0.1954  0.1167
 9491SOL    HW139932   4.695   4.694  17.229  1.9222 -0.2931 -0.2972
 9491SOL    HW239933   4.714   4.591  17.343 -1.6509  0.2901  0.6235
 9492SOL     OW39934   3.683   3.431   6.479 -0.6857 -0.1544 -0.1206
 9492SOL    HW139935   3.669   3.517   6.440 -1.8118  0.0866  0.8060
 9492SOL    HW239936   3.662   3.377   6.403  1.7587  2.0512 -2.3691
 9493SOL     OW39937   0.526   2.735   4.587 -0.2457  0.3937 -0.1840
 9493SOL    HW139938   0.583   2.662   4.610 -2.3705 -1.1702  0.2230
 9493SOL    HW239939   0.447   2.697   4.548  0.3983 -0.7683 -0.3486
 9494SOL     OW39940   1.246   2.418   3.121  0.4234  0.1941  0.5658
 9494SOL    HW139941   1.227   2.359   3.048 -1.8181  1.2470  0.2885
 9494SOL    HW239942   1.330   2.460   3.102  1.1847 -2.3846 -1.7852
 9495SOL     OW39943   3.408   3.797   5.663  0.5266 -0.1860  0.2599
 9495SOL    HW139944   3.474   3.844   5.613  0.9590 -1.1478 -0.0870
 9495SOL    HW239945   3.366   3.752   5.589 -0.3980  0.2926  0.4879
 9496SOL     OW39946   1.957   1.997   9.316 -0.0693  0.3468  0.1731
 9496SOL    HW139947   2.012   1.979   9.392  1.1223  2.4075 -0.1872
 9496SOL    HW239948   2.003   2.071   9.276 -1.0720  0.5684 -0.5839
 9497SOL     OW39949   0.183   0.250  16.647  0.1228  0.7693 -0.0119
 9497SOL    HW139950   0.230   0.270  16.565 -0.5714  0.8483 -0.3860
 9497SOL    HW239951   0.154   0.336  16.677 -1.9550  0.6350 -1.6821
 9498SOL     OW39952   1.262   1.820   4.104  0.0248  0.0501 -0.1527
 9498SOL    HW139953   1.261   1.819   4.008 -1.2250  2.1898 -0.1482
 9498SOL    HW239954   1.186   1.763   4.118  1.0248 -0.8203  1.7206
 9499SOL     OW39955   1.842   3.255   3.057  0.0900 -0.3078  0.6040
 9499SOL    HW139956   1.885   3.171   3.037  3.1506  0.9867  1.7241
 9499SOL    HW239957   1.760   3.260   3.007  0.3427 -0.1425  0.2115
 9500SOL     OW39958   2.532   0.737   5.382  0.4255  0.1497  0.2748
 9500SOL    HW139959   2.468   0.671   5.408 -2.0556  2.2025 -0.6161
 9500SOL    HW239960   2.485   0.816   5.410  1.5352  0.8766  0.1105
 9501SOL     OW39961   2.549   4.674  13.288  0.6904  0.2232 -0.3303
 9501SOL    HW139962   2.582   0.019  13.347  2.4591 -4.4826  4.1659
 9501SOL    HW239963   2.557   0.003  13.208  2.2221  1.1144  0.3980
 9502SOL     OW39964   3.693   0.748   9.691 -0.3780 -0.0458 -0.0894
 9502SOL    HW139965   3.648   0.681   9.641  2.6778 -2.0093 -0.2261
 9502SOL    HW239966   3.783   0.715   9.701 -0.2614  0.9720  2.3313
 9503SOL     OW39967   1.546   1.627   0.248 -0.2290  0.2098 -0.4555
 9503SOL    HW139968   1.615   1.585   0.300 -0.2032  1.7958  0.8097
 9503SOL    HW239969   1.485   1.557   0.228  1.1625 -0.6618 -1.6546
 9504SOL     OW39970   0.197   2.380   6.720 -0.2468 -0.1498 -0.0145
 9504SOL    HW139971   0.280   2.333   6.714 -0.0938  0.2305 -0.8276
 9504SOL    HW239972   0.159   2.374   6.633 -0.3711 -0.1446  0.0388
 9505SOL     OW39973   0.570   2.438   5.351 -0.4689  0.1668  0.2824
 9505SOL    HW139974   0.558   2.352   5.391  0.0126 -0.3575 -0.6879
 9505SOL    HW239975   0.645   2.431   5.292  0.0616  1.6903  0.7639
 9506SOL     OW39976   3.784   1.491   1.634  0.0388 -0.1578  0.5236
 9506SOL    HW139977   3.763   1.582   1.613  0.8422 -0.1563 -0.2711
 9506SOL    HW239978   3.848   1.496   1.705 -0.0278  0.3953  0.5441
 9507SOL     OW39979   0.950   1.284   7.451 -0.3420 -1.0504  0.5992
 9507SOL    HW139980   0.856   1.301   7.460 -0.6702 -1.6741 -1.8192
 9507SOL    HW239981   0.961   1.202   7.498 -2.2651 -1.2366  0.7175
 9508SOL     OW39982   3.918   2.287   3.428 -0.3196  0.3900  0.0735
 9508SOL    HW139983   3.890   2.362   3.375  1.1983 -0.1132 -1.4604
 9508SOL    HW239984   3.849   2.224   3.407 -0.3093  0.4383 -0.1028
 9509SOL     OW39985   4.634   3.004   7.257 -0.2462  0.0392 -0.4981
 9509SOL    HW139986   4.611   3.028   7.167 -0.2125  2.6686  0.1757
 9509SOL    HW239987   4.546   3.017   7.293 -0.4381 -1.2759 -0.5000
 9510SOL     OW39988   4.161   3.427   7.978 -0.2704 -0.3537  0.0485
 9510SOL    HW139989   4.207   3.376   7.911  0.4736 -2.3039  2.0786
 9510SOL    HW239990   4.215   3.417   8.056 -1.1217 -2.5914  0.3423
 9511SOL     OW39991   0.200   1.140   3.940 -0.3154  0.3271 -0.1810
 9511SOL    HW139992   0.291   1.111   3.932 -0.3817  0.1745 -0.3776
 9511SOL    HW239993   0.220   1.210   4.002  1.5656  0.0056 -0.4147
 9512SOL     OW39994   0.654   0.677   7.172  0.6601  0.4909  0.2893
 9512SOL    HW139995   0.617   0.698   7.086 -2.7723 -2.2346  1.1208
 9512SOL    HW239996   0.583   0.617   7.195  1.9473 -1.5089 -0.9299
 9513SOL     OW39997   2.626   0.704   8.612 -0.1156 -0.7522  0.1440
 9513SOL    HW139998   2.568   0.630   8.631 -0.8495 -0.4189 -0.8071
 9513SOL    HW239999   2.644   0.748   8.695  1.2314  0.5008 -0.8341
 9514SOL     OW40000   1.046   3.333   9.901 -0.1042  0.1488  0.3263
 9514SOL    HW140001   1.114   3.362   9.962 -0.3788 -0.6185  0.9907
 9514SOL    HW240002   0.959   3.331   9.941 -0.2855 -0.8771 -0.1155
 9515SOL     OW40003   3.820   1.608  11.328  0.5228  0.7566 -0.1523
 9515SOL    HW140004   3.772   1.575  11.404  0.2354 -0.0215 -0.6762
 9515SOL    HW240005   3.901   1.556  11.321  0.7354  0.8688  1.5108
 9516SOL     OW40006   1.471   0.373   2.588  0.2230 -0.0011 -0.4192
 9516SOL    HW140007   1.406   0.305   2.576  1.7232 -1.2511 -1.5744
 9516SOL    HW240008   1.474   0.386   2.683  1.0348 -1.2942 -0.2645
 9517SOL     OW40009   2.494   3.651   7.757 -0.1033 -0.3778 -0.6414
 9517SOL    HW140010   2.480   3.703   7.836 -0.5498 -0.3425 -0.7426
 9517SOL    HW240011   2.556   3.587   7.791 -1.2566 -1.4530 -0.5783
 9518SOL     OW40012   1.484   2.450   8.310 -0.0262  0.3484  0.2565
 9518SOL    HW140013   1.445   2.534   8.286 -1.4486 -0.7024 -1.0932
 9518SOL    HW240014   1.546   2.483   8.376  2.1766 -0.4333 -1.4106
 9519SOL     OW40015   2.011   3.477   3.647 -0.5069  0.1632 -0.2225
 9519SOL    HW140016   2.060   3.396   3.634 -0.1706  0.3779 -0.2770
 9519SOL    HW240017   2.042   3.518   3.728  1.0853  2.8832 -2.1944
 9520SOL     OW40018   2.254   1.953   9.102  0.4614 -0.5345  0.4532
 9520SOL    HW140019   2.336   1.952   9.051 -0.3055 -1.6450 -0.7558
 9520SOL    HW240020   2.196   1.891   9.058  1.1369 -0.6626 -0.2586
 9521SOL     OW40021   1.033   1.174   1.145 -0.3711  0.8019  0.1096
 9521SOL    HW140022   0.964   1.132   1.196  2.3735 -0.4712  2.7611
 9521SOL    HW240023   0.976   1.197   1.071  1.3840  0.9727 -1.2058
 9522SOL     OW40024   2.809   0.454   6.141 -0.0691 -0.4294 -0.0721
 9522SOL    HW140025   2.723   0.490   6.122 -0.0053  0.6526  1.6150
 9522SOL    HW240026   2.788   0.407   6.222 -1.3536  0.2362 -0.0195
 9523SOL     OW40027   3.769   0.977   4.108  0.6077 -0.6812  0.2624
 9523SOL    HW140028   3.864   0.977   4.099  0.8721  1.3084  3.0798
 9523SOL    HW240029   3.744   0.969   4.016  1.2641  0.2492  0.0136
 9524SOL     OW40030   1.721   1.868   7.424  0.0685  0.4369  0.2315
 9524SOL    HW140031   1.683   1.911   7.348  0.2053  0.6050  0.2607
 9524SOL    HW240032   1.668   1.787   7.424  0.3066  0.2799  0.3577
 9525SOL     OW40033   4.195   1.354  12.001 -0.7110  0.1457 -0.2612
 9525SOL    HW140034   4.261   1.363  11.931 -0.0789  0.9110  0.4377
 9525SOL    HW240035   4.148   1.275  11.973 -1.4956  0.6135 -0.2517
 9526SOL     OW40036   4.178   1.848   5.672  0.4193 -0.1602 -0.0676
 9526SOL    HW140037   4.237   1.794   5.723  0.7361  0.6328  0.4091
 9526SOL    HW240038   4.156   1.914   5.738 -1.7710 -0.7866 -0.1686
 9527SOL     OW40039   1.661   2.544  14.497 -0.0832 -0.2826  0.3279
 9527SOL    HW140040   1.619   2.520  14.579  0.2656  0.5008  0.7453
 9527SOL    HW240041   1.739   2.586  14.534 -0.4845  0.0857  0.7613
 9528SOL     OW40042   2.186   4.343   3.163  0.0776 -0.2888  0.6762
 9528SOL    HW140043   2.132   4.293   3.101 -0.6998  2.3259 -0.7237
 9528SOL    HW240044   2.280   4.334   3.147  0.0363  1.0324 -0.2745
 9529SOL     OW40045   2.014   0.376  14.304 -0.3903 -0.2244 -0.2062
 9529SOL    HW140046   1.947   0.309  14.291 -1.2703  0.9351 -1.6638
 9529SOL    HW240047   2.042   0.392  14.214  1.0504 -1.6840 -0.0145
 9530SOL     OW40048   1.795   3.780   1.860 -0.2343 -0.2949 -0.2472
 9530SOL    HW140049   1.779   3.750   1.770  3.8889 -2.1189 -0.3719
 9530SOL    HW240050   1.854   3.712   1.893 -0.9036 -0.9470 -0.3989
 9531SOL     OW40051   1.452   0.642   5.836 -0.2188  0.5820 -0.0954
 9531SOL    HW140052   1.420   0.722   5.879 -1.4020 -1.2781  2.5085
 9531SOL    HW240053   1.393   0.574   5.869  0.1209  0.6403  0.6378
 9532SOL     OW40054   3.922   3.814   7.417  0.5197  0.7847 -0.9364
 9532SOL    HW140055   3.913   3.818   7.512 -1.4914 -0.3583 -1.0785
 9532SOL    HW240056   4.006   3.768   7.416 -1.8296 -3.5335  0.4996
 9533SOL     OW40057   2.002   3.978   7.242  0.0716  0.3532 -0.2542
 9533SOL    HW140058   1.956   3.932   7.312  0.3745  1.7872  0.8655
 9533SOL    HW240059   2.086   3.994   7.283 -0.0810 -0.4935  0.3920
 9534SOL     OW40060   2.457   1.760   2.561  0.8466 -0.3500  0.2111
 9534SOL    HW140061   2.486   1.669   2.571 -1.6019 -1.0221  1.1792
 9534SOL    HW240062   2.411   1.749   2.478 -2.3729 -0.4024  2.0323
 9535SOL     OW40063   1.116   3.263  10.473  0.2384  0.0605 -0.4183
 9535SOL    HW140064   1.149   3.189  10.524  1.7884  0.3045 -1.0812
 9535SOL    HW240065   1.037   3.283  10.524  1.0928  0.8250  0.6124
 9536SOL     OW40066   0.257   0.862   0.395 -0.3639 -0.4043 -0.3375
 9536SOL    HW140067   0.259   0.949   0.354 -1.2297  1.2608  3.1387
 9536SOL    HW240068   0.351   0.846   0.395 -0.3186 -0.0925  0.7894
 9537SOL     OW40069   2.883   2.212   5.396 -0.1640  0.7447  0.2494
 9537SOL    HW140070   2.938   2.230   5.473 -0.5457  1.2805  0.4010
 9537SOL    HW240071   2.826   2.142   5.428  0.4679  2.1650  4.5821
 9538SOL     OW40072   2.002   3.665   7.128  0.2385  0.1679  0.3142
 9538SOL    HW140073   2.012   3.755   7.098 -1.8957  0.3155  0.0547
 9538SOL    HW240074   1.910   3.668   7.152  0.6826  0.7622  1.9408
 9539SOL     OW40075   0.850   1.208   8.417  0.0947  0.0325 -0.0722
 9539SOL    HW140076   0.909   1.139   8.386 -0.4121  0.4094 -1.8443
 9539SOL    HW240077   0.830   1.256   8.337 -1.1156  0.2564  0.3743
 9540SOL     OW40078   1.609   1.385   6.616 -0.3291 -0.4222  0.6763
 9540SOL    HW140079   1.667   1.392   6.540 -0.3117  1.0562  0.8185
 9540SOL    HW240080   1.650   1.303   6.644 -1.7212 -1.4912 -0.3857
 9541SOL     OW40081   4.088   4.065   0.669 -0.2549  0.3866  0.2400
 9541SOL    HW140082   4.151   4.028   0.731  0.8049  1.4452 -0.2061
 9541SOL    HW240083   4.122   4.152   0.652  0.9655 -0.3823 -1.2574
 9542SOL     OW40084   0.009   3.934   6.760 -0.8450  0.9116  0.0668
 9542SOL    HW140085   0.031   4.004   6.699  1.6887 -0.4622 -0.6047
 9542SOL    HW240086   0.052   3.963   6.841 -0.0993 -0.3681  0.1260
 9543SOL     OW40087   0.624   4.653   0.791  0.4151  0.4569  0.0425
 9543SOL    HW140088   0.675   4.661   0.872 -1.7291 -0.4153  1.4931
 9543SOL    HW240089   0.535   4.659   0.825  0.2539 -2.5240  0.1031
 9544SOL     OW40090   3.448   1.704   8.176 -0.0961 -0.0838  0.7433
 9544SOL    HW140091   3.485   1.721   8.089  1.4727 -0.0122  1.4143
 9544SOL    HW240092   3.357   1.695   8.148  0.2462  0.5480 -0.6043
 9545SOL     OW40093   1.226   2.264   4.575  0.5171 -0.1359 -0.4425
 9545SOL    HW140094   1.137   2.288   4.549  0.2692 -0.4501  0.1064
 9545SOL    HW240095   1.252   2.344   4.622  0.1108 -0.5079  0.4125
 9546SOL     OW40096   1.941   3.716   7.688  0.3406 -0.3889 -0.4884
 9546SOL    HW140097   2.034   3.698   7.707  0.3932 -0.6388 -0.9790
 9546SOL    HW240098   1.923   3.642   7.629  0.4358 -1.7696  1.2284
 9547SOL     OW40099   0.846   3.751  16.242 -0.1467 -0.2176 -0.0733
 9547SOL    HW140100   0.928   3.784  16.278 -0.8015 -0.8704  2.0372
 9547SOL    HW240101   0.879   3.682  16.184  0.6259 -0.3514  0.5315
 9548SOL     OW40102   0.453   0.544  13.397 -0.5027 -0.1345  0.0430
 9548SOL    HW140103   0.485   0.559  13.308  0.0245 -0.3630  0.1967
 9548SOL    HW240104   0.402   0.624  13.414 -0.2001 -0.1977  1.1944
 9549SOL     OW40105   4.217   2.000   0.937 -0.1051 -1.0371 -0.0500
 9549SOL    HW140106   4.204   1.908   0.914  1.8578 -1.7774  1.8839
 9549SOL    HW240107   4.255   2.022   0.851 -0.6984 -0.9529 -0.2907
 9550SOL     OW40108   0.975   0.475   8.397 -0.4746 -0.3130 -0.6110
 9550SOL    HW140109   1.040   0.543   8.417 -0.3876  0.2062 -2.7245
 9550SOL    HW240110   0.968   0.443   8.487 -0.8329 -0.9250 -0.8588
 9551SOL     OW40111   2.068   4.067  11.048  0.0202 -0.2939 -0.8193
 9551SOL    HW140112   2.083   4.129  11.120  0.2480 -1.7372  0.3886
 9551SOL    HW240113   2.122   4.106  10.979 -0.1033  0.5681 -0.4206
 9552SOL     OW40114   1.670   1.243  10.954  0.1913  0.2548  0.4563
 9552SOL    HW140115   1.720   1.257  11.035 -0.2746 -0.5482  0.8941
 9552SOL    HW240116   1.688   1.324  10.906 -0.6362  0.4915  0.5445
 9553SOL     OW40117   2.053   1.415   7.453 -0.5629 -0.4130 -0.5506
 9553SOL    HW140118   2.035   1.492   7.507 -0.7385 -1.2324  0.5628
 9553SOL    HW240119   2.076   1.459   7.371  1.7186  1.5385  1.1253
 9554SOL     OW40120   3.482   1.562   5.706  0.4550 -0.1408 -0.5516
 9554SOL    HW140121   3.422   1.505   5.657 -0.1969 -0.3820  0.5312
 9554SOL    HW240122   3.561   1.572   5.653  1.7670 -0.3731  1.3657
 9555SOL     OW40123   0.748   0.481   9.527  0.2324  0.9217  0.0158
 9555SOL    HW140124   0.659   0.455   9.503  1.2629 -1.5045 -1.2218
 9555SOL    HW240125   0.726   0.544   9.595 -0.7166 -0.4561  0.9821
 9556SOL     OW40126   3.602   2.161   7.088 -0.4268 -0.4625  0.3914
 9556SOL    HW140127   3.648   2.078   7.085 -0.4573 -0.3977 -1.5116
 9556SOL    HW240128   3.605   2.198   7.000 -3.7562 -0.0710  0.4238
 9557SOL     OW40129   0.867   2.627  13.757  0.1439  0.3401 -0.2098
 9557SOL    HW140130   0.883   2.721  13.761  0.0295  0.3870 -0.9762
 9557SOL    HW240131   0.773   2.624  13.775  0.6838  0.4708  2.7422
 9558SOL     OW40132   3.876   3.247   4.712 -0.7007 -0.1095 -0.1529
 9558SOL    HW140133   3.961   3.269   4.674 -0.4266  0.0602  0.5687
 9558SOL    HW240134   3.820   3.306   4.661  1.7966  0.4397 -2.2294
 9559SOL     OW40135   4.688   0.260   4.489  0.3505  0.1992  0.1962
 9559SOL    HW140136   4.672   0.274   4.583  1.5860 -1.4996  0.6514
 9559SOL    HW240137   0.059   0.238   4.489 -0.1197 -1.7817  0.4731
 9560SOL     OW40138   0.689   2.294   0.851 -0.5598 -0.0907  0.3710
 9560SOL    HW140139   0.715   2.259   0.936 -0.7808  0.7692  0.7981
 9560SOL    HW240140   0.673   2.385   0.875  0.1959 -0.6007  2.7815
 9561SOL     OW40141   3.820   4.542  15.219 -0.0173 -0.3713  0.1057
 9561SOL    HW140142   3.872   4.560  15.141  0.9240 -0.6638  0.6712
 9561SOL    HW240143   3.799   4.449  15.217 -0.2620 -0.3335  0.7607
 9562SOL     OW40144   4.460   3.908   9.724  0.0141 -0.0650 -0.3490
 9562SOL    HW140145   4.443   4.001   9.710 -5.8387 -1.4663 -2.5558
 9562SOL    HW240146   4.504   3.905   9.809  3.7640  1.7989 -2.2610
 9563SOL     OW40147   0.476   3.084   7.302  0.7601 -0.1419 -0.0999
 9563SOL    HW140148   0.453   2.992   7.316  0.2942 -0.3536 -2.3652
 9563SOL    HW240149   0.489   3.097   7.208  0.5155 -1.1663 -0.2847
 9564SOL     OW40150   2.298   2.101   2.870 -0.1448  0.8399 -0.2120
 9564SOL    HW140151   2.327   2.084   2.780 -2.8215 -2.4656 -0.4666
 9564SOL    HW240152   2.212   2.130   2.837  0.4180  1.6995 -0.9453
 9565SOL     OW40153   2.295   3.649   9.178  0.3507 -0.0588  0.2328
 9565SOL    HW140154   2.222   3.623   9.234 -1.1762  1.3489 -1.1127
 9565SOL    HW240155   2.314   3.560   9.148 -0.6319 -0.5500  1.0602
   4.72239   4.72239  17.69164
