Membrane in water
40155
    1TCq1    O1    1   4.540   4.092  10.963 -0.1168 -0.1796  0.1452
    1TCq1    C1    2   4.663   4.101  10.907  0.2638  0.4122 -0.4366
    1TCq1    O2    3   4.694   4.186  10.823 -0.2952 -0.3153  0.2979
    1TCq1    C2    4   0.015   3.984  10.924 -0.6762 -0.4372 -0.4283
    1TCq1    C3    5   0.036   3.913  10.810  0.3237  0.0564 -0.1550
    1TCq1    C4    6   0.056   3.776  10.825  0.4974 -0.5790 -0.2621
    1TCq1    C5    7   0.045   3.713  10.942  0.5447 -0.1005  0.1841
    1TCq1    C6    8   0.040   3.796  11.057  0.4742  0.0260  0.0164
    1TCq1    C7    9   0.019   3.934  11.049  0.1851  0.1491  0.5650
    1TCq1    C8   10   4.713   3.748  11.190 -0.4859 -0.0708  0.5573
    1TCq1    O4   11   4.682   3.827  11.276  0.1771 -0.0241  0.7898
    1TCq1    C9   12   0.083   3.697  10.704 -0.9549  0.2733 -0.5122
    1TCq1    O5   13   0.051   3.574  10.707  0.5308 -0.3673  0.5600
    1TCq1    O6   14   0.117   3.768  10.601 -0.2887  0.2314  0.3923
    1TCq1    H1   15   4.529   4.008  11.012 -0.3993  0.6986  1.6024
    1TCq1    H2   16   0.022   3.956  10.711 -2.7423 -1.7469 -0.5067
    1TCq1    H3   17   0.069   3.607  10.942  5.0372  0.9471 -0.4364
    1TCq1    H4   18   0.012   3.994  11.139 -0.5990  2.3103 -0.9321
    2MPD2     C   19   4.573   3.370  11.505  0.0603 -0.0075 -0.8349
    2MPD2    C1   20   4.585   3.502  11.529  0.7990  0.6197 -0.1302
    2MPD2    C2   21   4.624   3.585  11.429  0.2302  0.2764 -0.5228
    2MPD2    C3   22   4.653   3.536  11.305 -0.2760  0.1856  0.2345
    2MPD2    C4   23   4.651   3.400  11.282  0.1540  0.3878  0.6380
    2MPD2    C5   24   4.604   3.316  11.386 -0.1953  0.2116 -0.3607
    2MPD2     H   25   4.620   3.692  11.445  1.5257  0.3436 -0.6444
    2MPD2    H1   26   4.680   3.358  11.186  1.7620 -2.1579  2.2409
    2MPD2    H2   27   4.534   3.300  11.578 -1.0183 -0.1653 -1.5693
    2MPD2    H3   28   4.591   3.211  11.361 -2.0377  0.5806 -0.9245
    2MPD2     N   29   4.701   3.615  11.196  0.0591 -0.5053  0.4423
    2MPD2    H5   30   0.015   3.563  11.116 -1.9862 -0.3342 -0.5623
    2MPD2    N1   31   4.541   3.551  11.657 -0.0986  0.4602 -0.2804
    2MPD2    H7   32   4.557   3.650  11.676  1.7196  0.2962 -0.8757
    3TCq1    O1   33   3.847   4.546  10.008 -0.2879  0.0792  0.1502
    3TCq1    C1   34   3.818   4.534  10.137  0.4933  0.8579  0.1491
    3TCq1    O2   35   3.740   4.450  10.183  0.1998  0.0865  0.1752
    3TCq1    C2   36   3.836   4.662  10.206  0.2689  1.0539 -0.0422
    3TCq1    C3   37   3.940   0.017  10.176 -0.3807  0.1726 -0.9360
    3TCq1    C4   38   3.956   0.133  10.237  0.4381 -0.5528  0.6998
    3TCq1    C5   39   3.873   0.171  10.336 -0.1573  0.6578 -0.3637
    3TCq1    C6   40   3.761   0.094  10.366  0.1704 -0.0809 -0.1176
    3TCq1    C7   41   3.740   4.700  10.298 -0.0261  0.4472 -0.0539
    3TCq1    C8   42   3.669   0.126  10.475  0.1678 -0.2108 -0.1645
    3TCq1    O4   43   3.570   0.060  10.482 -0.0772 -0.4156 -0.2812
    3TCq1    C9   44   4.073   0.214  10.210  0.0830 -0.0626  0.2360
    3TCq1    O5   45   4.161   0.160  10.144 -0.1942  0.2888  0.8062
    3TCq1    O6   46   4.090   0.314  10.276  0.1013  0.4194  0.1115
    3TCq1    H1   47   3.894   4.629   9.983 -1.6163 -0.2505 -3.5395
    3TCq1    H2   48   4.011   4.704  10.102 -0.1057  1.4606 -1.2618
    3TCq1    H3   49   3.900   0.259  10.392  1.3410  0.5931 -0.9910
    3TCq1    H4   50   3.652   4.637  10.303 -0.4543  1.0021 -0.5417
    4MPD2     C   51   3.535   0.357  10.917 -0.2960 -0.1048 -0.1154
    4MPD2    C1   52   3.630   0.434  10.854  0.0997 -0.2522  0.4926
    4MPD2    C2   53   3.683   0.387  10.732 -0.0201 -0.3336  0.4692
    4MPD2    C3   54   3.657   0.265  10.681  0.4103 -0.3163 -0.0623
    4MPD2    C4   55   3.555   0.190  10.746  0.0582  0.5185 -0.1751
    4MPD2    C5   56   3.497   0.241  10.860  0.2212  0.1087 -1.0268
    4MPD2     H   57   3.751   0.454  10.681 -0.9355  0.8634  0.8130
    4MPD2    H1   58   3.526   0.090  10.715 -2.5275  1.8688 -2.0235
    4MPD2    H2   59   3.489   0.384  11.011 -0.2245 -2.1475  0.5035
    4MPD2    H3   60   3.429   0.184  10.922 -1.2238 -0.2693 -2.9312
    4MPD2     N   61   3.711   0.226  10.555 -0.2166  0.1249  0.0887
    4MPD2    H5   62   3.793   0.275  10.522  0.1898 -0.2082  0.6085
    4MPD2    N1   63   3.655   0.564  10.911  0.1268 -0.2725  0.3154
    4MPD2    H7   64   3.699   0.641  10.861 -1.2340  0.1884 -0.1737
    5TCq1    O1   65   4.689   1.817  12.106  0.0842 -0.0836 -0.2245
    5TCq1    C1   66   4.682   1.840  11.973 -0.0362 -0.4039  0.0647
    5TCq1    O2   67   4.624   1.768  11.891 -0.2211  0.0402  0.3870
    5TCq1    C2   68   4.690   1.984  11.953  0.0719  0.2962  0.4997
    5TCq1    C3   69   4.624   2.075  12.039  0.4062  0.2757  0.2591
    5TCq1    C4   70   4.586   2.196  11.994 -0.4682  0.4511 -0.8080
    5TCq1    C5   71   4.609   2.242  11.869 -0.6595 -0.9189 -0.5996
    5TCq1    C6   72   4.660   2.151  11.778 -0.5792 -0.5240  0.2056
    5TCq1    C7   73   4.696   2.027  11.819  0.4954  0.4640 -0.4646
    5TCq1    C8   74   4.638   2.172  11.637  0.1917 -0.0878  0.1880
    5TCq1    O4   75   4.636   2.071  11.569  0.4811 -0.5312 -0.2396
    5TCq1    C9   76   4.519   2.286  12.083 -0.1768  0.1445 -1.0320
    5TCq1    O5   77   4.468   2.229  12.185 -0.1361 -0.1582  0.2445
    5TCq1    O6   78   4.485   2.401  12.038  0.6363 -0.5004 -0.5462
    5TCq1    H1   79   0.009   1.893  12.151  0.5387 -0.4137 -0.0737
    5TCq1    H2   80   4.611   2.053  12.144 -0.4404 -3.7506 -0.6936
    5TCq1    H3   81   4.576   2.344  11.854  1.3116 -0.2183 -0.1897
    5TCq1    H4   82   0.025   1.958  11.752  3.2727  2.1288 -0.1237
    6MPD2     C   83   4.618   2.489  11.442  0.7251  0.1778  0.0494
    6MPD2    C1   84   4.605   2.352  11.469  0.1096  0.1764 -0.0935
    6MPD2    C2   85   4.560   2.271  11.372  0.2074  0.3553 -0.0873
    6MPD2    C3   86   4.534   2.315  11.242  0.2896 -0.4969  0.1735
    6MPD2    C4   87   4.539   2.452  11.228  0.6240 -0.4274  0.2901
    6MPD2    C5   88   4.579   2.542  11.322  0.5614  0.1516 -0.8945
    6MPD2     H   89   4.553   2.165  11.394 -2.1424  0.6686  0.7664
    6MPD2    H1   90   4.518   2.494  11.130 -1.6194  0.9354  1.3611
    6MPD2    H2   91   4.654   2.557  11.519  0.8049  0.2201 -0.0248
    6MPD2    H3   92   4.587   2.650  11.316  1.1310  0.1847  0.5072
    6MPD2     N   93   4.502   2.220  11.145  0.4952  0.6801 -0.0377
    6MPD2    H5   94   4.492   2.124  11.179  0.4103  0.8050  0.2927
    6MPD2    N1   95   4.634   2.306  11.599 -0.2278  0.0717 -0.5204
    6MPD2    H7   96   4.668   2.380  11.660  1.0743 -1.7197  0.9410
    7TCq1    O1   97   1.453   1.419  12.847  0.0346 -0.1574  0.8293
    7TCq1    C1   98   1.384   1.402  12.962 -0.2041 -0.8339  0.4111
    7TCq1    O2   99   1.401   1.478  13.058 -0.0419  0.2771 -0.2775
    7TCq1    C2  100   1.352   1.263  12.961 -0.2616 -0.8079 -0.5422
    7TCq1    C3  101   1.317   1.190  12.849 -0.4569 -0.4138 -0.6146
    7TCq1    C4  102   1.333   1.051  12.847 -0.3096  0.1396  0.0867
    7TCq1    C5  103   1.372   0.983  12.963 -0.0065  0.1877 -0.5330
    7TCq1    C6  104   1.409   1.058  13.069 -0.5177  0.1302  0.6527
    7TCq1    C7  105   1.398   1.193  13.068  0.3700 -1.3342  0.1911
    7TCq1    C8  106   1.475   0.986  13.177 -0.1393 -0.6304 -0.2219
    7TCq1    O4  107   1.487   0.867  13.159 -0.4982  0.2202 -0.0180
    7TCq1    C9  108   1.326   0.975  12.728  1.1376  0.1338 -0.6123
    7TCq1    O5  109   1.311   1.036  12.621  0.2099  0.0362  0.3740
    7TCq1    O6  110   1.345   0.847  12.735  0.6192 -0.0669  0.2126
    7TCq1    H1  111   1.457   1.342  12.786  1.5302  0.4246  0.1985
    7TCq1    H2  112   1.267   1.241  12.767 -1.7452 -0.5142  0.0983
    7TCq1    H3  113   1.380   0.875  12.968 -2.3418 -0.0053 -1.2508
    7TCq1    H4  114   1.420   1.254  13.154  0.3592 -0.6666 -0.2844
    8MPD2     C  115   1.762   0.984  13.613 -0.9831 -0.6566 -0.0248
    8MPD2    C1  116   1.735   0.890  13.517 -0.1862  0.1315 -0.5803
    8MPD2    C2  117   1.643   0.917  13.418  0.1150 -0.1252 -0.8524
    8MPD2    C3  118   1.584   1.040  13.395  0.2290 -0.6028 -0.4960
    8MPD2    C4  119   1.615   1.135  13.489 -0.2529  0.0554  0.5348
    8MPD2    C5  120   1.695   1.101  13.595 -0.0639 -0.6026 -0.3585
    8MPD2     H  121   1.628   0.847  13.337 -0.3635  0.7800 -1.5468
    8MPD2    H1  122   1.580   1.237  13.480 -2.2788 -0.6246  0.7975
    8MPD2    H2  123   1.828   0.965  13.697 -0.8814 -0.9776 -0.1771
    8MPD2    H3  124   1.715   1.183  13.664 -0.1665 -1.4343  0.6616
    8MPD2     N  125   1.507   1.071  13.285 -0.3753  0.0864  0.1575
    8MPD2    H5  126   1.482   1.169  13.277 -1.7137 -0.0023  3.2321
    8MPD2    N1  127   1.789   0.761  13.536 -0.3529 -0.0801  0.0389
    8MPD2    H7  128   1.836   0.756  13.626  1.2105  0.1545 -0.7764
    9TCq1    O1  129   4.020   0.441  10.487 -0.2470 -0.1191  0.0636
    9TCq1    C1  130   4.108   0.431  10.590  0.1725  0.1310  0.3111
    9TCq1    O2  131   4.083   0.457  10.708 -0.4842 -0.3521  0.4337
    9TCq1    C2  132   4.242   0.445  10.540 -0.0959 -0.5248  0.7608
    9TCq1    C3  133   4.270   0.510  10.420 -0.5390 -0.2115  0.4323
    9TCq1    C4  134   4.401   0.532  10.395 -0.2762 -0.2519 -0.3795
    9TCq1    C5  135   4.502   0.506  10.479 -0.0046 -0.5896  0.3122
    9TCq1    C6  136   4.467   0.467  10.600  0.3148 -0.5033  0.8922
    9TCq1    C7  137   4.339   0.443  10.637 -0.1294  0.3375  0.0501
    9TCq1    C8  138   4.580   0.435  10.693  0.2224  0.0984  0.4023
    9TCq1    O4  139   4.692   0.463  10.651  0.0086 -0.2271 -0.3409
    9TCq1    C9  140   4.433   0.587  10.266  0.0485 -0.2158  0.5191
    9TCq1    O5  141   4.334   0.593  10.187 -1.4549 -0.1775  0.1812
    9TCq1    O6  142   4.553   0.568  10.223 -0.3222  0.2449 -0.1233
    9TCq1    H1  143   4.062   0.394  10.412 -0.6700 -0.0311 -0.2275
    9TCq1    H2  144   4.192   0.526  10.347 -0.4954 -0.0363  0.4236
    9TCq1    H3  145   4.607   0.521  10.455  0.1008  0.8859  1.6450
    9TCq1    H4  146   4.303   0.418  10.736 -1.4572  0.6819 -0.3481
   10MPD2     C  147   0.024   0.392  10.920 -0.4733  0.1905 -0.0173
   10MPD2    C1  148   4.632   0.317  10.894  0.2457  0.1783 -0.6260
   10MPD2    C2  149   4.607   0.202  10.962 -0.0612 -0.3879 -0.4153
   10MPD2    C3  150   4.692   0.171  11.067 -0.0596  0.0641 -0.2780
   10MPD2    C4  151   0.089   0.230  11.085 -0.1658 -0.4358  0.7598
   10MPD2    C5  152   0.112   0.344  11.007  0.2418  0.0450  0.0691
   10MPD2     H  153   4.516   0.144  10.947 -0.1403 -0.1937 -0.6914
   10MPD2    H1  154   0.167   0.194  11.151  1.1766 -0.0157 -0.5953
   10MPD2    H2  155   0.050   0.482  10.865 -2.9964  0.6203 -0.5031
   10MPD2    H3  156   0.205   0.400  11.014  1.0445 -1.1449 -1.1654
   10MPD2     N  157   4.665   0.085  11.171  0.4656 -0.5646 -0.2414
   10MPD2    H5  158   0.027   0.045  11.212  1.1097  0.5801 -0.4294
   10MPD2    N1  159   4.542   0.360  10.796  0.4891 -0.2752  0.2132
   10MPD2    H7  160   4.454   0.310  10.784  0.1390  0.0765  1.3867
   11TCq1    O1  161   0.919   4.659  14.338  0.9702 -0.4464 -0.3419
   11TCq1    C1  162   0.833   0.038  14.322  0.3574 -0.0260  0.2492
   11TCq1    O2  163   0.787   0.056  14.209 -0.9683 -0.3728  0.1835
   11TCq1    C2  164   0.767   0.058  14.447 -0.0532 -0.2446 -0.2442
   11TCq1    C3  165   0.836   0.058  14.562  0.0343  0.3965 -0.3353
   11TCq1    C4  166   0.769   0.081  14.680 -0.3654 -0.2642  0.5522
   11TCq1    C5  167   0.637   0.106  14.675  0.4026 -0.0677  0.3429
   11TCq1    C6  168   0.570   0.104  14.559  0.7876 -0.6208  0.4993
   11TCq1    C7  169   0.635   0.070  14.443 -0.3630 -0.5525 -0.2297
   11TCq1    C8  170   0.424   0.117  14.551  0.0441 -0.8325 -0.5772
   11TCq1    O4  171   0.370   0.191  14.633  0.0034 -0.1423  0.1987
   11TCq1    C9  172   0.841   0.087  14.808  0.0069  0.3195 -0.2173
   11TCq1    O5  173   0.963   0.037  14.808 -0.6436  0.0366  0.4353
   11TCq1    O6  174   0.772   0.134  14.908 -0.2324  0.5305  0.0056
   11TCq1    H1  175   0.911   4.613  14.425  0.3267  0.2969 -0.0092
   11TCq1    H2  176   0.942   0.036  14.558 -0.6968 -2.9861 -0.5397
   11TCq1    H3  177   0.587   0.144  14.764 -0.7929  1.0623 -0.8022
   11TCq1    H4  178   0.590   0.087  14.346 -1.6077 -0.5068  0.3484
   12MPD2     C  179   0.144   0.147  14.437 -0.6326 -0.3619 -0.3891
   12MPD2    C1  180   0.230   0.042  14.409 -0.3345 -0.3510  0.5031
   12MPD2    C2  181   0.195   4.664  14.312  0.1389 -0.0192  1.4678
   12MPD2    C3  182   0.063   4.660  14.266  0.1106  1.3480 -0.1701
   12MPD2    C4  183   4.698   0.038  14.305  0.3529 -0.3727 -0.1769
   12MPD2    C5  184   0.014   0.142  14.389 -0.0440 -0.4495 -0.0309
   12MPD2     H  185   0.271   4.590  14.288 -3.3518 -2.9009 -0.6592
   12MPD2    H1  186   4.603   0.041  14.252  0.3095 -1.4174 -0.1501
   12MPD2    H2  187   0.165   0.234  14.499  0.3636  0.0440 -1.3097
   12MPD2    H3  188   4.661   0.215  14.420  0.7216 -0.1586  1.1246
   12MPD2     N  189   0.012   4.558  14.184  0.1007 -0.1960  0.3924
   12MPD2    H5  190   4.634   4.565  14.163  0.3149  0.6399 -0.2870
   12MPD2    N1  191   0.367   0.041  14.452 -0.2254 -0.5666  0.6336
   12MPD2    H7  192   0.433   4.706  14.401 -0.2410 -0.2208  0.2308
   13TCq1    O1  193   0.174   0.188  10.625 -0.0865  0.4186 -0.4341
   13TCq1    C1  194   0.093   0.084  10.655 -0.6648  0.0303  0.1805
   13TCq1    O2  195   0.090   0.015  10.759  0.0615  0.7881 -0.7060
   13TCq1    C2  196   4.690   0.082  10.575 -0.8869 -0.2621 -0.2088
   13TCq1    C3  197   4.698   0.132  10.447  0.0672  0.0617  0.0441
   13TCq1    C4  198   4.586   0.165  10.379  0.9672  0.3189  0.4016
   13TCq1    C5  199   4.467   0.153  10.445 -0.0105  0.8923  0.4308
   13TCq1    C6  200   4.459   0.089  10.566  0.2842 -1.3000 -0.0951
   13TCq1    C7  201   4.569   0.059  10.634  0.6133 -0.8575 -0.2928
   13TCq1    C8  202   4.338   0.108  10.642  0.7550  0.3966 -0.2038
   13TCq1    O4  203   4.350   0.145  10.760 -0.1740 -0.4328 -0.0452
   13TCq1    C9  204   4.590   0.206  10.238 -0.8448 -0.3576  0.3474
   13TCq1    O5  205   4.482   0.250  10.189  0.4959  0.2100  0.1536
   13TCq1    O6  206   4.701   0.246  10.188 -0.0162 -0.3089 -0.2645
   13TCq1    H1  207   0.161   0.226  10.535 -0.0634  3.2376  0.7594
   13TCq1    H2  208   0.070   0.156  10.397  1.0997 -5.4224 -0.5806
   13TCq1    H3  209   4.376   0.186  10.396  1.1749  0.1542 -2.2662
   13TCq1    H4  210   4.551   0.001  10.724 -1.4646  1.5079  0.8133
   14MPD2     C  211   4.010   4.698  10.561  0.4120  0.1237  0.4947
   14MPD2    C1  212   4.103   0.054  10.631  0.4070  0.3953 -0.1134
   14MPD2    C2  213   4.068   0.111  10.750  0.3293  0.8915 -0.1057
   14MPD2    C3  214   3.935   0.090  10.803 -0.7166  0.5694  0.2430
   14MPD2    C4  215   3.848   0.004  10.739 -0.6589 -0.1861  0.3258
   14MPD2    C5  216   3.892   4.673  10.621  0.1432 -0.4633 -0.0433
   14MPD2     H  217   4.125   0.170  10.820 -0.0350 -2.0705  2.7064
   14MPD2    H1  218   3.749   4.702  10.777 -1.5207  0.1543 -1.7047
   14MPD2    H2  219   4.044   4.654  10.468  0.8790  1.3878  0.0633
   14MPD2    H3  220   3.824   4.611  10.565 -0.0959  0.7217 -1.0734
   14MPD2     N  221   3.907   0.145  10.935  0.4549  0.1083 -0.3073
   14MPD2    H5  222   3.975   0.213  10.968  0.9512 -0.4377 -0.1979
   14MPD2    N1  223   4.226   0.071  10.569  0.5184 -0.0581  0.6864
   14MPD2    H7  224   4.234   0.042  10.472  0.3637 -1.6417  1.1461
   15TCq1    O1  225   1.296   4.139   1.234  0.1411  0.7000  0.4573
   15TCq1    C1  226   1.221   4.078   1.325 -0.3423 -1.2304 -0.4915
   15TCq1    O2  227   1.100   4.094   1.345  0.3716  0.2278 -0.4648
   15TCq1    C2  228   1.313   3.989   1.392  0.4596  0.4817 -0.0371
   15TCq1    C3  229   1.337   4.025   1.522 -0.4105 -0.1203 -0.5688
   15TCq1    C4  230   1.456   4.012   1.582 -0.8511  0.5981  0.3510
   15TCq1    C5  231   1.546   3.945   1.508 -0.1234 -0.5689  0.0179
   15TCq1    C6  232   1.523   3.898   1.377  0.2601 -0.3424  0.2685
   15TCq1    C7  233   1.402   3.925   1.307  0.2548 -0.3842  0.2812
   15TCq1    C8  234   1.627   3.812   1.313 -0.3060  0.2974  0.0383
   15TCq1    O4  235   1.725   3.799   1.384  0.3282 -0.5641 -0.4474
   15TCq1    C9  236   1.492   4.055   1.711  1.2485 -1.1694 -0.0228
   15TCq1    O5  237   1.403   4.130   1.766 -0.2409  0.2626 -0.1230
   15TCq1    O6  238   1.593   4.012   1.773  0.0472  0.6032 -0.4306
   15TCq1    H1  239   1.392   4.131   1.248  0.0058 -2.2077 -0.2377
   15TCq1    H2  240   1.259   4.087   1.566  0.6249  2.0307 -1.7722
   15TCq1    H3  241   1.645   3.932   1.550  0.4359  1.6628 -0.6225
   15TCq1    H4  242   1.374   3.874   1.216  2.2860 -1.4918  0.2646
   16MPD2     C  243   1.627   3.629   1.004  0.4878 -0.2326  0.3757
   16MPD2    C1  244   1.679   3.692   1.111 -0.1218  0.2725  0.2889
   16MPD2    C2  245   1.813   3.673   1.142 -0.4356 -0.2460  0.0101
   16MPD2    C3  246   1.894   3.584   1.072 -0.2439 -0.1817  0.1968
   16MPD2    C4  247   1.844   3.531   0.955  0.2364  0.6179 -0.3467
   16MPD2    C5  248   1.710   3.552   0.921  0.2118 -0.1544  0.0464
   16MPD2     H  249   1.860   3.720   1.228  0.5937  0.6542 -1.0423
   16MPD2    H1  250   1.913   3.482   0.888 -0.7081  0.3403 -1.1224
   16MPD2    H2  251   1.523   3.647   0.981  0.5741  1.3897  1.3059
   16MPD2    H3  252   1.671   3.504   0.833 -0.2823 -0.3729  0.3841
   16MPD2     N  253   2.022   3.553   1.122  0.5055  0.3928  0.2815
   16MPD2    H5  254   2.058   3.609   1.199  0.4179 -0.0724  0.6562
   16MPD2    N1  255   1.594   3.769   1.192  0.1356 -0.0117  0.3016
   16MPD2    H7  256   1.497   3.788   1.168  0.3455  1.4458  0.6088
   17TCq1    O1  257   3.021   4.041  10.731  0.3459  0.1084 -0.0577
   17TCq1    C1  258   3.143   4.002  10.771  0.4904  0.1634  0.5727
   17TCq1    O2  259   3.235   3.966  10.699  0.4300 -0.4925  0.6056
   17TCq1    C2  260   3.171   4.084  10.886  0.6142  0.3812 -0.2007
   17TCq1    C3  261   3.073   4.107  10.976 -0.4384 -0.3252  0.0437
   17TCq1    C4  262   3.093   4.201  11.069 -0.0877 -0.4119  0.4322
   17TCq1    C5  263   3.210   4.272  11.078  0.2255 -0.1233 -0.1578
   17TCq1    C6  264   3.305   4.248  10.985 -0.7782 -0.6173 -0.3452
   17TCq1    C7  265   3.292   4.147  10.885  0.2750  0.0981  0.3102
   17TCq1    C8  266   3.431   4.324  10.982 -0.4159  0.6948  0.2071
   17TCq1    O4  267   3.450   4.381  11.089 -0.1214 -0.4016 -0.2413
   17TCq1    C9  268   2.981   4.228  11.153  0.2893  0.7995  0.3056
   17TCq1    O5  269   2.985   4.315  11.240  0.2938 -0.2070  0.1999
   17TCq1    O6  270   2.880   4.150  11.137 -0.1304 -0.0016 -0.0306
   17TCq1    H1  271   2.987   4.117  10.783  2.4374  1.8827 -1.3221
   17TCq1    H2  272   2.978   4.057  10.963  0.3385 -2.0335  0.8261
   17TCq1    H3  273   3.209   4.356  11.147 -0.1721 -1.1479  1.0778
   17TCq1    H4  274   3.370   4.116  10.817  0.9405 -0.3300  1.2731
   18MPD2     C  275   3.719   4.414  10.991  0.9051  0.6458 -0.2044
   18MPD2    C1  276   3.664   4.326  10.899 -0.1553 -0.7195  0.3489
   18MPD2    C2  277   3.747   4.285  10.796  0.3089 -0.4599 -0.1616
   18MPD2    C3  278   3.872   4.339  10.780  0.7191 -0.5716 -0.1396
   18MPD2    C4  279   3.924   4.420  10.874  0.1704 -0.1319  1.0785
   18MPD2    C5  280   3.850   4.466  10.987  0.1582  0.7508  0.4467
   18MPD2     H  281   3.717   4.211  10.723  0.6423 -2.9676  2.2374
   18MPD2    H1  282   4.023   4.456  10.850  0.0161 -0.5529 -0.1858
   18MPD2    H2  283   3.665   4.447  11.079  0.3000 -0.4290 -0.1734
   18MPD2    H3  284   3.892   4.524  11.068  2.0279  0.1181 -0.0815
   18MPD2     N  285   3.957   4.311  10.663 -0.4101 -0.5417  0.1090
   18MPD2    H5  286   4.053   4.345  10.668  0.2170 -2.8171  3.2517
   18MPD2    N1  287   3.523   4.302  10.885  0.9201  0.4076 -0.0729
   18MPD2    H7  288   3.504   4.247  10.802  0.5453 -2.2744  1.7947
   19TMC2    C1  289   1.126   4.626  13.800  0.2138  0.2013 -0.3225
   19TMC2    C2  290   1.126   4.676  13.666  0.2720  0.1529 -0.0613
   19TMC2    C3  291   1.099   4.598  13.562  0.3171 -0.7930 -0.5732
   19TMC2    C4  292   1.096   4.493  13.820  0.0819 -0.9345 -0.0428
   19TMC2    C5  293   1.051   4.427  13.707 -0.0536  0.3334  0.1926
   19TMC2    C6  294   1.057   4.471  13.577  0.0675 -0.8497  0.4410
   19TMC2     C  295   1.145   0.008  13.910 -0.1341 -0.1008  0.5619
   19TMC2     O  296   1.125   0.126  13.877  0.7283  0.9058  0.4831
   19TMC2     H  297   1.129   0.061  13.642 -2.1092  0.5697  1.5013
   19TMC2    H1  298   1.092   4.456  13.921  1.4408  0.7515  0.6343
   19TMC2    H2  299   1.028   4.408  13.494 -0.5488  2.0633 -1.5680
   19TMC2    C7  300   0.989   4.297  13.718 -0.4865 -0.4183  0.7601
   19TMC2    C8  301   1.063   4.650  13.435 -0.3887 -0.3141 -0.0852
   19TMC2    O1  302   0.909   4.269  13.626 -0.1417  0.4519 -0.1432
   19TMC2    O2  303   1.005   4.587  13.348  0.2892  0.4395 -0.5605
   19TMC2    O5  304   1.146   0.036  13.404 -0.3185  0.0773  0.1163
   19TMC2    H5  305   1.222   0.044  13.465 -1.9197 -0.2154  2.1287
   20MPD2     C  306   1.137   0.163  14.164  0.2591  0.0473 -0.4282
   20MPD2    C1  307   1.197   0.042  14.152 -0.2965 -0.2433  0.3536
   20MPD2    C2  308   1.259   4.699  14.260  0.7487  0.1497 -0.1576
   20MPD2    C3  309   1.266   0.038  14.382  0.1659 -0.0209 -0.6547
   20MPD2    C4  310   1.213   0.164  14.391  0.5276  0.2248 -0.4545
   20MPD2    C5  311   1.141   0.219  14.288 -0.1986 -0.2330 -0.7315
   20MPD2     H  312   1.300   4.599  14.251 -0.9862 -0.2988 -2.9294
   20MPD2    H1  313   1.221   0.209  14.489 -1.3450 -0.1602 -0.1299
   20MPD2    H2  314   1.082   0.207  14.081  0.7610  0.3209 -0.6130
   20MPD2    H3  315   1.101   0.319  14.306 -0.4389 -0.2617 -1.0979
   20MPD2     N  316   1.327   4.701  14.495 -0.2365 -0.2176  0.1001
   20MPD2    H5  317   1.312   0.024  14.585 -0.5289 -0.4356  0.1580
   20MPD2    N1  318   1.181   4.683  14.033  0.2320 -0.1898 -0.4591
   20MPD2    H7  319   1.198   4.583  14.033  3.2228  0.3153  1.0569
   21MPD2     C  320   3.563   0.096  14.863 -0.4853 -0.5989  0.6515
   21MPD2    C1  321   3.595   4.687  14.836 -0.4281  0.3694  0.1388
   21MPD2    C2  322   3.494   4.592  14.845 -0.5181  0.2112 -0.7748
   21MPD2    C3  323   3.364   4.624  14.878  0.1740  0.1989  0.5659
   21MPD2    C4  324   3.332   0.037  14.898 -0.6027  0.0315 -0.1133
   21MPD2    C5  325   3.434   0.125  14.895  0.4655 -0.5660 -0.0306
   21MPD2     H  326   3.523   4.487  14.844  0.3096  0.4303  1.0642
   21MPD2    H1  327   3.232   0.074  14.915 -0.2565  0.1813  1.6016
   21MPD2    H2  328   3.631   0.181  14.859 -0.1531 -1.0051 -1.8817
   21MPD2    H3  329   3.403   0.225  14.923  2.5607  0.8979 -2.9397
   21MPD2     N  330   3.264   4.520  14.887  0.3378 -0.0486  0.1630
   21MPD2    H5  331   3.168   4.549  14.898 -0.3565 -2.3215  0.1696
   21MPD2    N1  332   3.720   4.644  14.788  0.0985 -0.5636 -0.1302
   21MPD2    H7  333   3.734   4.549  14.756  0.6206 -0.8618  0.9913
   22TCq2    C1  334   3.276   4.381  14.889 -1.4890  0.3108  0.0903
   22TCq2    O2  335   3.373   4.310  14.890 -0.1299  0.9063  0.4557
   22TCq2    C2  336   3.151   4.300  14.908 -0.2026 -0.3923 -1.0546
   22TCq2    C3  337   3.161   4.165  14.926  0.2357 -0.3134  0.4634
   22TCq2    C4  338   3.049   4.086  14.939 -0.6210  0.2455  0.2800
   22TCq2    C5  339   2.926   4.145  14.956 -0.5565 -0.9927  0.2631
   22TCq2    C6  340   2.909   4.280  14.941  0.4142  0.1578 -0.6166
   22TCq2    C7  341   3.023   4.352  14.912  0.3053  0.0810  1.3202
   22TCq2    C8  342   2.781   4.340  14.911  0.9581 -0.7730 -0.3207
   22TCq2    O4  343   2.689   4.259  14.899  0.7608 -0.2733  0.2177
   22TCq2    C9  344   3.057   3.940  14.925 -0.9354  0.0472 -0.8333
   22TCq2    O5  345   2.949   3.881  14.949  0.0135  0.0218  0.2912
   22TCq2    O6  346   3.161   3.886  14.881  0.1873  0.3368  0.6455
   22TCq2    H2  347   3.253   4.107  14.920 -1.0621 -2.5372  2.1624
   22TCq2    H3  348   2.848   4.076  14.986 -1.7292  0.9300  1.6369
   22TCq2    H4  349   2.998   4.454  14.887 -0.3757 -0.0266  1.5774
   23MPD2     C  350   0.326   0.964  15.056 -1.0163  0.2899 -0.5122
   23MPD2    C1  351   0.271   1.037  15.152 -0.6490  0.2857  0.0362
   23MPD2    C2  352   0.190   1.150  15.122 -0.1061  0.5326 -0.1866
   23MPD2    C3  353   0.184   1.197  14.991  0.1453  0.2636 -0.0093
   23MPD2    C4  354   0.244   1.117  14.890  0.6936 -0.3682  0.2499
   23MPD2    C5  355   0.312   1.006  14.929 -0.1458 -0.0635 -0.5905
   23MPD2     H  356   0.140   1.205  15.200  1.6280 -0.2822  1.5043
   23MPD2    H1  357   0.239   1.142  14.785 -2.2348 -0.3877  0.3822
   23MPD2    H2  358   0.377   0.872  15.081 -0.8230  0.3981 -0.5113
   23MPD2    H3  359   0.358   0.944  14.853  1.5524 -0.2636  0.5990
   23MPD2     N  360   0.115   1.306  14.940  0.1343  0.5354 -0.3058
   23MPD2    H5  361   0.132   1.333  14.843  0.6067 -0.7417 -0.5765
   23MPD2    N1  362   0.318   0.999  15.280 -0.0937  0.7827  0.1449
   23MPD2    H7  363   0.394   0.934  15.295  0.4860  1.4336 -0.0122
   24TCq2    C1  364   0.003   1.348  15.000 -0.0954 -0.0249 -0.0442
   24TCq2    O2  365   4.671   1.312  15.105 -0.7997 -0.0943 -0.1758
   24TCq2    C2  366   4.639   1.406  14.894  0.1513  0.8968 -0.1648
   24TCq2    C3  367   4.690   1.485  14.796  0.4918  0.3739 -0.6929
   24TCq2    C4  368   4.630   1.482  14.679 -0.1482 -0.1197 -0.3224
   24TCq2    C5  369   4.509   1.417  14.671  0.3587  0.0507 -0.2347
   24TCq2    C6  370   4.445   1.348  14.777  0.3708  0.5330  0.5444
   24TCq2    C7  371   4.518   1.350  14.896  0.1541  0.4437  0.0801
   24TCq2    C8  372   4.338   1.256  14.750  0.2115 -0.4388 -0.6885
   24TCq2    O4  373   4.317   1.174  14.842 -0.1048 -0.1310  0.2990
   24TCq2    C9  374   4.687   1.544  14.567  0.2231  0.0437 -0.0472
   24TCq2    O5  375   0.080   1.602  14.584 -0.1424  0.7986  0.4874
   24TCq2    O6  376   4.616   1.550  14.461 -0.1169  0.2670 -0.3525
   24TCq2    H2  377   0.063   1.538  14.809  0.5186  0.4799 -1.3577
   24TCq2    H3  378   4.457   1.427  14.576 -3.5376  0.5687  1.9589
   24TCq2    H4  379   4.483   1.296  14.983  2.7555  1.0134  1.4566
   25TMC2    C1  380   4.195   3.380  11.425  0.1431 -0.5561 -0.0328
   25TMC2    C2  381   4.258   3.483  11.363 -1.9177  0.0129 -0.1421
   25TMC2    C3  382   4.262   3.611  11.425  0.4644 -0.4536  0.3383
   25TMC2    C4  383   4.120   3.413  11.537  0.8666 -0.6601 -0.1892
   25TMC2    C5  384   4.100   3.546  11.570 -0.3345  0.9084 -0.4483
   25TMC2    C6  385   4.166   3.647  11.514 -0.0766  0.2979  0.7125
   25TMC2     C  386   4.209   3.257  11.362 -1.0356 -0.0174 -0.0294
   25TMC2     O  387   4.313   3.243  11.289  0.0375 -0.1476  0.1778
   25TMC2     H  388   4.328   3.477  11.280 -1.2255 -0.5243  0.4789
   25TMC2    H1  389   4.066   3.333  11.586  0.6142  0.6172  1.5960
   25TMC2    H2  390   4.159   3.745  11.560  2.7342  0.9707 -0.3554
   25TMC2    C7  391   3.996   3.565  11.671 -0.6977  0.6047 -0.0272
   25TMC2    C8  392   4.319   3.716  11.334 -0.7179  0.1739 -0.3415
   25TMC2    O1  393   3.972   3.472  11.738  0.1152  0.1973 -0.4789
   25TMC2    O2  394   4.345   3.690  11.219  0.7972  0.0059  0.0359
   25TMC2    O5  395   4.335   3.832  11.400 -0.2253 -0.1465 -0.6818
   25TMC2    H5  396   4.295   3.831  11.490 -0.1027 -2.9711 -0.6467
   26MPD2     C  397   4.143   2.788  11.213 -0.1698 -0.1755 -0.6047
   26MPD2    C1  398   4.023   2.830  11.254  0.9724  0.2345 -0.1339
   26MPD2    C2  399   4.015   2.954  11.323  0.0355 -0.5283 -0.2125
   26MPD2    C3  400   4.129   3.031  11.341  0.9091 -0.8285  0.3295
   26MPD2    C4  401   4.249   2.974  11.306  0.0718  0.9349  0.8611
   26MPD2    C5  402   4.258   2.852  11.241 -0.2431 -0.3705 -0.0662
   26MPD2     H  403   3.921   2.997  11.354  1.3703  0.3918  2.5082
   26MPD2    H1  404   4.342   3.027  11.323  0.5137  1.0612 -2.0432
   26MPD2    H2  405   4.143   2.697  11.153  0.8720  0.7539 -2.0108
   26MPD2    H3  406   4.349   2.808  11.202 -0.4527 -0.3828 -0.5495
   26MPD2     N  407   4.113   3.166  11.384  0.1523 -0.2733  0.3438
   26MPD2    H5  408   4.026   3.191  11.430 -1.1216 -2.5000 -0.8413
   26MPD2    N1  409   3.914   2.746  11.228 -0.1393 -0.3877 -0.5531
   26MPD2    H7  410   3.932   2.676  11.157 -0.0903 -2.2613  1.3090
   27TMC2    C1  411   2.713   0.272  12.110 -0.1593 -0.1868  0.4408
   27TMC2    C2  412   2.617   0.275  12.015 -0.6684  0.4340 -0.4267
   27TMC2    C3  413   2.599   0.401  11.953 -0.0801 -0.0199  0.5897
   27TMC2    C4  414   2.771   0.384  12.151 -0.6918  0.1869  0.1658
   27TMC2    C5  415   2.738   0.508  12.100 -0.2806 -0.3854  0.4142
   27TMC2    C6  416   2.653   0.518  11.999  0.2368  0.5393  0.0211
   27TMC2     C  417   2.675   0.183  12.213 -0.1369 -0.3690 -0.1494
   27TMC2     O  418   2.756   0.103  12.262  0.2587  0.0729  0.3049
   27TMC2     H  419   2.570   0.182  11.984  0.3631 -0.0402 -0.5755
   27TMC2    H1  420   2.848   0.379  12.227  2.2230 -0.5759 -2.8264
   27TMC2    H2  421   2.636   0.612  11.946  1.2752  0.1536 -1.0003
   27TMC2    C7  422   2.691   0.588  12.214  0.7038 -0.1665  0.8317
   27TMC2    C8  423   2.537   0.398  11.818 -0.3549  0.0439 -0.3647
   27TMC2    O1  424   2.734   0.543  12.320  0.6420  0.4008  0.0435
   27TMC2    O2  425   2.497   0.502  11.770 -0.1513  0.1373 -0.0911
   27TMC2    O5  426   2.478   0.275  11.797 -0.4704  0.3951  0.3581
   27TMC2    H5  427   2.535   0.196  11.809  0.9992  1.3308 -0.3899
   28MPD2     C  428   2.339   0.103  12.580 -0.2446  0.1029  0.2847
   28MPD2    C1  429   2.281   0.202  12.499 -0.2138  0.6798 -0.1884
   28MPD2    C2  430   2.354   0.241  12.389 -0.1563  0.4271 -0.5709
   28MPD2    C3  431   2.476   0.171  12.359 -0.4052  0.5159 -0.1549
   28MPD2    C4  432   2.527   0.077  12.440 -0.2873 -0.0414 -0.1905
   28MPD2    C5  433   2.464   0.052  12.558 -0.2462  0.2596 -0.4775
   28MPD2     H  434   2.330   0.326  12.325 -0.4326 -0.4193 -1.5814
   28MPD2    H1  435   2.615   0.018  12.416  0.5667  1.7747 -1.5027
   28MPD2    H2  436   2.279   0.077  12.666 -0.8223  2.1191  0.4863
   28MPD2    H3  437   2.516   4.711  12.630 -0.4675  1.1567  0.4484
   28MPD2     N  438   2.548   0.220  12.250 -0.0450 -0.5296 -0.2163
   28MPD2    H5  439   2.505   0.297  12.200 -0.7552  0.3214  1.7071
   28MPD2    N1  440   2.156   0.259  12.538 -0.0845 -0.5143  1.0254
   28MPD2    H7  441   2.116   0.243  12.630  1.3646 -1.4181  1.5080
   29MPD2     C  442   2.085   2.710  13.853 -0.1434 -0.0298 -0.3903
   29MPD2    C1  443   2.185   2.676  13.940 -0.3647 -0.9331  0.5476
   29MPD2    C2  444   2.248   2.766  14.019 -0.2556  0.4467 -0.4106
   29MPD2    C3  445   2.217   2.902  14.010 -0.0394 -0.2507  0.8093
   29MPD2    C4  446   2.118   2.944  13.924 -0.6438  0.2309 -0.1757
   29MPD2    C5  447   2.064   2.844  13.839  0.0570  0.2489 -0.5031
   29MPD2     H  448   2.319   2.731  14.093  0.1855  0.1335 -0.9857
   29MPD2    H1  449   2.092   3.049  13.913 -1.7126  0.0753  0.8550
   29MPD2    H2  450   2.052   2.642  13.775  1.5553 -0.0026 -1.1395
   29MPD2    H3  451   2.009   2.875  13.751  1.0451 -1.1496 -1.6177
   29MPD2     N  452   2.283   3.003  14.088  0.0980 -0.0119 -0.7150
   29MPD2    H5  453   2.249   3.098  14.083 -1.1216 -0.5431 -2.8891
   29MPD2    N1  454   2.228   2.543  13.952  0.0436 -0.1874  0.0938
   29MPD2    H7  455   2.315   2.536  14.004 -0.2699 -2.2792  0.3206
   30TCq2    C1  456   2.395   2.983  14.168  0.6039  0.2574 -0.6805
   30TCq2    O2  457   2.471   2.886  14.172 -0.3774  0.6756 -0.1086
   30TCq2    C2  458   2.421   3.094  14.251 -0.1927  0.0094 -0.0609
   30TCq2    C3  459   2.330   3.191  14.267 -0.0321 -0.3284 -0.8706
   30TCq2    C4  460   2.364   3.319  14.309  0.2730 -0.1340  0.3258
   30TCq2    C5  461   2.495   3.353  14.324 -0.2376 -0.4703 -0.3228
   30TCq2    C6  462   2.588   3.251  14.330  0.1706 -0.3009 -0.0938
   30TCq2    C7  463   2.550   3.124  14.289 -0.4157 -0.2563 -0.2759
   30TCq2    C8  464   2.726   3.249  14.379 -0.3248  0.1525  1.1648
   30TCq2    O4  465   2.792   3.146  14.380 -0.0452 -0.3710 -0.8660
   30TCq2    C9  466   2.261   3.417  14.333  0.2240 -0.0259 -0.1747
   30TCq2    O5  467   2.298   3.527  14.368 -0.1020  0.0197  0.3385
   30TCq2    O6  468   2.146   3.363  14.339 -0.3417  0.0875  1.0999
   30TCq2    H2  469   2.224   3.170  14.268 -0.0996  0.1637  1.0927
   30TCq2    H3  470   2.519   3.454  14.356 -1.1833 -0.5588  0.7042
   30TCq2    H4  471   2.620   3.041  14.281  2.1735  1.7917  1.2141
   31MPD2     C  472   0.336   2.183  14.524 -0.1286  0.3440 -0.1670
   31MPD2    C1  473   0.224   2.142  14.449 -0.0569 -0.7747  0.6857
   31MPD2    C2  474   0.131   2.055  14.507 -0.5295 -0.1050 -0.5940
   31MPD2    C3  475   0.141   2.016  14.640 -0.0405 -0.0421  0.2130
   31MPD2    C4  476   0.253   2.050  14.710  0.1982  0.1687  0.5458
   31MPD2    C5  477   0.347   2.140  14.651 -0.2903  0.5812  0.1377
   31MPD2     H  478   0.043   2.023  14.452 -0.3063 -0.5475 -0.6936
   31MPD2    H1  479   0.271   2.028  14.814  0.7912 -2.5743 -0.1458
   31MPD2    H2  480   0.409   2.254  14.487 -1.1708  1.5755  0.1746
   31MPD2    H3  481   0.433   2.175  14.707  0.1420 -0.9462  0.4427
   31MPD2     N  482   0.041   1.939  14.710  0.2800  0.2734  0.3249
   31MPD2    H5  483   0.062   1.916  14.806 -1.2603 -2.2371  0.0706
   31MPD2    N1  484   0.224   2.177  14.308  0.0956  0.0890  0.2300
   31MPD2    H7  485   0.296   2.241  14.277 -0.4640  0.9730  0.7441
   32TCq2    C1  486   4.660   1.868  14.652 -0.8759 -0.1797 -0.7727
   32TCq2    O2  487   4.628   1.857  14.531 -0.9521 -0.1494 -0.4120
   32TCq2    C2  488   4.571   1.804  14.756 -0.4375 -0.0355 -0.2805
   32TCq2    C3  489   4.447   1.765  14.707  0.7602 -0.6216  0.0257
   32TCq2    C4  490   4.365   1.699  14.790  0.3146  0.4850 -0.1649
   32TCq2    C5  491   4.387   1.682  14.924  0.4483 -0.0774 -0.6369
   32TCq2    C6  492   4.513   1.714  14.968  0.9100 -0.4545 -0.1516
   32TCq2    C7  493   4.604   1.779  14.885 -0.2025 -0.1967  0.8534
   32TCq2    C8  494   4.535   1.728  15.109 -0.2450 -0.6858 -0.3619
   32TCq2    O4  495   4.643   1.685  15.155 -0.0745 -0.4963  0.0359
   32TCq2    C9  496   4.232   1.656  14.741 -0.3176  0.3818  0.3993
   32TCq2    O5  497   4.200   1.695  14.625 -0.1238  0.3854 -0.3448
   32TCq2    O6  498   4.152   1.619  14.834  0.3106  0.3824  0.3162
   32TCq2    H2  499   4.425   1.792  14.605 -1.0222 -2.0879  0.0285
   32TCq2    H3  500   4.325   1.618  14.986 -0.3900 -0.3339 -1.7553
   32TCq2    H4  501   4.699   1.805  14.931  1.2375 -2.3041 -0.9264
   33MPD2     C  502   3.930   3.942   9.865  0.1905 -0.8978 -0.4079
   33MPD2    C1  503   4.005   4.057   9.883  1.0536  0.6927 -0.6192
   33MPD2    C2  504   4.074   4.116   9.775  0.2603 -0.1904  0.0508
   33MPD2    C3  505   4.060   4.064   9.645  0.0344 -0.1043  0.2146
   33MPD2    C4  506   3.988   3.946   9.629  0.4998 -0.1800 -0.1395
   33MPD2    C5  507   3.927   3.885   9.738 -0.0104  0.7959  0.8591
   33MPD2     H  508   4.132   4.205   9.794 -1.9716  1.4572 -0.8063
   33MPD2    H1  509   3.988   3.902   9.530  2.2474 -1.8165  0.5975
   33MPD2    H2  510   3.880   3.887   9.945 -2.3653 -1.6618 -2.5352
   33MPD2    H3  511   3.869   3.793   9.740  0.5747  0.3947 -0.6315
   33MPD2     N  512   4.124   4.121   9.536 -0.2137 -0.3467  0.0146
   33MPD2    H5  513   4.106   4.083   9.443  0.7641  1.2446 -0.8280
   33MPD2    N1  514   4.029   4.114  10.015 -0.0284 -0.0477 -0.7377
   33MPD2    H7  515   4.089   4.195  10.027  0.6924 -1.1492  3.1313
   34TCq2    C1  516   4.221   4.219   9.540  1.1521 -0.1390 -0.7664
   34TCq2    O2  517   4.266   4.274   9.638 -0.5620 -0.4809  0.0479
   34TCq2    C2  518   4.288   4.246   9.411 -0.2151  0.6381  0.0090
   34TCq2    C3  519   4.220   4.204   9.301  0.0722  0.0600  0.3741
   34TCq2    C4  520   4.247   4.252   9.180  0.0870 -1.1437 -0.0168
   34TCq2    C5  521   4.339   4.354   9.168 -0.5317 -0.4544  0.2242
   34TCq2    C6  522   4.400   4.411   9.280 -0.2819  0.0013 -0.4712
   34TCq2    C7  523   4.373   4.355   9.407 -0.2503  0.1515  0.6899
   34TCq2    C8  524   4.461   4.546   9.274  0.0937  0.4477 -0.1838
   34TCq2    O4  525   4.534   4.576   9.365  0.0841  0.3734  0.5349
   34TCq2    C9  526   4.173   4.206   9.070 -0.1787  0.0013  0.5400
   34TCq2    O5  527   4.204   4.250   8.953 -0.1558 -0.1835  0.1494
   34TCq2    O6  528   4.071   4.141   9.099 -0.0353  0.5046  0.0184
   34TCq2    H2  529   4.150   4.121   9.302 -1.3453  1.2540 -0.0851
   34TCq2    H3  530   4.350   4.388   9.066  0.1070  0.6307  0.6623
   34TCq2    H4  531   4.419   4.399   9.495 -0.4999 -1.1329  1.4732
   35MPD2     C  532   1.527   1.105  11.903 -0.4561 -0.4922  0.5147
   35MPD2    C1  533   1.476   0.996  11.979 -0.0571  0.0771 -0.0480
   35MPD2    C2  534   1.336   0.997  12.001  0.2710  0.5548 -0.0865
   35MPD2    C3  535   1.252   1.094  11.947 -0.4190 -0.0866 -0.0874
   35MPD2    C4  536   1.306   1.202  11.874  0.1890  0.3753 -0.2605
   35MPD2    C5  537   1.446   1.206  11.861  0.1036  0.0323  0.2136
   35MPD2     H  538   1.292   0.915  12.058  1.1166  0.9263  1.1129
   35MPD2    H1  539   1.250   1.282  11.828 -2.0719 -1.7218 -1.1253
   35MPD2    H2  540   1.634   1.116  11.890 -1.2446  4.8640 -1.3559
   35MPD2    H3  541   1.487   1.276  11.790 -1.9364 -1.3936 -2.3850
   35MPD2     N  542   1.111   1.072  11.951  0.6084 -0.6705  0.2545
   35MPD2    H5  543   1.081   1.000  12.016  1.5596 -2.0466 -0.8441
   35MPD2    N1  544   1.569   0.897  12.020 -0.4349 -0.6015  0.0069
   35MPD2    H7  545   1.667   0.923  12.018 -0.3872 -0.5860  1.8491
   36TCq2    C1  546   1.014   1.133  11.881 -0.3515  0.1802 -0.4826
   36TCq2    O2  547   1.028   1.225  11.800  0.1134  0.4004 -0.4700
   36TCq2    C2  548   0.883   1.071  11.904 -0.0674 -0.3751 -0.0358
   36TCq2    C3  549   0.779   1.150  11.862  0.1017  0.4233 -0.2822
   36TCq2    C4  550   0.670   1.077  11.832  0.0938  0.4207  0.2664
   36TCq2    C5  551   0.651   0.948  11.863 -0.1351  0.3960  0.1789
   36TCq2    C6  552   0.753   0.880  11.924 -0.3155  0.1488 -0.0886
   36TCq2    C7  553   0.878   0.942  11.940  0.5012 -0.3107 -0.1749
   36TCq2    C8  554   0.731   0.747  11.989  0.2540  0.0483  0.4754
   36TCq2    O4  555   0.674   0.661  11.925  0.4361 -0.1994 -0.4398
   36TCq2    C9  556   0.564   1.152  11.772  0.0450  0.0736  0.3801
   36TCq2    O5  557   0.592   1.257  11.712  0.1656  0.1737 -0.5537
   36TCq2    O6  558   0.446   1.113  11.794  0.3519  0.1201 -0.2967
   36TCq2    H2  559   0.785   1.257  11.844 -0.6909  0.0629 -2.6679
   36TCq2    H3  560   0.551   0.906  11.872  0.1091 -0.2683 -0.2016
   36TCq2    H4  561   0.968   0.884  11.952  1.1808  0.7608 -0.0598
   37TMC2    C1  562   3.445   1.238  11.518  0.2905  0.1216 -0.6863
   37TMC2    C2  563   3.422   1.313  11.402  0.0838  0.0590  0.4684
   37TMC2    C3  564   3.525   1.332  11.315 -0.2817 -0.0698 -0.1033
   37TMC2    C4  565   3.570   1.182  11.547  0.4433 -0.2397 -0.1229
   37TMC2    C5  566   3.671   1.229  11.471  0.1284  0.6447 -0.2388
   37TMC2    C6  567   3.658   1.289  11.351 -0.0926  0.0520  0.1377
   37TMC2     C  568   3.342   1.245  11.617  0.0392  0.2214  0.3406
   37TMC2     O  569   3.238   1.305  11.581  0.5733 -0.4286 -0.1799
   37TMC2     H  570   3.328   1.364  11.382 -0.1898 -1.3415 -1.8937
   37TMC2    H1  571   3.591   1.116  11.630 -0.4192 -1.6132 -0.9878
   37TMC2    H2  572   3.747   1.302  11.290 -0.8625 -1.4684 -1.3468
   37TMC2    C7  573   3.813   1.181  11.512 -0.2275  0.2551 -0.1763
   37TMC2    C8  574   3.535   1.467  11.257  0.4415  0.3047  0.1771
   37TMC2    O1  575   3.805   1.110  11.609  0.9969  0.3808 -0.8541
   37TMC2    O2  576   3.647   1.520  11.274  0.0956 -0.0720  0.4877
   37TMC2    O5  577   3.417   1.531  11.280  0.6726 -0.8014  0.1282
   37TMC2    H5  578   3.347   1.471  11.246 -0.7578  1.4661 -0.9314
   38MPD2     C  579   3.137   1.161  12.079  0.4144 -0.0229  0.2287
   38MPD2    C1  580   3.266   1.108  12.084 -0.2315 -0.0212 -0.0581
   38MPD2    C2  581   3.338   1.116  11.966  0.1501  0.6233 -0.0624
   38MPD2    C3  582   3.297   1.183  11.854  0.7686  0.0836  0.0079
   38MPD2    C4  583   3.170   1.240  11.855  0.8676  0.1214 -0.4635
   38MPD2    C5  584   3.090   1.226  11.966 -0.6200  0.4318  0.3171
   38MPD2     H  585   3.435   1.069  11.959  0.2469  0.7691  0.2789
   38MPD2    H1  586   3.124   1.301  11.778  1.6750 -0.0032 -1.0399
   38MPD2    H2  587   3.066   1.154  12.160  1.0110  0.4021  0.7887
   38MPD2    H3  588   2.995   1.278  11.971  0.1819  2.0626 -1.1835
   38MPD2     N  589   3.373   1.191  11.735 -0.0429  0.0845 -0.2797
   38MPD2    H5  590   3.463   1.145  11.726 -0.5225 -0.2618 -3.3153
   38MPD2    N1  591   3.329   1.037  12.196  0.3917  1.1403 -0.3708
   38MPD2    H7  592   3.418   0.992  12.181  0.4790  0.0008  3.7200
   39MPD2     C  593   2.333   3.076   1.549  0.2426  0.1426  0.4121
   39MPD2    C1  594   2.287   3.204   1.571  0.5134 -0.5772  0.1917
   39MPD2    C2  595   2.162   3.241   1.515  0.1610 -0.3230  0.0256
   39MPD2    C3  596   2.090   3.160   1.438  0.2840  0.0340 -0.0875
   39MPD2    C4  597   2.122   3.031   1.427  0.3753 -0.1424  0.3501
   39MPD2    C5  598   2.249   2.992   1.483  0.4444  0.0236 -0.0982
   39MPD2     H  599   2.139   3.347   1.510  0.5155 -0.3183 -1.2870
   39MPD2    H1  600   2.068   2.958   1.369 -0.5059 -0.4393  1.5349
   39MPD2    H2  601   2.423   3.040   1.598 -0.2188  0.2520  1.3265
   39MPD2    H3  602   2.293   2.895   1.462 -1.8818 -1.0040 -0.1534
   39MPD2     N  603   1.970   3.197   1.367 -0.0150  0.1284  0.2726
   39MPD2    H5  604   1.926   3.119   1.317  2.0499 -1.6597  1.2424
   39MPD2    N1  605   2.361   3.294   1.649 -0.2990 -0.4075  0.7492
   39MPD2    H7  606   2.455   3.265   1.671 -0.2132 -0.3506  0.4595
   40TCq2    C1  607   2.315   3.415   1.702  0.7017  0.4459 -0.1123
   40TCq2    O2  608   2.213   3.474   1.678 -0.5753 -0.7421  0.5167
   40TCq2    C2  609   2.422   3.489   1.768 -0.3854  0.5174  0.4666
   40TCq2    C3  610   2.387   3.593   1.855  0.2845  0.4532 -0.4086
   40TCq2    C4  611   2.489   3.652   1.925  0.4924  0.1443  0.2188
   40TCq2    C5  612   2.620   3.619   1.906 -0.1623 -0.1898  0.2951
   40TCq2    C6  613   2.650   3.522   1.814  0.4730  0.5013 -0.2087
   40TCq2    C7  614   2.555   3.461   1.742  0.7007 -0.4010 -0.0943
   40TCq2    C8  615   2.788   3.493   1.785  0.2730  0.2257  0.1594
   40TCq2    O4  616   2.822   3.394   1.723  0.3807 -0.5563 -0.1448
   40TCq2    C9  617   2.452   3.751   2.017  0.4739 -0.7126  0.1933
   40TCq2    O5  618   2.547   3.814   2.072  0.3558  0.6578 -0.7092
   40TCq2    O6  619   2.334   3.763   2.051  0.0464 -0.2220 -0.1357
   40TCq2    H2  620   2.284   3.623   1.866  0.3226 -0.0920  1.3421
   40TCq2    H3  621   2.691   3.637   1.987  0.2096 -0.5588  0.0499
   40TCq2    H4  622   2.584   3.387   1.669 -0.3117 -0.7356 -0.1644
   41TMC2    C1  623   0.976   0.999  14.158 -0.2490 -0.4265  0.1984
   41TMC2    C2  624   0.932   1.124  14.161 -0.1129 -0.1710 -0.1284
   41TMC2    C3  625   0.932   1.195  14.037  0.0931  0.1495  0.0245
   41TMC2    C4  626   1.021   0.943  14.046 -0.0273 -1.0736 -0.2789
   41TMC2    C5  627   1.021   1.015  13.930 -0.1229 -0.5924 -0.3015
   41TMC2    C6  628   0.969   1.144  13.919 -0.4297 -0.0031 -0.3685
   41TMC2     C  629   0.972   0.920  14.280 -0.9364 -0.1547  0.4373
   41TMC2     O  630   1.007   0.799  14.272 -0.6148  0.3328  1.1518
   41TMC2     H  631   0.887   1.169  14.248  1.0452  2.5174 -0.9061
   41TMC2    H1  632   1.060   0.842  14.054 -2.0113 -2.0747 -3.1041
   41TMC2    H2  633   0.964   1.190  13.821  0.5616  1.2705  0.1800
   41TMC2    C7  634   1.040   0.938  13.814  0.4088  0.0525  0.4726
   41TMC2    C8  635   0.864   1.319  14.028  0.1323 -0.0353 -0.0384
   41TMC2    O1  636   1.112   0.842  13.826  0.1556 -0.3578 -0.1310
   41TMC2    O2  637   0.772   1.356  14.100 -0.3246  0.0161 -0.4879
   41TMC2    O5  638   0.952   1.391  13.956  0.0323 -0.3695  0.6043
   41TMC2    H5  639   1.027   1.344  13.914 -1.0636 -0.6636 -0.9892
   42MPD2     C  640   0.921   0.799  14.547 -0.0408  0.5370 -0.1027
   42MPD2    C1  641   0.903   0.933  14.516  0.0005  0.1675 -0.0991
   42MPD2    C2  642   0.849   1.011  14.619 -1.0455  0.1986 -0.5035
   42MPD2    C3  643   0.795   0.955  14.729 -0.4271 -0.3386 -0.5214
   42MPD2    C4  644   0.818   0.823  14.752  0.0846  0.2561  0.6485
   42MPD2    C5  645   0.883   0.745  14.663 -0.0545 -0.5710 -0.1137
   42MPD2     H  646   0.828   1.116  14.599  0.8214  0.5409 -0.7015
   42MPD2    H1  647   0.792   0.774  14.845 -0.9103  0.2688  0.3693
   42MPD2    H2  648   0.972   0.721  14.491  0.2575 -0.5681  1.6850
   42MPD2    H3  649   0.912   0.642  14.683  0.1021 -0.7504 -1.2503
   42MPD2     N  650   0.718   1.032  14.831 -0.6593  0.0653 -0.6673
   42MPD2    H5  651   0.681   0.983  14.911  1.0928 -0.1385  0.0290
   42MPD2    N1  652   0.940   0.992  14.393 -0.9438  0.4028  0.4425
   42MPD2    H7  653   0.932   1.092  14.376 -0.3134  0.4280  0.3187
   43MPD2     C  654   3.082   4.485   0.788  0.9671  0.1744 -0.0126
   43MPD2    C1  655   3.142   4.441   0.907  0.1049 -0.3608 -0.0458
   43MPD2    C2  656   3.063   4.414   1.018 -0.8292 -0.2637  0.2938
   43MPD2    C3  657   2.927   4.443   1.020  0.0360  0.3179 -0.2385
   43MPD2    C4  658   2.875   4.501   0.901  0.0645 -0.3788  0.1651
   43MPD2    C5  659   2.948   4.520   0.788  0.1149  0.4006 -0.0394
   43MPD2     H  660   3.107   4.367   1.105 -0.2403 -1.4912 -0.6754
   43MPD2    H1  661   2.768   4.513   0.884 -0.0625 -0.7074  0.7359
   43MPD2    H2  662   3.137   4.507   0.698 -1.2578  1.5690 -1.0123
   43MPD2    H3  663   2.896   4.561   0.702 -0.6585 -1.2938 -0.3798
   43MPD2     N  664   2.835   4.418   1.129 -0.3705 -0.1140 -0.1760
   43MPD2    H5  665   2.743   4.460   1.117  0.2673  1.6345  1.1142
   43MPD2    N1  666   3.277   4.409   0.913 -0.6090  0.7577 -0.2803
   43MPD2    H7  667   3.311   4.388   1.006  2.2935  0.2200 -1.4560
   44TCq2    C1  668   2.731   4.395   1.679  0.9316 -0.2641  0.6402
   44TCq2    O2  669   2.836   4.457   1.671  0.4861 -0.1576  0.4282
   44TCq2    C2  670   2.686   4.328   1.555  0.2227 -0.0940  0.4879
   44TCq2    C3  671   2.555   4.338   1.511 -1.0647 -0.2410 -0.5368
   44TCq2    C4  672   2.528   4.353   1.381 -0.5207 -0.2187 -0.4293
   44TCq2    C5  673   2.630   4.358   1.284  0.4455 -0.0277  0.3469
   44TCq2    C6  674   2.756   4.333   1.334 -0.1008 -0.8129 -0.8522
   44TCq2    C7  675   2.787   4.316   1.462  0.8283 -0.6810 -0.4678
   44TCq2    C8  676   2.867   4.348   1.242 -0.5051  0.4754 -0.2964
   44TCq2    O4  677   2.965   4.280   1.256 -0.5213 -0.2141  0.0512
   44TCq2    C9  678   2.394   4.356   1.344  0.6049  0.1810  0.1193
   44TCq2    O5  679   2.306   4.315   1.426 -0.7865  0.3049 -0.3873
   44TCq2    O6  680   2.374   4.373   1.225  0.5489  0.4754  0.5635
   44TCq2    H2  681   2.475   4.354   1.583  0.4620  0.0045  1.1014
   44TCq2    H3  682   2.608   4.340   1.180  1.2869 -3.5973  0.7811
   44TCq2    H4  683   2.891   4.313   1.493  0.9625  2.3349 -0.6923
   45TMC2    C1  684   2.844   1.604   9.039 -0.1401 -0.5880 -0.3523
   45TMC2    C2  685   2.761   1.715   9.047  0.5596  0.7601  0.2540
   45TMC2    C3  686   2.822   1.827   9.092  0.4699  0.1916  0.3212
   45TMC2    C4  687   2.970   1.605   9.092 -0.2267 -0.2542 -0.2193
   45TMC2    C5  688   3.011   1.718   9.161  0.0968 -0.3491 -0.1651
   45TMC2    C6  689   2.935   1.829   9.165 -0.4820 -0.2105  0.4408
   45TMC2     C  690   2.790   1.483   8.977 -0.3946  0.2307 -0.0544
   45TMC2     O  691   2.879   1.397   8.962 -0.0953  0.5295  0.1421
   45TMC2     H  692   2.671   1.717   8.986 -1.4260  1.1273  3.1733
   45TMC2    H1  693   3.039   1.521   9.091 -1.4680 -1.2814 -0.1295
   45TMC2    H2  694   2.969   1.913   9.226  0.6352 -0.8549  0.7101
   45TMC2    C7  695   3.150   1.718   9.212  0.5760  0.0530 -0.1610
   45TMC2    C8  696   2.741   1.942   9.088  0.8525 -0.4943 -0.5251
   45TMC2    O1  697   3.232   1.638   9.174 -0.1030  0.0943 -0.7419
   45TMC2    O2  698   2.625   1.957   9.117 -0.2310  0.2072 -0.3690
   45TMC2    O5  699   2.826   2.046   9.071  0.0150 -0.2061 -0.0893
   45TMC2    H5  700   2.917   2.034   9.035 -0.6763 -1.7534 -1.3242
   46MPD2     C  701   2.652   1.231   8.881 -0.0771  0.1808  0.4592
   46MPD2    C1  702   2.592   1.342   8.946 -0.9491  0.0124 -0.4680
   46MPD2    C2  703   2.454   1.334   8.962  0.6664 -0.1436 -0.1950
   46MPD2    C3  704   2.381   1.225   8.915  0.4843 -0.0620 -0.6084
   46MPD2    C4  705   2.441   1.135   8.841  0.5166 -0.2574  0.5440
   46MPD2    C5  706   2.574   1.134   8.826 -0.3108  0.5321 -0.4467
   46MPD2     H  707   2.417   1.422   9.012  1.1716  0.1142 -0.2688
   46MPD2    H1  708   2.377   1.067   8.786  1.1028 -0.8275  0.5784
   46MPD2    H2  709   2.760   1.228   8.867 -0.2592 -0.1977 -0.8235
   46MPD2    H3  710   2.618   1.052   8.770  1.0031  0.2549  0.9797
   46MPD2     N  711   2.244   1.219   8.950 -0.1715 -0.3517  0.0081
   46MPD2    H5  712   2.208   1.294   9.009  0.0666  0.1709 -0.5078
   46MPD2    N1  713   2.656   1.456   8.998 -0.2848  0.0763  0.3741
   46MPD2    H7  714   2.610   1.528   9.052  1.7494  2.4481 -1.0897
   47TMC2    C1  715   4.386   1.459   9.943 -1.1291  0.2085  0.2595
   47TMC2    C2  716   4.424   1.328   9.962 -0.4324 -0.2491 -0.2830
   47TMC2    C3  717   4.321   1.240   9.963  0.4000  0.0335  0.3973
   47TMC2    C4  718   4.261   1.504   9.922  0.3134  0.8428  0.1142
   47TMC2    C5  719   4.168   1.405   9.921  0.7213  0.3463 -0.2835
   47TMC2    C6  720   4.187   1.275   9.931  0.2397  0.2645  0.1960
   47TMC2     C  721   4.493   1.557   9.987 -0.4519  0.8021 -0.0743
   47TMC2     O  722   4.458   1.662  10.031 -0.7325  0.3625  0.6082
   47TMC2     H  723   4.522   1.300   9.999 -0.4769 -0.2448 -0.1631
   47TMC2    H1  724   4.244   1.611   9.923  1.0123  0.9579 -0.3207
   47TMC2    H2  725   4.107   1.205   9.907  3.7993 -2.9435 -2.2918
   47TMC2    C7  726   4.026   1.440   9.915  0.4660 -0.0186  0.3105
   47TMC2    C8  727   4.364   1.101   9.952  0.7530 -0.0341  0.0907
   47TMC2    O1  728   3.943   1.350   9.912  0.2160 -0.7768 -0.0166
   47TMC2    O2  729   4.479   1.083   9.918 -0.1595  0.7170  0.0566
   47TMC2    O5  730   4.258   1.036   9.900 -0.1339 -0.2680 -0.1696
   47TMC2    H5  731   4.185   1.051   9.964 -0.1638  2.9156 -0.9336
   48MPD2     C  732   0.040   1.660  10.073 -0.6065 -0.0645 -0.3221
   48MPD2    C1  733   0.022   1.574   9.967  0.4361 -1.0093 -0.9763
   48MPD2    C2  734   0.129   1.542   9.888 -0.0431  0.2741  0.9564
   48MPD2    C3  735   0.253   1.588   9.911 -0.1984  0.7573  0.7307
   48MPD2    C4  736   0.265   1.681  10.012 -0.6453  0.6666 -0.2756
   48MPD2    C5  737   0.165   1.714  10.092 -0.1316 -0.2232  0.7131
   48MPD2     H  738   0.118   1.487   9.795  2.1191 -2.2161  2.2100
   48MPD2    H1  739   0.354   1.734  10.043  0.3268 -0.6476 -0.8685
   48MPD2    H2  740   4.677   1.691  10.134  0.4989 -0.4431  1.3715
   48MPD2    H3  741   0.181   1.789  10.169 -1.2722 -0.9065  1.6077
   48MPD2     N  742   0.354   1.559   9.822  0.0564 -0.0173 -0.2737
   48MPD2    H5  743   0.336   1.496   9.745  1.3145  0.6017 -1.0727
   48MPD2    N1  744   4.614   1.513   9.942  0.1803 -0.4122 -0.5298
   48MPD2    H7  745   4.620   1.429   9.886  0.1820  0.1349 -1.3516
   49MPD2     C  746   3.634   3.488   9.984  0.2238 -0.6239  0.2166
   49MPD2    C1  747   3.637   3.424  10.111  0.3777 -0.2816  1.0307
   49MPD2    C2  748   3.686   3.496  10.220  0.2823 -0.2004 -0.7384
   49MPD2    C3  749   3.738   3.621  10.198 -0.1577  0.2488 -0.0746
   49MPD2    C4  750   3.735   3.681  10.071  0.9700 -0.6179 -0.4677
   49MPD2    C5  751   3.682   3.613   9.967  0.1115  0.4338 -0.5474
   49MPD2     H  752   3.698   3.448  10.316 -0.2400  1.1153 -0.0232
   49MPD2    H1  753   3.768   3.783  10.057  0.6105 -0.4071  0.2186
   49MPD2    H2  754   3.597   3.442   9.894 -0.3091  1.8001 -0.8084
   49MPD2    H3  755   3.671   3.670   9.875 -0.3857 -0.7813 -1.2472
   49MPD2     N  756   3.796   3.697  10.301 -0.3742 -0.1650  0.2820
   49MPD2    H5  757   3.851   3.778  10.271 -2.4685  0.7410 -1.1259
   49MPD2    N1  758   3.574   3.301  10.142 -0.3301  0.7698 -0.6794
   49MPD2    H7  759   3.602   3.256  10.228  0.2237 -0.7636 -1.6581
   50TCq2    C1  760   3.503   3.224  10.055  0.1118 -0.4092 -0.3954
   50TCq2    O2  761   3.451   3.256   9.946 -0.7149  0.2398 -0.1903
   50TCq2    C2  762   3.481   3.090  10.105 -0.2520 -0.9611  0.6457
   50TCq2    C3  763   3.443   2.997  10.008 -1.3471  0.1520 -0.4435
   50TCq2    C4  764   3.388   2.879  10.042 -0.0819  0.3169 -0.1995
   50TCq2    C5  765   3.358   2.844  10.168  0.7319  0.3839  0.5254
   50TCq2    C6  766   3.391   2.939  10.261 -0.2134 -0.0703  1.1569
   50TCq2    C7  767   3.446   3.062  10.234 -0.0146 -0.5328 -0.0355
   50TCq2    C8  768   3.352   2.906  10.401  0.0332 -0.3782 -0.2442
   50TCq2    O4  769   3.378   3.000  10.475  0.1629 -0.1308  0.0145
   50TCq2    C9  770   3.342   2.790   9.936  0.3913 -0.7924  0.2729
   50TCq2    O5  771   3.343   2.836   9.818  0.3011  0.3246 -0.1597
   50TCq2    O6  772   3.319   2.672   9.969  0.3659 -0.4650 -0.7327
   50TCq2    H2  773   3.453   3.010   9.901 -2.4452 -0.9730 -0.6778
   50TCq2    H3  774   3.296   2.757  10.186  4.9002 -2.8374 -0.8145
   50TCq2    H4  775   3.470   3.132  10.313 -1.3258 -0.6082  0.4346
   51MPD2     C  776   3.693   3.176   0.548 -0.3304  0.4264 -0.1187
   51MPD2    C1  777   3.658   3.082   0.639 -0.5558 -0.2548 -0.4679
   51MPD2    C2  778   3.678   3.108   0.780 -0.1123  0.2504 -0.6184
   51MPD2    C3  779   3.724   3.232   0.814  0.5411 -0.3327 -0.3399
   51MPD2    C4  780   3.761   3.327   0.723 -0.0261 -0.5738  0.2655
   51MPD2    C5  781   3.749   3.300   0.592 -0.1217  0.2583 -0.0412
   51MPD2     H  782   3.652   3.038   0.859  1.1731  0.7035  0.2066
   51MPD2    H1  783   3.800   3.424   0.747 -1.6012 -0.2821  1.6295
   51MPD2    H2  784   3.703   3.149   0.443  1.2740 -1.1384  0.4495
   51MPD2    H3  785   3.776   3.366   0.510  2.8027 -0.0820  0.6220
   51MPD2     N  786   3.737   3.271   0.945 -0.1438 -0.4414 -0.5544
   51MPD2    H5  787   3.753   3.369   0.965  0.7709 -1.1986  2.4418
   51MPD2    N1  788   3.621   2.957   0.589  0.1800  0.3013 -0.0781
   51MPD2    H7  789   3.629   2.955   0.487  0.3440 -3.7873  0.0305
   52TCq2    C1  790   3.745   3.194   1.060 -0.5082 -0.1280  0.0616
   52TCq2    O2  791   3.739   3.077   1.071  0.4721 -0.7428 -0.2853
   52TCq2    C2  792   3.766   3.270   1.180  0.6635 -0.1208 -0.1983
   52TCq2    C3  793   3.771   3.408   1.185 -0.5936 -0.2168  0.4051
   52TCq2    C4  794   3.814   3.470   1.297 -0.2099  0.5353 -0.4240
   52TCq2    C5  795   3.844   3.396   1.407 -0.3074 -0.6941 -0.0962
   52TCq2    C6  796   3.847   3.260   1.391  0.6452 -0.0910  0.7008
   52TCq2    C7  797   3.805   3.195   1.286  0.4886 -0.2566  0.2647
   52TCq2    C8  798   3.913   3.182   1.492 -0.0369 -0.9682  0.0390
   52TCq2    O4  799   3.865   3.078   1.533 -0.1398 -0.1681  0.1028
   52TCq2    C9  800   3.814   3.619   1.314 -0.1593 -0.6067 -0.7589
   52TCq2    O5  801   3.806   3.682   1.207 -0.3575 -0.2913 -0.1936
   52TCq2    O6  802   3.840   3.650   1.433 -0.0288 -0.3615 -0.4152
   52TCq2    H2  803   3.720   3.469   1.112  2.2967  0.8364 -0.7173
   52TCq2    H3  804   3.869   3.434   1.505  2.3420 -1.7135 -0.3717
   52TCq2    H4  805   3.818   3.087   1.282 -2.7991 -0.6714  0.8851
   53TMC2    C1  806   4.363   1.135  11.983 -0.0275 -0.1435 -0.3740
   53TMC2    C2  807   4.480   1.090  12.046  0.0301 -0.6389 -0.2068
   53TMC2    C3  808   4.474   1.087  12.187  0.1670 -0.1811  0.0117
   53TMC2    C4  809   4.251   1.175  12.056 -0.3245 -0.1047 -0.6364
   53TMC2    C5  810   4.254   1.175  12.191  0.4968 -0.7282 -0.6865
   53TMC2    C6  811   4.362   1.130  12.255  0.5084  0.1774 -0.0533
   53TMC2     C  812   4.378   1.176  11.850 -0.1912 -0.6479  0.1857
   53TMC2     O  813   4.490   1.193  11.801  0.0032 -0.0394 -0.1199
   53TMC2     H  814   4.568   1.074  11.985 -1.1126 -0.7377 -1.8120
   53TMC2    H1  815   4.155   1.202  12.014 -0.8445  0.9409  1.2184
   53TMC2    H2  816   4.371   1.147  12.361 -1.2926 -0.3586  0.1793
   53TMC2    C7  817   4.136   1.221  12.260 -0.4958  0.2473 -0.3209
   53TMC2    C8  818   4.579   1.024  12.266 -0.3391 -0.1527  0.1465
   53TMC2    O1  819   4.056   1.285  12.194  0.2406  0.0460 -0.0108
   53TMC2    O2  820   4.579   1.050  12.390  0.2673  0.4870  0.2051
   53TMC2    O5  821   4.672   0.974  12.191  0.4767 -0.1196  0.2316
   53TMC2    H5  822   4.644   0.935  12.105 -1.2370  0.1604  0.6638
   54MPD2     C  823   4.316   1.248  11.569  0.3418 -0.7904  0.2468
   54MPD2    C1  824   4.224   1.201  11.659  1.1102  0.1743 -0.3079
   54MPD2    C2  825   4.089   1.194  11.616 -0.0355 -0.2393  0.0396
   54MPD2    C3  826   4.050   1.231  11.492  0.3132 -0.4972  0.8659
   54MPD2    C4  827   4.145   1.273  11.404  0.2139  0.6171  0.0492
   54MPD2    C5  828   4.273   1.286  11.444  0.2560 -0.7613  0.2073
   54MPD2     H  829   4.015   1.150  11.682 -0.8295 -0.4066 -0.9550
   54MPD2    H1  830   4.119   1.301  11.302  0.4253  0.3913 -0.0682
   54MPD2    H2  831   4.420   1.262  11.594  0.0594  0.1448  0.8880
   54MPD2    H3  832   4.345   1.313  11.367  1.7225 -2.2819  1.0634
   54MPD2     N  833   3.914   1.233  11.445 -0.2858  0.4493 -0.2786
   54MPD2    H5  834   3.900   1.292  11.364 -1.4753  0.8378  0.2056
   54MPD2    N1  835   4.255   1.168  11.790  0.6798  0.5587  0.4776
   54MPD2    H7  836   4.181   1.129  11.848  1.4998 -0.7694  0.6375
   55MPD2     C  837   0.571   3.587   0.724 -0.2699  0.6660 -0.4678
   55MPD2    C1  838   0.523   3.594   0.852 -0.3724 -0.1590 -0.1267
   55MPD2    C2  839   0.443   3.702   0.886  0.2283 -0.3734 -0.5428
   55MPD2    C3  840   0.420   3.809   0.794 -0.6830 -0.2755 -0.5542
   55MPD2    C4  841   0.476   3.801   0.672  0.0256 -0.0020 -0.8066
   55MPD2    C5  842   0.542   3.687   0.635  0.3361  0.3192  0.1541
   55MPD2     H  843   0.397   3.703   0.984  0.3671  1.1124 -0.4886
   55MPD2    H1  844   0.466   3.879   0.598  1.8287  0.0159 -1.0338
   55MPD2    H2  845   0.630   3.505   0.687  0.1560  0.6896  0.1640
   55MPD2    H3  846   0.590   3.689   0.537 -1.4825 -0.4913 -0.7508
   55MPD2     N  847   0.342   3.917   0.835  0.1988  0.0956  0.2634
   55MPD2    H5  848   0.329   3.929   0.935  1.3358  1.2239  0.2786
   55MPD2    N1  849   0.540   3.477   0.928  0.6643  0.0185 -0.3164
   55MPD2    H7  850   0.603   3.408   0.889 -1.4875 -1.1824 -1.6773
   56TCq2    C1  851   0.489   3.455   1.052 -0.0403 -0.1636 -0.0156
   56TCq2    O2  852   0.400   3.517   1.108 -0.1347 -0.6837 -0.5165
   56TCq2    C2  853   0.536   3.333   1.108  0.5721  0.4699 -0.0205
   56TCq2    C3  854   0.655   3.283   1.059 -0.5496 -0.3253  0.6119
   56TCq2    C4  855   0.667   3.146   1.079 -0.0007  0.3014  0.1625
   56TCq2    C5  856   0.575   3.071   1.153 -0.5338  0.3459  1.0840
   56TCq2    C6  857   0.467   3.136   1.209 -0.0454 -0.4408 -0.3008
   56TCq2    C7  858   0.440   3.269   1.187  0.2820  0.1703  0.5858
   56TCq2    C8  859   0.361   3.047   1.257 -0.1348  0.5227 -0.4310
   56TCq2    O4  860   0.390   2.931   1.269  0.1554  1.1053 -0.3506
   56TCq2    C9  861   0.770   3.078   1.013 -0.3177  0.2502  0.4728
   56TCq2    O5  862   0.825   3.136   0.915 -0.5898  0.3072  0.0015
   56TCq2    O6  863   0.774   2.951   1.032  0.3085 -0.0256 -0.5371
   56TCq2    H2  864   0.723   3.337   0.994 -0.1919 -1.0089  0.4135
   56TCq2    H3  865   0.591   2.965   1.169  1.6207  0.1538 -2.3127
   56TCq2    H4  866   0.355   3.325   1.223 -0.3265 -1.5839  1.8746
   57TMC2    C1  867   4.068   0.006  14.096 -0.0367 -0.1871  0.0265
   57TMC2    C2  868   4.207   4.712  14.092 -0.2182 -0.1777 -0.1982
   57TMC2    C3  869   4.261   4.633  13.999  0.1772 -0.0845 -0.3278
   57TMC2    C4  870   3.994   4.674  14.000  0.4079 -0.1191  0.2008
   57TMC2    C5  871   4.056   4.608  13.897 -0.2675 -0.3705  0.0873
   57TMC2    C6  872   4.188   4.574  13.902  0.6824  0.6277  0.0784
   57TMC2     C  873   4.010   0.062  14.213 -0.0829 -0.4729  0.0595
   57TMC2     O  874   4.090   0.108  14.295  0.1583 -0.2624 -0.1978
   57TMC2     H  875   4.274   0.031  14.168 -1.3447  2.2586 -0.4739
   57TMC2    H1  876   3.890   4.704  13.989  0.3048 -0.6993 -0.3853
   57TMC2    H2  877   4.239   4.515  13.828  2.1203  1.4798  0.3960
   57TMC2    C7  878   3.975   4.543  13.801  0.0297 -0.8744 -0.3046
   57TMC2    C8  879   4.403   4.625  14.000  0.5047 -0.4526  0.1381
   57TMC2    O1  880   3.852   4.553  13.813  0.1758  0.0446 -0.0715
   57TMC2    O2  881   4.476   4.625  14.099 -0.2346 -0.7567  0.2551
   57TMC2    O5  882   4.440   4.647  13.874 -0.0372  0.3695  0.1540
   57TMC2    H5  883   4.362   4.672  13.820  1.0200 -1.2468 -2.1776
   58MPD2     C  884   3.625   0.190  14.529 -0.0353  0.2980 -0.1757
   58MPD2    C1  885   3.738   0.257  14.485 -0.2519 -0.0658 -0.2963
   58MPD2    C2  886   3.826   0.206  14.391  0.6702  0.4914 -0.3941
   58MPD2    C3  887   3.797   0.081  14.338 -0.0678  0.3385  0.0935
   58MPD2    C4  888   3.688   0.012  14.386  0.5897 -0.4896  0.1343
   58MPD2    C5  889   3.604   0.062  14.485  0.5403 -0.2198  0.2163
   58MPD2     H  890   3.911   0.265  14.359 -0.3279  1.4650 -1.2411
   58MPD2    H1  891   3.669   4.635  14.343  1.9013 -0.6929  0.0295
   58MPD2    H2  892   3.551   0.230  14.597 -2.1398 -1.1706 -1.6230
   58MPD2    H3  893   3.520   0.001  14.515  0.6885 -0.6139 -0.1707
   58MPD2     N  894   3.884   0.024  14.238 -0.4875  0.1871  0.5302
   58MPD2    H5  895   3.844   4.673  14.178  3.7470 -0.3475 -1.5890
   58MPD2    N1  896   3.754   0.394  14.522  0.4787  0.0464  0.5624
   58MPD2    H7  897   3.803   0.452  14.455 -1.1392  1.4450  0.5969
   59MPD2     C  898   1.925   4.557  13.383 -0.2718 -0.0802 -0.0258
   59MPD2    C1  899   1.939   4.652  13.285 -0.1373  0.2269 -0.2270
   59MPD2    C2  900   2.012   0.041  13.310 -0.5218 -0.0972  0.3853
   59MPD2    C3  901   2.090   0.055  13.424 -0.9352 -0.1502 -0.8419
   59MPD2    C4  902   2.078   4.675  13.520 -0.7718 -0.4734 -0.0125
   59MPD2    C5  903   1.984   4.578  13.506 -0.6446 -0.5230  0.1841
   59MPD2     H  904   2.028   0.109  13.227  1.7702 -0.0894  0.8202
   59MPD2    H1  905   2.141   4.662  13.607  0.2802 -2.1716 -1.0375
   59MPD2    H2  906   1.866   4.467  13.371 -0.7679  0.3620 -0.9518
   59MPD2    H3  907   1.981   4.502  13.583  2.8805  0.7317  1.5794
   59MPD2     N  908   2.184   0.162  13.442 -0.0226 -0.1797 -0.6378
   59MPD2    H5  909   2.189   0.235  13.371  1.6477 -0.3925 -0.7302
   59MPD2    N1  910   1.874   4.622  13.164 -0.4020  0.4149  0.3087
   59MPD2    H7  911   1.827   4.532  13.162 -1.7842  1.1949 -2.4420
   60TCq2    C1  912   1.853   4.699  13.048 -0.0028  0.0989  0.4566
   60TCq2    O2  913   1.892   0.090  13.024 -0.3541 -0.0692 -0.0622
   60TCq2    C2  914   1.768   4.633  12.956  0.0606  0.7426  0.2308
   60TCq2    C3  915   1.702   4.516  12.996 -0.3690 -0.3306  0.3631
   60TCq2    C4  916   1.651   4.444  12.895  1.0855  0.2753 -0.0039
   60TCq2    C5  917   1.653   4.484  12.765 -0.0216  0.0635  0.3134
   60TCq2    C6  918   1.719   4.596  12.727 -0.2096  0.0925  0.0902
   60TCq2    C7  919   1.782   4.672  12.826  0.6271 -0.1099  0.4579
   60TCq2    C8  920   1.782   4.587  12.598  0.0328 -0.0791 -0.0275
   60TCq2    O4  921   1.838   4.484  12.569 -0.0282  0.3788 -0.0544
   60TCq2    C9  922   1.593   4.314  12.935 -0.5343  0.1773  0.2240
   60TCq2    O5  923   1.513   4.265  12.847  0.0312  0.0484  0.3693
   60TCq2    O6  924   1.620   4.263  13.052 -0.6325 -0.2272  0.2005
   60TCq2    H2  925   1.679   4.495  13.099 -0.0170 -1.4749  0.2148
   60TCq2    H3  926   1.617   4.424  12.682 -0.0600  0.9711 -0.3338
   60TCq2    H4  927   1.832   0.045  12.804 -1.8775  0.7149 -1.8305
   61MPD2     C  928   1.316   0.904  14.439 -0.2054 -0.2940  0.0311
   61MPD2    C1  929   1.256   1.007  14.506 -0.0174  0.6705  0.5164
   61MPD2    C2  930   1.235   1.124  14.440  0.1583  0.2586 -0.1158
   61MPD2    C3  931   1.256   1.137  14.312 -0.2284 -0.6827 -0.7781
   61MPD2    C4  932   1.313   1.044  14.244  0.4903 -0.2827  0.5336
   61MPD2    C5  933   1.350   0.925  14.306  0.0640  1.2783 -0.7480
   61MPD2     H  934   1.206   1.206  14.504 -1.6921  1.0168 -1.9256
   61MPD2    H1  935   1.340   1.050  14.139  1.2076  0.5235  0.7618
   61MPD2    H2  936   1.349   0.811  14.483 -0.3027 -0.7649 -0.8861
   61MPD2    H3  937   1.405   0.852  14.248  1.2887  1.4030  0.2599
   61MPD2     N  938   1.220   1.265  14.254 -0.2509 -0.4983 -0.4384
   61MPD2    H5  939   1.249   1.278  14.157  2.0369  1.1333  0.4679
   61MPD2    N1  940   1.226   1.006  14.642 -0.2128  0.0152  0.9971
   61MPD2    H7  941   1.183   1.085  14.688  1.0065  0.8247  0.7421
   62TCq2    C1  942   1.219   0.886  14.717  0.2341  0.4444  0.5476
   62TCq2    O2  943   1.238   0.774  14.671 -0.3347  0.0534  0.3550
   62TCq2    C2  944   1.167   0.907  14.849 -0.0594  0.7975  0.3934
   62TCq2    C3  945   1.110   0.800  14.921 -0.6597  0.0430  1.0884
   62TCq2    C4  946   1.034   0.826  15.031  0.6925  0.6737 -0.4034
   62TCq2    C5  947   0.996   0.950  15.070 -0.3335  0.4160 -0.4527
   62TCq2    C6  948   1.058   1.051  15.006  0.3680 -0.3240 -0.5405
   62TCq2    C7  949   1.143   1.031  14.903 -0.6250  0.3752  0.4578
   62TCq2    C8  950   1.014   1.189  15.024 -0.5461 -0.0074 -0.0284
   62TCq2    O4  951   1.069   1.257  14.941 -0.0246  0.5857  0.0413
   62TCq2    C9  952   0.963   0.718  15.088 -0.7000 -0.1383  0.4588
   62TCq2    O5  953   1.004   0.601  15.076  0.1863  0.1416 -0.1031
   62TCq2    O6  954   0.871   0.753  15.171  0.0858  0.2885  0.4602
   62TCq2    H2  955   1.115   0.700  14.879 -2.5700 -0.2525  1.5250
   62TCq2    H3  956   0.916   0.963  15.141  1.2652  0.1929  1.3845
   62TCq2    H4  957   1.197   1.117  14.865  1.0728 -1.0295 -0.3284
   63TMC2    C1  958   1.458   1.629  10.918  0.1880  0.4985  0.7914
   63TMC2    C2  959   1.523   1.692  11.021  0.5183  0.8428  0.6393
   63TMC2    C3  960   1.624   1.783  11.000  0.6226  0.3371 -0.1416
   63TMC2    C4  961   1.485   1.662  10.783 -0.5392  0.2648 -0.8640
   63TMC2    C5  962   1.580   1.757  10.761 -0.0576 -0.1105  1.2399
   63TMC2    C6  963   1.652   1.818  10.865 -0.1948  0.7670  0.1929
   63TMC2     C  964   1.343   1.551  10.957 -0.0158 -0.1970  0.6797
   63TMC2     O  965   1.329   1.531  11.073  0.0206  0.3551 -0.4626
   63TMC2     H  966   1.490   1.683  11.123  0.0572 -0.8316  0.3464
   63TMC2    H1  967   1.439   1.607  10.701  0.9319 -2.3175  0.0337
   63TMC2    H2  968   1.706   1.908  10.838  2.4808 -0.4910  1.3221
   63TMC2    C7  969   1.550   1.825  10.637 -0.4502  0.7865 -0.5357
   63TMC2    C8  970   1.622   1.886  11.103 -0.2719  0.6129  0.4876
   63TMC2    O1  971   1.501   1.758  10.547  0.4662  0.4568  0.6579
   63TMC2    O2  972   1.528   1.889  11.182 -0.0739  0.0750  0.1305
   63TMC2    O5  973   1.748   1.937  11.117 -0.1129  0.1918  0.0565
   63TMC2    H5  974   1.810   1.908  11.046 -1.3748 -0.6242 -0.7167
   64MPD2     C  975   0.879   1.394  10.838 -0.1041  0.0918  0.9701
   64MPD2    C1  976   0.950   1.389  10.722 -0.5606 -0.4896  0.5182
   64MPD2    C2  977   1.082   1.430  10.730  0.3087  0.2170 -0.5966
   64MPD2    C3  978   1.134   1.474  10.850 -0.0049  0.1963 -0.6599
   64MPD2    C4  979   1.065   1.469  10.967  0.0101 -0.1825  0.3860
   64MPD2    C5  980   0.934   1.433  10.958  0.5060 -0.3177 -0.0559
   64MPD2     H  981   1.152   1.423  10.647  2.1453  2.1964  0.7830
   64MPD2    H1  982   1.101   1.492  11.067  2.1485  0.6114 -0.5831
   64MPD2    H2  983   0.773   1.370  10.841  0.1086 -1.3250 -2.5286
   64MPD2    H3  984   0.879   1.434  11.052  1.1258  1.4012  0.2918
   64MPD2     N  985   1.270   1.525  10.848  0.1763 -0.0104 -0.3130
   64MPD2    H5  986   1.309   1.541  10.755 -0.3738  2.9226 -0.0479
   64MPD2    N1  987   0.908   1.339  10.598 -0.2032  0.1485  0.1626
   64MPD2    H7  988   0.978   1.323  10.527  0.1350  1.3027  0.2418
   65MPD2     C  989   1.841   0.858  15.778  0.4842 -0.1421  0.1732
   65MPD2    C1  990   1.830   0.806  15.648 -0.5176 -0.4822 -0.3394
   65MPD2    C2  991   1.864   0.673  15.623  0.5737  0.5510  0.4540
   65MPD2    C3  992   1.874   0.582  15.732 -0.3582  0.7480 -0.2994
   65MPD2    C4  993   1.891   0.638  15.857  0.0694 -0.6683 -0.6228
   65MPD2    C5  994   1.862   0.769  15.880 -0.1532 -0.9084  0.3557
   65MPD2     H  995   1.852   0.629  15.524  2.7691  0.4601  0.2165
   65MPD2    H1  996   1.917   0.576  15.943  0.3515  2.4887  1.5817
   65MPD2    H2  997   1.834   0.960  15.813  0.2981 -0.1804  0.2518
   65MPD2    H3  998   1.875   0.808  15.980  1.1802  1.1513 -0.6231
   65MPD2     N  999   1.868   0.446  15.715 -0.0326 -0.6472 -0.3456
   65MPD2    H5 1000   1.852   0.391  15.799  2.0230 -0.5595  0.1204
   65MPD2    N1 1001   1.794   0.888  15.538 -0.6601 -0.2107 -0.5418
   65MPD2    H7 1002   1.788   0.860  15.441 -0.4386 -0.4736 -0.4772
   66TCq2    C1 1003   1.752   1.022  15.557  0.4692 -0.0142 -0.0828
   66TCq2    O2 1004   1.729   1.083  15.657  0.3744  0.2310  0.5582
   66TCq2    C2 1005   1.731   1.083  15.420 -0.6260 -0.2538 -0.0210
   66TCq2    C3 1006   1.803   1.043  15.307 -0.0906 -0.2843 -0.7216
   66TCq2    C4 1007   1.807   1.117  15.195 -0.4044  0.7842 -0.8768
   66TCq2    C5 1008   1.742   1.234  15.185  0.0659  0.4550  0.4270
   66TCq2    C6 1009   1.679   1.276  15.299  0.6976 -0.0277  0.2247
   66TCq2    C7 1010   1.667   1.204  15.412  0.0952 -0.1205  0.3518
   66TCq2    C8 1011   1.599   1.402  15.275  0.1835 -0.0919 -0.2099
   66TCq2    O4 1012   1.576   1.439  15.158 -0.0452  0.2337 -0.3118
   66TCq2    C9 1013   1.886   1.076  15.084 -0.2872  0.1524  0.2144
   66TCq2    O5 1014   1.982   1.002  15.107  0.9526  0.1465 -0.6958
   66TCq2    O6 1015   1.878   1.134  14.975 -0.1881 -0.1880  0.5529
   66TCq2    H2 1016   1.871   0.960  15.297 -2.9977 -2.6667 -0.6364
   66TCq2    H3 1017   1.754   1.296  15.097  3.5688 -1.3727 -0.3887
   66TCq2    H4 1018   1.589   1.228  15.483  1.4218  0.7659  1.5018
   67MPD2     C 1019   1.747   0.436  14.069 -0.3632 -0.0837  0.5008
   67MPD2    C1 1020   1.748   0.564  14.127 -0.1905 -0.3271  0.2258
   67MPD2    C2 1021   1.667   0.665  14.074 -0.6142 -0.3286 -0.0404
   67MPD2    C3 1022   1.594   0.653  13.959  0.5502 -0.0867 -0.1928
   67MPD2    C4 1023   1.589   0.527  13.901 -0.6964  0.0858 -0.1246
   67MPD2    C5 1024   1.664   0.423  13.957  0.0473 -0.1142  0.4188
   67MPD2     H 1025   1.674   0.763  14.121 -0.1794  0.4103 -1.6385
   67MPD2    H1 1026   1.539   0.500  13.808 -1.1705 -1.2275  0.5048
   67MPD2    H2 1027   1.809   0.352  14.100  1.1943  0.5523 -0.8914
   67MPD2    H3 1028   1.661   0.321  13.921  2.7127  0.8664 -2.6678
   67MPD2     N 1029   1.526   0.760  13.891 -0.0193 -0.0308 -0.3010
   67MPD2    H5 1030   1.469   0.732  13.811 -2.1424  0.9025  0.8992
   67MPD2    N1 1031   1.824   0.598  14.242  0.2604 -0.6469 -0.2026
   67MPD2    H7 1032   1.810   0.696  14.267  1.6756 -0.8282  1.2829
   68TCq2    C1 1033   1.898   0.510  14.320  0.2312  0.6148 -0.7012
   68TCq2    O2 1034   1.893   0.388  14.324  0.2375 -0.4792  0.0474
   68TCq2    C2 1035   1.946   0.581  14.443 -0.2633 -0.3959 -0.0402
   68TCq2    C3 1036   1.952   0.716  14.453 -0.6759  0.7012 -0.0697
   68TCq2    C4 1037   1.979   0.778  14.571  0.0468 -0.8225  0.3839
   68TCq2    C5 1038   2.010   0.705  14.677 -0.6956 -0.2287  0.0398
   68TCq2    C6 1039   2.010   0.566  14.660 -0.5543  0.1334 -0.6414
   68TCq2    C7 1040   1.990   0.502  14.542 -0.0644 -0.3622  0.3754
   68TCq2    C8 1041   2.068   0.481  14.761 -0.1359  0.6796 -0.0836
   68TCq2    O4 1042   2.099   0.365  14.738  0.4088 -0.2860 -0.6466
   68TCq2    C9 1043   1.989   0.922  14.583 -0.0327 -0.1685  0.3100
   68TCq2    O5 1044   1.957   0.974  14.691 -0.9137  0.1724  0.0146
   68TCq2    O6 1045   2.046   0.983  14.491  0.1508  0.5124 -0.6321
   68TCq2    H2 1046   1.934   0.783  14.370 -0.4912 -0.4868 -1.0728
   68TCq2    H3 1047   2.045   0.754  14.767 -0.4108 -1.3845  0.5684
   68TCq2    H4 1048   1.990   0.394  14.539 -3.9091 -0.4357  2.8635
   69TMC2    C1 1049   3.382   1.903  12.173 -0.9443  0.1226  0.6038
   69TMC2    C2 1050   3.368   2.039  12.203 -0.3318 -0.1057  0.3025
   69TMC2    C3 1051   3.396   2.124  12.100 -0.0852 -0.7743 -0.7316
   69TMC2    C4 1052   3.422   1.866  12.038 -0.3207 -0.2121 -0.3663
   69TMC2    C5 1053   3.461   1.959  11.945  0.7428 -0.4437 -0.0838
   69TMC2    C6 1054   3.437   2.092  11.977 -0.3347 -0.0034  0.3186
   69TMC2     C 1055   3.448   1.843  12.284  0.6661 -0.0931  0.4112
   69TMC2     O 1056   3.423   1.872  12.397 -0.4455  0.1442 -0.0825
   69TMC2     H 1057   3.332   2.078  12.297  0.5286  0.8349  0.2357
   69TMC2    H1 1058   3.426   1.765  11.999  1.1172 -0.7747  1.2482
   69TMC2    H2 1059   3.460   2.170  11.906 -1.7264  1.7890  1.8381
   69TMC2    C7 1060   3.590   1.920  11.900  0.3899 -0.0526 -0.0297
   69TMC2    C8 1061   3.404   2.264  12.132 -0.2433  0.1709 -0.0144
   69TMC2    O1 1062   3.643   1.841  11.974 -0.0673 -0.3105 -0.0808
   69TMC2    O2 1063   3.405   2.348  12.043 -0.7854  0.3298 -0.3300
   69TMC2    O5 1064   3.458   2.271  12.257  0.3579  0.1786 -0.0181
   69TMC2    H5 1065   3.505   2.187  12.274 -0.2923 -0.4294 -1.1565
   70MPD2     C 1066   3.766   1.676  12.211  0.8093 -0.0044  0.0985
   70MPD2    C1 1067   3.660   1.708  12.300 -0.4253 -0.1239  0.1357
   70MPD2    C2 1068   3.668   1.688  12.431  0.1391 -0.0841  0.4820
   70MPD2    C3 1069   3.784   1.620  12.476  0.2351  0.1899 -0.1831
   70MPD2    C4 1070   3.892   1.586  12.393  0.6762  0.5601  0.7278
   70MPD2    C5 1071   3.882   1.617  12.265 -0.5238  0.1135  0.7125
   70MPD2     H 1072   3.586   1.719  12.494  0.0236  0.5099  0.0375
   70MPD2    H1 1073   3.979   1.532  12.427  0.5815  0.1994  0.3980
   70MPD2    H2 1074   3.767   1.698  12.104 -0.7601 -0.3502  0.0198
   70MPD2    H3 1075   3.958   1.589  12.193 -1.8118 -0.1707 -0.5545
   70MPD2     N 1076   3.794   1.572  12.607  0.4247 -0.3066  0.1174
   70MPD2    H5 1077   3.880   1.526  12.633  1.2309 -1.0911 -3.9380
   70MPD2    N1 1078   3.549   1.764  12.233  0.3219 -0.7049 -0.3979
   70MPD2    H7 1079   3.576   1.783  12.137  2.3401  1.5226  0.6068
   71TMC2    C1 1080   1.962   1.686   1.587  0.7855  0.0475  0.0482
   71TMC2    C2 1081   2.028   1.579   1.637 -0.3502  0.6518  0.4727
   71TMC2    C3 1082   1.955   1.465   1.636  0.2186 -1.2902  0.0123
   71TMC2    C4 1083   1.831   1.688   1.543 -0.0284  0.3908 -0.5065
   71TMC2    C5 1084   1.757   1.567   1.562 -0.2826 -0.6099 -0.4392
   71TMC2    C6 1085   1.819   1.456   1.606  0.2176  0.0907 -0.0255
   71TMC2     C 1086   2.040   1.807   1.571  0.1333  1.4878  0.2640
   71TMC2     O 1087   2.014   1.885   1.477  0.6189  0.1401 -0.3695
   71TMC2     H 1088   2.136   1.588   1.649 -0.1954  0.1018 -0.5285
   71TMC2    H1 1089   1.799   1.786   1.510  1.1317  0.9591  0.0417
   71TMC2    H2 1090   1.758   1.366   1.603 -0.8338  0.7710  1.1362
   71TMC2    C7 1091   1.612   1.573   1.581  0.3453 -0.4166  0.8179
   71TMC2    C8 1092   2.033   1.345   1.680  0.4046  0.7777  0.2226
   71TMC2    O1 1093   1.562   1.485   1.642  0.1536  0.0399 -0.2926
   71TMC2    O2 1094   2.153   1.352   1.684  0.3696 -0.2934  0.2067
   71TMC2    O5 1095   1.954   1.232   1.693  0.1110 -0.2310 -0.1707
   71TMC2    H5 1096   1.857   1.239   1.677  0.4442 -0.6178 -2.3055
   72MPD2     C 1097   2.451   2.092   1.714  0.6038  0.9617  0.6799
   72MPD2    C1 1098   2.379   2.085   1.596 -0.6827 -0.0453  0.0180
   72MPD2    C2 1099   2.274   1.995   1.578  0.6578 -0.2369  0.1037
   72MPD2    C3 1100   2.233   1.908   1.680 -0.0502  0.5823 -0.8292
   72MPD2    C4 1101   2.305   1.913   1.798 -0.1520  0.1185  0.6212
   72MPD2    C5 1102   2.415   2.002   1.810  0.7085  0.1026 -0.4446
   72MPD2     H 1103   2.223   2.007   1.483 -0.5165  1.0951  0.8959
   72MPD2    H1 1104   2.286   1.843   1.878 -1.3830 -2.3149 -1.8091
   72MPD2    H2 1105   2.531   2.161   1.738  1.8138 -0.5008  0.8379
   72MPD2    H3 1106   2.469   2.005   1.904 -1.3686  2.0560  0.7087
   72MPD2     N 1107   2.127   1.816   1.677 -0.1025  0.0572  0.0063
   72MPD2    H5 1108   2.111   1.763   1.762  1.9343 -1.9475 -0.8520
   72MPD2    N1 1109   2.409   2.158   1.482  0.3775  0.4625 -0.1031
   72MPD2    H7 1110   2.341   2.151   1.407 -1.4726 -0.9783  1.7347
   73TMC2    C1 1111   1.135   3.683  13.678 -0.2084 -0.8179  0.3971
   73TMC2    C2 1112   1.170   3.657  13.549  0.0028 -0.3636 -0.1674
   73TMC2    C3 1113   1.201   3.529  13.528  0.3804 -0.1360  0.1268
   73TMC2    C4 1114   1.127   3.584  13.775  1.1416 -0.1111 -0.1223
   73TMC2    C5 1115   1.157   3.455  13.742  0.2827 -0.2255  0.7944
   73TMC2    C6 1116   1.184   3.424  13.613  0.5247  0.0796  0.3219
   73TMC2     C 1117   1.193   3.801  13.739 -0.0925 -0.5472  0.7185
   73TMC2     O 1118   1.223   3.799  13.858 -0.1499 -0.3955  0.6146
   73TMC2     H 1119   1.208   3.732  13.480 -0.5541  0.6243  0.6069
   73TMC2    H1 1120   1.085   3.603  13.873  1.9212 -0.3451  0.2560
   73TMC2    H2 1121   1.215   3.324  13.585 -0.2976 -0.0471 -0.1061
   73TMC2    C7 1122   1.265   3.393  13.825  0.3651  0.3825 -0.4310
   73TMC2    C8 1123   1.252   3.486  13.392  0.0639  0.2967  0.0878
   73TMC2    O1 1124   1.306   3.282  13.798 -0.0074 -0.1975 -0.3167
   73TMC2    O2 1125   1.175   3.434  13.313 -0.0191 -0.0824 -0.0671
   73TMC2    O5 1126   1.366   3.551  13.359 -0.3903 -0.3555 -0.0959
   73TMC2    H5 1127   1.412   3.591  13.436 -3.6439  0.0182  1.6605
   74MPD2     C 1128   1.432   4.259  13.704 -0.2617  0.7744  0.2065
   74MPD2    C1 1129   1.461   4.149  13.787  0.6952  0.4743  0.4309
   74MPD2    C2 1130   1.386   4.031  13.769  0.1360 -0.3280  0.5619
   74MPD2    C3 1131   1.289   4.021  13.673  0.3068  0.0802  0.3870
   74MPD2    C4 1132   1.261   4.132  13.595  0.2040 -0.8170 -0.0897
   74MPD2    C5 1133   1.328   4.249  13.614  0.2386  0.6610  0.0474
   74MPD2     H 1134   1.418   3.945  13.828  1.2569  0.0470  0.5162
   74MPD2    H1 1135   1.178   4.124  13.526  1.4897  0.7932 -1.7933
   74MPD2    H2 1136   1.479   4.356  13.713  0.6034  0.3531  0.1670
   74MPD2    H3 1137   1.311   4.342  13.561 -0.3541  0.7058  0.3205
   74MPD2     N 1138   1.208   3.909  13.650  0.1670 -0.2714 -0.1936
   74MPD2    H5 1139   1.144   3.913  13.571  1.7812 -0.0037 -1.4911
   74MPD2    N1 1140   1.567   4.172  13.875  0.1436  0.0487  0.4861
   74MPD2    H7 1141   1.616   4.261  13.867 -0.3341  0.3897  1.4255
   75TCq2    C1 1142   1.528   0.892  13.930  0.1075  0.3650  0.1874
   75TCq2    O2 1143   1.587   0.942  14.026  0.2479  0.0093  0.7409
   75TCq2    C2 1144   1.465   0.981  13.838  0.0052  0.1379 -0.6481
   75TCq2    C3 1145   1.440   1.109  13.883 -0.5042  0.5212  0.6906
   75TCq2    C4 1146   1.339   1.179  13.817 -0.0298  0.0874  0.9779
   75TCq2    C5 1147   1.293   1.145  13.692 -0.2552 -0.0970 -0.0103
   75TCq2    C6 1148   1.334   1.018  13.653  0.4700 -0.0810  0.2442
   75TCq2    C7 1149   1.406   0.931  13.729  0.4177  0.0494 -0.2393
   75TCq2    C8 1150   1.273   0.959  13.533 -0.6607 -0.1932 -0.5092
   75TCq2    O4 1151   1.266   0.838  13.515  0.5257  0.4318 -0.6666
   75TCq2    C9 1152   1.287   1.286  13.892 -0.2397  0.0839  0.0215
   75TCq2    O5 1153   1.312   1.292  14.016 -0.1789  0.6872 -0.5693
   75TCq2    O6 1154   1.190   1.345  13.843  0.1409  0.5453 -0.1291
   75TCq2    H2 1155   1.474   1.144  13.980  2.0259  2.5958 -0.9046
   75TCq2    H3 1156   1.224   1.208  13.638  0.2822  0.7729  0.3220
   75TCq2    H4 1157   1.449   0.855  13.664  0.7057 -0.3617  0.4261
   76MPD2     C 1158   4.634   1.400  12.265 -0.1600  0.0850 -0.4863
   76MPD2    C1 1159   4.679   1.441  12.140 -0.1428  0.1522  0.2715
   76MPD2    C2 1160   0.093   1.440  12.110 -0.1596 -0.7863  0.3167
   76MPD2    C3 1161   0.188   1.402  12.209  0.1832 -0.6221 -0.1604
   76MPD2    C4 1162   0.142   1.358  12.333 -0.2812 -0.0343 -0.1041
   76MPD2    C5 1163   0.005   1.365  12.357  0.1916  0.0164 -0.1479
   76MPD2     H 1164   0.127   1.474  12.013 -4.6099  1.0202 -0.6118
   76MPD2    H1 1165   0.218   1.322  12.401  0.1709  0.1935 -0.4902
   76MPD2    H2 1166   4.527   1.394  12.284 -0.3767 -0.6348 -1.9520
   76MPD2    H3 1167   4.682   1.311  12.440  1.0302 -2.1951 -1.1194
   76MPD2     N 1168   0.326   1.396  12.188 -0.5053 -0.1717  0.2806
   76MPD2    H5 1169   0.392   1.370  12.261  0.6868  0.7783 -0.4387
   76MPD2    N1 1170   4.595   1.466  12.031 -0.4557  0.4228  0.0253
   76MPD2    H7 1171   4.637   1.464  11.938  1.6521  0.3663  0.9734
   77TCq2    C1 1172   0.392   1.430  12.075 -0.3058 -0.6295  0.5139
   77TCq2    O2 1173   0.354   1.489  11.975  0.0170 -0.6868 -0.3182
   77TCq2    C2 1174   0.534   1.417  12.084 -0.2671  0.0576 -0.9900
   77TCq2    C3 1175   0.615   1.497  12.009 -0.5265  0.6204 -0.8051
   77TCq2    C4 1176   0.749   1.473  12.000  0.0425 -0.2188 -0.3163
   77TCq2    C5 1177   0.802   1.379  12.077 -0.0117 -0.3746 -0.2236
   77TCq2    C6 1178   0.722   1.310  12.168 -0.2057  0.0307 -0.9871
   77TCq2    C7 1179   0.580   1.317  12.161  0.7325 -0.0148  0.2068
   77TCq2    C8 1180   0.790   1.215  12.251 -0.0558 -0.4757  0.3927
   77TCq2    O4 1181   0.891   1.159  12.210 -0.6643  0.4926 -0.3206
   77TCq2    C9 1182   0.843   1.558  11.919 -0.1728 -0.6660  0.2113
   77TCq2    O5 1183   0.795   1.658  11.862  0.4509  0.0559  0.3212
   77TCq2    O6 1184   0.957   1.508  11.892 -0.8558  0.3209 -0.2878
   77TCq2    H2 1185   0.572   1.573  11.945 -1.2642 -0.3843 -1.5029
   77TCq2    H3 1186   0.910   1.371  12.086 -0.0721 -0.8962  0.0111
   77TCq2    H4 1187   0.517   1.238  12.201 -0.0006  0.7588  0.5662
   78MPD1     C 1188   0.958   1.988   0.980  0.1940 -0.0180 -0.1263
   78MPD1    C1 1189   0.888   1.940   1.089 -0.2652  0.5802  0.6289
   78MPD1    C2 1190   0.937   1.826   1.147 -0.5318 -0.3014  0.0677
   78MPD1    C3 1191   1.059   1.769   1.114  0.9174  0.5048  0.5390
   78MPD1    C4 1192   1.128   1.819   1.005  0.0181 -0.2670  0.3962
   78MPD1    C5 1193   1.079   1.929   0.944  0.6192  0.2140  0.6644
   78MPD1     H 1194   0.888   1.782   1.233  2.5668 -0.8251  1.5952
   78MPD1    H1 1195   1.224   1.776   0.978  1.5017  3.3880 -0.1868
   78MPD1    H2 1196   0.918   2.067   0.919 -1.4476  1.1001  2.4090
   78MPD1    H3 1197   1.135   1.951   0.854  1.3234  2.2922  1.6233
   78MPD1     N 1198   1.119   1.659   1.187  0.6238  0.4289 -0.5828
   78MPD1    H5 1199   1.212   1.632   1.158  1.2885  0.3854  1.5650
   78MPD1    N1 1200   0.759   1.986   1.111  0.1478  0.9831  0.2737
   78MPD1    H6 1201   0.741   2.080   1.075  0.0578  0.4982 -0.9636
   78MPD1    H7 1202   0.733   1.982   1.209 -0.0620  0.0671  0.1785
   79TCq2    C1 1203   1.060   1.584   1.285 -0.7411 -0.9362 -0.3763
   79TCq2    O2 1204   0.949   1.597   1.342 -0.3998  0.2847 -0.0825
   79TCq2    C2 1205   1.149   1.493   1.343  0.2152  0.4792  0.6525
   79TCq2    C3 1206   1.101   1.411   1.438  0.5013 -0.9617  0.1656
   79TCq2    C4 1207   1.180   1.311   1.481  0.9026  0.0139 -0.0187
   79TCq2    C5 1208   1.308   1.298   1.441  0.3265  0.5397 -0.1778
   79TCq2    C6 1209   1.355   1.373   1.340 -0.1029 -0.4121 -0.2676
   79TCq2    C7 1210   1.273   1.471   1.293  0.0813  0.4649  0.7639
   79TCq2    C8 1211   1.496   1.384   1.305  0.0642 -0.0689 -0.4325
   79TCq2    O4 1212   1.530   1.464   1.216  0.3112  0.2881  0.1537
   79TCq2    C9 1213   1.123   1.217   1.580 -0.1453 -0.4722 -0.0717
   79TCq2    O5 1214   1.001   1.236   1.608  0.4069  0.3761 -0.3432
   79TCq2    O6 1215   1.208   1.172   1.663 -0.4476  0.8435 -0.0446
   79TCq2    H2 1216   0.997   1.421   1.468  0.0657 -1.8842 -1.0376
   79TCq2    H3 1217   1.359   1.214   1.485 -1.6062  0.8659  2.7139
   79TCq2    H4 1218   1.317   1.537   1.219 -0.9200 -0.1426 -0.3627
   80MPD2     C 1219   4.141   0.670  12.521  0.1103 -0.6803  0.6090
   80MPD2    C1 1220   4.069   0.664  12.410 -1.0679 -0.3650  0.2003
   80MPD2    C2 1221   3.931   0.678  12.414  0.0604  0.3548  0.0427
   80MPD2    C3 1222   3.869   0.705  12.538 -1.2728  0.0119  0.1303
   80MPD2    C4 1223   3.942   0.689  12.653  0.3765 -0.1141 -0.0779
   80MPD2    C5 1224   4.077   0.675  12.641  0.4608 -0.0071  0.1864
   80MPD2     H 1225   3.869   0.675  12.325 -0.3573  1.1138  0.3112
   80MPD2    H1 1226   3.900   0.706  12.751  1.2996  0.1214  0.2821
   80MPD2    H2 1227   4.248   0.652  12.514  0.1878  0.5862 -1.3898
   80MPD2    H3 1228   4.134   0.652  12.730  0.6219 -0.2871  0.0102
   80MPD2     N 1229   3.735   0.749  12.544  0.0571 -0.9555 -0.5523
   80MPD2    H5 1230   3.695   0.757  12.636  3.3087  0.1465  0.7904
   80MPD2    N1 1231   4.135   0.647  12.282  0.2392 -0.5138  0.0401
   80MPD2    H7 1232   4.076   0.624  12.204 -1.0888  2.6953  0.1167
   81TCq2    C1 1233   4.261   0.692  12.253 -0.0887 -0.1574  0.1870
   81TCq2    O2 1234   4.323   0.776  12.321 -0.5880  0.3129 -0.7122
   81TCq2    C2 1235   4.308   0.655  12.119 -0.3139  0.3200  0.6104
   81TCq2    C3 1236   4.418   0.717  12.065  0.1557  0.6188  0.0327
   81TCq2    C4 1237   4.454   0.698  11.930  0.4819 -0.5593  0.1301
   81TCq2    C5 1238   4.379   0.624  11.848  0.0596 -0.1913 -0.4869
   81TCq2    C6 1239   4.273   0.553  11.900 -0.0091 -0.6308 -0.7156
   81TCq2    C7 1240   4.236   0.566  12.038 -0.6656  0.0644 -0.9067
   81TCq2    C8 1241   4.212   0.450  11.820  0.0834  0.1713 -0.0733
   81TCq2    O4 1242   4.265   0.431  11.712  0.2069  0.9474 -1.0168
   81TCq2    C9 1243   4.569   0.772  11.887 -0.0369  0.1557 -0.7434
   81TCq2    O5 1244   4.611   0.755  11.768 -0.4936 -0.2867  0.6161
   81TCq2    O6 1245   4.630   0.844  11.967  0.0367 -0.4536  0.3131
   81TCq2    H2 1246   4.479   0.778  12.131  2.4444  0.0486 -1.5466
   81TCq2    H3 1247   4.411   0.615  11.745 -1.9163  0.8963 -1.1832
   81TCq2    H4 1248   4.152   0.514  12.083 -0.8132  0.9166 -0.1973
   82MPD2     C 1249   2.623   0.563  10.910 -0.2939  0.1988 -0.1570
   82MPD2    C1 1250   2.507   0.573  10.989  0.3656  0.0198 -0.4606
   82MPD2    C2 1251   2.513   0.530  11.118  0.3903  0.1186  0.1906
   82MPD2    C3 1252   2.633   0.478  11.164  0.2260 -0.0905 -0.2039
   82MPD2    C4 1253   2.747   0.481  11.089 -1.0268 -0.7182  0.3439
   82MPD2    C5 1254   2.746   0.525  10.963 -0.2989  0.7246  0.4969
   82MPD2     H 1255   2.425   0.527  11.181 -0.7325  0.3006 -1.3646
   82MPD2    H1 1256   2.837   0.444  11.137 -1.1914 -0.7818  0.6058
   82MPD2    H2 1257   2.628   0.583  10.803 -0.5179  0.5536 -0.1019
   82MPD2    H3 1258   2.843   0.526  10.915 -0.0451  0.7468  1.0124
   82MPD2     N 1259   2.639   0.403  11.282 -0.4117 -0.1004 -0.5080
   82MPD2    H5 1260   2.729   0.358  11.290 -0.6487 -0.6248 -0.7945
   82MPD2    N1 1261   2.384   0.614  10.938  0.5001 -0.6004  0.2501
   82MPD2    H7 1262   2.304   0.622  11.000  1.8244  0.1205  1.8674
   83TCq2    C1 1263   2.534   0.378  11.373  0.5602  0.2016  0.1298
   83TCq2    O2 1264   2.421   0.418  11.369 -0.5526 -0.1714  0.2279
   83TCq2    C2 1265   2.566   0.271  11.460 -0.1574  0.1390  0.2504
   83TCq2    C3 1266   2.698   0.228  11.451 -0.6354 -0.4788  0.3686
   83TCq2    C4 1267   2.720   0.093  11.471 -0.2869  0.2747 -0.1329
   83TCq2    C5 1268   2.620   0.004  11.485 -0.0244 -0.4120  0.9782
   83TCq2    C6 1269   2.496   0.048  11.477  0.2232 -0.3868  0.2769
   83TCq2    C7 1270   2.464   0.180  11.471 -0.1356 -0.0332 -1.1718
   83TCq2    C8 1271   2.383   4.674  11.487  0.3200  0.3359  0.1226
   83TCq2    O4 1272   2.405   4.556  11.508  0.4783  0.1429  0.5928
   83TCq2    C9 1273   2.848   0.039  11.456  0.7453  0.2141 -0.1603
   83TCq2    O5 1274   2.946   0.119  11.441 -0.0302 -0.6871  0.5557
   83TCq2    O6 1275   2.860   4.636  11.448 -0.1058 -0.2724 -0.4028
   83TCq2    H2 1276   2.780   0.298  11.440 -1.5633  0.3903 -0.8729
   83TCq2    H3 1277   2.636   4.618  11.479  1.2691 -0.2778  2.0315
   83TCq2    H4 1278   2.361   0.213  11.483 -0.4843 -0.8602 -1.8719
   84TCq2    C1 1279   3.778   3.684  10.435  0.2897 -0.3202  0.2996
   84TCq2    O2 1280   3.712   3.602  10.498 -0.1562  0.5055  0.2034
   84TCq2    C2 1281   3.809   3.799  10.512 -0.6036 -0.0831 -0.1439
   84TCq2    C3 1282   3.937   3.837  10.509 -0.5404 -0.4834 -0.1622
   84TCq2    C4 1283   3.988   3.922  10.607  0.0716 -0.2063  0.0821
   84TCq2    C5 1284   3.913   3.955  10.718 -0.0993  1.5128  0.0491
   84TCq2    C6 1285   3.788   3.900  10.720 -0.5070  0.3414 -0.0984
   84TCq2    C7 1286   3.729   3.833  10.617 -0.0407 -0.2442  0.1874
   84TCq2    C8 1287   3.711   3.942  10.838 -0.0498 -0.6723  0.4274
   84TCq2    O4 1288   3.760   4.025  10.910  0.3251 -1.1247  0.1815
   84TCq2    C9 1289   4.127   3.960  10.598  0.1066  0.9724 -0.7256
   84TCq2    O5 1290   4.165   4.040  10.684 -0.5105 -0.8849  0.5811
   84TCq2    O6 1291   4.203   3.917  10.510  0.2668  0.2724 -0.2416
   84TCq2    H2 1292   4.003   3.781  10.444  0.9912  0.4978  0.5305
   84TCq2    H3 1293   3.961   4.021  10.790  0.8147  1.5875 -0.6200
   84TCq2    H4 1294   3.628   3.795  10.621  0.5019 -1.7645 -0.5227
   85MPD2     C 1295   4.349   1.675  16.359  0.3721 -0.0608 -0.5191
   85MPD2    C1 1296   4.249   1.705  16.266 -0.5208  0.3769 -0.4630
   85MPD2    C2 1297   4.275   1.812  16.181  0.2908  0.0348  0.2977
   85MPD2    C3 1298   4.390   1.888  16.184  0.0440  0.3117  0.3830
   85MPD2    C4 1299   4.491   1.847  16.273  0.1539  0.4079 -0.1406
   85MPD2    C5 1300   4.471   1.737  16.359 -0.0229  0.1732  0.7095
   85MPD2     H 1301   4.197   1.845  16.113 -0.1387 -0.1131  0.7141
   85MPD2    H1 1302   4.593   1.885  16.271  0.6042 -0.7439  1.2502
   85MPD2    H2 1303   4.333   1.593  16.429 -0.4430 -0.0199 -0.6594
   85MPD2    H3 1304   4.543   1.700  16.432  1.8775  0.0032 -1.2700
   85MPD2     N 1305   4.407   1.998  16.093 -0.0471  0.0132 -0.2051
   85MPD2    H5 1306   4.335   2.016  16.024 -1.0127 -0.6537  0.6371
   85MPD2    N1 1307   4.117   1.646  16.248  0.2311  0.4279 -0.0250
   85MPD2    H7 1308   4.066   1.652  16.161  2.8813  2.1379 -1.4872
   86TCq2    C1 1309   4.527   2.071  16.081  0.0210  0.1421 -0.0443
   86TCq2    O2 1310   4.636   2.045  16.123  0.1370 -0.3590 -0.0987
   86TCq2    C2 1311   4.506   2.176  15.997 -0.9981 -0.5787 -0.1123
   86TCq2    C3 1312   4.384   2.243  16.003 -0.1784  0.2797 -0.1620
   86TCq2    C4 1313   4.363   2.360  15.933 -1.1214  0.0451 -0.6860
   86TCq2    C5 1314   4.464   2.416  15.864 -0.3505  0.4762 -0.1900
   86TCq2    C6 1315   4.589   2.352  15.864  0.1017  0.4823 -0.0250
   86TCq2    C7 1316   4.613   2.236  15.935 -0.4632  0.1605  0.9996
   86TCq2    C8 1317   4.677   2.361  15.756 -0.3153 -0.1088  0.0066
   86TCq2    O4 1318   0.064   2.301  15.769  0.4363 -0.6967 -0.5542
   86TCq2    C9 1319   4.228   2.422  15.941 -0.2787 -0.0650  0.4246
   86TCq2    O5 1320   4.137   2.369  16.004  1.3496 -0.1867  0.1063
   86TCq2    O6 1321   4.209   2.524  15.869 -0.0035  0.2281  0.7160
   86TCq2    H2 1322   4.303   2.209  16.066 -0.4272  1.6714  0.2638
   86TCq2    H3 1323   4.451   2.516  15.824 -1.6061  1.0543  1.6197
   86TCq2    H4 1324   4.697   2.168  15.928 -1.3695 -0.7522 -0.9367
   87MPD2     C 1325   1.546   1.025   1.114 -0.6379 -0.1919 -0.7193
   87MPD2    C1 1326   1.472   0.943   1.197  0.2329 -0.0263  0.5186
   87MPD2    C2 1327   1.339   0.970   1.215  0.3935  1.2463 -0.2125
   87MPD2    C3 1328   1.275   1.081   1.154  0.7321 -0.5482  0.1064
   87MPD2    C4 1329   1.346   1.157   1.066  0.1356 -0.4422  0.0373
   87MPD2    C5 1330   1.482   1.128   1.041 -0.3267 -0.2621  0.9512
   87MPD2     H 1331   1.293   0.905   1.288  0.1590  2.3459  0.6230
   87MPD2    H1 1332   1.310   1.253   1.031  1.9340  0.1380 -0.2429
   87MPD2    H2 1333   1.650   1.009   1.090 -0.3137  2.7692 -1.2514
   87MPD2    H3 1334   1.539   1.199   0.982 -2.1785  0.4031 -0.0346
   87MPD2     N 1335   1.138   1.112   1.165 -0.1818 -0.4019 -0.3811
   87MPD2    H5 1336   1.103   1.189   1.108  0.4404 -1.7224 -2.5274
   87MPD2    N1 1337   1.547   0.847   1.272 -0.2677  0.2977  0.5766
   87MPD2    H7 1338   1.637   0.815   1.239 -1.9042  0.2205 -3.7013
   88TCq2    C1 1339   1.502   0.792   1.391 -0.4169  0.8782 -0.1297
   88TCq2    O2 1340   1.410   0.822   1.466  0.3370  0.2408 -0.0073
   88TCq2    C2 1341   1.601   0.697   1.441 -0.0442  0.2390 -0.2568
   88TCq2    C3 1342   1.603   0.669   1.578 -0.5351  0.0338  0.0423
   88TCq2    C4 1343   1.686   0.585   1.641  0.1388 -0.0761 -0.9008
   88TCq2    C5 1344   1.780   0.523   1.559 -0.1860 -0.0513 -0.2662
   88TCq2    C6 1345   1.777   0.542   1.422 -0.3416 -0.2779 -0.2607
   88TCq2    C7 1346   1.693   0.635   1.356  0.2247 -0.2304 -0.2403
   88TCq2    C8 1347   1.861   0.469   1.327 -0.4247  0.5014  0.4114
   88TCq2    O4 1348   1.826   0.439   1.214 -0.3077  0.5747 -0.6095
   88TCq2    C9 1349   1.702   0.588   1.785  0.5886 -0.2969 -0.1904
   88TCq2    O5 1350   1.619   0.655   1.850  0.0471 -0.0246  0.4683
   88TCq2    O6 1351   1.806   0.550   1.843  0.2264 -0.2386 -0.3158
   88TCq2    H2 1352   1.534   0.724   1.641  1.0764  0.4434  1.4744
   88TCq2    H3 1353   1.835   0.445   1.611 -0.5520 -0.3657 -0.3428
   88TCq2    H4 1354   1.684   0.626   1.248  1.9517 -3.8163 -0.1063
   89MPD2     C 1355   3.076   3.498   1.750  0.0058 -0.9922 -0.2135
   89MPD2    C1 1356   3.009   3.603   1.811  0.8806  0.4654 -0.7693
   89MPD2    C2 1357   3.086   3.715   1.853 -0.1642  0.0358  0.0525
   89MPD2    C3 1358   3.223   3.719   1.840 -0.3819 -1.0151  0.0151
   89MPD2    C4 1359   3.285   3.611   1.778 -0.1906 -0.6710  0.2792
   89MPD2    C5 1360   3.214   3.503   1.735  0.6847 -0.4247 -0.2225
   89MPD2     H 1361   3.026   3.788   1.906  1.0919  0.9439  0.2207
   89MPD2    H1 1362   3.392   3.600   1.764  0.0433 -1.1748  2.5656
   89MPD2    H2 1363   3.048   3.397   1.721  0.7750 -1.4104  0.4975
   89MPD2    H3 1364   3.266   3.424   1.682  0.8854  1.1063 -2.3168
   89MPD2     N 1365   3.290   3.839   1.887 -0.1220 -0.2288  0.3298
   89MPD2    H5 1366   3.232   3.911   1.929 -0.7970  0.3121 -1.5531
   89MPD2    N1 1367   2.866   3.601   1.831 -0.0044  1.0274  0.1899
   89MPD2    H7 1368   2.818   3.678   1.876  1.6829  2.1171  0.1326
   90TCq2    C1 1369   3.432   3.865   1.879 -0.4862  0.4975 -0.3073
   90TCq2    O2 1370   3.522   3.782   1.857 -0.3122  0.3162  0.4105
   90TCq2    C2 1371   3.456   4.007   1.877  0.3148  0.5641  0.1471
   90TCq2    C3 1372   3.589   4.047   1.894 -0.6865  0.2948  0.3456
   90TCq2    C4 1373   3.614   4.177   1.863 -0.4241 -0.1402 -0.2257
   90TCq2    C5 1374   3.524   4.260   1.807 -0.3692  0.1115  0.0890
   90TCq2    C6 1375   3.400   4.212   1.772 -0.5548 -0.6656 -0.0195
   90TCq2    C7 1376   3.362   4.095   1.829 -0.2442  0.0198  0.0565
   90TCq2    C8 1377   3.291   4.286   1.700  0.4950  0.1472 -0.0130
   90TCq2    O4 1378   3.177   4.242   1.710  0.2547 -0.2526 -0.4996
   90TCq2    C9 1379   3.748   4.230   1.859 -0.4793 -0.3282 -0.5889
   90TCq2    O5 1380   3.770   4.350   1.834 -0.1792 -0.0038 -0.3055
   90TCq2    O6 1381   3.827   4.148   1.912  0.2117  0.4538  0.7953
   90TCq2    H2 1382   3.668   3.976   1.912 -0.1633 -0.4208 -4.8041
   90TCq2    H3 1383   3.560   4.355   1.769 -1.5835  0.6246  0.2064
   90TCq2    H4 1384   3.264   4.051   1.813 -0.0646 -0.7171  0.9620
   91TMC2    C1 1385   4.280   3.540  16.410 -0.1762  0.2568  0.8669
   91TMC2    C2 1386   4.317   3.636  16.498 -0.2126  0.4383  1.0074
   91TMC2    C3 1387   4.228   3.673  16.596  0.2308 -0.5448  0.9169
   91TMC2    C4 1388   4.155   3.484  16.415 -0.0298  0.8946 -0.1474
   91TMC2    C5 1389   4.071   3.519  16.519 -0.0368  0.3413  0.7477
   91TMC2    C6 1390   4.106   3.617  16.610  0.2220 -0.9435 -0.1290
   91TMC2     C 1391   4.374   3.502  16.307  0.4783  0.1874 -0.4758
   91TMC2     O 1392   4.318   3.478  16.203 -0.6052  0.1564 -0.2488
   91TMC2     H 1393   4.406   3.694  16.478 -0.8744  1.0904 -0.0705
   91TMC2    H1 1394   4.134   3.403  16.346 -1.0984  0.5213  0.6163
   91TMC2    H2 1395   4.042   3.651  16.690 -0.9031  0.6966 -1.7075
   91TMC2    C7 1396   3.956   3.438  16.540 -0.2931 -0.1015 -0.2371
   91TMC2    C8 1397   4.251   3.799  16.678 -0.2441 -0.0795 -0.4019
   91TMC2    O1 1398   3.898   3.445  16.646 -0.1443 -0.1127  0.1750
   91TMC2    O2 1399   4.160   3.863  16.729 -0.2206  0.1276  0.6127
   91TMC2    O5 1400   4.373   3.853  16.646  0.2696  0.1312  0.2815
   91TMC2    H5 1401   4.443   3.787  16.628 -0.7430 -0.9682  0.4201
   92MPD2     C 1402   4.588   3.366  16.161  0.1480  0.1096 -0.1081
   92MPD2    C1 1403   4.606   3.435  16.280 -0.9080  0.1474 -0.7650
   92MPD2    C2 1404   0.015   3.449  16.333  1.0652 -0.7869 -0.2744
   92MPD2    C3 1405   0.127   3.396  16.264 -0.3507  0.2477  0.1445
   92MPD2    C4 1406   0.110   3.317  16.150  0.0665 -0.3300 -0.1605
   92MPD2    C5 1407   4.703   3.302  16.107 -0.1255 -0.7351  0.5169
   92MPD2     H 1408   0.036   3.511  16.419 -2.6617 -0.7387  0.5949
   92MPD2    H1 1409   0.195   3.270  16.101  1.5651  0.8475  1.3080
   92MPD2    H2 1410   4.494   3.368  16.108  0.9725  0.1418 -1.5788
   92MPD2    H3 1411   4.689   3.244  16.016 -0.9685 -0.1043  0.2463
   92MPD2     N 1412   0.257   3.432  16.317 -0.0509  0.6489 -0.3841
   92MPD2    H5 1413   0.252   3.495  16.397 -1.7374 -0.1892  0.1837
   92MPD2    N1 1414   4.503   3.503  16.344  0.6277 -0.2073  0.2025
   92MPD2    H7 1415   4.530   3.549  16.431 -2.8117 -0.4620  1.4113
   93MPD2     C 1416   1.343   2.970  13.416  0.1850 -0.0971  0.3104
   93MPD2    C1 1417   1.314   3.059  13.519  0.3372  0.1389 -0.6288
   93MPD2    C2 1418   1.182   3.077  13.561  0.4633  0.3559 -0.2758
   93MPD2    C3 1419   1.080   3.004  13.504  0.0279  0.0912 -0.6780
   93MPD2    C4 1420   1.111   2.898  13.421  0.8304  0.3287  0.2142
   93MPD2    C5 1421   1.242   2.888  13.377 -0.1536 -0.1662  0.5343
   93MPD2     H 1422   1.172   3.139  13.649 -1.3256 -0.6860  0.2682
   93MPD2    H1 1423   1.044   2.823  13.381 -0.5924  0.3801  2.4842
   93MPD2    H2 1424   1.442   2.933  13.391  0.7548  1.3538  0.4117
   93MPD2    H3 1425   1.273   2.806  13.313  1.5325  1.0910 -0.2742
   93MPD2     N 1426   0.941   3.029  13.534  0.3735  0.3544 -0.1218
   93MPD2    H5 1427   0.874   2.980  13.476 -0.7170  1.5494  0.1157
   93MPD2    N1 1428   1.408   3.149  13.572 -0.3904 -0.2537 -0.0753
   93MPD2    H7 1429   1.369   3.203  13.648  0.5094  1.0331 -0.5314
   94TCq2    C1 1430   1.539   3.158  13.534 -0.6117  0.8352  0.7498
   94TCq2    O2 1431   1.601   3.106  13.440 -0.4965  0.0251 -0.4934
   94TCq2    C2 1432   1.606   3.249  13.614  1.0322  0.4636 -0.1186
   94TCq2    C3 1433   1.570   3.376  13.601 -0.1527  0.5257 -0.0575
   94TCq2    C4 1434   1.654   3.483  13.624  0.0585 -0.0687 -0.6664
   94TCq2    C5 1435   1.780   3.458  13.666  0.3380 -0.0328  0.6501
   94TCq2    C6 1436   1.817   3.326  13.680 -0.1718  0.0248  0.2711
   94TCq2    C7 1437   1.733   3.218  13.655 -0.6974 -0.8401 -0.0617
   94TCq2    C8 1438   1.947   3.293  13.730 -0.0880 -0.0781 -0.1490
   94TCq2    O4 1439   1.991   3.183  13.702 -0.2324  0.2035  0.2074
   94TCq2    C9 1440   1.599   3.618  13.604  0.8815 -0.5141 -0.1077
   94TCq2    O5 1441   1.480   3.639  13.569 -0.3588 -0.2245  0.1066
   94TCq2    O6 1442   1.690   3.705  13.577  0.5998 -0.0709 -0.2172
   94TCq2    H2 1443   1.467   3.396  13.576 -0.6962 -0.6298  1.2540
   94TCq2    H3 1444   1.840   3.543  13.697 -0.9660  0.7602  0.9786
   94TCq2    H4 1445   1.763   3.114  13.658 -0.7211 -0.8862 -1.9037
   95TMC2    C1 1446   1.279   0.518  16.304 -0.2683  0.0519  0.4436
   95TMC2    C2 1447   1.226   0.481  16.426  0.8828 -0.4456  0.1138
   95TMC2    C3 1448   1.231   0.579  16.525 -0.5699  0.1935  0.2109
   95TMC2    C4 1449   1.345   0.639  16.285 -0.4856  0.0132  0.3072
   95TMC2    C5 1450   1.341   0.738  16.386  0.5138 -0.4482  0.2834
   95TMC2    C6 1451   1.284   0.707  16.509  0.3811 -0.4960 -0.1371
   95TMC2     C 1452   1.305   0.414  16.200  0.0107 -0.2036 -0.0427
   95TMC2     O 1453   1.345   0.458  16.093 -0.0410  0.0139  0.4567
   95TMC2     H 1454   1.175   0.387  16.445 -1.5754  0.7936 -0.3596
   95TMC2    H1 1455   1.378   0.675  16.188 -0.0496  4.5452  2.1534
   95TMC2    H2 1456   1.263   0.781  16.585  2.2472  1.1006 -1.1846
   95TMC2    C7 1457   1.413   0.864  16.366 -0.0232  0.7746  1.2014
   95TMC2    C8 1458   1.175   0.548  16.656  0.2627 -0.8808  0.0456
   95TMC2    O1 1459   1.458   0.877  16.252  0.1463  0.0724 -0.0028
   95TMC2    O2 1460   1.170   0.432  16.699 -0.3150  0.2401  0.4477
   95TMC2    O5 1461   1.086   0.644  16.668  0.0873  0.2576  0.5184
   95TMC2    H5 1462   1.076   0.699  16.588  0.6388 -0.2858  0.0716
   96MPD2     C 1463   1.334   4.648  16.023  0.4227 -0.3824  0.4403
   96MPD2    C1 1464   1.375   0.044  15.964 -0.0727  0.0641 -0.4731
   96MPD2    C2 1465   1.366   0.164  16.040  0.9619 -0.7520 -0.1047
   96MPD2    C3 1466   1.307   0.169  16.166  0.5479  0.0640  0.0837
   96MPD2    C4 1467   1.278   0.046  16.222  0.0270  0.4643 -0.6369
   96MPD2    C5 1468   1.290   4.643  16.152 -0.2177 -0.1922 -1.0364
   96MPD2     H 1469   1.418   0.252  16.002  3.0074 -1.1439  1.7734
   96MPD2    H1 1470   1.233   0.041  16.321 -1.7421 -0.6145 -1.5027
   96MPD2    H2 1471   1.353   4.548  15.983 -0.3907 -0.2041 -0.3860
   96MPD2    H3 1472   1.265   4.549  16.199 -0.9143  0.5161  0.0183
   96MPD2     N 1473   1.288   0.283  16.244 -0.7970  0.3983 -1.1315
   96MPD2    H5 1474   1.260   0.268  16.340  0.6920  0.9836 -0.5957
   96MPD2    N1 1475   1.443   0.034  15.841  0.4017  0.3812 -0.1246
   96MPD2    H7 1476   1.474   4.671  15.794  0.8029  1.3624 -1.6276
   97MPD2     C 1477   2.986   2.752   0.351 -0.0709 -0.8282 -0.0388
   97MPD2    C1 1478   3.079   2.845   0.391  0.1596 -0.3647  0.3188
   97MPD2    C2 1479   3.133   2.927   0.292  0.2422 -0.6355 -0.0392
   97MPD2    C3 1480   3.096   2.922   0.156 -0.1480 -0.0842  0.0031
   97MPD2    C4 1481   3.012   2.814   0.119 -0.7632  0.7323 -0.0716
   97MPD2    C5 1482   2.966   2.725   0.213 -0.0552 -0.0394  0.3444
   97MPD2     H 1483   3.188   3.017   0.317  0.4761 -0.7601 -0.1035
   97MPD2    H1 1484   2.972   2.803   0.018  1.4487  0.9943 -0.9826
   97MPD2    H2 1485   2.935   2.690   0.424 -5.1759  0.9007 -2.1417
   97MPD2    H3 1486   2.896   2.646   0.187 -0.2677  0.5162 -0.7886
   97MPD2     N 1487   3.139   3.003   0.052 -0.3706 -0.1156  0.8726
   97MPD2    H5 1488   3.100   2.998  17.644 -0.6026 -0.4686  0.9904
   97MPD2    N1 1489   3.088   2.866   0.529 -0.1299 -0.6139  0.3997
   97MPD2    H7 1490   3.024   2.815   0.589 -0.9139  1.5932  1.4537
   98TCq2    C1 1491   3.243   3.095   0.063  0.3966 -0.1715  0.4184
   98TCq2    O2 1492   3.299   3.141   0.166 -0.4631 -0.1812  0.5129
   98TCq2    C2 1493   3.289   3.146  17.624  0.3888 -0.0849 -0.1643
   98TCq2    C3 1494   3.213   3.146  17.510  0.7699 -0.8572  1.1629
   98TCq2    C4 1495   3.261   3.201  17.396 -0.0017  0.3151 -0.1217
   98TCq2    C5 1496   3.395   3.237  17.383  0.0319 -0.5245 -0.6513
   98TCq2    C6 1497   3.470   3.233  17.501 -0.2284  0.4124  0.3393
   98TCq2    C7 1498   3.418   3.192  17.617  0.1499  0.9191 -0.0981
   98TCq2    C8 1499   3.578   3.323  17.520 -0.0111  0.4400  0.1772
   98TCq2    O4 1500   3.676   3.284  17.578 -0.4890  0.1017 -0.1380
   98TCq2    C9 1501   3.175   3.221  17.279 -0.6410 -0.4077 -0.1726
   98TCq2    O5 1502   3.230   3.284  17.182  0.3969 -0.4400  0.1543
   98TCq2    O6 1503   3.053   3.193  17.294 -0.7342  0.5120 -0.5696
   98TCq2    H2 1504   3.106   3.134  17.495  0.6165  1.5703  0.3951
   98TCq2    H3 1505   3.442   3.278  17.294 -0.8460  0.1914 -0.7842
   98TCq2    H4 1506   3.472   3.184   0.025 -0.2719 -2.7199 -0.1645
   99MPD2     C 1507   2.638   4.589   2.145 -0.3509  0.3415  0.0921
   99MPD2    C1 1508   2.548   4.495   2.121  0.9100 -0.1826  0.6688
   99MPD2    C2 1509   2.549   4.431   1.998  0.4756  0.2407 -1.2577
   99MPD2    C3 1510   2.644   4.463   1.905 -0.4329  0.1649 -0.3572
   99MPD2    C4 1511   2.736   4.559   1.929 -0.0466 -0.6356 -0.1549
   99MPD2    C5 1512   2.728   4.625   2.045 -0.9058  0.6078 -0.0769
   99MPD2     H 1513   2.472   4.356   1.982  0.4488 -0.7926  3.8798
   99MPD2    H1 1514   2.804   4.603   1.856 -0.8743  1.2356  0.1968
   99MPD2    H2 1515   2.654   4.641   2.238 -0.2445 -0.5344  0.5652
   99MPD2    H3 1516   2.795   4.709   2.050 -0.3024  0.1261 -0.0884
   99MPD2     N 1517   2.642   4.387   1.788  0.4295 -0.1159 -0.3162
   99MPD2    H5 1518   2.559   4.329   1.778  0.3984  0.1503 -1.5439
   99MPD2    N1 1519   2.458   4.456   2.219 -0.0725 -0.6605 -0.5654
   99MPD2    H7 1520   2.397   4.379   2.193  0.0497 -0.8665 -0.2319
  100TCq2    C1 1521   2.455   4.498   2.347  0.4133 -0.4028 -0.4689
  100TCq2    O2 1522   2.533   4.576   2.399 -0.0903  0.6813 -0.1505
  100TCq2    C2 1523   2.348   4.443   2.434  0.3226 -0.1273  0.4623
  100TCq2    C3 1524   2.369   4.431   2.571  0.1546 -0.0077  0.5077
  100TCq2    C4 1525   2.292   4.349   2.648  1.2208  0.4373  0.6082
  100TCq2    C5 1526   2.198   4.274   2.589 -0.3750  0.0853 -0.5679
  100TCq2    C6 1527   2.169   4.289   2.453 -0.2812 -0.0755  0.5378
  100TCq2    C7 1528   2.246   4.378   2.375  0.5732  0.4476  0.5954
  100TCq2    C8 1529   2.064   4.198   2.406  0.1090 -0.3497  0.2428
  100TCq2    O4 1530   2.021   4.112   2.488 -0.2713 -0.3117  0.1195
  100TCq2    C9 1531   2.327   4.339   2.795 -0.3776 -0.4211 -0.4742
  100TCq2    O5 1532   2.414   4.422   2.837 -0.1698 -0.3474 -0.1825
  100TCq2    O6 1533   2.266   4.249   2.858  0.2040  0.0305  0.3448
  100TCq2    H2 1534   2.456   4.473   2.619 -0.4341  0.7323  0.9263
  100TCq2    H3 1535   2.145   4.203   2.652 -0.2371  1.1808  0.7918
  100TCq2    H4 1536   2.225   4.397   2.270  1.8122 -3.0987 -0.3017
  101MPD2     C 1537   2.682   0.646  12.913 -0.1966 -0.7857  0.0204
  101MPD2    C1 1538   2.570   0.715  12.957 -0.0302 -0.2167  0.4204
  101MPD2    C2 1539   2.500   0.673  13.071 -0.7520 -0.6365 -0.1248
  101MPD2    C3 1540   2.559   0.577  13.148  0.2765 -0.3904  0.0636
  101MPD2    C4 1541   2.665   0.509  13.103 -0.0665  0.8112 -0.6868
  101MPD2    C5 1542   2.722   0.534  12.982  0.8406  0.3156 -0.1578
  101MPD2     H 1543   2.408   0.721  13.101 -0.5063  0.0107 -0.3971
  101MPD2    H1 1544   2.706   0.421  13.152  0.7576  0.8774 -1.2530
  101MPD2    H2 1545   2.749   0.679  12.835 -0.3306  2.3121  1.2437
  101MPD2    H3 1546   2.802   0.470  12.948  0.1578  0.2673 -1.6631
  101MPD2     N 1547   2.499   0.542  13.270  0.0437 -0.2286  0.0299
  101MPD2    H5 1548   2.404   0.572  13.289  0.1020 -0.6537  1.0231
  101MPD2    N1 1549   2.525   0.820  12.871 -0.1165 -0.3946  0.1467
  101MPD2    H7 1550   2.553   0.818  12.774  2.2118  0.6866  0.7840
  102TCq2    C1 1551   2.600   1.157  12.505 -0.2880 -0.1542  0.3977
  102TCq2    O2 1552   2.713   1.126  12.541 -0.3282  0.4286  0.6861
  102TCq2    C2 1553   2.487   1.084  12.571  0.3329  0.4805  0.9440
  102TCq2    C3 1554   2.364   1.106  12.527 -0.6330  0.0883  0.1831
  102TCq2    C4 1555   2.261   1.069  12.608  0.1603 -0.0640  0.1898
  102TCq2    C5 1556   2.271   1.010  12.732  0.3453  0.4150  0.4695
  102TCq2    C6 1557   2.396   0.984  12.775  0.0734  0.1126 -0.4539
  102TCq2    C7 1558   2.507   1.032  12.701 -0.2014  0.0083 -0.0146
  102TCq2    C8 1559   2.423   0.907  12.894  0.6049  0.0586 -0.3319
  102TCq2    O4 1560   2.337   0.906  12.982 -0.3667 -0.7574 -0.5054
  102TCq2    C9 1561   2.124   1.088  12.566 -0.4099  0.5588  0.2659
  102TCq2    O5 1562   2.102   1.138  12.453 -0.5271 -0.0533  0.5611
  102TCq2    O6 1563   2.033   1.058  12.649  0.0189  0.4303  0.0600
  102TCq2    H2 1564   2.351   1.140  12.425 -2.1495 -0.3618  0.2250
  102TCq2    H3 1565   2.187   0.983  12.795  1.3575 -1.2793  1.0885
  102TCq2    H4 1566   2.606   1.019  12.743 -0.7799 -1.4431  0.8629
  103TMC2    C1 1567   0.505   1.080  12.981 -0.9088 -0.2156  0.5773
  103TMC2    C2 1568   0.369   1.092  13.011 -0.9293  0.1128 -0.5809
  103TMC2    C3 1569   0.325   1.117  13.142 -0.3831  0.4099 -0.4091
  103TMC2    C4 1570   0.595   1.092  13.079  0.1116 -0.0582  0.5427
  103TMC2    C5 1571   0.550   1.111  13.206 -0.2292  0.3227 -0.3071
  103TMC2    C6 1572   0.417   1.135  13.248  0.0907 -0.1609 -0.5643
  103TMC2     C 1573   0.541   1.072  12.842 -0.2699 -0.3504  0.6973
  103TMC2     O 1574   0.454   1.107  12.765 -0.0027  0.0442 -0.3548
  103TMC2     H 1575   0.297   1.084  12.931 -0.1634 -1.2039 -1.1184
  103TMC2    H1 1576   0.703   1.099  13.068 -0.0286 -0.5128 -1.1739
  103TMC2    H2 1577   0.381   1.159  13.348 -2.7176  0.9985 -1.8248
  103TMC2    C7 1578   0.644   1.102  13.308  0.0753  0.1834 -0.5273
  103TMC2    C8 1579   0.184   1.108  13.159  0.7270 -0.6090  0.2120
  103TMC2    O1 1580   0.651   1.180  13.402 -0.1123 -0.5353 -0.1275
  103TMC2    O2 1581   0.100   1.116  13.074  0.0603  0.3763 -0.1572
  103TMC2    O5 1582   0.148   1.052  13.275 -0.4262 -0.1907  0.2478
  103TMC2    H5 1583   0.218   1.035  13.342 -0.5518  0.2483  0.4953
  104MPD2     C 1584   0.871   1.009  12.707  0.4898 -0.3528  0.1722
  104MPD2    C1 1585   0.745   1.051  12.701 -0.4007 -0.7664 -0.1784
  104MPD2    C2 1586   0.699   1.125  12.591 -0.0522  0.1588 -0.1820
  104MPD2    C3 1587   0.785   1.138  12.484  0.4264  0.2037 -0.4137
  104MPD2    C4 1588   0.907   1.081  12.491 -0.0897  0.2020 -0.4791
  104MPD2    C5 1589   0.955   1.024  12.604 -0.3004 -0.6071  0.1962
  104MPD2     H 1590   0.603   1.175  12.584 -0.5196 -0.8453 -0.9922
  104MPD2    H1 1591   0.980   1.091  12.412  0.2947  1.6129  0.0355
  104MPD2    H2 1592   0.921   0.961  12.790  3.0744 -0.5868 -1.5308
  104MPD2    H3 1593   1.055   0.987  12.618  0.1952 -0.1414 -2.1196
  104MPD2     N 1594   0.728   1.205  12.370  0.5323  0.2099 -0.1943
  104MPD2    H5 1595   0.636   1.247  12.384  1.2296  0.7713  2.9019
  104MPD2    N1 1596   0.672   1.041  12.822  0.3108  0.0334 -0.4068
  104MPD2    H7 1597   0.708   1.003  12.909  3.7636  0.0607 -1.8319
  105MPD2     C 1598   2.738   4.645   0.099 -0.3632  0.0097 -0.2178
  105MPD2    C1 1599   2.624   4.715   0.067  0.1785  0.8224  0.5237
  105MPD2    C2 1600   2.521   0.014   0.160 -0.0106 -0.2618 -0.1316
  105MPD2    C3 1601   2.537   4.681   0.287  0.1318 -0.9069 -1.0812
  105MPD2    C4 1602   2.652   4.613   0.322  0.8479 -0.2434 -0.4629
  105MPD2    C5 1603   2.755   4.596   0.225  0.5512  0.2854  0.2244
  105MPD2     H 1604   2.433   0.068   0.130 -0.7796 -0.7806  1.1842
  105MPD2    H1 1605   2.676   4.573   0.420  1.8052 -1.5756 -1.2429
  105MPD2    H2 1606   2.822   4.639   0.030  0.4734 -0.8556  0.8875
  105MPD2    H3 1607   2.850   4.559   0.263  0.5238  0.1186  0.1343
  105MPD2     N 1608   2.444   0.004   0.385 -0.2617 -0.5986 -0.0715
  105MPD2    H5 1609   2.375   0.062   0.338 -0.0860  0.4031  0.8969
  105MPD2    N1 1610   2.593   0.056  17.628  0.3651 -0.2035  1.0111
  105MPD2    H7 1611   2.508   0.112  17.629  0.1344 -0.4945 -3.1239
  106TCq2    C1 1612   2.442   4.686   0.518  0.7324 -0.2115 -1.1727
  106TCq2    O2 1613   2.510   4.611   0.583  0.6348 -0.6079  0.6893
  106TCq2    C2 1614   2.333   0.037   0.604  0.4865 -0.1577  0.3169
  106TCq2    C3 1615   2.239   0.110   0.538 -0.4195  0.3349  0.1298
  106TCq2    C4 1616   2.158   0.189   0.616 -0.1118  0.2609  0.0048
  106TCq2    C5 1617   2.160   0.186   0.755  0.5293 -0.3198 -0.1044
  106TCq2    C6 1618   2.257   0.111   0.811  0.0523  0.0400 -0.3212
  106TCq2    C7 1619   2.349   0.036   0.735 -0.0758  0.5860 -0.2251
  106TCq2    C8 1620   2.281   0.120   0.952  0.3956 -0.3102  0.3227
  106TCq2    O4 1621   2.381   0.056   0.997 -0.0915 -0.0288  0.6862
  106TCq2    C9 1622   2.078   0.286   0.545  0.2871 -0.0725 -0.9541
  106TCq2    O5 1623   2.078   0.283   0.418 -0.2056 -0.2970  0.0302
  106TCq2    O6 1624   2.033   0.380   0.611 -0.0155  0.5013 -0.0541
  106TCq2    H2 1625   2.231   0.106   0.430  1.9610 -1.2556  0.0170
  106TCq2    H3 1626   2.093   0.251   0.811 -1.9820 -1.5642 -1.6274
  106TCq2    H4 1627   2.430   4.702   0.782  0.1322  2.2654  1.3925
  107TMC2    C1 1628   3.316   4.353  11.630 -0.2841  0.0155 -0.0734
  107TMC2    C2 1629   3.390   4.452  11.570  0.7741  0.8483  0.0137
  107TMC2    C3 1630   3.471   4.420  11.468 -0.7201 -0.4927 -0.3950
  107TMC2    C4 1631   3.308   4.228  11.572 -0.0818  0.2272  0.1817
  107TMC2    C5 1632   3.375   4.210  11.447  0.2901 -0.1331  0.3645
  107TMC2    C6 1633   3.468   4.300  11.405 -0.7988 -0.6384 -0.8235
  107TMC2     C 1634   3.237   4.389  11.741 -0.4407  0.4362 -0.3232
  107TMC2     O 1635   3.216   4.299  11.822  0.0237 -0.8218 -0.3162
  107TMC2     H 1636   3.389   4.549  11.618 -0.0662  1.3501 -1.0279
  107TMC2    H1 1637   3.246   4.151  11.617  0.2630 -0.3998 -0.4171
  107TMC2    H2 1638   3.503   4.286  11.303  0.0496 -1.2094 -0.4542
  107TMC2    C7 1639   3.340   4.092  11.370  0.3261  0.9685 -0.2277
  107TMC2    C8 1640   3.521   4.525  11.383 -0.2542 -0.4230  0.1636
  107TMC2    O1 1641   3.258   4.012  11.415  0.4198 -0.3645 -0.1584
  107TMC2    O2 1642   3.490   4.639  11.399 -0.0439 -0.1438  0.8350
  107TMC2    O5 1643   3.646   4.486  11.345 -0.9215 -0.0628 -0.0544
  107TMC2    H5 1644   3.661   4.390  11.351  1.7406  0.4073  0.8331
  108MPD2     C 1645   3.031   4.679  11.744 -0.5554 -0.3884 -0.2246
  108MPD2    C1 1646   3.077   4.560  11.793 -0.4596 -0.3328 -0.4152
  108MPD2    C2 1647   3.030   4.519  11.922  0.3232 -0.0810  0.5752
  108MPD2    C3 1648   2.923   4.586  11.985  0.7357  0.4172  0.2076
  108MPD2    C4 1649   2.878   4.695  11.925 -0.1573  0.1154  0.6120
  108MPD2    C5 1650   2.934   0.025  11.814 -0.2732  0.3054  0.5034
  108MPD2     H 1651   3.067   4.427  11.966 -1.1435 -0.5950  0.7387
  108MPD2    H1 1652   2.790   0.021  11.968 -0.2604 -1.3743  2.0187
  108MPD2    H2 1653   3.059   0.004  11.650  0.5376  2.7929  1.6431
  108MPD2    H3 1654   2.891   0.118  11.778 -1.3431  0.1105  1.2963
  108MPD2     N 1655   2.861   4.542  12.106  0.1192 -0.0320  0.3939
  108MPD2    H5 1656   2.780   4.598  12.132  0.1211  0.8059 -1.4036
  108MPD2    N1 1657   3.175   4.504  11.719  0.4255 -0.4651 -0.3635
  108MPD2    H7 1658   3.197   4.559  11.637 -3.9445  1.1644 -0.4627
  109MPD2     C 1659   2.490   1.622   1.567  0.6589 -0.6287 -0.4174
  109MPD2    C1 1660   2.474   1.729   1.483  0.1109  0.6598 -0.1242
  109MPD2    C2 1661   2.562   1.839   1.500 -0.4747  0.5767  0.1198
  109MPD2    C3 1662   2.675   1.832   1.589  0.0478 -0.1373  1.2931
  109MPD2    C4 1663   2.700   1.723   1.660 -0.4589 -0.2581 -0.1390
  109MPD2    C5 1664   2.606   1.624   1.645  0.2481 -0.6322  0.6251
  109MPD2     H 1665   2.556   1.925   1.434 -0.8196 -0.6782 -1.4992
  109MPD2    H1 1666   2.786   1.710   1.725 -0.0286  0.0409 -0.6570
  109MPD2    H2 1667   2.425   1.536   1.575  0.4982 -0.5698 -1.0849
  109MPD2    H3 1668   2.609   1.535   1.707  2.7239  0.3092  1.8514
  109MPD2     N 1669   2.755   1.947   1.605 -0.4465 -0.2039 -0.2331
  109MPD2    H5 1670   2.729   2.012   1.531 -1.5774 -2.1274 -1.5249
  109MPD2    N1 1671   2.376   1.723   1.384 -0.2860 -0.3989  0.3722
  109MPD2    H7 1672   2.332   1.632   1.376  0.0343 -0.4651 -0.5470
  110TCq2    C1 1673   2.883   1.950   1.668  0.1340 -0.4823 -0.8789
  110TCq2    O2 1674   2.929   1.876   1.753 -0.2107  0.3362  0.4835
  110TCq2    C2 1675   2.950   2.083   1.649 -0.4386 -0.4696 -0.1937
  110TCq2    C3 1676   3.058   2.107   1.729  0.0489 -0.0076  0.3585
  110TCq2    C4 1677   3.133   2.221   1.714  0.3756  0.2939 -0.9105
  110TCq2    C5 1678   3.115   2.294   1.604 -0.2005  0.1809  0.2428
  110TCq2    C6 1679   3.009   2.269   1.516 -0.5232 -0.0252 -0.6763
  110TCq2    C7 1680   2.924   2.161   1.534 -0.3293  0.0954 -0.0848
  110TCq2    C8 1681   3.003   2.352   1.394  0.1467  0.4285  0.7898
  110TCq2    O4 1682   3.080   2.449   1.389 -0.0958  0.6635  0.0605
  110TCq2    C9 1683   3.232   2.254   1.807  0.5976 -0.3052 -0.0337
  110TCq2    O5 1684   3.271   2.374   1.805 -0.1704 -0.8704 -0.8029
  110TCq2    O6 1685   3.260   2.163   1.888 -0.2254 -0.1300 -0.1498
  110TCq2    H2 1686   3.080   2.040   1.812  0.9042  1.7030  1.5120
  110TCq2    H3 1687   3.190   2.369   1.583 -0.4079 -0.0147 -1.2299
  110TCq2    H4 1688   2.833   2.151   1.476  0.1015  1.0991 -0.9296
  111TMC2    C1 1689   3.428   1.864  11.315 -0.6678 -0.0934 -0.3834
  111TMC2    C2 1690   3.536   1.888  11.241  0.5975  0.4188  0.3708
  111TMC2    C3 1691   3.656   1.854  11.292  0.2720 -0.8824 -0.1007
  111TMC2    C4 1692   3.437   1.811  11.440 -0.4674 -0.0763 -0.0151
  111TMC2    C5 1693   3.558   1.765  11.480 -0.3192  0.0389 -0.2490
  111TMC2    C6 1694   3.671   1.790  11.406 -0.1957  0.0949  0.3174
  111TMC2     C 1695   3.301   1.855  11.241 -0.7536  0.3589 -0.6017
  111TMC2     O 1696   3.305   1.883  11.124  0.0042  0.5241 -0.1695
  111TMC2     H 1697   3.534   1.920  11.138 -1.9373 -3.1175 -0.6799
  111TMC2    H1 1698   3.349   1.796  11.501 -1.4322  4.1111 -0.3840
  111TMC2    H2 1699   3.769   1.774  11.450  0.1798 -2.8018 -1.5060
  111TMC2    C7 1700   3.557   1.691  11.601  0.1118 -0.4459 -0.3851
  111TMC2    C8 1701   3.764   1.857  11.199  0.3494  0.1185  0.0189
  111TMC2    O1 1702   3.446   1.668  11.644 -0.0232  0.2990 -0.3582
  111TMC2    O2 1703   3.774   1.949  11.121  0.2325 -0.0008  0.4604
  111TMC2    O5 1704   3.798   1.730  11.162 -0.1985  0.2567  0.2487
  111TMC2    H5 1705   3.754   1.661  11.216 -0.3693 -0.1764 -0.4517
  112MPD2     C 1706   2.838   1.638  11.199  0.2395  0.9656  0.2122
  112MPD2    C1 1707   2.894   1.732  11.118  0.7377  0.7384  0.2395
  112MPD2    C2 1708   3.016   1.787  11.158 -0.2252 -0.4557 -0.2590
  112MPD2    C3 1709   3.084   1.741  11.268  0.8436  0.5379 -0.1117
  112MPD2    C4 1710   3.025   1.643  11.344  0.2151 -0.2343  0.4092
  112MPD2    C5 1711   2.908   1.584  11.311 -0.2859  0.4611  0.5606
  112MPD2     H 1712   3.064   1.860  11.093  0.4842 -0.0904  0.6793
  112MPD2    H1 1713   3.067   1.600  11.434 -0.6640 -0.4758  0.7003
  112MPD2    H2 1714   2.748   1.584  11.174  2.1721 -2.0086 -0.3227
  112MPD2    H3 1715   2.857   1.508  11.369  1.9820  1.7732  4.2644
  112MPD2     N 1716   3.210   1.786  11.312  0.9604 -0.0202  0.6057
  112MPD2    H5 1717   3.240   1.752  11.403  0.9526  0.0158  0.6218
  112MPD2    N1 1718   2.831   1.786  11.002  0.6255 -0.2772  0.2728
  112MPD2    H7 1719   2.895   1.847  10.953  0.8232  0.5933  1.6072
  113MPD2     C 1720   1.765   4.365   0.963 -0.6935  0.2030 -0.1271
  113MPD2    C1 1721   1.703   4.487   0.990 -0.1980 -0.5019  0.2602
  113MPD2    C2 1722   1.600   4.528   0.907 -0.0727  0.2080 -0.3417
  113MPD2    C3 1723   1.564   4.453   0.794  0.2125  0.6159  0.3670
  113MPD2    C4 1724   1.634   4.335   0.763 -0.5608  0.0990 -0.1166
  113MPD2    C5 1725   1.728   4.294   0.852 -0.6236  0.4750  0.5795
  113MPD2     H 1726   1.556   4.623   0.935 -1.6865 -0.0957 -1.9029
  113MPD2    H1 1727   1.619   4.283   0.669  1.3201  2.2097 -1.5821
  113MPD2    H2 1728   1.846   4.329   1.026 -2.1435 -0.6351  1.2753
  113MPD2    H3 1729   1.789   4.210   0.820 -1.8560 -0.5766  1.0152
  113MPD2     N 1730   1.469   4.486   0.696  0.4338 -0.1269  0.5786
  113MPD2    H5 1731   1.441   4.420   0.623  1.6105  0.5432 -0.4867
  113MPD2    N1 1732   1.738   4.564   1.104  0.3612  0.2691  0.4581
  113MPD2    H7 1733   1.693   4.655   1.107  1.0262  0.6340 -0.7209
  114TCq2    C1 1734   1.408   4.607   0.694  0.2592  0.4387  1.0001
  114TCq2    O2 1735   1.429   4.710   0.754 -0.0094  0.0346  0.1294
  114TCq2    C2 1736   1.308   4.614   0.586  0.1479 -0.4644  0.3526
  114TCq2    C3 1737   1.260   0.015   0.555  0.7579  0.6686 -0.1754
  114TCq2    C4 1738   1.149   0.017   0.478  0.5535  0.3953  0.1730
  114TCq2    C5 1739   1.091   4.625   0.425 -0.7591  0.2747  0.3400
  114TCq2    C6 1740   1.136   4.504   0.467  0.1044 -0.1409  0.5447
  114TCq2    C7 1741   1.245   4.494   0.551  0.7104  0.7714 -1.0340
  114TCq2    C8 1742   1.049   4.393   0.435  0.2222  1.0689  0.5264
  114TCq2    O4 1743   0.965   4.408   0.349 -0.0127 -0.3396 -0.4406
  114TCq2    C9 1744   1.099   0.146   0.444 -0.5390  0.4409  0.3444
  114TCq2    O5 1745   1.026   0.164   0.341  0.5070 -0.0240  0.0435
  114TCq2    O6 1746   1.152   0.245   0.497  0.3636 -0.1931 -0.1267
  114TCq2    H2 1747   1.305   0.105   0.594 -1.2874  0.8990  1.6691
  114TCq2    H3 1748   1.011   4.640   0.354  1.0203  0.3569 -1.6282
  114TCq2    H4 1749   1.282   4.397   0.580  0.8986  0.3678 -2.6374
  115TMC2    C1 1750   1.802   2.867  17.288 -0.0450  0.1214  0.6518
  115TMC2    C2 1751   1.772   2.874  17.155 -0.5261 -0.3324  0.4930
  115TMC2    C3 1752   1.804   2.987  17.092  0.0687  0.0115  0.5258
  115TMC2    C4 1753   1.881   2.955  17.351  0.1518  0.3175 -0.1380
  115TMC2    C5 1754   1.935   3.059  17.277  0.7643 -0.7060  0.1306
  115TMC2    C6 1755   1.895   3.076  17.146  0.3104 -0.3958 -0.0810
  115TMC2     C 1756   1.766   2.737  17.344 -0.1752  0.2618  0.0923
  115TMC2     O 1757   1.747   2.651  17.259 -0.0364  0.4315 -1.0593
  115TMC2     H 1758   1.703   2.804  17.110  0.6881 -1.0768 -0.2190
  115TMC2    H1 1759   1.906   2.942  17.455  0.9554  3.6424  0.1005
  115TMC2    H2 1760   1.911   3.166  17.089  0.6675  0.5448  1.5010
  115TMC2    C7 1761   2.019   3.149  17.342  0.7345  0.0114  0.4297
  115TMC2    C8 1762   1.767   2.990  16.946  0.1028 -0.6037  0.2236
  115TMC2    O1 1763   2.005   3.170  17.463 -0.4793 -0.3698  0.0336
  115TMC2    O2 1764   1.673   2.932  16.896 -0.0333 -0.0574 -0.3603
  115TMC2    O5 1765   1.854   3.066  16.881 -0.3050 -0.4462  0.0684
  115TMC2    H5 1766   1.941   3.086  16.922 -1.2042  2.5062  0.5170
  116MPD2     C 1767   1.769   2.358   0.019  0.0432  0.3118 -0.1394
  116MPD2    C1 1768   1.723   2.375  17.569 -0.9564 -0.3844  1.2148
  116MPD2    C2 1769   1.732   2.496  17.503 -0.5747 -0.3530 -0.4920
  116MPD2    C3 1770   1.766   2.613  17.556 -0.2073  0.2044  0.8840
  116MPD2    C4 1771   1.798   2.599   0.006  0.2930 -0.0884 -0.3949
  116MPD2    C5 1772   1.798   2.479   0.071 -0.1555  0.2322 -0.8242
  116MPD2     H 1773   1.697   2.484  17.401  2.9103 -0.5203 -1.6651
  116MPD2    H1 1774   1.835   2.684   0.062  3.6729 -2.3872  0.8238
  116MPD2    H2 1775   1.770   2.269   0.080 -0.3552  1.1125  1.0498
  116MPD2    H3 1776   1.849   2.476   0.167 -2.6446  0.0266  0.5153
  116MPD2     N 1777   1.779   2.731  17.482  0.0613  0.2999  0.4042
  116MPD2    H5 1778   1.799   2.820  17.527  0.2036  0.3481  0.2461
  116MPD2    N1 1779   1.649   2.271  17.502  0.1729 -0.3935  0.4981
  116MPD2    H7 1780   1.626   2.296  17.407 -3.3858  0.2765  1.5491
  117TMC2    C1 1781   0.503   3.553  13.572 -0.3243  0.0015 -0.3505
  117TMC2    C2 1782   0.501   3.531  13.439 -0.9444  0.4982 -0.0535
  117TMC2    C3 1783   0.595   3.602  13.374 -0.2924 -0.7361  0.7311
  117TMC2    C4 1784   0.581   3.640  13.638 -0.2220  0.6103 -0.2224
  117TMC2    C5 1785   0.672   3.709  13.568  0.7041  0.3880 -0.7956
  117TMC2    C6 1786   0.679   3.694  13.436 -0.5775  0.6112  0.1484
  117TMC2     C 1787   0.378   3.529  13.632 -1.2206  0.3629 -0.3658
  117TMC2     O 1788   0.317   3.427  13.596  0.1500 -0.2045 -0.1225
  117TMC2     H 1789   0.458   3.438  13.404  1.2640  0.0499 -1.5725
  117TMC2    H1 1790   0.571   3.660  13.744 -3.0333  1.8818 -0.7273
  117TMC2    H2 1791   0.758   3.747  13.384 -0.0168  0.8622  1.2586
  117TMC2    C7 1792   0.748   3.815  13.631  0.1524 -0.6673 -0.0965
  117TMC2    C8 1793   0.585   3.615  13.227 -1.3614  0.4069  0.1919
  117TMC2    O1 1794   0.760   3.912  13.553 -0.5564  0.3941 -0.7022
  117TMC2    O2 1795   0.686   3.642  13.163  0.0547 -0.0311 -0.8158
  117TMC2    O5 1796   0.467   3.559  13.188  0.0484 -0.3953 -0.0240
  117TMC2    H5 1797   0.396   3.551  13.255  1.1030  2.7335  1.4526
  118MPD2     C 1798   0.894   3.842  13.962  0.3602 -0.1040  0.2576
  118MPD2    C1 1799   0.865   3.881  13.835 -0.8851  0.3046  0.6486
  118MPD2    C2 1800   0.896   4.012  13.793 -0.8581 -0.5316  0.1310
  118MPD2    C3 1801   0.978   4.094  13.870  0.4011 -0.1880  0.1102
  118MPD2    C4 1802   1.027   4.045  13.990 -0.4027  0.4695 -0.0991
  118MPD2    C5 1803   0.976   3.924  14.035  0.2166  0.6637  0.0813
  118MPD2     H 1804   0.872   4.041  13.691 -0.1872 -0.0380  0.1171
  118MPD2    H1 1805   1.103   4.101  14.043 -1.9108  0.3284  2.2485
  118MPD2    H2 1806   0.868   3.748  14.009 -1.1391  0.3726  0.3647
  118MPD2    H3 1807   1.009   3.897  14.135 -2.6242 -1.9052  0.3583
  118MPD2     N 1808   1.038   4.216  13.819  0.6261  0.4807 -0.5889
  118MPD2    H5 1809   1.108   4.254  13.882  0.0496 -0.1565  0.4539
  118MPD2    N1 1810   0.793   3.790  13.756 -0.6387  0.8665 -0.3236
  118MPD2    H7 1811   0.779   3.699  13.798 -0.6010  1.4932  1.0423
  119MPD2     C 1812   3.827   0.809  13.932 -0.0594  0.5802  0.0797
  119MPD2    C1 1813   3.835   0.710  14.024  0.2571 -0.5045  0.3917
  119MPD2    C2 1814   3.877   0.590  13.983  0.0424  0.5885 -0.4878
  119MPD2    C3 1815   3.907   0.577  13.845 -0.1496  0.0799  0.2437
  119MPD2    C4 1816   3.896   0.677  13.755  0.4432  0.3662  0.5554
  119MPD2    C5 1817   3.861   0.797  13.798  0.8308  0.0559 -0.1458
  119MPD2     H 1818   3.890   0.513  14.058 -0.2361  1.2777  0.2563
  119MPD2    H1 1819   3.915   0.670  13.649 -1.3871  1.9770  0.1007
  119MPD2    H2 1820   3.792   0.907  13.961 -1.4684  0.1683 -0.2484
  119MPD2    H3 1821   3.848   0.882  13.732 -0.0530 -0.4221 -0.5840
  119MPD2     N 1822   3.941   0.452  13.794 -0.0826  0.2526  0.0670
  119MPD2    H5 1823   3.935   0.444  13.693 -1.6707 -1.8721  0.3425
  119MPD2    N1 1824   3.812   0.740  14.163 -0.3452 -0.7829  0.1905
  119MPD2    H7 1825   3.752   0.820  14.181  0.8656  0.4194 -1.0998
  120TCq2    C1 1826   3.975   0.340  13.866 -0.0045  0.9519  0.5998
  120TCq2    O2 1827   4.042   0.331  13.970  0.0003  0.1112  0.5864
  120TCq2    C2 1828   3.982   0.237  13.776  0.5418 -0.9949  0.0858
  120TCq2    C3 1829   4.107   0.189  13.739 -0.4796 -0.3017  0.8332
  120TCq2    C4 1830   4.116   0.125  13.623 -0.1599 -0.7457  0.0294
  120TCq2    C5 1831   4.002   0.099  13.550  0.1233 -0.3282 -0.5373
  120TCq2    C6 1832   3.883   0.145  13.596  1.3489  0.5205 -0.4235
  120TCq2    C7 1833   3.869   0.224  13.706  0.6436  1.1458 -0.0749
  120TCq2    C8 1834   3.758   0.089  13.542  0.2676  0.6224 -0.3858
  120TCq2    O4 1835   3.742   0.063  13.425 -0.0678  0.1061  0.4287
  120TCq2    C9 1836   4.233   0.050  13.588 -0.2813  0.1290  0.6323
  120TCq2    O5 1837   4.270   0.043  13.467  0.0104 -0.6047 -0.1788
  120TCq2    O6 1838   4.294   0.004  13.688  0.1397 -0.2818  0.2876
  120TCq2    H2 1839   4.196   0.212  13.796 -0.0823  1.3601 -0.4431
  120TCq2    H3 1840   4.013   0.056  13.452 -0.8205  0.1966 -0.8701
  120TCq2    H4 1841   3.785   0.291  13.722  0.6058  1.2520 -0.7212
  121TMC2    C1 1842   0.243   2.053  13.853 -0.1672  0.3421  0.3470
  121TMC2    C2 1843   0.213   1.939  13.931  0.0041 -0.2824  0.0452
  121TMC2    C3 1844   0.090   1.879  13.907 -0.5890  0.6980 -0.2909
  121TMC2    C4 1845   0.154   2.100  13.766  0.7015 -0.3154 -0.3840
  121TMC2    C5 1846   0.025   2.050  13.755 -0.2913 -0.4430 -0.4846
  121TMC2    C6 1847   4.715   1.941  13.832 -0.9866 -0.3360 -0.0402
  121TMC2     C 1848   0.373   2.109  13.879  0.3344 -0.1992 -0.2385
  121TMC2     O 1849   0.428   2.088  13.986  0.5048  0.7706 -0.3016
  121TMC2     H 1850   0.293   1.904  13.996  0.5669 -0.3299 -0.6624
  121TMC2    H1 1851   0.176   2.178  13.694 -0.6693  0.3006 -0.1400
  121TMC2    H2 1852   4.614   1.901  13.827 -1.8052  1.5542  1.1060
  121TMC2    C7 1853   4.656   2.115  13.674 -0.7274  0.3941 -0.7253
  121TMC2    C8 1854   0.058   1.754  13.969  0.1918 -0.6352  0.2804
  121TMC2    O1 1855   4.698   2.220  13.623  0.7148 -0.2001  0.5715
  121TMC2    O2 1856   4.667   1.706  13.951 -0.0162 -0.0178 -0.1018
  121TMC2    O5 1857   0.171   1.683  13.985 -0.1869  0.9640  0.3128
  121TMC2    H5 1858   0.243   1.714  13.927  1.0386 -1.0563  0.7656
  122MPD2     C 1859   0.587   2.313  13.878 -0.3234 -1.1207 -0.0203
  122MPD2    C1 1860   0.531   2.261  13.761  0.5451  0.3362 -0.6493
  122MPD2    C2 1861   0.567   2.309  13.639 -0.3489 -0.0781  0.2941
  122MPD2    C3 1862   0.682   2.385  13.636  0.1114 -0.7840  0.3677
  122MPD2    C4 1863   0.742   2.435  13.750 -0.0714  0.4408  0.5376
  122MPD2    C5 1864   0.692   2.392  13.870  0.4464  0.1371  0.7263
  122MPD2     H 1865   0.505   2.294  13.551 -0.1116  2.8924 -0.3713
  122MPD2    H1 1866   0.833   2.494  13.747 -0.0799  0.4455  0.3640
  122MPD2    H2 1867   0.546   2.291  13.976  1.2328 -0.8431  0.6873
  122MPD2    H3 1868   0.748   2.433  13.954  0.3649  3.4926 -0.8322
  122MPD2     N 1869   0.737   2.424  13.510 -0.5100 -0.1669 -0.2891
  122MPD2    H5 1870   0.825   2.475  13.512 -0.3256 -0.5040  0.0123
  122MPD2    N1 1871   0.417   2.182  13.767 -0.3963 -0.3444 -0.0859
  122MPD2    H7 1872   0.361   2.157  13.687 -0.6755 -0.4944  0.1550
  123MPD2     C 1873   3.569   0.393  10.317  0.1737  0.0907  0.0154
  123MPD2    C1 1874   3.522   0.328  10.211  0.3699 -0.2956  0.8821
  123MPD2    C2 1875   3.597   0.323  10.095  0.3301  0.2099  0.1156
  123MPD2    C3 1876   3.722   0.387  10.086  0.2746  0.0481  0.0956
  123MPD2    C4 1877   3.761   0.458  10.198  0.4576  0.3906  0.7387
  123MPD2    C5 1878   3.687   0.459  10.310 -0.5369 -0.1025  0.1383
  123MPD2     H 1879   3.558   0.262  10.015  0.0103  0.2354  0.2529
  123MPD2    H1 1880   3.861   0.494  10.217  0.9683 -1.5389  1.6980
  123MPD2    H2 1881   3.504   0.400  10.404 -0.1076 -0.6551 -0.1334
  123MPD2    H3 1882   3.735   0.497  10.399  0.6583 -0.6718 -0.2687
  123MPD2     N 1883   3.805   0.367   9.968  0.2266 -0.1022 -0.5365
  123MPD2    H5 1884   3.779   0.305   9.892 -0.7937  1.2336 -1.2790
  123MPD2    N1 1885   3.392   0.268  10.228 -0.5443  0.0056  0.2914
  123MPD2    H7 1886   3.339   0.292  10.312  1.3515 -0.2557  1.5640
  124TCq2    C1 1887   3.928   0.423   9.965 -0.1474  0.7986  0.0303
  124TCq2    O2 1888   3.982   0.519  10.025 -0.1887  0.0010  0.0293
  124TCq2    C2 1889   4.010   0.350   9.869  0.4854  0.6439 -0.3959
  124TCq2    C3 1890   4.141   0.389   9.866  0.5022  0.2425 -1.0960
  124TCq2    C4 1891   4.244   0.306   9.834 -0.6574 -0.3154  0.0242
  124TCq2    C5 1892   4.208   0.181   9.797  0.1206 -0.2361 -0.0371
  124TCq2    C6 1893   4.079   0.142   9.788 -0.3408  0.4490  0.2588
  124TCq2    C7 1894   3.973   0.222   9.832 -0.7656  0.1684 -0.0462
  124TCq2    C8 1895   4.049   0.006   9.749 -0.4666 -0.2858 -0.0350
  124TCq2    O4 1896   3.988   4.657   9.826 -0.0983  0.3203  0.1408
  124TCq2    C9 1897   4.383   0.364   9.838 -0.1092  0.2337  0.0762
  124TCq2    O5 1898   4.404   0.437   9.940  0.1901 -0.2639 -0.0270
  124TCq2    O6 1899   4.466   0.276   9.797 -0.4644  0.6405 -0.0661
  124TCq2    H2 1900   4.170   0.493   9.877 -0.3345  0.3984 -0.3699
  124TCq2    H3 1901   4.284   0.107   9.775 -0.4677 -1.6137  2.5792
  124TCq2    H4 1902   3.873   0.180   9.841  0.0267 -2.1027 -1.8908
  125TMC2    C1 1903   3.130   1.513   9.676  0.4917 -0.2367  0.6141
  125TMC2    C2 1904   3.140   1.380   9.681  0.3711 -0.9713 -0.6555
  125TMC2    C3 1905   3.249   1.327   9.740  0.2593  0.2722  0.2740
  125TMC2    C4 1906   3.226   1.594   9.721  0.5600  0.2357  0.3262
  125TMC2    C5 1907   3.331   1.541   9.789  0.6062 -0.4348 -0.5403
  125TMC2    C6 1908   3.346   1.406   9.799  0.0534  0.2200  0.2347
  125TMC2     C 1909   3.034   1.560   9.580 -0.2176  0.2999  0.3035
  125TMC2     O 1910   2.982   1.472   9.511 -0.0511 -0.0714 -0.0587
  125TMC2     H 1911   3.054   1.321   9.650 -2.3638  1.7253  1.8758
  125TMC2    H1 1912   3.238   1.698   9.692  0.0088  0.4916  1.0087
  125TMC2    H2 1913   3.425   1.367   9.864 -0.8780 -2.0889 -0.0131
  125TMC2    C7 1914   3.410   1.646   9.850 -0.6557 -0.1126 -0.0430
  125TMC2    C8 1915   3.281   1.181   9.730 -0.2640  0.0904  0.1937
  125TMC2    O1 1916   3.357   1.736   9.908 -0.0909 -0.0966 -0.1008
  125TMC2    O2 1917   3.187   1.105   9.716  0.4069  0.7699 -0.1217
  125TMC2    O5 1918   3.382   1.178   9.642 -0.4990 -0.6989 -0.3986
  125TMC2    H5 1919   3.452   1.244   9.662 -0.2372 -0.9825 -0.3756
  126MPD1     C 1920   2.682   1.920   9.442 -0.2510  0.0443  0.9404
  126MPD1    C1 1921   2.785   1.990   9.505  0.5118  0.1195 -0.4125
  126MPD1    C2 1922   2.893   1.909   9.552 -0.5534 -0.3930  0.5455
  126MPD1    C3 1923   2.900   1.772   9.529 -0.2583 -0.5119  0.4252
  126MPD1    C4 1924   2.808   1.716   9.444  0.1063 -0.2412 -0.5949
  126MPD1    C5 1925   2.697   1.790   9.412 -0.3484  1.0660 -0.6081
  126MPD1     H 1926   2.975   1.953   9.607 -0.1073  0.5110 -0.8315
  126MPD1    H1 1927   2.810   1.609   9.426 -0.5051  0.0136 -2.1985
  126MPD1    H2 1928   2.588   1.964   9.411  0.0090  1.5375  2.2524
  126MPD1    H3 1929   2.622   1.750   9.344  1.0379 -0.9178 -0.9771
  126MPD1     N 1930   3.006   1.695   9.595  0.2483 -0.1638  0.5549
  126MPD1    H5 1931   3.057   1.748   9.665  0.5005 -1.7317  1.5618
  126MPD1    N1 1932   2.751   2.119   9.550 -0.3154  0.4541  0.0045
  126MPD1    H6 1933   2.688   2.168   9.487 -0.1213  0.9689  0.2108
  126MPD1    H7 1934   2.832   2.178   9.570  0.0769 -1.1226  3.1363
  127MPD2     C 1935   0.260   0.998   9.141  0.7160 -0.9307 -0.4384
  127MPD2    C1 1936   0.336   0.938   9.241 -0.3697 -0.4772 -0.4034
  127MPD2    C2 1937   0.426   1.019   9.311  0.9887 -0.0128  0.2866
  127MPD2    C3 1938   0.431   1.157   9.293 -0.9654  0.5837  0.4211
  127MPD2    C4 1939   0.353   1.215   9.200  0.1637 -0.2043  0.4431
  127MPD2    C5 1940   0.267   1.142   9.124  0.2161 -0.9512 -0.3224
  127MPD2     H 1941   0.495   0.970   9.379  0.3717 -0.6814  0.4257
  127MPD2    H1 1942   0.358   1.321   9.181  1.7671 -0.7353 -2.1394
  127MPD2    H2 1943   0.202   0.936   9.074 -2.1030  2.4402 -1.0879
  127MPD2    H3 1944   0.192   1.195   9.066  2.1297  1.9659 -0.0862
  127MPD2     N 1945   0.515   1.235   9.379  0.5788 -0.0925 -0.5988
  127MPD2    H5 1946   0.570   1.176   9.442  1.5228 -0.1988 -1.5189
  127MPD2    N1 1947   0.311   0.803   9.257  0.1571 -0.3288 -0.9227
  127MPD2    H7 1948   0.241   0.762   9.196 -1.0639 -1.9025  1.5493
  128TCq2    C1 1949   0.365   0.717   9.349  0.1119 -0.3846  0.4059
  128TCq2    O2 1950   0.429   0.746   9.448 -0.2910  0.3099 -0.5752
  128TCq2    C2 1951   0.318   0.581   9.338 -0.1752  0.6853 -0.0079
  128TCq2    C3 1952   0.350   0.500   9.440 -0.5424 -0.3230 -0.2500
  128TCq2    C4 1953   0.291   0.375   9.453  0.3388 -0.5851 -0.3001
  128TCq2    C5 1954   0.197   0.335   9.356 -0.3808 -0.3546 -0.8683
  128TCq2    C6 1955   0.159   0.425   9.263  0.2707  0.3199 -0.8812
  128TCq2    C7 1956   0.208   0.552   9.258 -0.2901 -0.3902  0.1415
  128TCq2    C8 1957   0.070   0.374   9.157  0.6698 -0.4699  0.0828
  128TCq2    O4 1958   0.066   0.453   9.062  0.1518  0.6542 -0.6381
  128TCq2    C9 1959   0.339   0.278   9.553  0.0952 -0.2541 -0.9717
  128TCq2    O5 1960   0.453   0.306   9.600 -0.7440  1.4168 -0.1852
  128TCq2    O6 1961   0.283   0.166   9.547 -0.5321  0.8017 -0.3936
  128TCq2    H2 1962   0.435   0.526   9.502 -0.1723 -0.4196 -0.7189
  128TCq2    H3 1963   0.160   0.233   9.351  0.8946 -0.8776  0.3886
  128TCq2    H4 1964   0.166   0.628   9.193  0.6739  0.0577  0.0417
  129MPD2     C 1965   3.059   2.190   0.940 -0.1175  0.1575  0.1114
  129MPD2    C1 1966   3.187   2.230   0.975  0.9178  0.1267  0.1336
  129MPD2    C2 1967   3.265   2.310   0.898  0.7627  0.4016 -0.1118
  129MPD2    C3 1968   3.227   2.353   0.778  0.0558  0.4453  0.3223
  129MPD2    C4 1969   3.105   2.298   0.729  0.0102  0.2791  0.4973
  129MPD2    C5 1970   3.024   2.228   0.811  0.1444  0.6619  1.1722
  129MPD2     H 1971   3.364   2.334   0.933  0.7520 -2.3089  1.7761
  129MPD2    H1 1972   3.058   2.314   0.633 -0.7083  2.2145  1.1694
  129MPD2    H2 1973   2.997   2.126   1.002 -0.9941 -2.4263 -3.4872
  129MPD2    H3 1974   2.921   2.213   0.781 -0.0195 -0.3775  2.2598
  129MPD2     N 1975   3.308   2.441   0.708 -0.4351 -0.6432 -0.0397
  129MPD2    H5 1976   3.386   2.489   0.751 -0.6674 -0.0813 -0.2342
  129MPD2    N1 1977   3.239   2.181   1.096 -0.6751 -0.6469 -0.4915
  129MPD2    H7 1978   3.335   2.214   1.108 -0.5606 -1.4300  0.7041
  130TCq2    C1 1979   3.188   2.099   1.196  0.2743 -0.4144 -0.3972
  130TCq2    O2 1980   3.075   2.043   1.203  0.2454  0.0189  0.4290
  130TCq2    C2 1981   3.280   2.082   1.305  0.2558 -0.5165  0.3863
  130TCq2    C3 1982   3.377   2.171   1.331  0.5940 -0.7964 -0.1227
  130TCq2    C4 1983   3.455   2.151   1.432 -0.6261 -1.0288 -0.8242
  130TCq2    C5 1984   3.453   2.035   1.513  0.5943  0.3221  0.0612
  130TCq2    C6 1985   3.341   1.954   1.497  0.1634  0.5419  0.2572
  130TCq2    C7 1986   3.259   1.977   1.388  0.4104 -0.1616 -0.8143
  130TCq2    C8 1987   3.337   1.824   1.563  0.3126  0.1178  0.1461
  130TCq2    O4 1988   3.252   1.744   1.522  0.5593 -0.2356 -0.0235
  130TCq2    C9 1989   3.559   2.246   1.456 -0.4502 -0.5234 -0.0751
  130TCq2    O5 1990   3.568   2.353   1.393  0.3583  0.1833 -0.1992
  130TCq2    O6 1991   3.658   2.215   1.527  0.0651 -0.6109  0.2462
  130TCq2    H2 1992   3.357   2.272   1.298  1.9364 -1.1011 -1.8723
  130TCq2    H3 1993   3.526   2.025   1.593 -0.5941  2.3654  1.3710
  130TCq2    H4 1994   3.189   1.900   1.358 -1.2622  1.4280 -0.9448
  131MPD2     C 1995   2.524   4.694   9.762  0.1821 -0.0473  0.2092
  131MPD2    C1 1996   2.622   0.068   9.722  0.1423 -0.6988  0.3483
  131MPD2    C2 1997   2.723   0.096   9.810  0.2769  0.3705 -0.3013
  131MPD2    C3 1998   2.737   0.027   9.929 -0.7208  0.3869 -0.1894
  131MPD2    C4 1999   2.654   4.638   9.948  0.0070  0.3490  0.2227
  131MPD2    C5 2000   2.545   4.619   9.876  0.2797  0.3393 -0.7468
  131MPD2     H 2001   2.793   0.177   9.797  0.8789  0.1222  1.3438
  131MPD2    H1 2002   2.650   4.576  10.037  1.6586 -1.4143 -0.9272
  131MPD2    H2 2003   2.434   4.672   9.705  0.7212  0.3344 -0.7917
  131MPD2    H3 2004   2.471   4.546   9.906  1.8064 -0.9123 -0.0593
  131MPD2     N 2005   2.851   0.064  10.011 -0.2436  0.2994 -0.2092
  131MPD2    H5 2006   2.914   0.136   9.978  2.1415 -1.4166  0.6373
  131MPD2    N1 2007   2.592   0.152   9.610  0.3894  0.0763  0.4805
  131MPD2    H7 2008   2.501   0.131   9.570  0.8505 -2.4072  0.7688
  132TCq2    C1 2009   2.657   0.642   9.301  1.1937  0.0815  0.3455
  132TCq2    O2 2010   2.621   0.719   9.211  0.0100  0.1582  0.4557
  132TCq2    C2 2011   2.593   0.519   9.326 -0.3881  0.3685  0.5842
  132TCq2    C3 2012   2.571   0.436   9.214 -0.5227 -0.0502  0.2105
  132TCq2    C4 2013   2.556   0.299   9.236  0.7313  0.1291 -0.1256
  132TCq2    C5 2014   2.554   0.251   9.364 -0.6065  0.2848  0.1025
  132TCq2    C6 2015   2.588   0.336   9.471 -0.6544  0.3356 -0.0522
  132TCq2    C7 2016   2.607   0.469   9.453  0.2775 -0.4184 -0.4810
  132TCq2    C8 2017   2.644   0.279   9.593 -0.3501 -0.2316 -0.3156
  132TCq2    O4 2018   2.711   0.359   9.661  0.3724  0.1186 -0.9525
  132TCq2    C9 2019   2.514   0.219   9.127 -0.6847 -0.0473 -0.6859
  132TCq2    O5 2020   2.500   0.095   9.144 -0.2953 -0.2964  0.0897
  132TCq2    O6 2021   2.500   0.284   9.024  0.3795 -0.2077  0.1124
  132TCq2    H2 2022   2.569   0.487   9.118  0.7232 -1.3481 -0.5056
  132TCq2    H3 2023   2.518   0.150   9.380 -1.5082  0.5847 -0.0361
  132TCq2    H4 2024   2.620   0.526   9.544  1.1523 -1.5109  0.0845
  133MPD2     C 2025   1.649   1.816   9.332  0.3009 -0.2470  0.0181
  133MPD2    C1 2026   1.600   1.743   9.226  0.0344 -0.1402 -0.6517
  133MPD2    C2 2027   1.664   1.621   9.193  0.3960 -0.5164  0.2458
  133MPD2    C3 2028   1.772   1.584   9.264  0.2986 -0.3275  0.0380
  133MPD2    C4 2029   1.820   1.656   9.372 -0.2837 -0.3636  0.0630
  133MPD2    C5 2030   1.762   1.775   9.400  0.1960 -0.4277 -0.2669
  133MPD2     H 2031   1.617   1.553   9.122 -0.2868 -0.3868  0.5676
  133MPD2    H1 2032   1.904   1.617   9.429  0.4193  0.1898 -0.5938
  133MPD2    H2 2033   1.607   1.912   9.362  0.5894  0.3233 -1.3801
  133MPD2    H3 2034   1.785   1.837   9.485  3.2844 -2.4720  0.4088
  133MPD2     N 2035   1.839   1.457   9.238 -0.0113 -0.0503  0.2447
  133MPD2    H5 2036   1.910   1.424   9.302 -0.7773 -1.2851  0.4774
  133MPD2    N1 2037   1.479   1.786   9.169 -0.1569  0.1501  0.7278
  133MPD2    H7 2038   1.431   1.868   9.206  1.8053  1.3445  0.6170
  134TCq2    C1 2039   1.403   1.715   9.078  0.4670 -0.2742  1.1637
  134TCq2    O2 2040   1.424   1.608   9.025  0.4425 -0.6072  0.3338
  134TCq2    C2 2041   1.275   1.781   9.057 -1.0334  0.2376  0.2599
  134TCq2    C3 2042   1.203   1.760   8.943 -0.3323 -0.2915 -0.2930
  134TCq2    C4 2043   1.082   1.814   8.920 -0.1961 -0.2954  0.4617
  134TCq2    C5 2044   1.025   1.889   9.015 -0.1220 -0.2967 -0.4600
  134TCq2    C6 2045   1.098   1.913   9.128 -0.7804  0.3751 -0.0095
  134TCq2    C7 2046   1.217   1.858   9.161 -0.1950  0.1259 -0.4119
  134TCq2    C8 2047   1.047   2.004   9.227  0.0389  0.5723  0.3942
  134TCq2    O4 2048   1.102   2.017   9.335  0.9593  0.1926  0.3417
  134TCq2    C9 2049   1.015   1.758   8.811 -0.1287  0.2508 -0.2501
  134TCq2    O5 2050   0.892   1.772   8.806 -0.2168 -0.0866 -0.4412
  134TCq2    O6 2051   1.073   1.674   8.738  0.0265 -0.5627 -0.8133
  134TCq2    H2 2052   1.245   1.686   8.876 -1.0546 -1.3743  0.4449
  134TCq2    H3 2053   0.925   1.928   9.001  0.1772  1.0031  0.9786
  134TCq2    H4 2054   1.265   1.866   9.257 -0.0285  2.9547 -0.7165
  135MPD2     C 2055   0.155   2.552   9.661 -0.4589 -0.3262 -0.6512
  135MPD2    C1 2056   0.172   2.417   9.711  0.2069 -0.0105  0.2786
  135MPD2    C2 2057   0.262   2.333   9.640  0.0581  0.2998  0.5745
  135MPD2    C3 2058   0.327   2.382   9.528  0.2584 -0.5970  0.4726
  135MPD2    C4 2059   0.312   2.511   9.482 -0.2638 -0.0197 -0.4690
  135MPD2    C5 2060   0.227   2.599   9.552  0.4634 -0.3050  0.3649
  135MPD2     H 2061   0.270   2.232   9.679  1.3181 -0.9522 -2.9783
  135MPD2    H1 2062   0.371   2.558   9.405 -0.7829  0.3783 -0.6246
  135MPD2    H2 2063   0.082   2.623   9.699 -0.2905 -0.0706 -0.8026
  135MPD2    H3 2064   0.196   2.695   9.512  0.9609 -1.3392 -2.4975
  135MPD2     N 2065   0.417   2.299   9.453  0.5119  0.0220 -0.2553
  135MPD2    H5 2066   0.447   2.333   9.362 -0.6358  0.3303 -0.5160
  135MPD2    N1 2067   0.101   2.367   9.823 -0.3542  0.1879 -0.1866
  135MPD2    H7 2068   0.131   2.279   9.865 -0.9987 -0.0262 -0.1674
  136TCq2    C1 2069   0.001   2.428   9.895 -0.1315  0.5315  0.4637
  136TCq2    O2 2070   4.666   2.530   9.860 -0.4534 -0.2269  0.1129
  136TCq2    C2 2071   4.689   2.368  10.025  0.3187 -0.1145  0.7565
  136TCq2    C3 2072   0.044   2.265  10.076 -1.0562 -0.0333 -0.1327
  136TCq2    C4 2073   4.711   2.179  10.172 -0.4480  0.1806 -0.5629
  136TCq2    C5 2074   4.582   2.197  10.219  0.1491 -0.3674 -0.0042
  136TCq2    C6 2075   4.509   2.305  10.164  0.1076 -0.4151 -0.7172
  136TCq2    C7 2076   4.567   2.391  10.071  0.1534 -0.5704  0.6295
  136TCq2    C8 2077   4.364   2.304  10.183 -0.3583  0.8543 -0.6353
  136TCq2    O4 2078   4.306   2.406  10.141 -0.2408 -0.4470  0.5915
  136TCq2    C9 2079   0.079   2.078  10.231 -1.0002 -0.0110  0.9886
  136TCq2    O5 2080   0.185   2.050  10.162 -0.0291  0.3896 -0.4575
  136TCq2    O6 2081   0.044   2.006  10.328 -0.3982 -0.2929  0.2376
  136TCq2    H2 2082   0.147   2.249  10.046 -0.5636  2.7287  0.1181
  136TCq2    H3 2083   4.541   2.133  10.296 -1.4446 -0.1735 -0.7044
  136TCq2    H4 2084   4.502   2.464  10.023  2.5222  0.8339 -0.4130
  137MPD2     C 2085   0.066   0.525   9.657 -0.1710  0.4670  0.1743
  137MPD2    C1 2086   4.684   0.618   9.672  0.0677  0.1583  0.0726
  137MPD2    C2 2087   4.705   0.719   9.759 -0.0634  0.1685  0.3655
  137MPD2    C3 2088   0.107   0.747   9.816 -0.6207 -0.0306 -0.1540
  137MPD2    C4 2089   0.208   0.660   9.792 -0.2708  0.3429 -0.0973
  137MPD2    C5 2090   0.185   0.545   9.717  0.0520 -0.1882 -0.2226
  137MPD2     H 2091   4.631   0.799   9.765  0.2789  0.3727  1.9049
  137MPD2    H1 2092   0.309   0.678   9.827 -0.5121 -0.6552  1.1193
  137MPD2    H2 2093   0.053   0.434   9.600 -2.2468  0.0418  1.3079
  137MPD2    H3 2094   0.265   0.474   9.702  0.6390  0.2679  0.7616
  137MPD2     N 2095   0.120   0.864   9.888 -0.0024  0.0851 -0.1136
  137MPD2    H5 2096   0.039   0.922   9.904 -0.2684 -0.3713  0.2123
  137MPD2    N1 2097   4.562   0.604   9.599 -0.0815  0.3158  0.2428
  137MPD2    H7 2098   4.498   0.680   9.619 -0.4803 -0.2233  1.0213
  138TCq2    C1 2099   4.530   0.495   9.522  0.0098 -0.1533  0.8440
  138TCq2    O2 2100   4.566   0.378   9.537  0.3345 -0.3061 -0.3032
  138TCq2    C2 2101   4.395   0.513   9.468 -0.1509 -0.4674  0.1740
  138TCq2    C3 2102   4.352   0.633   9.423 -0.6994  0.2441 -0.2261
  138TCq2    C4 2103   4.223   0.651   9.384  0.3610  0.0537 -0.2471
  138TCq2    C5 2104   4.136   0.548   9.384  0.1733 -0.2586  0.3609
  138TCq2    C6 2105   4.184   0.429   9.425 -0.4473 -0.3896 -0.5881
  138TCq2    C7 2106   4.315   0.407   9.465 -0.2932 -0.3471  0.0660
  138TCq2    C8 2107   4.086   0.339   9.472 -0.4428 -0.9738 -0.1997
  138TCq2    O4 2108   4.107   0.220   9.469 -0.1562 -0.3125  0.1154
  138TCq2    C9 2109   4.179   0.767   9.325 -0.0777 -0.4168  0.6856
  138TCq2    O5 2110   4.056   0.791   9.324 -0.0179 -0.0899 -0.2705
  138TCq2    O6 2111   4.268   0.822   9.260 -0.3529  0.1056  0.5961
  138TCq2    H2 2112   4.417   0.719   9.421  0.1821 -0.4393 -0.9242
  138TCq2    H3 2113   4.038   0.562   9.338  0.5439 -1.8778 -0.9313
  138TCq2    H4 2114   4.349   0.317   9.514  0.3486  0.2357  0.6912
  139TMC2    C1 2115   0.141   4.608  13.835 -0.1520  0.1005 -0.1644
  139TMC2    C2 2116   0.267   4.611  13.883 -0.4811 -0.1013 -0.1439
  139TMC2    C3 2117   0.304   0.004  13.936  0.3281 -0.3969  0.0541
  139TMC2    C4 2118   0.053   4.707  13.852  0.7004 -0.0053 -0.4635
  139TMC2    C5 2119   0.097   0.105  13.902  0.4188  0.6039  0.6281
  139TMC2    C6 2120   0.226   0.114  13.953  0.6191 -0.9967 -0.2782
  139TMC2     C 2121   0.104   4.484  13.761  0.8992  0.4750 -0.0069
  139TMC2     O 2122   0.194   4.401  13.751  0.1296 -0.2587  0.3205
  139TMC2     H 2123   0.329   4.522  13.884  2.5819  2.0230  2.5896
  139TMC2    H1 2124   4.676   4.704  13.806  1.1687 -1.1410 -1.3933
  139TMC2    H2 2125   0.264   0.211  13.983 -4.4097 -0.3527  4.0507
  139TMC2    C7 2126   0.000   0.217  13.916  0.2912 -0.0550  0.0390
  139TMC2    C8 2127   0.415   4.716  14.031 -0.2941 -0.1350  0.1411
  139TMC2    O1 2128   0.013   0.294  14.011  0.6169  0.2391  1.0740
  139TMC2    O2 2129   0.424   0.077  14.122  0.4750  0.2757  0.2782
  139TMC2    O5 2130   0.509   4.629  13.995 -0.2752  0.1187 -0.3721
  139TMC2    H5 2131   0.495   4.590  13.907  0.5785  1.4589 -1.0982
  140MPD2     C 2132   4.487   4.373  13.663 -0.3476  0.0550 -0.7525
  140MPD2    C1 2133   4.619   4.361  13.687 -0.1232 -0.4999  0.0226
  140MPD2    C2 2134   4.674   4.237  13.678  0.1568 -0.4707  0.5344
  140MPD2    C3 2135   4.601   4.123  13.646  0.2081 -0.6370 -0.5774
  140MPD2    C4 2136   4.471   4.138  13.623  0.2712 -0.5422  0.2769
  140MPD2    C5 2137   4.411   4.256  13.645 -0.4026 -0.4474  0.5466
  140MPD2     H 2138   0.057   4.224  13.704  0.2893  2.1542  1.2511
  140MPD2    H1 2139   4.404   4.055  13.606  0.4713 -0.4869 -0.7930
  140MPD2    H2 2140   4.438   4.468  13.684  1.3754  0.9238 -0.6813
  140MPD2    H3 2141   4.303   4.270  13.641 -0.4074 -1.4270 -2.3534
  140MPD2     N 2142   4.675   4.008  13.625  0.6430 -0.4663 -0.5739
  140MPD2    H5 2143   0.055   4.021  13.624  0.5295  0.3123 -1.8713
  140MPD2    N1 2144   4.691   4.475  13.732 -0.3262  0.1823 -0.4644
  140MPD2    H7 2145   4.629   4.554  13.749 -0.4527 -0.3040  1.3733
  141TCq2    C1 2146   0.694   1.164  14.822  0.1813  0.2740  0.5482
  141TCq2    O2 2147   0.732   1.244  14.735 -0.2019 -0.5193 -0.1895
  141TCq2    C2 2148   0.607   1.218  14.927 -0.0549 -0.1892 -0.9550
  141TCq2    C3 2149   0.620   1.184  15.056  0.3545 -0.0143  0.4100
  141TCq2    C4 2150   0.565   1.269  15.150  0.3993  0.4483 -0.3686
  141TCq2    C5 2151   0.512   1.391  15.108  0.0748  0.1594 -0.1685
  141TCq2    C6 2152   0.493   1.424  14.981 -0.6145 -0.2631 -0.4502
  141TCq2    C7 2153   0.533   1.330  14.894  0.1332  0.4075  0.2535
  141TCq2    C8 2154   0.533   1.561  14.954  0.0581  0.2843 -0.3661
  141TCq2    O4 2155   0.482   1.655  15.016  0.1557  0.2256 -0.1545
  141TCq2    C9 2156   0.588   1.248  15.290 -0.0853  1.0200 -0.0554
  141TCq2    O5 2157   0.660   1.150  15.330  0.2724  0.3190 -0.1432
  141TCq2    O6 2158   0.511   1.311  15.365 -0.1144  0.3220  0.4064
  141TCq2    H2 2159   0.689   1.108  15.091 -0.2898 -0.2556  1.1718
  141TCq2    H3 2160   0.482   1.465  15.181  0.8085 -0.8361  1.1585
  141TCq2    H4 2161   0.508   1.345  14.789 -1.3852 -0.4621  0.4850
  142MPD2     C 2162   3.524   3.933  10.367 -0.1845  0.1636  0.5899
  142MPD2    C1 2163   3.481   3.845  10.273  0.4264 -0.4051 -0.9888
  142MPD2    C2 2164   3.499   3.877  10.137 -0.9245  0.8194 -0.3495
  142MPD2    C3 2165   3.543   3.998  10.088 -0.5934 -0.6229  0.6434
  142MPD2    C4 2166   3.596   4.084  10.182  0.1869  0.5186  0.0218
  142MPD2    C5 2167   3.577   4.047  10.315 -0.3925 -0.5537 -0.6792
  142MPD2     H 2168   3.473   3.797  10.069 -2.4448 -1.5122  2.9877
  142MPD2    H1 2169   3.641   4.178  10.155  0.7014  0.8902  2.1926
  142MPD2    H2 2170   3.524   3.920  10.475  0.9533 -0.4074  0.5266
  142MPD2    H3 2171   3.610   4.121  10.387  1.5163 -0.6002 -1.5214
  142MPD2     N 2172   3.552   4.040   9.954  0.6190 -0.7170  0.8088
  142MPD2    H5 2173   3.599   4.129   9.939  1.8634 -1.4472  0.3576
  142MPD2    N1 2174   3.430   3.722  10.322  0.1813  0.0953  0.4664
  142MPD2    H7 2175   3.431   3.710  10.423 -0.9715 -1.4973  0.2897
  143TCq2    C1 2176   3.511   3.970   9.846 -0.6937  0.5734 -0.2554
  143TCq2    O2 2177   3.438   3.871   9.838  0.5411 -0.1330 -0.7479
  143TCq2    C2 2178   3.556   4.023   9.726  0.7657  0.3651  0.0607
  143TCq2    C3 2179   3.484   3.999   9.612  0.1501 -0.0010  0.5477
  143TCq2    C4 2180   3.529   4.055   9.493  0.0984  0.4580 -0.1037
  143TCq2    C5 2181   3.627   4.147   9.494  0.2008 -0.0017 -0.2695
  143TCq2    C6 2182   3.690   4.170   9.609 -0.2773  0.7524  0.5196
  143TCq2    C7 2183   3.666   4.112   9.732  0.4381  0.6797 -0.0510
  143TCq2    C8 2184   3.790   4.275   9.617 -0.9473 -0.5065 -0.1132
  143TCq2    O4 2185   3.806   4.318   9.729 -0.1786  0.2675 -0.7029
  143TCq2    C9 2186   3.463   4.010   9.372 -0.3690  0.4771  0.2813
  143TCq2    O5 2187   3.494   4.083   9.272 -0.5711 -0.1772  0.0213
  143TCq2    O6 2188   3.406   3.902   9.379  0.3441  0.2015 -0.1528
  143TCq2    H2 2189   3.389   3.947   9.615 -1.5458  3.0963  0.2267
  143TCq2    H3 2190   3.661   4.195   9.403 -0.6632  2.4474  0.6996
  143TCq2    H4 2191   3.731   4.131   9.816  3.4258  0.7804 -2.3540
  144MPD2     C 2192   1.501   3.881   0.678  0.7525  0.7542 -0.6538
  144MPD2    C1 2193   1.511   3.757   0.624 -0.4548 -0.0168  0.4723
  144MPD2    C2 2194   1.632   3.698   0.623 -0.0802  0.5362  0.4338
  144MPD2    C3 2195   1.750   3.764   0.656 -0.8531 -0.3999  0.4695
  144MPD2    C4 2196   1.741   3.894   0.697  0.9582  0.2696 -0.0789
  144MPD2    C5 2197   1.618   3.950   0.709  1.5617 -0.1851 -0.2616
  144MPD2     H 2198   1.638   3.594   0.593  1.2225  0.4176  1.0925
  144MPD2    H1 2199   1.833   3.949   0.715 -0.0836  2.3616 -1.1227
  144MPD2    H2 2200   1.406   3.931   0.691  0.1137 -1.1395  1.9114
  144MPD2    H3 2201   1.611   4.049   0.752 -1.3741 -0.7000  0.4644
  144MPD2     N 2202   1.878   3.700   0.660 -0.0770 -0.0015  0.1117
  144MPD2    H5 2203   1.955   3.764   0.677  1.4901 -1.9561  0.4484
  144MPD2    N1 2204   1.401   3.680   0.595 -0.1213 -0.1076 -0.1416
  144MPD2    H7 2205   1.422   3.581   0.606 -2.9198 -0.5283  1.2897
  145TCq2    C1 2206   1.912   3.572   0.615 -0.3497 -0.4470  0.1676
  145TCq2    O2 2207   1.840   3.487   0.558 -0.4937  0.2264  0.7338
  145TCq2    C2 2208   2.056   3.548   0.627  0.4408 -0.2321  0.4399
  145TCq2    C3 2209   2.117   3.460   0.537  0.2707 -0.5325 -0.4163
  145TCq2    C4 2210   2.255   3.447   0.544 -0.3436  0.0679 -0.4284
  145TCq2    C5 2211   2.331   3.510   0.641 -0.2813  0.8233  1.0250
  145TCq2    C6 2212   2.264   3.587   0.733 -0.2065 -0.4005  0.0212
  145TCq2    C7 2213   2.128   3.608   0.725  0.6797 -0.1051 -0.2286
  145TCq2    C8 2214   2.335   3.620   0.856  0.7305  0.7050  0.0627
  145TCq2    O4 2215   2.443   3.569   0.865  0.0911  0.4185  1.1844
  145TCq2    C9 2216   2.323   3.365   0.440 -0.3017 -0.0316 -0.2218
  145TCq2    O5 2217   2.261   3.336   0.337  0.1738 -0.1722  0.2922
  145TCq2    O6 2218   2.437   3.315   0.472 -0.4583  0.1749 -0.0040
  145TCq2    H2 2219   2.058   3.422   0.454 -0.6029  0.0902 -0.0817
  145TCq2    H3 2220   2.439   3.506   0.634 -0.2964 -2.3170  2.5867
  145TCq2    H4 2221   2.077   3.670   0.798  0.9336 -0.0717 -0.0812
  146TMC2    C1 2222   2.683   2.263  12.174  0.3044 -0.5757 -0.5028
  146TMC2    C2 2223   2.706   2.320  12.048 -0.4958  0.0736 -0.1984
  146TMC2    C3 2224   2.713   2.235  11.940 -0.5774 -0.4269 -0.5830
  146TMC2    C4 2225   2.645   2.127  12.186 -0.5329  0.0551 -0.0057
  146TMC2    C5 2226   2.660   2.047  12.071 -0.0934  0.4339 -0.5827
  146TMC2    C6 2227   2.706   2.096  11.955 -1.1028 -0.2790 -0.6493
  146TMC2     C 2228   2.688   2.349  12.292 -0.2480  0.7044 -0.1241
  146TMC2     O 2229   2.691   2.469  12.276 -0.1564 -0.5845 -0.2057
  146TMC2     H 2230   2.725   2.426  12.037 -2.6698  0.2191 -2.5724
  146TMC2    H1 2231   2.609   2.093  12.283  1.6189  2.1132  1.5269
  146TMC2    H2 2232   2.719   2.030  11.870  0.1674  0.6190 -1.1649
  146TMC2    C7 2233   2.691   1.914  12.097 -0.4655 -0.3421 -0.7763
  146TMC2    C8 2234   2.738   2.285  11.808  0.5685 -0.3088  0.3112
  146TMC2    O1 2235   2.791   1.867  12.045  0.4016  0.5685 -0.2546
  146TMC2    O2 2236   2.798   2.228  11.716 -0.5517  0.4929  0.2407
  146TMC2    O5 2237   2.673   2.405  11.799  0.0261 -0.2010  0.4563
  146TMC2    H5 2238   2.618   2.425  11.877 -0.8429 -1.0188  0.0477
  147MPD2     C 2239   2.640   1.639  12.520 -0.3400  0.5135 -0.0769
  147MPD2    C1 2240   2.758   1.681  12.449 -0.0380 -0.2841 -0.6024
  147MPD2    C2 2241   2.743   1.745  12.328  0.9794  0.5819  0.9155
  147MPD2    C3 2242   2.613   1.763  12.276  0.6407 -0.3509 -0.4403
  147MPD2    C4 2243   2.502   1.714  12.337 -0.6978  0.1569 -0.8922
  147MPD2    C5 2244   2.518   1.652  12.463  0.1708 -0.5140  0.1452
  147MPD2     H 2245   2.828   1.799  12.289  0.8254 -0.6284 -1.1039
  147MPD2    H1 2246   2.403   1.722  12.294 -0.6620 -2.3013 -1.4681
  147MPD2    H2 2247   2.664   1.583  12.609 -0.5103  1.3581  0.4914
  147MPD2    H3 2248   2.430   1.607  12.509  0.1930  0.6716  1.3344
  147MPD2     N 2249   2.596   1.864  12.183  0.1758  0.2703  0.7086
  147MPD2    H5 2250   2.502   1.898  12.168 -0.5029 -1.0289  2.0215
  147MPD2    N1 2251   2.883   1.683  12.511 -0.5502  0.3162  0.5669
  147MPD2    H7 2252   2.892   1.661  12.610  1.0473  0.7806  0.5138
  148MPD2     C 2253   2.799   0.113  11.091  0.4791  0.3496  0.3872
  148MPD2    C1 2254   2.832   0.166  10.971 -0.4683  0.0365  0.6958
  148MPD2    C2 2255   2.727   0.189  10.884 -0.6222  0.6632 -0.3377
  148MPD2    C3 2256   2.595   0.178  10.913  0.4816  0.5151  0.2840
  148MPD2    C4 2257   2.561   0.122  11.036 -0.3532 -0.2242 -1.3018
  148MPD2    C5 2258   2.668   0.095  11.122 -1.1877 -0.9812  0.1246
  148MPD2     H 2259   2.741   0.243  10.791 -0.4113  2.9333  1.0176
  148MPD2    H1 2260   2.460   0.114  11.073 -0.1352  0.8700 -0.4802
  148MPD2    H2 2261   2.868   0.078  11.167  1.2819  0.1377 -0.4381
  148MPD2    H3 2262   2.630   0.052  11.214  1.1780 -1.0554  1.0736
  148MPD2     N 2263   2.506   0.217  10.812 -0.0748  0.0129  0.1913
  148MPD2    H5 2264   2.549   0.244  10.724  0.5888  0.9163  0.8023
  148MPD2    N1 2265   2.957   0.205  10.925  0.1287 -0.4654 -0.3907
  148MPD2    H7 2266   2.967   0.221  10.825  0.1997  0.7067 -0.2003
  149TCq2    C1 2267   3.064   0.215  11.007  0.0336  0.2432  1.1144
  149TCq2    O2 2268   3.075   0.192  11.130 -0.1727 -0.7349  0.0579
  149TCq2    C2 2269   3.166   0.296  10.938 -0.1770  0.4252 -1.2119
  149TCq2    C3 2270   3.186   0.415  10.998 -0.0378 -0.1611 -0.3747
  149TCq2    C4 2271   3.222   0.518  10.916  0.2851  0.0764  0.0456
  149TCq2    C5 2272   3.236   0.508  10.780  0.7078  0.1714  0.0057
  149TCq2    C6 2273   3.218   0.382  10.720  0.2519 -0.0530 -0.3376
  149TCq2    C7 2274   3.177   0.276  10.802 -0.0797  0.6815 -1.2365
  149TCq2    C8 2275   3.148   0.376  10.588 -0.9606  0.4793  0.0724
  149TCq2    O4 2276   3.054   0.298  10.588 -0.1470 -0.6653 -0.3817
  149TCq2    C9 2277   3.224   0.654  10.968  0.0375 -0.5497  0.7888
  149TCq2    O5 2278   3.196   0.664  11.088 -0.0786  0.8722  0.4819
  149TCq2    O6 2279   3.220   0.751  10.884 -0.3004 -1.1500  0.5138
  149TCq2    H2 2280   3.182   0.422  11.106  0.7885  1.4897 -0.4535
  149TCq2    H3 2281   3.258   0.597  10.723  2.7620  0.2250  0.9052
  149TCq2    H4 2282   3.150   0.183  10.755 -0.5653 -1.4441  3.1809
  150MPD2     C 2283   4.679   4.557  12.011 -0.5474 -0.1751 -0.8553
  150MPD2    C1 2284   4.702   4.641  11.900 -0.0913 -0.5242  0.5787
  150MPD2    C2 2285   0.037   0.042  11.921  0.5455  0.0846 -0.2007
  150MPD2    C3 2286   0.072   0.094  12.043 -0.0482 -0.7983 -0.4734
  150MPD2    C4 2287   0.046   0.017  12.150  0.6068  0.1185  0.1371
  150MPD2    C5 2288   4.715   4.612  12.137 -0.1831  0.6283  1.2574
  150MPD2     H 2289   0.066   0.105  11.838 -2.4166 -0.9809 -2.0344
  150MPD2    H1 2290   0.061   0.053  12.251 -0.5732  2.2209 -0.4352
  150MPD2    H2 2291   4.647   4.454  12.001  2.4363 -1.0145 -2.0326
  150MPD2    H3 2292   4.697   4.546  12.221 -0.8344 -3.5848 -2.1955
  150MPD2     N 2293   0.127   0.225  12.052 -0.4822 -0.6344  0.4681
  150MPD2    H5 2294   0.140   0.274  11.964  0.6629 -3.2604 -0.8501
  150MPD2    N1 2295   4.669   4.590  11.770  0.1391  0.1760  0.1017
  150MPD2    H7 2296   4.624   4.500  11.762  0.3346  0.1244 -0.4393
  151TCq2    C1 2297   0.185   0.275  12.165  0.0747  0.4959  0.4527
  151TCq2    O2 2298   0.213   0.217  12.269 -0.1559  0.3850 -0.2259
  151TCq2    C2 2299   0.226   0.412  12.153 -0.1657 -0.1170 -0.2252
  151TCq2    C3 2300   0.217   0.474  12.027 -0.0384  0.2899  0.4033
  151TCq2    C4 2301   0.269   0.602  12.013 -0.2343 -0.1169 -0.7991
  151TCq2    C5 2302   0.346   0.670  12.107  0.3199  0.3391 -0.2325
  151TCq2    C6 2303   0.374   0.593  12.220 -0.3077 -0.2678  0.9763
  151TCq2    C7 2304   0.310   0.472  12.247 -0.1754 -0.0310  0.2013
  151TCq2    C8 2305   0.483   0.628  12.308  0.8738 -0.2912 -0.1100
  151TCq2    O4 2306   0.533   0.737  12.284 -0.3123 -0.0858  0.6502
  151TCq2    C9 2307   0.237   0.676  11.895  0.6975 -0.4610 -0.2545
  151TCq2    O5 2308   0.235   0.803  11.908 -0.4973 -0.6392  0.0627
  151TCq2    O6 2309   0.192   0.614  11.796  0.5308 -0.1055  0.3777
  151TCq2    H2 2310   0.132   0.456  11.961  1.3952 -0.2845 -1.2870
  151TCq2    H3 2311   0.383   0.771  12.092  0.2404  0.3172 -0.5679
  151TCq2    H4 2312   0.309   0.427  12.346 -0.8892 -1.9885 -0.6982
  152MPD2     C 2313   4.294   4.225  12.636 -0.2226 -0.7028 -0.2307
  152MPD2    C1 2314   4.321   4.347  12.591 -0.1947  0.5640 -0.6896
  152MPD2    C2 2315   4.221   4.403  12.522 -0.8857 -0.0333 -0.4987
  152MPD2    C3 2316   4.098   4.344  12.500  0.3222  0.7486 -0.0586
  152MPD2    C4 2317   4.074   4.214  12.550 -0.2388 -0.0250  0.0296
  152MPD2    C5 2318   4.181   4.154  12.603  0.0772 -0.1020 -0.1141
  152MPD2     H 2319   4.245   4.501  12.481 -1.5511  1.3549  2.4130
  152MPD2    H1 2320   3.982   4.162  12.523 -1.0444  0.6812  1.3965
  152MPD2    H2 2321   4.379   4.168  12.671 -0.5225 -1.1899 -0.3008
  152MPD2    H3 2322   4.174   4.051  12.637  0.7598  0.0364  0.4445
  152MPD2     N 2323   4.002   4.418  12.429 -0.5666 -0.5559 -0.0900
  152MPD2    H5 2324   4.037   4.489  12.366 -1.0120  1.0562  1.4955
  152MPD2    N1 2325   4.449   4.403  12.614  0.6024  0.2673  0.5876
  152MPD2    H7 2326   4.519   4.348  12.663 -0.2663 -0.8576  0.5578
  153TCq2    C1 2327   4.480   4.533  12.572 -0.6662 -0.0489  0.6997
  153TCq2    O2 2328   4.418   4.605  12.492 -0.4587 -0.0838  0.0631
  153TCq2    C2 2329   4.601   4.577  12.634  0.2400  0.2618  0.7183
  153TCq2    C3 2330   4.629   4.548  12.764  0.9775 -0.4419 -0.1832
  153TCq2    C4 2331   4.712   4.632  12.838  0.8775  0.4778  0.3408
  153TCq2    C5 2332   0.058   0.013  12.777  0.0226 -0.2998 -0.1420
  153TCq2    C6 2333   0.022   0.049  12.653 -0.0213 -0.6963 -0.5205
  153TCq2    C7 2334   4.656   4.695  12.576  0.2531 -0.2773 -0.5009
  153TCq2    C8 2335   0.046   0.192  12.622 -0.5536  0.0028 -0.3621
  153TCq2    O4 2336   4.683   0.249  12.551  0.0212 -0.4690  0.3188
  153TCq2    C9 2337   0.006   4.598  12.970 -0.2695  0.1414  1.5349
  153TCq2    O5 2338   0.107   4.636  13.039  0.5622  0.4257 -0.1131
  153TCq2    O6 2339   4.619   4.557  13.018  0.4632 -0.3712 -0.1080
  153TCq2    H2 2340   4.583   4.462  12.811  1.0454 -1.5216 -2.1152
  153TCq2    H3 2341   0.119   0.065  12.850  1.7715 -2.4885 -0.0341
  153TCq2    H4 2342   4.618   4.721  12.478 -0.9378  1.7810  0.5082
  154MPD2     C 2343   1.776   0.033   0.207 -0.0551  0.5242  0.2585
  154MPD2    C1 2344   1.784   0.033   0.348 -0.0983  0.0980  0.0155
  154MPD2    C2 2345   1.710   0.120   0.426 -0.4754  0.4961 -0.3724
  154MPD2    C3 2346   1.625   0.211   0.366 -0.8667  0.0923 -0.7669
  154MPD2    C4 2347   1.608   0.206   0.232  0.4179  0.8138 -0.9373
  154MPD2    C5 2348   1.678   0.119   0.150  0.1775  0.2229  0.2087
  154MPD2     H 2349   1.725   0.115   0.534 -1.1915  3.0194 -0.1538
  154MPD2    H1 2350   1.537   0.272   0.185 -0.0240  0.9269 -0.1099
  154MPD2    H2 2351   1.827   4.689   0.136  0.2111  1.2717 -0.2272
  154MPD2    H3 2352   1.669   0.125   0.043 -2.2515 -1.1372  0.3402
  154MPD2     N 2353   1.554   0.297   0.450 -1.0489 -0.1592  0.1522
  154MPD2    H5 2354   1.586   0.290   0.547 -2.5078  0.6484  0.6887
  154MPD2    N1 2355   1.867   4.658   0.406 -0.9456 -0.3761  0.2940
  154MPD2    H7 2356   1.918   4.604   0.336  0.3846  0.3209  0.7196
  155TCq2    C1 2357   1.878   4.629   0.542  0.6663 -0.1297  0.5334
  155TCq2    O2 2358   1.806   4.663   0.632  0.3848 -0.0426 -0.4054
  155TCq2    C2 2359   1.999   4.567   0.588 -0.7657 -0.0287 -0.5257
  155TCq2    C3 2360   2.012   4.549   0.723 -0.0974 -0.2729 -0.6457
  155TCq2    C4 2361   2.114   4.496   0.783  0.0762  0.2727  0.0369
  155TCq2    C5 2362   2.201   4.427   0.697  0.7115  0.1214 -0.8339
  155TCq2    C6 2363   2.179   4.427   0.560 -0.3064 -0.5333 -1.0329
  155TCq2    C7 2364   2.081   4.503   0.502  0.3348  0.0133  0.0550
  155TCq2    C8 2365   2.248   4.330   0.474 -0.5585  0.2506  0.0835
  155TCq2    O4 2366   2.191   4.277   0.381  0.0657  0.7253 -0.0727
  155TCq2    C9 2367   2.141   4.508   0.923  0.4009 -1.1424  0.4940
  155TCq2    O5 2368   2.080   4.600   0.988  0.2829  0.7917  0.1448
  155TCq2    O6 2369   2.253   4.462   0.957  0.3937 -0.0253 -0.6387
  155TCq2    H2 2370   1.943   4.599   0.791  0.0869 -1.3818  0.3650
  155TCq2    H3 2371   2.283   4.374   0.745 -0.4237 -1.2231 -0.3765
  155TCq2    H4 2372   2.068   4.512   0.395 -1.5456  0.9571  0.3684
  156MPD2     C 2373   0.459   2.161  12.222  0.2441  0.0211 -0.4763
  156MPD2    C1 2374   0.381   2.236  12.134 -0.1004  0.6523 -1.2235
  156MPD2    C2 2375   0.301   2.336  12.185 -0.1509  0.7565  0.2664
  156MPD2    C3 2376   0.300   2.366  12.321 -0.0236  0.5867 -0.1313
  156MPD2    C4 2377   0.373   2.288  12.409 -0.1752 -0.1205  0.3172
  156MPD2    C5 2378   0.454   2.190  12.359  0.2606  0.2588 -0.0499
  156MPD2     H 2379   0.235   2.381  12.111  0.6969  0.1543 -0.8731
  156MPD2    H1 2380   0.350   2.299  12.515 -0.6209  0.8781  0.1168
  156MPD2    H2 2381   0.520   2.080  12.184 -0.6962 -1.2231  0.6849
  156MPD2    H3 2382   0.502   2.123  12.430  3.5036  0.8413 -1.6973
  156MPD2     N 2383   0.217   2.473  12.361  0.0047  0.4288  0.8491
  156MPD2    H5 2384   0.166   2.523  12.289  1.6775  0.8942 -0.0214
  156MPD2    N1 2385   0.377   2.200  11.996 -0.0388  0.0316 -0.9746
  156MPD2    H7 2386   0.421   2.112  11.973  1.5758  0.8339 -0.9891
  157TCq2    C1 2387   0.310   2.260  11.887 -0.1082  0.0515  0.5006
  157TCq2    O2 2388   0.249   2.365  11.886 -0.0061 -0.3874 -0.2193
  157TCq2    C2 2389   0.319   2.185  11.766  0.6524 -0.4463 -0.4775
  157TCq2    C3 2390   0.390   2.069  11.753 -0.3620  0.4381  0.4909
  157TCq2    C4 2391   0.430   2.021  11.634 -0.1028 -0.0940 -0.4049
  157TCq2    C5 2392   0.399   2.088  11.514 -0.2935  0.4821  0.2088
  157TCq2    C6 2393   0.327   2.205  11.522  0.2322  0.0443  1.0115
  157TCq2    C7 2394   0.292   2.249  11.648  1.0414  0.4854 -0.3946
  157TCq2    C8 2395   0.280   2.275  11.409 -0.3724 -0.3453 -0.3363
  157TCq2    O4 2396   0.300   2.400  11.397 -0.0356 -0.3963  0.0625
  157TCq2    C9 2397   0.498   1.897  11.639 -0.2483 -0.2069 -0.3769
  157TCq2    O5 2398   0.513   1.843  11.526  0.0597 -0.3535 -0.4437
  157TCq2    O6 2399   0.510   1.825  11.741 -0.0461 -0.9425  0.2766
  157TCq2    H2 2400   0.419   2.000  11.832  3.4406  1.9614  0.4210
  157TCq2    H3 2401   0.436   2.047  11.420 -1.6571  4.5879 -2.1049
  157TCq2    H4 2402   0.241   2.344  11.655  0.2882  0.0080  0.6679
  158TMC2    C1 2403   4.593   1.494  13.335  1.0040  0.1474 -0.2841
  158TMC2    C2 2404   4.559   1.574  13.227  0.2246  0.3977  0.2962
  158TMC2    C3 2405   4.428   1.565  13.180  0.2016 -0.1940 -0.1512
  158TMC2    C4 2406   4.505   1.404  13.393  0.9775 -0.5497 -0.1139
  158TMC2    C5 2407   4.375   1.405  13.344 -0.4220 -0.3618  0.1749
  158TMC2    C6 2408   4.333   1.487  13.247 -0.3670 -0.3882  0.5754
  158TMC2     C 2409   0.010   1.489  13.358  0.7317 -0.4219  0.5333
  158TMC2     O 2410   0.091   1.549  13.283 -0.0813  0.2165 -0.3666
  158TMC2     H 2411   4.634   1.642  13.187  0.9905 -0.0611  0.9511
  158TMC2    H1 2412   4.545   1.334  13.466  1.9880  2.1456  1.8909
  158TMC2    H2 2413   4.230   1.485  13.212 -0.0197  1.7365 -0.5878
  158TMC2    C7 2414   4.271   1.328  13.405  0.8034  0.7325 -0.4838
  158TMC2    C8 2415   4.392   1.670  13.092 -0.4677  0.3455 -0.1376
  158TMC2    O1 2416   4.162   1.329  13.358  0.2337 -0.3678  0.4267
  158TMC2    O2 2417   4.473   1.757  13.067  0.1489  0.7384  0.3040
  158TMC2    O5 2418   4.262   1.660  13.059 -0.2857  0.4333 -0.1461
  158TMC2    H5 2419   4.226   1.569  13.058 -2.7116  1.3958  0.8890
  159MPD2     C 2420   0.420   1.382  13.644 -0.0545  0.5361 -0.3612
  159MPD2    C1 2421   0.306   1.378  13.728  0.1947  0.4198 -0.9895
  159MPD2    C2 2422   0.183   1.401  13.668 -0.0480  0.1531  0.2136
  159MPD2    C3 2423   0.166   1.411  13.534  0.5341 -0.1056 -0.1383
  159MPD2    C4 2424   0.277   1.399  13.453  0.2478  0.7574  0.7274
  159MPD2    C5 2425   0.399   1.388  13.508 -0.4783  0.7986  0.2575
  159MPD2     H 2426   0.093   1.409  13.729 -2.3082  0.0679 -3.1275
  159MPD2    H1 2427   0.267   1.397  13.345 -2.3987 -0.5205  1.0105
  159MPD2    H2 2428   0.519   1.364  13.683 -0.8647 -0.5971  1.1345
  159MPD2    H3 2429   0.481   1.372  13.438  1.0595  1.7078  1.8456
  159MPD2     N 2430   0.041   1.436  13.484  0.3023  0.3651  0.6031
  159MPD2    H5 2431   4.687   1.441  13.553 -1.0228  1.5355 -0.9050
  159MPD2    N1 2432   0.307   1.344  13.865  0.2524 -0.1436 -0.0043
  159MPD2    H7 2433   0.221   1.345  13.919  0.1387 -1.5913 -0.1598
  160TMC2    C1 2434   0.181   4.288   1.427 -0.1560  0.1447 -0.1307
  160TMC2    C2 2435   0.270   4.239   1.514  0.2583  0.0448 -0.1399
  160TMC2    C3 2436   0.396   4.201   1.475 -0.6396  0.2972 -0.3739
  160TMC2    C4 2437   0.216   4.302   1.297  0.2128  0.0372 -0.2044
  160TMC2    C5 2438   0.341   4.256   1.266 -0.3768  0.3195  0.0482
  160TMC2    C6 2439   0.438   4.206   1.345  0.4693 -0.2370 -0.7584
  160TMC2     C 2440   0.055   4.352   1.467  0.6095  0.1030 -0.2686
  160TMC2     O 2441   4.718   4.299   1.556 -0.0803 -0.2725  0.4938
  160TMC2     H 2442   0.242   4.237   1.619 -0.6985 -4.8255 -0.5185
  160TMC2    H1 2443   0.162   4.342   1.211 -1.3620  1.5346  1.4849
  160TMC2    H2 2444   0.532   4.168   1.306  0.4425 -1.0917  0.0056
  160TMC2    C7 2445   0.398   4.290   1.131 -0.5190 -0.5906 -0.6634
  160TMC2    C8 2446   0.483   4.122   1.563  0.5965  0.1149 -0.5621
  160TMC2    O1 2447   0.313   4.303   1.043 -0.3681 -0.5138  0.3056
  160TMC2    O2 2448   0.544   4.023   1.522  0.1121  0.7062  0.1319
  160TMC2    O5 2449   0.442   4.129   1.690 -0.8121  0.1459 -0.6737
  160TMC2    H5 2450   0.415   4.218   1.722  1.7708  1.2091 -1.4992
  161MPD2     C 2451   4.565   4.526   1.553  0.6044  0.3894 -0.1923
  161MPD2    C1 2452   4.623   4.536   1.430 -0.2046  0.1435 -0.0970
  161MPD2    C2 2453   4.562   4.625   1.341  0.3762  0.5732 -0.9863
  161MPD2    C3 2454   4.441   4.689   1.367 -0.5502 -0.0792  0.3350
  161MPD2    C4 2455   4.389   4.678   1.496 -0.0145 -0.1467  0.3309
  161MPD2    C5 2456   4.455   4.600   1.585  0.3050  0.3263  0.5349
  161MPD2     H 2457   4.611   4.635   1.244 -0.4426 -0.9644 -1.5537
  161MPD2    H1 2458   4.309   0.023   1.527 -1.8776 -1.7364 -1.0917
  161MPD2    H2 2459   4.607   4.456   1.624  2.2250  0.0498 -1.4683
  161MPD2    H3 2460   4.419   4.591   1.686  0.1919 -0.1748  0.4478
  161MPD2     N 2461   4.388   0.066   1.276 -0.2273 -0.2593  0.4728
  161MPD2    H5 2462   4.316   0.122   1.321 -0.8999  1.4584 -2.7479
  161MPD2    N1 2463   0.016   4.457   1.393  0.2977  0.2921  0.5398
  161MPD2    H7 2464   0.067   4.479   1.308 -1.5133  0.6809 -0.4524
  162TMC2    C1 2465   2.656   1.422   0.702  0.1722  0.6411  0.5140
  162TMC2    C2 2466   2.781   1.436   0.664 -0.6777  0.0271  0.3496
  162TMC2    C3 2467   2.880   1.432   0.759  0.8474 -0.0094 -0.1971
  162TMC2    C4 2468   2.615   1.405   0.828  0.6077  0.3484  0.1853
  162TMC2    C5 2469   2.713   1.393   0.919  0.2786 -0.0873  0.7157
  162TMC2    C6 2470   2.847   1.412   0.890  0.3090 -0.1260  0.2780
  162TMC2     C 2471   2.565   1.371   0.597 -0.4688 -0.6219  0.2696
  162TMC2     O 2472   2.629   1.331   0.496  0.0791  0.0065  0.3663
  162TMC2     H 2473   2.805   1.462   0.562  0.0703 -1.0776  0.2478
  162TMC2    H1 2474   2.512   1.386   0.858  0.7025  0.2114  0.4236
  162TMC2    H2 2475   2.923   1.433   0.964 -0.7050  1.2487  0.9238
  162TMC2    C7 2476   2.670   1.371   1.055 -0.1084 -1.0223 -0.3662
  162TMC2    C8 2477   3.022   1.455   0.730  0.1732 -0.1208 -0.5353
  162TMC2    O1 2478   2.567   1.431   1.088  0.6643  0.4586  0.3089
  162TMC2    O2 2479   3.100   1.507   0.808 -0.7732 -0.6082  0.0952
  162TMC2    O5 2480   3.044   1.426   0.602  0.0987  0.1566 -0.0778
  162TMC2    H5 2481   2.976   1.361   0.573 -0.1649 -0.1260  1.1689
  163MPD2     C 2482   2.156   1.285   0.314  0.5483  0.6047 -0.1200
  163MPD2    C1 2483   2.277   1.225   0.320  0.0064 -0.1672 -1.1425
  163MPD2    C2 2484   2.365   1.253   0.416 -0.3262 -0.3211  0.9738
  163MPD2    C3 2485   2.337   1.347   0.512  0.2854  0.4433  0.2497
  163MPD2    C4 2486   2.215   1.415   0.508 -0.5401 -0.1731  0.3342
  163MPD2    C5 2487   2.131   1.391   0.404  0.5380 -0.0791  0.0400
  163MPD2     H 2488   2.455   1.193   0.420  1.1833  1.9448  1.0336
  163MPD2    H1 2489   2.188   1.496   0.575  2.3048  1.6665 -0.7718
  163MPD2    H2 2490   2.082   1.271   0.237 -0.1436 -1.3131  0.8886
  163MPD2    H3 2491   2.037   1.445   0.400 -0.0877 -1.2671 -1.5662
  163MPD2     N 2492   2.427   1.384   0.613 -0.2220  0.0472 -0.1909
  163MPD2    H5 2493   2.398   1.458   0.675  1.3381  1.4506 -1.1365
  163MPD2    N1 2494   2.320   1.151   0.209 -0.0056  0.2585  0.2591
  163MPD2    H7 2495   2.418   1.126   0.202  0.1556 -0.0298  3.3145
  164TCq2    C1 2496   3.635   0.592  11.047 -0.4406 -0.5866  0.0637
  164TCq2    O2 2497   3.604   0.524  11.145  0.1723  0.3699  0.0552
  164TCq2    C2 2498   3.612   0.733  11.071  0.1920  0.4970  0.0271
  164TCq2    C3 2499   3.624   0.829  10.975 -0.0394 -0.4476  0.0952
  164TCq2    C4 2500   3.575   0.957  11.000 -0.3290 -0.2958  0.0232
  164TCq2    C5 2501   3.546   0.996  11.130 -0.5819  0.4219  0.5175
  164TCq2    C6 2502   3.554   0.900  11.224 -0.0728  0.1649 -0.4755
  164TCq2    C7 2503   3.591   0.769  11.200 -0.3124  0.1955 -0.5199
  164TCq2    C8 2504   3.456   0.908  11.336  0.0050  0.7446 -0.2404
  164TCq2    O4 2505   3.498   0.880  11.451  0.1755  0.3578 -0.1549
  164TCq2    C9 2506   3.592   1.059  10.896  0.8706 -0.0327 -0.0176
  164TCq2    O5 2507   3.622   1.000  10.782  0.5692  0.1647 -0.1191
  164TCq2    O6 2508   3.572   1.177  10.924  0.0734  0.1420  0.4433
  164TCq2    H2 2509   3.646   0.797  10.874  0.6383  1.8390 -0.4968
  164TCq2    H3 2510   3.529   1.099  11.159  1.6894  0.0960  2.9857
  164TCq2    H4 2511   3.603   0.697  11.279 -0.5599  1.8021  0.9732
  165MPD2     C 2512   4.128   3.059   1.660  0.2458  0.4502  0.2442
  165MPD2    C1 2513   4.123   3.192   1.623 -0.4530 -0.1702 -0.6022
  165MPD2    C2 2514   4.212   3.279   1.679  0.5945  0.0097  0.0780
  165MPD2    C3 2515   4.319   3.238   1.757 -0.2294 -0.7893  0.2098
  165MPD2    C4 2516   4.331   3.105   1.785  0.7152  0.5750 -0.1503
  165MPD2    C5 2517   4.231   3.018   1.742  0.4121 -0.8619  0.0180
  165MPD2     H 2518   4.185   3.378   1.645  1.0236  0.0485 -0.1501
  165MPD2    H1 2519   4.418   3.064   1.834  1.1491  1.0916 -0.4818
  165MPD2    H2 2520   4.057   2.982   1.632  0.1734  0.2494  0.9725
  165MPD2    H3 2521   4.240   2.916   1.776  2.2689 -0.3071  1.1784
  165MPD2     N 2522   4.416   3.324   1.798  0.2363  0.2922 -0.5520
  165MPD2    H5 2523   4.496   3.282   1.845  1.7663  0.2933 -3.1436
  165MPD2    N1 2524   4.024   3.245   1.538 -0.6253  0.1307 -0.4161
  165MPD2    H7 2525   4.041   3.339   1.504  0.7021 -0.0707 -0.2924
  166TCq2    C1 2526   4.409   3.465   1.797  0.1152  0.1710 -0.9212
  166TCq2    O2 2527   4.342   3.543   1.727 -0.6641 -0.1399  0.1673
  166TCq2    C2 2528   4.537   3.510   1.849  0.1976  0.2435 -0.2407
  166TCq2    C3 2529   4.578   3.464   1.968  0.2699 -0.1435  0.4136
  166TCq2    C4 2530   4.704   3.491   1.999 -0.2172 -0.1493  0.1832
  166TCq2    C5 2531   0.074   3.553   1.918 -0.5362  0.9068 -0.3037
  166TCq2    C6 2532   0.026   3.588   1.796  0.5293  0.1891  0.1233
  166TCq2    C7 2533   4.619   3.565   1.757 -0.2463 -0.0592  0.3204
  166TCq2    C8 2534   0.114   3.643   1.695 -0.4679  0.1739  0.2508
  166TCq2    O4 2535   0.237   3.646   1.703 -0.2485  0.2595 -0.0810
  166TCq2    C9 2536   0.029   3.420   2.117 -0.2164  0.7713  0.5413
  166TCq2    O5 2537   0.147   3.446   2.159  0.1949 -0.2256 -0.6659
  166TCq2    O6 2538   4.680   3.321   2.152 -0.1066  0.7261 -0.2558
  166TCq2    H2 2539   4.504   3.418   2.033 -0.3841  0.0675 -0.1838
  166TCq2    H3 2540   0.177   3.568   1.949  0.4675 -2.3504 -2.1325
  166TCq2    H4 2541   4.582   3.546   1.657  0.7565 -0.3585  0.0023
  167TMC2    C1 2542   2.322   0.491  12.829 -1.1439  0.3659  0.6712
  167TMC2    C2 2543   2.247   0.501  12.941 -0.3343  0.3915  1.0172
  167TMC2    C3 2544   2.253   0.409  13.037 -0.0724 -0.1347  0.4213
  167TMC2    C4 2545   2.403   0.379  12.807 -0.1672 -0.8677 -0.0758
  167TMC2    C5 2546   2.428   0.301  12.918 -0.3172  0.3243 -0.1767
  167TMC2    C6 2547   2.349   0.311  13.031 -0.3310  0.4824  0.1784
  167TMC2     C 2548   2.279   0.577  12.717  0.0421 -0.0383 -0.4775
  167TMC2     O 2549   2.173   0.632  12.721  0.3704  0.0565  0.5015
  167TMC2     H 2550   2.185   0.589  12.952 -1.3960 -0.2777  0.4031
  167TMC2    H1 2551   2.464   0.357  12.720 -1.3046  0.9746 -1.3461
  167TMC2    H2 2552   2.344   0.240  13.112  2.6090 -1.0851 -1.0358
  167TMC2    C7 2553   2.548   0.212  12.930  0.6024 -0.1225 -0.1575
  167TMC2    C8 2554   2.150   0.413  13.148 -0.2625 -0.3868 -0.1559
  167TMC2    O1 2555   2.569   0.155  13.037 -0.3531  0.9489  0.0713
  167TMC2    O2 2556   2.172   0.338  13.240 -0.0537  0.2703 -0.1482
  167TMC2    O5 2557   2.030   0.417  13.081 -0.3035  0.2423  0.2908
  167TMC2    H5 2558   2.019   0.485  13.011 -2.0687 -1.2305 -0.8936
  168MPD2     C 2559   2.275   0.756  12.479 -0.6212  0.5907  0.0066
  168MPD2    C1 2560   2.370   0.662  12.497  0.1096  0.4070  0.0560
  168MPD2    C2 2561   2.471   0.634  12.406 -0.8784  0.3600  0.0737
  168MPD2    C3 2562   2.491   0.707  12.291 -0.2776  0.6830 -1.1068
  168MPD2    C4 2563   2.395   0.801  12.269 -0.4374  0.0862  0.2055
  168MPD2    C5 2564   2.293   0.824  12.361  0.2052 -0.9550  0.1266
  168MPD2     H 2565   2.530   0.546  12.428 -0.2496  1.0863  1.2776
  168MPD2    H1 2566   2.386   0.853  12.175 -1.8923  1.5301  1.1379
  168MPD2    H2 2567   2.208   0.803  12.550 -1.2117  0.3612 -0.3953
  168MPD2    H3 2568   2.221   0.897  12.325  1.4938  0.7542  1.0344
  168MPD2     N 2569   2.589   0.675  12.190  0.0219  0.3274  0.0233
  168MPD2    H5 2570   2.598   0.733  12.107 -2.2262 -0.3628 -0.7054
  168MPD2    N1 2571   2.374   0.578  12.614 -0.6893 -0.3993 -0.0407
  168MPD2    H7 2572   2.453   0.517  12.632 -1.4084 -0.8893  1.4800
  169MPD1     C 2573   0.823   1.139   9.263 -0.4566 -0.0833  0.4394
  169MPD1    C1 2574   0.892   1.066   9.351  1.1780 -0.0108  0.0622
  169MPD1    C2 2575   0.876   0.927   9.348 -0.0112 -0.2163 -0.4046
  169MPD1    C3 2576   0.786   0.859   9.270 -0.1108 -0.4994 -0.5516
  169MPD1    C4 2577   0.715   0.937   9.180  0.7520 -0.0180  0.0332
  169MPD1    C5 2578   0.736   1.073   9.176  0.0578 -0.7426  0.7042
  169MPD1     H 2579   0.936   0.873   9.420  2.3210  0.7255 -1.6584
  169MPD1    H1 2580   0.635   0.891   9.122  1.2959 -1.9495  0.8427
  169MPD1    H2 2581   0.830   1.246   9.250  1.3345 -0.2995 -0.3267
  169MPD1    H3 2582   0.688   1.128   9.095  0.7581 -0.5538  0.4188
  169MPD1     N 2583   0.768   0.717   9.284 -0.0979 -0.1140 -0.1393
  169MPD1    H5 2584   0.803   0.671   9.367  3.5593  1.2298 -0.9370
  169MPD1    N1 2585   1.000   1.129   9.414  0.2278 -0.2306  0.5562
  169MPD1    H6 2586   1.012   1.097   9.509 -0.7604 -0.4310  0.6171
  169MPD1    H7 2587   0.979   1.227   9.434  0.9899  0.2078 -0.8027
  170MPD1     C 2588   3.517   3.001  12.872 -0.0563 -0.6645 -0.5618
  170MPD1    C1 2589   3.417   3.024  12.962 -0.0990  0.2912  0.3445
  170MPD1    C2 2590   3.456   3.041  13.089  0.0664 -0.2330 -0.1722
  170MPD1    C3 2591   3.587   3.049  13.128 -0.3269  0.1526 -0.6390
  170MPD1    C4 2592   3.685   3.033  13.033  0.2205 -0.3498  0.5728
  170MPD1    C5 2593   3.649   3.006  12.906 -0.0148  0.3308 -0.3863
  170MPD1     H 2594   3.383   3.066  13.165  1.0142 -1.5906  1.1865
  170MPD1    H1 2595   3.790   3.033  13.060  0.3534 -1.5175  0.0762
  170MPD1    H2 2596   3.494   2.958  12.775 -2.1607 -2.3521  0.6785
  170MPD1    H3 2597   3.727   2.991  12.832  1.2251 -2.1654  1.4184
  170MPD1     N 2598   3.596   3.085  13.267 -0.0866 -0.1138 -0.6086
  170MPD1    H5 2599   3.516   3.124  13.316 -0.5526 -0.6583 -0.9283
  170MPD1    N1 2600   3.289   3.001  12.917 -0.5127 -0.2276  0.1368
  170MPD1    H6 2601   3.271   3.059  12.835 -1.6297 -0.5315  0.1586
  170MPD1    H7 2602   3.213   3.015  12.983  1.6092  0.1090  2.4985
  171MPD1     C 2603   2.039   4.029  15.773 -0.5523 -0.3190  0.0198
  171MPD1    C1 2604   2.032   3.894  15.749  0.2674  0.1533  0.4821
  171MPD1    C2 2605   2.143   3.829  15.735 -0.3557  0.2375  0.2815
  171MPD1    C3 2606   2.269   3.878  15.755 -0.6158  1.1424 -0.4231
  171MPD1    C4 2607   2.277   4.005  15.798  0.5578  0.2566 -0.6966
  171MPD1    C5 2608   2.163   4.083  15.807 -0.1055 -0.5832 -0.2898
  171MPD1     H 2609   2.131   3.726  15.706 -0.2756  0.0004  1.1017
  171MPD1    H1 2610   2.374   4.047  15.823  0.9909 -0.8251 -0.5215
  171MPD1    H2 2611   1.951   4.092  15.784  0.6652  1.6214 -1.3046
  171MPD1    H3 2612   2.172   4.185  15.845  0.7128 -1.2911  1.4340
  171MPD1     N 2613   2.381   3.792  15.749  0.3002  0.2559 -0.7774
  171MPD1    H5 2614   2.463   3.837  15.789 -0.4163  0.2974  0.6387
  171MPD1    N1 2615   1.906   3.830  15.723 -0.3088  0.3972 -0.1951
  171MPD1    H6 2616   1.911   3.736  15.764 -1.4880 -0.1532 -1.3250
  171MPD1    H7 2617   1.831   3.890  15.755 -0.4361 -0.0321  0.3144
  172MPD1     C 2618   1.631   3.264   0.245 -0.0066 -0.0669 -1.0763
  172MPD1    C1 2619   1.549   3.375   0.241  0.0269 -0.0096 -0.5241
  172MPD1    C2 2620   1.593   3.498   0.262  0.0291  0.3616 -0.1216
  172MPD1    C3 2621   1.731   3.526   0.265  0.1911  0.1377 -0.2994
  172MPD1    C4 2622   1.816   3.417   0.265  0.0763 -0.5092 -0.6195
  172MPD1    C5 2623   1.769   3.289   0.266  0.2922  0.3158  0.0187
  172MPD1     H 2624   1.515   3.573   0.267 -1.5650 -1.3076 -0.0423
  172MPD1    H1 2625   1.922   3.440   0.278 -0.5650  0.1386  3.4051
  172MPD1    H2 2626   1.583   3.167   0.253  3.7980 -2.0880 -2.9550
  172MPD1    H3 2627   1.841   3.210   0.285 -3.3338 -2.1418  3.6065
  172MPD1     N 2628   1.790   3.655   0.290 -0.1649  0.0680  0.2466
  172MPD1    H5 2629   1.889   3.640   0.309  0.2520  3.9690  1.2684
  172MPD1    N1 2630   1.411   3.349   0.248  0.0262  0.3225 -0.7513
  172MPD1    H6 2631   1.386   3.271   0.188 -0.4435  1.0642 -1.5324
  172MPD1    H7 2632   1.357   3.435   0.233  1.7300  1.1615 -2.0525
  173MPD1     C 2633   3.438   3.089  14.246 -0.0431  0.0149 -0.3673
  173MPD1    C1 2634   3.356   3.076  14.138 -0.6387 -0.0985 -0.3128
  173MPD1    C2 2635   3.228   3.035  14.163 -0.1211  0.6231  0.4708
  173MPD1    C3 2636   3.176   3.017  14.290  0.9518  0.1317 -0.3258
  173MPD1    C4 2637   3.255   3.036  14.400 -0.2247  0.6750  0.6450
  173MPD1    C5 2638   3.386   3.081  14.370 -0.4299 -1.0331  0.5308
  173MPD1     H 2639   3.162   3.007  14.082  0.7749 -0.8905  0.2515
  173MPD1    H1 2640   3.220   3.023  14.501  3.1021 -0.3587  1.6762
  173MPD1    H2 2641   3.537   3.135  14.245 -0.3308  0.6906  1.2402
  173MPD1    H3 2642   3.442   3.116  14.455 -1.3257  1.0633  0.2712
  173MPD1     N 2643   3.050   2.953  14.295 -0.0454  0.4357 -0.3064
  173MPD1    H5 2644   3.004   2.940  14.206  1.3331 -0.4820 -0.8937
  173MPD1    N1 2645   3.407   3.096  14.004 -0.1293  0.3988  0.0390
  173MPD1    H6 2646   3.341   3.116  13.928  1.4485  1.2255 -1.1090
  173MPD1    H7 2647   3.497   3.143  13.997  0.7010 -1.1430  0.5281
  174MPD1     C 2648   2.853   2.542  13.646  0.7352 -0.2911  0.4326
  174MPD1    C1 2649   2.730   2.508  13.704 -0.0358 -0.4718  0.9934
  174MPD1    C2 2650   2.709   2.549  13.838 -0.0903 -0.2968 -0.4872
  174MPD1    C3 2651   2.797   2.640  13.896  0.2495  0.2049 -0.1598
  174MPD1    C4 2652   2.912   2.674  13.826  0.6546 -0.5316 -0.0446
  174MPD1    C5 2653   2.935   2.629  13.702  0.1034  0.0325 -0.0840
  174MPD1     H 2654   2.624   2.509  13.893  0.3562  0.7586  0.9862
  174MPD1    H1 2655   2.979   2.753  13.857  0.8070 -1.0151  0.8623
  174MPD1    H2 2656   2.871   2.512  13.543 -2.2303  0.1932 -0.2267
  174MPD1    H3 2657   3.020   2.674  13.652  0.4674  0.8209  1.2290
  174MPD1     N 2658   2.778   2.695  14.027  0.1905  0.0111 -0.4694
  174MPD1    H5 2659   2.843   2.762  14.068  0.0090 -0.2396  0.2216
  174MPD1    N1 2660   2.656   2.404  13.647  0.0223  0.2877 -0.4050
  174MPD1    H6 2661   2.560   2.416  13.677 -0.8005  0.4817 -3.1174
  174MPD1    H7 2662   2.666   2.419  13.546  0.4050  3.8683  0.1794
  175MPD1     C 2663   1.779   4.373  15.708 -0.7277 -0.0797 -0.2871
  175MPD1    C1 2664   1.650   4.360  15.666 -0.2431 -0.5164  0.2055
  175MPD1    C2 2665   1.551   4.328  15.765 -0.0445 -0.0955  0.3798
  175MPD1    C3 2666   1.584   4.316  15.905  0.1153 -0.8063 -0.0585
  175MPD1    C4 2667   1.723   4.343  15.939  0.5544 -0.4281  0.5412
  175MPD1    C5 2668   1.813   4.381  15.840 -0.2259 -0.3902  0.1590
  175MPD1     H 2669   1.448   4.303  15.744  0.2135  0.4613 -1.5067
  175MPD1    H1 2670   1.754   4.349  16.043  1.8473  1.3838  0.0405
  175MPD1    H2 2671   1.852   4.396  15.632 -1.2614 -0.8537 -1.0338
  175MPD1    H3 2672   1.916   4.368  15.870 -0.3240 -1.2631  0.1263
  175MPD1     N 2673   1.500   4.277  16.006  0.4652 -0.2205  0.5149
  175MPD1    H5 2674   1.532   4.272  16.102  0.2121 -1.1884  0.5432
  175MPD1    N1 2675   1.630   4.339  15.527  0.1818  0.6651  0.2321
  175MPD1    H6 2676   1.693   4.399  15.472  0.7010 -1.0529 -1.0536
  175MPD1    H7 2677   1.534   4.339  15.494 -0.1384 -0.1237  1.1977
  176MPD1     C 2678   2.318   0.977  16.091 -0.1848  0.6267 -0.8539
  176MPD1    C1 2679   2.227   1.084  16.106  0.8810  0.5521 -0.3532
  176MPD1    C2 2680   2.240   1.173  16.215  0.5221  1.2279  0.0999
  176MPD1    C3 2681   2.358   1.167  16.291 -0.1180 -0.0212 -0.5920
  176MPD1    C4 2682   2.451   1.064  16.266 -0.0501 -0.1591  0.1357
  176MPD1    C5 2683   2.429   0.973  16.169  1.0889  0.2048 -0.3865
  176MPD1     H 2684   2.164   1.248  16.236 -1.2270 -0.3189 -0.6843
  176MPD1    H1 2685   2.544   1.052  16.319 -1.9004  0.9616  3.5967
  176MPD1    H2 2686   2.311   0.910  16.006 -1.5614  1.3826 -1.3388
  176MPD1    H3 2687   2.495   0.889  16.156 -1.2708 -1.4941 -1.3247
  176MPD1     N 2688   2.390   1.269  16.384 -0.6161 -0.6306 -0.1477
  176MPD1    H5 2689   2.325   1.345  16.402  0.4705 -0.6805  4.0357
  176MPD1    N1 2690   2.100   1.082  16.040  0.3005 -0.2479  0.2722
  176MPD1    H6 2691   2.076   1.181  16.038  0.3697 -0.2779 -2.1136
  176MPD1    H7 2692   2.091   1.039  15.948  0.2404  0.0405  0.1399
  177MPD1     C 2693   1.337   1.605   9.890 -0.0700  1.0560  0.0034
  177MPD1    C1 2694   1.250   1.714   9.892  0.2242  0.1114  0.2846
  177MPD1    C2 2695   1.125   1.694   9.828 -0.1994  0.5656  0.2375
  177MPD1    C3 2696   1.086   1.578   9.769  0.7697  0.2603 -0.5017
  177MPD1    C4 2697   1.173   1.472   9.773  0.0036  0.2383 -0.0340
  177MPD1    C5 2698   1.297   1.483   9.828 -0.2942  0.6535 -0.1336
  177MPD1     H 2699   1.048   1.769   9.831  0.0663  0.8049  1.1957
  177MPD1    H1 2700   1.144   1.373   9.739 -0.5373  0.2434  0.4103
  177MPD1    H2 2701   1.433   1.617   9.939  1.8953 -0.6422 -3.4723
  177MPD1    H3 2702   1.358   1.393   9.829 -0.6939  0.3920  0.3215
  177MPD1     N 2703   0.953   1.563   9.723  0.0082 -0.1466  0.2575
  177MPD1    H5 2704   0.899   1.648   9.739 -1.1951 -0.8855  0.0906
  177MPD1    N1 2705   1.279   1.824   9.977 -0.2760  0.1219 -0.4953
  177MPD1    H6 2706   1.369   1.864   9.953  0.8694 -1.9303  0.3633
  177MPD1    H7 2707   1.208   1.897   9.975  0.1553  0.4755 -2.7099
  178MPD1     C 2708   3.402   2.792   0.063  0.1973  0.1327 -0.6152
  178MPD1    C1 2709   3.337   2.692  17.678 -0.4643  0.0934  0.7631
  178MPD1    C2 2710   3.400   2.650  17.568 -0.0671  0.1765  0.3982
  178MPD1    C3 2711   3.504   2.719  17.511  0.1604  0.5680  0.3265
  178MPD1    C4 2712   3.556   2.831  17.580 -0.4346  0.3722 -0.5982
  178MPD1    C5 2713   3.507   2.863   0.017 -0.7088  0.0050 -0.4373
  178MPD1     H 2714   3.364   2.562  17.516 -0.6973 -0.0712  1.2571
  178MPD1    H1 2715   3.641   2.884  17.538 -1.3448  3.1355  1.0800
  178MPD1    H2 2716   3.369   2.818   0.164 -0.3179  0.0108 -0.7518
  178MPD1    H3 2717   3.545   2.941   0.082  0.8587 -0.3298 -0.9398
  178MPD1     N 2718   3.572   2.677  17.395  0.3041  0.5209  0.4031
  178MPD1    H5 2719   3.653   2.729  17.366 -1.3209  2.6467 -0.3176
  178MPD1    N1 2720   3.238   2.611   0.057  0.0104 -0.6521  0.2198
  178MPD1    H6 2721   3.178   2.571  17.671 -0.5915 -0.2115  0.4747
  178MPD1    H7 2722   3.176   2.669   0.114 -0.7628 -3.4976  2.2581
  179MPD1     C 2723   3.597   0.336  15.283  0.0973  0.3884 -0.5503
  179MPD1    C1 2724   3.482   0.398  15.315 -0.5900 -0.1746  1.3605
  179MPD1    C2 2725   3.440   0.396  15.452  0.3779 -0.5161  0.2642
  179MPD1    C3 2726   3.505   0.312  15.549 -0.4369 -0.2808 -0.1788
  179MPD1    C4 2727   3.615   0.237  15.507  0.1952  1.3497 -0.1077
  179MPD1    C5 2728   3.653   0.252  15.376 -0.2358 -0.2754 -0.2279
  179MPD1     H 2729   3.359   0.460  15.482  0.5130  0.3077 -1.1324
  179MPD1    H1 2730   3.680   0.185  15.577 -0.4967 -0.1696 -0.5907
  179MPD1    H2 2731   3.636   0.341  15.182  1.8801  1.0573  0.1678
  179MPD1    H3 2732   3.735   0.184  15.354 -0.3113 -1.0939  2.0467
  179MPD1     N 2733   3.459   0.318  15.678  0.0801  0.0383 -0.3319
  179MPD1    H5 2734   3.383   0.384  15.692 -0.9844 -1.4504  0.8044
  179MPD1    N1 2735   3.418   0.480  15.227 -0.6241  0.1020 -0.1324
  179MPD1    H6 2736   3.422   0.430  15.139  0.8571 -3.3977  1.9017
  179MPD1    H7 2737   3.319   0.481  15.249 -0.2439  0.0505  1.6089
  180MPD1     C 2738   3.693   1.878  14.813  0.3317 -0.3996 -0.2208
  180MPD1    C1 2739   3.719   1.912  14.682 -0.0312  0.5557  0.5530
  180MPD1    C2 2740   3.601   1.928  14.613 -0.0342 -0.0559  0.0300
  180MPD1    C3 2741   3.477   1.873  14.639 -0.0998 -0.6523  0.0144
  180MPD1    C4 2742   3.467   1.816  14.756 -0.3653  0.2554 -0.5701
  180MPD1    C5 2743   3.578   1.816  14.842 -0.4038 -0.2740 -0.2732
  180MPD1     H 2744   3.622   1.973  14.517 -2.0906 -0.2799 -0.5431
  180MPD1    H1 2745   3.372   1.773  14.786  0.5644 -1.5483 -0.1403
  180MPD1    H2 2746   3.775   1.885  14.885  0.8010  0.4022 -0.8265
  180MPD1    H3 2747   3.561   1.770  14.938 -0.5549  0.9904  0.3010
  180MPD1     N 2748   3.376   1.876  14.540  0.2433  0.3637 -0.2954
  180MPD1    H5 2749   3.400   1.927  14.456  0.5137 -0.6869 -0.8504
  180MPD1    N1 2750   3.828   1.994  14.643 -0.4244  0.3780 -0.1718
  180MPD1    H6 2751   3.921   1.963  14.672  0.5365  2.8767 -0.6037
  180MPD1    H7 2752   3.840   1.998  14.542  1.9208  1.9560  0.1734
  181MPD1     C 2753   0.611   3.942   9.945 -0.6999  0.7546 -0.0986
  181MPD1    C1 2754   0.706   3.847   9.946  0.1855  0.4423  0.0532
  181MPD1    C2 2755   0.693   3.745  10.036 -0.0927 -0.1641  0.6308
  181MPD1    C3 2756   0.583   3.730  10.123 -0.7131  0.1689  0.3544
  181MPD1    C4 2757   0.497   3.832  10.131 -0.5745  0.0375 -0.0227
  181MPD1    C5 2758   0.512   3.936  10.039  0.0448 -0.1321 -0.0706
  181MPD1     H 2759   0.760   3.660  10.024  0.5111  0.5267 -0.9251
  181MPD1    H1 2760   0.419   3.835  10.205  0.0180 -0.1571  0.6056
  181MPD1    H2 2761   0.600   4.021   9.872  2.2184  1.8826  0.6860
  181MPD1    H3 2762   0.433   4.009  10.045 -1.4649 -1.8381  1.0962
  181MPD1     N 2763   0.571   3.621  10.212 -0.0314  0.5843 -0.4814
  181MPD1    H5 2764   0.488   3.626  10.271  1.7792 -2.7336  2.3676
  181MPD1    N1 2765   0.811   3.842   9.846  0.8054 -0.1600  0.1257
  181MPD1    H6 2766   0.896   3.809   9.893 -0.6818 -2.7300  1.0382
  181MPD1    H7 2767   0.828   3.928   9.795 -1.6443  1.3363  1.8159
  182MPD1     C 2768   1.337   2.194   1.582  0.0722  0.6387  0.4159
  182MPD1    C1 2769   1.431   2.200   1.480 -0.6318  0.1968 -0.4798
  182MPD1    C2 2770   1.427   2.310   1.391 -0.1307  0.2573 -0.1247
  182MPD1    C3 2771   1.340   2.414   1.411  0.2946 -0.1983  0.2153
  182MPD1    C4 2772   1.249   2.408   1.518  0.2543 -0.2770 -0.0202
  182MPD1    C5 2773   1.257   2.302   1.603  0.6001  0.0238 -0.4169
  182MPD1     H 2774   1.484   2.307   1.299  2.2662  1.7366  1.3135
  182MPD1    H1 2775   1.180   2.486   1.548  0.4374  0.1474 -0.7065
  182MPD1    H2 2776   1.334   2.105   1.644  1.1436  0.3730  0.1020
  182MPD1    H3 2777   1.185   2.294   1.683  0.8962 -0.3061 -0.1808
  182MPD1     N 2778   1.318   2.519   1.319 -0.1904  0.1631  0.1714
  182MPD1    H5 2779   1.241   2.577   1.351 -0.1807 -0.9139  2.1632
  182MPD1    N1 2780   1.506   2.088   1.455  0.4464  0.0007  0.1726
  182MPD1    H6 2781   1.512   2.025   1.534  0.2682 -1.5051 -1.0139
  182MPD1    H7 2782   1.586   2.110   1.396  2.9821 -1.3469  3.1022
  183MPD1     C 2783   1.976   3.072   9.409  0.0386  0.0792  0.8259
  183MPD1    C1 2784   1.870   2.992   9.425 -0.0847 -0.3078  0.1218
  183MPD1    C2 2785   1.775   3.034   9.513 -0.1954 -0.2734  0.1202
  183MPD1    C3 2786   1.777   3.159   9.573 -0.1659  0.1317 -0.2794
  183MPD1    C4 2787   1.894   3.236   9.573  0.5069 -0.1809 -0.1652
  183MPD1    C5 2788   1.997   3.181   9.500  0.3626 -0.6530  0.0037
  183MPD1     H 2789   1.683   2.977   9.518  0.9092 -2.0088  0.6348
  183MPD1    H1 2790   1.906   3.328   9.629  2.5792 -1.0222  0.7528
  183MPD1    H2 2791   2.061   3.037   9.351 -0.1804  0.0492  0.5239
  183MPD1    H3 2792   2.095   3.227   9.506 -1.1126  2.0703  2.8392
  183MPD1     N 2793   1.669   3.191   9.655 -0.5471  0.6272 -0.4663
  183MPD1    H5 2794   1.595   3.124   9.674  2.6954 -2.4234  1.2910
  183MPD1    N1 2795   1.862   2.863   9.371  0.0035  0.3298 -0.8450
  183MPD1    H6 2796   1.935   2.802   9.409 -0.9863  0.9784  2.0871
  183MPD1    H7 2797   1.770   2.823   9.387 -0.9217  2.5173 -0.7018
  184MPD1     C 2798   0.449   0.278  10.058  0.2785 -0.7665 -0.2695
  184MPD1    C1 2799   0.585   0.288  10.033  0.1176 -0.2272  0.0939
  184MPD1    C2 2800   0.634   0.420  10.024  0.1545 -0.4288 -0.2960
  184MPD1    C3 2801   0.550   0.535  10.036  0.5681  0.5908  0.0808
  184MPD1    C4 2802   0.415   0.512  10.064 -0.1749 -0.5156 -0.3453
  184MPD1    C5 2803   0.363   0.387  10.069  0.3340 -0.5388 -0.0252
  184MPD1     H 2804   0.739   0.423  10.000  0.0781 -0.2732 -0.6099
  184MPD1    H1 2805   0.345   0.588  10.098  1.4848 -0.5823  3.2444
  184MPD1    H2 2806   0.404   0.180  10.063 -0.5348 -0.3376  0.7560
  184MPD1    H3 2807   0.259   0.366  10.090  0.1561 -2.4106 -2.7806
  184MPD1     N 2808   0.598   0.671  10.018 -0.6269 -0.0293 -0.0840
  184MPD1    H5 2809   0.535   0.750  10.023  0.1414  0.6599 -1.1745
  184MPD1    N1 2810   0.667   0.177   9.999  0.6984 -0.4437 -0.5658
  184MPD1    H6 2811   0.636   0.086  10.032  1.2778  0.0825  1.4142
  184MPD1    H7 2812   0.767   0.189  10.016  0.4995  1.8500 -0.9844
  185MPD1     C 2813   0.105   1.132   9.547  0.1754  0.3730  0.1347
  185MPD1    C1 2814   0.191   1.229   9.590 -1.0873  0.5833  0.1324
  185MPD1    C2 2815   0.308   1.189   9.654 -0.4245 -0.0671  0.9079
  185MPD1    C3 2816   0.339   1.055   9.670  0.8056  0.4351  0.2147
  185MPD1    C4 2817   0.255   0.959   9.622  0.8395  0.5788  0.6574
  185MPD1    C5 2818   0.131   0.998   9.567  0.1898 -0.5273 -0.4243
  185MPD1     H 2819   0.380   1.264   9.687  0.5956 -0.6976  0.1191
  185MPD1    H1 2820   0.271   0.852   9.628 -1.5724  0.3781  3.3969
  185MPD1    H2 2821   0.011   1.151   9.497  0.5340  0.7702 -0.3838
  185MPD1    H3 2822   0.057   0.931   9.525 -0.4109 -1.3755  2.0064
  185MPD1     N 2823   0.464   1.008   9.726  0.3860  0.5110  0.3468
  185MPD1    H5 2824   0.473   0.910   9.754 -0.1736 -0.5856 -3.3295
  185MPD1    N1 2825   0.172   1.363   9.553  0.2307  0.1807 -0.5172
  185MPD1    H6 2826   0.076   1.378   9.524 -0.4957 -1.5779  1.0103
  185MPD1    H7 2827   0.232   1.380   9.472 -0.4698 -1.4680 -1.3777
  186MPD1     C 2828   3.971   0.035  16.016  0.0517  0.3972  0.8734
  186MPD1    C1 2829   3.899   0.149  15.978  0.3073 -0.2968  0.3683
  186MPD1    C2 2830   3.868   0.235  16.080  0.1998 -0.0020 -0.4810
  186MPD1    C3 2831   3.875   0.196  16.215 -0.0872  0.0416 -0.3746
  186MPD1    C4 2832   3.939   0.077  16.249 -0.4740  0.3832  0.1552
  186MPD1    C5 2833   3.985   0.000  16.145  0.2211 -0.1639  0.7152
  186MPD1     H 2834   3.823   0.328  16.047 -2.0523 -0.2678  1.8855
  186MPD1    H1 2835   3.966   0.051  16.350  0.3190  1.3185  0.1845
  186MPD1    H2 2836   3.996   4.681  15.941  0.1899  1.9091 -0.6050
  186MPD1    H3 2837   4.047   4.632  16.156  2.2519  1.2219  0.5543
  186MPD1     N 2838   3.829   0.279  16.327 -0.4454 -0.4801  0.0220
  186MPD1    H5 2839   3.869   0.251  16.415 -1.6525  2.5639  1.5407
  186MPD1    N1 2840   3.876   0.170  15.843 -0.3632 -0.0452  0.7545
  186MPD1    H6 2841   3.778   0.191  15.824 -0.8381 -2.5054  0.4785
  186MPD1    H7 2842   3.918   0.096  15.787 -2.6220 -0.7645 -0.0275
  187MPD1     C 2843   2.300   1.850  17.666 -0.5657  0.4503 -0.1837
  187MPD1    C1 2844   2.339   1.932   0.083 -0.0775  0.6768 -0.6451
  187MPD1    C2 2845   2.375   2.066   0.054  0.7813 -0.4652 -0.1397
  187MPD1    C3 2846   2.387   2.118  17.612  0.3413  0.6750  0.1151
  187MPD1    C4 2847   2.360   2.033  17.507 -0.6495 -0.5452 -0.1002
  187MPD1    C5 2848   2.313   1.901  17.541  0.6121  0.6060  0.3040
  187MPD1     H 2849   2.397   2.135   0.136 -3.8183 -0.1100  0.7999
  187MPD1    H1 2850   2.348   2.068  17.405  0.8197 -1.4769 -0.5840
  187MPD1    H2 2851   2.268   1.750   0.007  0.9514 -0.4717 -1.8800
  187MPD1    H3 2852   2.273   1.838  17.462 -0.7390  1.7156  0.1217
  187MPD1     N 2853   2.431   2.248  17.582  0.4248 -0.0077 -0.0693
  187MPD1    H5 2854   2.440   2.270  17.484  1.3389  1.2680  0.3038
  187MPD1    N1 2855   2.356   1.873   0.207  0.4790 -0.4761 -0.3344
  187MPD1    H6 2856   2.290   1.796   0.214  0.1296 -0.3101 -1.7794
  187MPD1    H7 2857   2.332   1.941   0.279  1.4291 -0.4342 -0.0527
  188MPD1     C 2858   2.624   2.552  10.400  0.2480  0.3990 -0.4176
  188MPD1    C1 2859   2.495   2.520  10.353 -0.0253  0.2789  0.5261
  188MPD1    C2 2860   2.491   2.442  10.235 -0.3623 -0.1655  0.3098
  188MPD1    C3 2861   2.611   2.393  10.178 -0.5370  0.6028 -0.0037
  188MPD1    C4 2862   2.731   2.411  10.239 -0.0903 -0.7873 -0.4899
  188MPD1    C5 2863   2.735   2.489  10.348  0.3099 -0.1222 -1.3485
  188MPD1     H 2864   2.396   2.416  10.189  0.6831 -0.7837 -1.5028
  188MPD1    H1 2865   2.821   2.368  10.197  0.4014  1.2122 -1.4816
  188MPD1    H2 2866   2.629   2.605  10.494  1.0095 -3.0517  1.4792
  188MPD1    H3 2867   2.833   2.492  10.395  0.6918  0.0268 -2.1504
  188MPD1     N 2868   2.607   2.307  10.068 -0.2231 -0.1675 -0.0759
  188MPD1    H5 2869   2.695   2.268  10.037 -1.2350 -0.6072 -2.3548
  188MPD1    N1 2870   2.377   2.575  10.416  0.5714 -0.4243  0.0638
  188MPD1    H6 2871   2.296   2.514  10.427  0.0644  0.0827 -0.8872
  188MPD1    H7 2872   2.388   2.597  10.515  0.4748 -1.3134  0.2688
  189MPD1     C 2873   0.229   3.360   0.046 -0.1974 -0.1371 -0.5648
  189MPD1    C1 2874   0.223   3.488  17.682  0.0059  0.3945  0.5654
  189MPD1    C2 2875   0.097   3.554   0.014  0.3365 -0.4762  0.2477
  189MPD1    C3 2876   4.703   3.493   0.057 -0.3430  0.3076 -0.7519
  189MPD1    C4 2877   4.708   3.360   0.082 -0.3158  0.9663 -0.2551
  189MPD1    C5 2878   0.109   3.290   0.071  0.3611 -0.0865 -0.0697
  189MPD1     H 2879   0.091   3.660  17.675 -2.0186 -0.3452  1.3481
  189MPD1    H1 2880   4.617   3.304   0.100 -0.0233 -0.3693 -2.9666
  189MPD1    H2 2881   0.322   3.307   0.035  0.1557  0.0944  1.3104
  189MPD1    H3 2882   0.105   3.187   0.106 -1.1816 -0.0901 -0.2460
  189MPD1     N 2883   4.578   3.560   0.067  0.1292 -0.1200 -0.3257
  189MPD1    H5 2884   4.578   3.654   0.028  0.3915  0.5825  1.3761
  189MPD1    N1 2885   0.339   3.554  17.648  1.0519  0.6398 -0.2845
  189MPD1    H6 2886   0.422   3.497  17.631 -0.1844 -1.4953  0.8529
  189MPD1    H7 2887   0.326   3.615  17.568 -0.0407  0.6097 -0.1272
  190MPD1     C 2888   3.110   1.660  14.929  0.5006  0.4754  0.2561
  190MPD1    C1 2889   3.230   1.599  14.944 -0.3744 -0.6516 -0.2799
  190MPD1    C2 2890   3.259   1.562  15.071  0.0219 -0.5668  0.3511
  190MPD1    C3 2891   3.185   1.599  15.186 -0.1522 -0.4266  0.2970
  190MPD1    C4 2892   3.075   1.675  15.165  0.7161 -0.2482  0.0454
  190MPD1    C5 2893   3.032   1.700  15.038 -0.2881  0.6685 -0.1814
  190MPD1     H 2894   3.350   1.504  15.075  0.8289  0.9190  3.4493
  190MPD1    H1 2895   3.012   1.711  15.246 -0.2875 -2.6927  0.3726
  190MPD1    H2 2896   3.069   1.682  14.831  0.4526 -1.0003 -0.0538
  190MPD1    H3 2897   2.941   1.756  15.017  0.7925  1.7478 -2.0662
  190MPD1     N 2898   3.237   1.565  15.313  0.4038  0.2216 -0.0676
  190MPD1    H5 2899   3.322   1.509  15.310  1.5584  1.8355  3.0665
  190MPD1    N1 2900   3.281   1.539  14.829  0.1872 -0.2991  0.4776
  190MPD1    H6 2901   3.383   1.531  14.832  0.4516  1.5885 -2.4686
  190MPD1    H7 2902   3.264   1.593  14.744  0.1856  0.4968  0.9842
  191MPD1     C 2903   2.582   3.354  13.190 -0.4704  0.0091 -0.3263
  191MPD1    C1 2904   2.474   3.440  13.227  0.3797 -0.7801  0.2246
  191MPD1    C2 2905   2.448   3.553  13.157 -0.0835 -0.5772  0.5565
  191MPD1    C3 2906   2.536   3.583  13.051  0.6735 -0.0742  0.2817
  191MPD1    C4 2907   2.635   3.495  13.007  0.4049 -0.9149  0.3507
  191MPD1    C5 2908   2.653   3.376  13.070 -0.1220 -0.0236  0.4766
  191MPD1     H 2909   2.383   3.631  13.197  0.5077  0.3698 -0.3489
  191MPD1    H1 2910   2.704   3.518  12.926 -0.4813  0.0522 -0.1294
  191MPD1    H2 2911   2.615   3.275  13.256 -2.8771 -0.7949 -0.1059
  191MPD1    H3 2912   2.730   3.306  13.040 -1.8931 -1.1729 -1.3854
  191MPD1     N 2913   2.503   3.701  12.976 -0.1754  0.1433 -0.3233
  191MPD1    H5 2914   2.417   3.747  13.004 -1.1125 -0.8820 -1.5015
  191MPD1    N1 2915   2.413   3.422  13.350  0.4285  0.4495 -0.0746
  191MPD1    H6 2916   2.314   3.446  13.350  0.4579  0.5575  1.1327
  191MPD1    H7 2917   2.412   3.324  13.378 -1.1396  0.6359  0.4991
  192MPD1     C 2918   2.343   4.661  13.090  0.3040 -0.1634 -0.1009
  192MPD1    C1 2919   2.433   4.572  13.147  0.5090  0.2669 -1.1418
  192MPD1    C2 2920   2.461   4.456  13.080  0.9962  0.6098  0.3015
  192MPD1    C3 2921   2.425   4.437  12.945  0.0238 -0.2745 -0.2121
  192MPD1    C4 2922   2.357   4.539  12.882  0.2595 -0.6737  0.3175
  192MPD1    C5 2923   2.316   4.645  12.955 -0.5141 -0.9267 -0.2684
  192MPD1     H 2924   2.523   4.384  13.133 -2.9344 -1.6209  1.8622
  192MPD1    H1 2925   2.315   4.531  12.782 -0.8021 -1.2181  0.8142
  192MPD1    H2 2926   2.307   0.026  13.145 -1.2690  0.4721 -2.1333
  192MPD1    H3 2927   2.238   4.711  12.920 -1.1748 -0.7782  1.4541
  192MPD1     N 2928   2.462   4.324  12.869  0.5428  0.1043  0.1923
  192MPD1    H5 2929   2.463   4.347  12.770  0.3272  1.8886  0.5963
  192MPD1    N1 2930   2.460   4.598  13.280  0.6392 -0.4126 -0.1388
  192MPD1    H6 2931   2.482   4.697  13.290  0.4218 -0.3276 -0.4844
  192MPD1    H7 2932   2.540   4.545  13.312 -0.7669 -1.3593  1.8039
  193MPD1     C 2933   2.101   3.763  16.235 -0.6711  0.9115  0.2556
  193MPD1    C1 2934   2.133   3.738  16.367  0.0589  0.3590 -0.2542
  193MPD1    C2 2935   2.246   3.786  16.425  0.1588  0.4888 -0.6240
  193MPD1    C3 2936   2.324   3.870  16.349  0.4129 -0.4257 -0.3064
  193MPD1    C4 2937   2.287   3.895  16.223 -0.3020  0.1045  0.6433
  193MPD1    C5 2938   2.178   3.845  16.158  0.4249 -0.2356 -0.3283
  193MPD1     H 2939   2.277   3.753  16.523  0.5399  0.9834 -0.5734
  193MPD1    H1 2940   2.344   3.960  16.158 -0.1559  0.5003  1.1682
  193MPD1    H2 2941   2.018   3.714  16.187  1.1818 -1.6206 -0.3790
  193MPD1    H3 2942   2.163   3.872  16.055 -0.4257  1.2920  0.2040
  193MPD1     N 2943   2.443   3.926  16.393  0.0255 -0.2208 -1.1572
  193MPD1    H5 2944   2.505   3.980  16.332  1.0488 -1.6373 -1.3608
  193MPD1    N1 2945   2.056   3.647  16.443  0.4871 -0.3491 -0.0592
  193MPD1    H6 2946   1.963   3.651  16.401  1.0155  0.2872 -1.1735
  193MPD1    H7 2947   2.057   3.681  16.539  0.8327 -0.7222  0.0655
  194MPD1     C 2948   4.643   1.896  16.986  0.3277  0.2161  0.1513
  194MPD1    C1 2949   4.638   1.782  16.909  0.0415  1.0082 -0.6212
  194MPD1    C2 2950   0.012   1.681  16.923 -0.5154 -0.3550  0.4587
  194MPD1    C3 2951   0.121   1.702  17.003  0.2852 -0.6100  0.0858
  194MPD1    C4 2952   0.135   1.815  17.068 -0.4321 -0.4378  0.0310
  194MPD1    C5 2953   0.034   1.912  17.064 -0.2524 -0.0155  0.3570
  194MPD1     H 2954   4.719   1.586  16.873  0.0481  1.0943 -2.4473
  194MPD1    H1 2955   0.220   1.838  17.130  1.0340  1.8231 -2.8095
  194MPD1    H2 2956   4.566   1.972  16.989  0.7434  0.5222  2.5096
  194MPD1    H3 2957   0.046   2.007  17.115  0.8071  0.4954 -0.8278
  194MPD1     N 2958   0.230   1.611  17.009  0.0606  0.6936 -0.2678
  194MPD1    H5 2959   0.303   1.640  17.073  1.1641  1.5444 -1.8875
  194MPD1    N1 2960   4.522   1.755  16.838 -0.5055  0.7221 -0.5353
  194MPD1    H6 2961   4.542   1.690  16.762 -1.4258  0.5908 -0.6680
  194MPD1    H7 2962   4.470   1.836  16.805 -1.4699  0.5563  0.5909
  195MPD1     C 2963   2.217   2.830  17.486 -0.2780  0.1586 -0.0194
  195MPD1    C1 2964   2.202   2.767  17.611 -0.7591  0.0960 -0.9374
  195MPD1    C2 2965   2.166   2.634  17.618 -0.2391 -0.0194  0.6492
  195MPD1    C3 2966   2.147   2.559  17.504 -0.4119 -0.1937  0.1946
  195MPD1    C4 2967   2.156   2.620  17.387  0.0933  0.0201 -0.1758
  195MPD1    C5 2968   2.196   2.751  17.375  0.1529  0.3000  0.2585
  195MPD1     H 2969   2.151   2.585   0.027  0.7059 -1.6884 -0.0670
  195MPD1    H1 2970   2.126   2.566  17.298  0.3051  1.5132 -1.1549
  195MPD1    H2 2971   2.263   2.928  17.483 -1.7299  0.8100 -0.8207
  195MPD1    H3 2972   2.202   2.795  17.276  1.5288  2.3704  1.2548
  195MPD1     N 2973   2.107   2.424  17.499 -0.0724 -0.2911 -0.1101
  195MPD1    H5 2974   2.084   2.390  17.406 -0.1562 -2.5020  0.7262
  195MPD1    N1 2975   2.237   2.823   0.042 -0.2351 -0.3449  0.0111
  195MPD1    H6 2976   2.175   2.808   0.121 -0.1477  0.6513  0.2752
  195MPD1    H7 2977   2.268   2.920   0.039 -0.4741 -0.2223  1.3404
  196MPD1     C 2978   1.959   1.971   0.805  0.4769  0.0818  0.1410
  196MPD1    C1 2979   2.078   2.016   0.763 -0.7864  0.5146 -0.2859
  196MPD1    C2 2980   2.161   2.074   0.859  0.6974 -0.4341 -0.2500
  196MPD1    C3 2981   2.123   2.094   0.989  0.2696 -0.0141  0.7575
  196MPD1    C4 2982   2.003   2.041   1.038 -0.4756 -0.2354 -0.0139
  196MPD1    C5 2983   1.926   1.976   0.941 -0.4690  0.6542  0.0606
  196MPD1     H 2984   2.253   2.111   0.816 -0.4349  0.5989 -1.7747
  196MPD1    H1 2985   1.961   2.047   1.137 -0.6205  1.0953 -0.1553
  196MPD1    H2 2986   1.879   1.936   0.742 -0.6580  1.3731  0.8586
  196MPD1    H3 2987   1.833   1.931   0.973 -0.2651 -0.4830 -0.9470
  196MPD1     N 2988   2.195   2.174   1.074 -0.1336  0.5203  0.3859
  196MPD1    H5 2989   2.163   2.193   1.169 -1.9612 -0.4649 -0.0532
  196MPD1    N1 2990   2.101   2.040   0.624  0.2325  1.0034 -0.0317
  196MPD1    H6 2991   2.056   1.963   0.576  0.2352  1.4173 -0.6980
  196MPD1    H7 2992   2.199   2.040   0.596 -0.2576  2.4606 -1.7930
  197MPD1     C 2993   1.869   4.345  17.638 -0.0843  0.5813 -0.2256
  197MPD1    C1 2994   1.859   4.477  17.613  0.7401  0.4213 -0.1019
  197MPD1    C2 2995   1.733   4.524  17.577  0.4015  0.5163 -0.4234
  197MPD1    C3 2996   1.620   4.438  17.561 -0.0478 -0.5021  0.1466
  197MPD1    C4 2997   1.639   4.312  17.595  0.0835 -0.2386  0.1620
  197MPD1    C5 2998   1.759   4.265  17.637 -0.0330  0.4612 -0.0254
  197MPD1     H 2999   1.727   4.623  17.535  2.9253  0.1416 -1.6451
  197MPD1    H1 3000   1.565   4.233  17.588  0.7160 -0.7577 -0.6960
  197MPD1    H2 3001   1.966   4.303  17.661 -0.1362  0.2958 -0.5349
  197MPD1    H3 3002   1.768   4.160  17.661 -0.1810  0.1667 -1.2304
  197MPD1     N 3003   1.506   4.476  17.498  0.0260  0.5027 -0.4759
  197MPD1    H5 3004   1.443   4.401  17.472  0.3685  0.0344  0.0453
  197MPD1    N1 3005   1.975   4.554  17.594  0.9722  0.5784 -0.3348
  197MPD1    H6 3006   1.966   4.651  17.626 -0.9194  0.1494  0.4278
  197MPD1    H7 3007   2.062   4.522  17.635  0.7074 -0.4716 -0.5860
  198MPD1     C 3008   3.212   2.699  15.198 -0.4559  0.4988 -0.0681
  198MPD1    C1 3009   3.322   2.773  15.169  0.4092  0.8863 -0.2772
  198MPD1    C2 3010   3.375   2.852  15.273  0.1580 -0.7148  0.1075
  198MPD1    C3 3011   3.321   2.855  15.402 -0.5866  0.6067  0.0638
  198MPD1    C4 3012   3.210   2.776  15.430 -0.2901 -1.2462 -0.3184
  198MPD1    C5 3013   3.160   2.700  15.331 -0.7100 -0.3980  0.3874
  198MPD1     H 3014   3.460   2.914  15.247 -1.4636  1.3741 -0.2452
  198MPD1    H1 3015   3.153   2.778  15.521  0.4537  1.9532  0.0560
  198MPD1    H2 3016   3.165   2.641  15.120 -2.1522  0.4339  1.0045
  198MPD1    H3 3017   3.063   2.655  15.351 -0.0849 -1.2894  1.4137
  198MPD1     N 3018   3.389   2.940  15.491 -0.2908  0.0198  0.2199
  198MPD1    H5 3019   3.474   2.978  15.449  0.8374 -0.1741  2.3132
  198MPD1    N1 3020   3.365   2.796  15.039  0.3479  0.0202 -0.0559
  198MPD1    H6 3021   3.461   2.829  15.028  0.6440 -0.8096  0.0444
  198MPD1    H7 3022   3.347   2.716  14.979 -3.4806  0.3574  0.6543
  199MPD1     C 3023   0.418   4.251  10.259 -0.1563 -0.3584  0.4518
  199MPD1    C1 3024   0.283   4.243  10.260 -0.3255 -0.0664 -0.5297
  199MPD1    C2 3025   0.216   4.250  10.133 -0.2726  0.6521 -0.0591
  199MPD1    C3 3026   0.284   4.273  10.016 -0.7919  0.2126 -0.0194
  199MPD1    C4 3027   0.419   4.304  10.022  0.2210  0.1379 -0.1974
  199MPD1    C5 3028   0.483   4.287  10.141 -0.8090  0.7981 -0.3839
  199MPD1     H 3029   0.112   4.220  10.129  0.3899 -1.2081 -3.1654
  199MPD1    H1 3030   0.488   4.318   9.939 -1.5448 -0.0528 -1.7133
  199MPD1    H2 3031   0.473   4.229  10.349  1.4764 -1.5098 -0.8345
  199MPD1    H3 3032   0.590   4.275  10.151 -0.5461  2.9649 -0.6103
  199MPD1     N 3033   0.228   4.279   9.882 -0.4849 -0.4943  0.0634
  199MPD1    H5 3034   0.294   4.292   9.805 -1.3853 -0.8758 -0.7733
  199MPD1    N1 3035   0.210   4.205  10.378  0.0883  0.2858  0.0775
  199MPD1    H6 3036   0.113   4.234  10.375  0.3779  1.4308  1.4059
  199MPD1    H7 3037   0.249   4.249  10.461  0.7562  0.3214 -0.2505
  200MPD1     C 3038   4.285   4.033  15.202 -0.4407  0.7983  0.1316
  200MPD1    C1 3039   4.232   3.983  15.085  0.2938  0.4695  0.3838
  200MPD1    C2 3040   4.325   3.976  14.975 -0.1225  0.0944  0.7166
  200MPD1    C3 3041   4.456   4.020  14.977 -0.0617  0.0872  0.1302
  200MPD1    C4 3042   4.498   4.076  15.093 -0.0426 -0.1535  0.4552
  200MPD1    C5 3043   4.414   4.076  15.201  0.3642  0.3272  0.1718
  200MPD1     H 3044   4.295   3.944  14.876  1.9758  1.4049 -0.3410
  200MPD1    H1 3045   4.599   4.113  15.104 -0.1779  1.5760 -3.8097
  200MPD1    H2 3046   4.222   4.047  15.289  0.0213  2.0138  0.2680
  200MPD1    H3 3047   4.451   4.129  15.288 -0.3057 -0.9303  1.2144
  200MPD1     N 3048   4.536   4.008  14.861 -0.7079 -0.3344  0.8368
  200MPD1    H5 3049   4.498   3.951  14.786  0.8007  1.2948 -1.1549
  200MPD1    N1 3050   4.104   3.934  15.077  0.6465  0.4372  0.3372
  200MPD1    H6 3051   4.068   3.909  14.985  1.9651  0.5145 -0.2027
  200MPD1    H7 3052   4.039   3.985  15.137 -2.7191 -3.6098  0.1484
  201MPD1     C 3053   1.935   3.227  12.604 -0.4937  0.2592 -0.4047
  201MPD1    C1 3054   1.898   3.121  12.518 -0.1329 -0.5702 -0.5255
  201MPD1    C2 3055   1.964   2.998  12.532 -0.1711  0.6656  0.6228
  201MPD1    C3 3056   2.067   2.982  12.626 -0.0174 -1.1518  0.2369
  201MPD1    C4 3057   2.097   3.082  12.709  0.4279  1.1548 -0.3877
  201MPD1    C5 3058   2.042   3.204  12.693 -0.6393  0.0150  0.1804
  201MPD1     H 3059   1.945   2.913  12.467  3.0709 -0.0147  0.5461
  201MPD1    H1 3060   2.175   3.072  12.784  0.7303  1.3747 -0.6729
  201MPD1    H2 3061   1.895   3.328  12.605  1.3235  0.9883 -1.6326
  201MPD1    H3 3062   2.081   3.287  12.751 -0.4619 -1.3676  2.0620
  201MPD1     N 3063   2.131   2.856  12.630  0.1808 -0.7003  0.2340
  201MPD1    H5 3064   2.094   2.795  12.558 -1.1294  1.2691 -0.7814
  201MPD1    N1 3065   1.792   3.139  12.431  0.0907  0.5204  0.2408
  201MPD1    H6 3066   1.787   3.238  12.408  0.8614 -0.0477 -2.3634
  201MPD1    H7 3067   1.786   3.076  12.352 -0.8963 -0.3252  0.9951
  202MPD1     C 3068   1.626   2.093   9.133 -0.1286  0.0286 -0.0170
  202MPD1    C1 3069   1.541   2.160   9.220  0.3576 -0.1596  0.0098
  202MPD1    C2 3070   1.586   2.189   9.348  0.0106 -0.7397  0.0670
  202MPD1    C3 3071   1.719   2.183   9.377 -0.4446  0.1158 -0.1434
  202MPD1    C4 3072   1.808   2.130   9.286 -0.5487 -0.2578 -0.3329
  202MPD1    C5 3073   1.765   2.091   9.163 -0.8595  0.2903  0.3763
  202MPD1     H 3074   1.524   2.239   9.422 -0.1105 -3.9240  2.1208
  202MPD1    H1 3075   1.915   2.116   9.302 -0.7224  0.3842  1.4125
  202MPD1    H2 3076   1.582   2.045   9.047 -1.1147 -0.9187  1.0212
  202MPD1    H3 3077   1.828   2.069   9.078  0.5680  3.5702  0.5710
  202MPD1     N 3078   1.764   2.210   9.511 -0.8434  0.6809  0.1433
  202MPD1    H5 3079   1.865   2.207   9.523 -0.6427  0.0426 -1.7431
  202MPD1    N1 3080   1.407   2.129   9.204 -0.5454 -0.4363 -0.1429
  202MPD1    H6 3081   1.346   2.181   9.267  1.0899 -1.0978  1.9608
  202MPD1    H7 3082   1.376   2.135   9.107 -1.6289 -0.8629  0.1740
  203MPD1     C 3083   4.531   3.810  12.657 -0.1350  0.4493 -0.6967
  203MPD1    C1 3084   4.488   3.684  12.620 -0.3122 -0.0234  0.2337
  203MPD1    C2 3085   4.583   3.586  12.604  0.0378  0.3101  0.5140
  203MPD1    C3 3086   4.716   3.613  12.628 -0.7446 -0.6260  0.7033
  203MPD1    C4 3087   0.035   3.736  12.675  0.0209 -0.2316 -0.5484
  203MPD1    C5 3088   4.662   3.832  12.682 -0.2762  0.2128 -0.5076
  203MPD1     H 3089   4.553   3.491  12.562 -1.6351  0.3013  1.7184
  203MPD1    H1 3090   0.139   3.769  12.682 -0.5574  1.3708  0.5891
  203MPD1    H2 3091   4.457   3.889  12.669  1.2620  1.8907 -1.6052
  203MPD1    H3 3092   4.701   3.931  12.703 -1.3650  0.4787  0.2004
  203MPD1     N 3093   0.083   3.508  12.594  0.4161 -0.4037 -0.4167
  203MPD1    H5 3094   0.047   3.436  12.532 -0.6469  0.2137 -0.5159
  203MPD1    N1 3095   4.361   3.663  12.581 -0.0110 -0.2709 -0.1595
  203MPD1    H6 3096   4.343   3.564  12.565  1.7327 -0.5333 -0.4676
  203MPD1    H7 3097   4.308   3.695  12.661 -0.7456 -0.6670 -0.4827
  204MPD1     C 3098   0.747   4.497   0.108  0.3678  0.5934 -1.7596
  204MPD1    C1 3099   0.702   4.551  17.675  0.1506 -0.2223  0.1110
  204MPD1    C2 3100   0.611   4.481  17.597  0.7812  1.2881  0.8957
  204MPD1    C3 3101   0.576   4.354  17.639  0.1122 -0.5338  0.1604
  204MPD1    C4 3102   0.627   4.298   0.067 -0.0114 -0.3937  0.1808
  204MPD1    C5 3103   0.707   4.376   0.143 -0.0045  0.2071  0.4294
  204MPD1     H 3104   0.570   4.521  17.506  1.4231 -0.6584 -0.2561
  204MPD1    H1 3105   0.601   4.198   0.100 -1.0073 -0.4513 -0.7617
  204MPD1    H2 3106   0.826   4.545   0.165 -0.2837 -0.4968  0.0469
  204MPD1    H3 3107   0.732   4.348   0.245 -4.7650  2.3657  2.2251
  204MPD1     N 3108   0.469   4.292  17.565 -0.2218  0.7237  0.1519
  204MPD1    H5 3109   0.452   4.323  17.470  0.0752  0.4780  0.0189
  204MPD1    N1 3110   0.725   4.687  17.657 -0.1229  0.2096 -0.0245
  204MPD1    H6 3111   0.709   0.014  17.568 -0.9933  0.1569  0.1106
  204MPD1    H7 3112   0.813   4.712   0.016  0.2199  1.4077 -1.3724
  205MPD1     C 3113   0.025   2.873  16.445 -0.1347  0.4005  0.4069
  205MPD1    C1 3114   0.046   3.008  16.403 -0.6126 -0.4118  0.7781
  205MPD1    C2 3115   0.136   3.083  16.474  0.1662 -0.2962 -0.2598
  205MPD1    C3 3116   0.222   3.024  16.558  0.2514  0.1547 -0.4197
  205MPD1    C4 3117   0.215   2.894  16.584 -0.0945  0.5418 -0.5374
  205MPD1    C5 3118   0.112   2.818  16.536  0.6122  0.4884 -0.4659
  205MPD1     H 3119   0.148   3.189  16.460 -1.8770 -0.0699 -0.3615
  205MPD1    H1 3120   0.282   2.843  16.653  0.3300 -0.1644 -1.4651
  205MPD1    H2 3121   4.666   2.807  16.413  1.2881  0.4209 -3.0679
  205MPD1    H3 3122   0.097   2.714  16.562 -1.3855  1.1269  0.9482
  205MPD1     N 3123   0.322   3.094  16.633  0.4054  0.0792 -0.1573
  205MPD1    H5 3124   0.386   3.034  16.685 -2.9775 -3.6813 -0.3270
  205MPD1    N1 3125   4.669   3.079  16.334 -0.2157  0.3266 -0.1043
  205MPD1    H6 3126   4.709   3.148  16.272  1.5823 -1.9507 -1.5041
  205MPD1    H7 3127   4.619   3.012  16.275  0.3368  1.9803 -2.4536
  206MPD1     C 3128   0.171   1.889  16.547 -0.0254  0.2448  0.5917
  206MPD1    C1 3129   0.137   1.752  16.538  0.6025  0.7048  0.2641
  206MPD1    C2 3130   0.137   1.700  16.407 -0.3935  0.9139  0.0672
  206MPD1    C3 3131   0.129   1.792  16.303  0.0154  0.3182 -0.3745
  206MPD1    C4 3132   0.145   1.926  16.315  0.0018 -0.1146  0.0227
  206MPD1    C5 3133   0.162   1.971  16.443 -0.2201  0.0605  1.1611
  206MPD1     H 3134   0.121   1.594  16.390  1.7785  0.2594  2.1589
  206MPD1    H1 3135   0.136   1.998  16.234  0.7876  0.6868  0.6534
  206MPD1    H2 3136   0.180   1.932  16.646  1.9216 -2.0216  1.4069
  206MPD1    H3 3137   0.184   2.076  16.461 -1.1169 -0.0576  2.9286
  206MPD1     N 3138   0.091   1.752  16.174 -0.0550 -0.0805  0.2349
  206MPD1    H5 3139   0.106   1.829  16.109  1.0923  1.2960  2.1595
  206MPD1    N1 3140   0.142   1.669  16.651  0.2683  0.5676  0.0753
  206MPD1    H6 3141   0.096   1.710  16.732 -2.6183 -0.1134 -1.2215
  206MPD1    H7 3142   0.103   1.577  16.634  0.7448  0.4272 -0.2700
  207MPD1     C 3143   2.873   2.804  10.168 -0.2199 -0.0511 -0.1805
  207MPD1    C1 3144   2.891   2.914  10.086 -0.0963  0.1552  0.5599
  207MPD1    C2 3145   2.957   3.020  10.140 -0.2710 -0.1100 -1.1065
  207MPD1    C3 3146   3.010   3.016  10.269  1.0159 -0.4479 -0.1634
  207MPD1    C4 3147   2.988   2.899  10.343  0.2397  0.0022 -0.5003
  207MPD1    C5 3148   2.914   2.792  10.297 -0.2176 -1.3489 -0.3447
  207MPD1     H 3149   2.962   3.114  10.085  1.8148  0.4867  0.1101
  207MPD1    H1 3150   3.031   2.891  10.442 -2.4629  0.4054  0.6786
  207MPD1    H2 3151   2.796   2.730  10.150 -0.1650 -0.1839  0.1299
  207MPD1    H3 3152   2.875   2.724  10.372  0.1668  1.0609  2.0527
  207MPD1     N 3153   3.082   3.123  10.330  0.5699  0.3679  0.2719
  207MPD1    H5 3154   3.129   3.102  10.418 -0.4413 -0.9457  0.5107
  207MPD1    N1 3155   2.817   2.925   9.964  0.1263  0.8354 -0.5512
  207MPD1    H6 3156   2.811   2.840   9.909 -2.1865  0.6947 -0.0775
  207MPD1    H7 3157   2.852   2.999   9.903 -1.8602  0.8970 -1.6079
  208MPD1     C 3158   1.459   3.528  17.394  0.4315 -0.5235 -0.0391
  208MPD1    C1 3159   1.328   3.506  17.366  1.1306 -0.3766  0.2539
  208MPD1    C2 3160   1.260   3.398  17.420  0.4732 -0.0972  1.0090
  208MPD1    C3 3161   1.312   3.327  17.521 -0.3231  0.7183 -0.1249
  208MPD1    C4 3162   1.442   3.356  17.560  0.0057 -0.1765 -0.3976
  208MPD1    C5 3163   1.511   3.450  17.491 -0.5019  0.4345  0.0380
  208MPD1     H 3164   1.168   3.368  17.371  1.4460  0.6073 -1.2509
  208MPD1    H1 3165   1.495   3.305  17.639 -0.0691 -0.0617 -0.2750
  208MPD1    H2 3166   1.522   3.604  17.350 -0.9474  0.9825  0.5819
  208MPD1    H3 3167   1.614   3.467  17.520  0.2655 -0.4790 -2.0937
  208MPD1     N 3168   1.230   3.227  17.574 -0.2401 -0.1170  0.5333
  208MPD1    H5 3169   1.138   3.217  17.532 -0.2745  0.4261  0.4835
  208MPD1    N1 3170   1.265   3.576  17.264 -0.6267  0.9099  0.3684
  208MPD1    H6 3171   1.163   3.581  17.255 -0.7072 -0.2925  0.5877
  208MPD1    H7 3172   1.304   3.670  17.255 -0.1851  0.7918  1.0756
  209MPD1     C 3173   3.222   3.377  12.091  0.8039 -0.4221 -0.4364
  209MPD1    C1 3174   3.228   3.509  12.057 -0.4428 -0.4422  0.2612
  209MPD1    C2 3175   3.291   3.543  11.933 -0.8523  0.3766  0.0490
  209MPD1    C3 3176   3.337   3.438  11.848 -0.2561  0.7400  0.4278
  209MPD1    C4 3177   3.333   3.301  11.888  0.3788 -0.4523 -0.0339
  209MPD1    C5 3178   3.276   3.278  12.012 -0.1797  0.4767  1.2755
  209MPD1     H 3179   3.299   3.643  11.894  0.3697  0.2707  0.0369
  209MPD1    H1 3180   3.363   3.215  11.829  0.1712 -0.4933 -0.0814
  209MPD1    H2 3181   3.178   3.358  12.188  1.6132 -2.1639 -0.4110
  209MPD1    H3 3182   3.256   3.177  12.045  0.3459 -0.2767 -0.7041
  209MPD1     N 3183   3.395   3.471  11.723 -0.3033 -0.0951 -0.6322
  209MPD1    H5 3184   3.399   3.572  11.712  1.1690 -0.4074 -2.9573
  209MPD1    N1 3185   3.196   3.609  12.152  1.0454  0.0157 -0.1352
  209MPD1    H6 3186   3.173   3.701  12.115 -1.7899 -0.8865 -0.6225
  209MPD1    H7 3187   3.118   3.588  12.213  2.1424  0.9847  1.6256
  210MPD1     C 3188   3.755   4.239  11.549  0.0546 -0.1262  0.3701
  210MPD1    C1 3189   3.751   4.176  11.423 -0.0035 -0.2854  0.2248
  210MPD1    C2 3190   3.705   4.047  11.408 -0.0048  0.5167 -0.3195
  210MPD1    C3 3191   3.651   3.988  11.519 -0.2536  0.7362  0.5261
  210MPD1    C4 3192   3.627   4.060  11.639 -0.7362  0.2348 -0.8938
  210MPD1    C5 3193   3.686   4.184  11.650 -0.4259  0.2801 -0.6263
  210MPD1     H 3194   3.699   3.994  11.314  0.3694  0.5984 -0.3900
  210MPD1    H1 3195   3.571   4.026  11.725  1.1704 -1.9249 -0.4970
  210MPD1    H2 3196   3.802   4.337  11.552  0.0848 -0.1468  0.5350
  210MPD1    H3 3197   3.677   4.239  11.743  1.0109  1.5989 -1.2722
  210MPD1     N 3198   3.602   3.855  11.518  0.2141  0.1616  0.0422
  210MPD1    H5 3199   3.542   3.826  11.594 -0.5401 -0.0955 -0.6381
  210MPD1    N1 3200   3.771   4.251  11.306 -0.5780 -0.1769 -0.5086
  210MPD1    H6 3201   3.799   4.193  11.227 -3.1701 -1.4078 -0.5273
  210MPD1    H7 3202   3.845   4.318  11.326  0.3593 -1.2046 -0.4651
  211MPD1     C 3203   1.149   3.556  15.812  0.8542 -0.2585  0.4537
  211MPD1    C1 3204   1.029   3.598  15.769  0.0140 -0.6708  0.1645
  211MPD1    C2 3205   0.931   3.604  15.872 -0.3135  0.5355  0.4595
  211MPD1    C3 3206   0.957   3.581  16.004 -0.2868 -0.1341 -0.3366
  211MPD1    C4 3207   1.080   3.543  16.045  0.8395  0.6992  0.3673
  211MPD1    C5 3208   1.177   3.532  15.948  0.1459  0.1182  0.2464
  211MPD1     H 3209   0.831   3.637  15.847 -0.8603 -0.1174  1.7807
  211MPD1    H1 3210   1.107   3.509  16.145 -0.8151  2.7141  1.5103
  211MPD1    H2 3211   1.231   3.550  15.742  1.5473  0.4975  1.2078
  211MPD1    H3 3212   1.277   3.496  15.965 -0.2854 -2.5253 -2.8312
  211MPD1     N 3213   0.848   3.573  16.092  0.6087  0.6991 -0.7080
  211MPD1    H5 3214   0.755   3.589  16.056  0.2687  0.5347  0.0844
  211MPD1    N1 3215   1.005   3.606  15.629  0.4730  0.2593 -0.0573
  211MPD1    H6 3216   0.924   3.663  15.602 -0.5629 -0.8306  0.7464
  211MPD1    H7 3217   1.090   3.629  15.579  1.5382 -0.7944  1.2878
  212MPD1     C 3218   4.622   1.232  16.278  0.8886 -0.7511 -0.2186
  212MPD1    C1 3219   4.551   1.340  16.323 -0.4823 -0.3790 -0.6781
  212MPD1    C2 3220   4.468   1.321  16.430 -0.1680 -0.0410  0.2892
  212MPD1    C3 3221   4.469   1.198  16.499 -0.1581 -0.3841  0.3112
  212MPD1    C4 3222   4.535   1.092  16.447  0.2625  0.0121  0.0181
  212MPD1    C5 3223   4.617   1.110  16.340  0.6362 -0.1400  0.3572
  212MPD1     H 3224   4.407   1.402  16.468  0.6912  1.7485 -2.2217
  212MPD1    H1 3225   4.525   0.994  16.494 -1.2930  0.7729  1.2813
  212MPD1    H2 3226   4.680   1.231  16.187  0.8631 -0.5113 -0.2359
  212MPD1    H3 3227   4.678   1.023  16.319  0.3197 -0.3421  0.2698
  212MPD1     N 3228   4.405   1.176  16.621  0.0671 -0.2003 -0.1715
  212MPD1    H5 3229   4.388   1.080  16.649  0.4165 -0.2755 -0.2068
  212MPD1    N1 3230   4.537   1.454  16.242  0.1652  0.7873  0.2422
  212MPD1    H6 3231   4.626   1.493  16.212  0.5403  1.3309  2.0237
  212MPD1    H7 3232   4.483   1.527  16.289 -1.4171  0.9570 -1.8716
  213MPD1     C 3233   2.387   2.016  15.890 -0.3080  0.6935 -0.3025
  213MPD1    C1 3234   2.309   1.930  15.820 -0.7557  0.4147  0.3279
  213MPD1    C2 3235   2.265   1.978  15.695 -0.6821  0.8713 -0.3349
  213MPD1    C3 3236   2.308   2.099  15.652 -0.7110  0.1501 -0.2663
  213MPD1    C4 3237   2.398   2.178  15.724 -0.1276 -0.4907 -0.2057
  213MPD1    C5 3238   2.438   2.133  15.846 -0.5755 -0.1665  0.3269
  213MPD1     H 3239   2.187   1.923  15.643 -0.3061 -0.2277  0.2652
  213MPD1    H1 3240   2.443   2.271  15.689  1.8078 -0.9632  1.0758
  213MPD1    H2 3241   2.423   1.993  15.990 -0.1049  1.3553 -0.2222
  213MPD1    H3 3242   2.501   2.199  15.905 -0.1744 -1.2268  1.0950
  213MPD1     N 3243   2.288   2.121  15.513  0.0033 -0.9612 -0.2513
  213MPD1    H5 3244   2.231   2.053  15.464 -0.8846 -0.5241  0.1898
  213MPD1    N1 3245   2.245   1.833  15.890  0.9508 -0.0182 -0.2406
  213MPD1    H6 3246   2.312   1.786  15.950 -0.4262 -2.2331 -0.4284
  213MPD1    H7 3247   2.200   1.761  15.834  1.5564 -1.0403  0.5818
  214MPD1     C 3248   1.730   1.705  15.039  0.2527 -0.8524 -0.4712
  214MPD1    C1 3249   1.828   1.720  14.949  0.0262 -0.4504 -0.1546
  214MPD1    C2 3250   1.926   1.816  14.986 -0.0257  0.8144 -0.2075
  214MPD1    C3 3251   1.922   1.882  15.112  0.1317  0.2653  0.3130
  214MPD1    C4 3252   1.832   1.846  15.201  0.3593 -0.0333  0.5373
  214MPD1    C5 3253   1.736   1.760  15.162 -0.6176  0.5891 -0.5247
  214MPD1     H 3254   1.999   1.843  14.911  0.3102 -0.1986 -0.2457
  214MPD1    H1 3255   1.816   1.895  15.296 -1.2626  1.8881 -0.7295
  214MPD1    H2 3256   1.645   1.638  15.025  0.2371 -1.4636  2.5169
  214MPD1    H3 3257   1.648   1.740  15.223 -0.3264 -0.0107 -0.3033
  214MPD1     N 3258   2.016   1.978  15.148 -0.5933 -0.2326 -0.0026
  214MPD1    H5 3259   2.019   2.014  15.243  3.9860  1.6270 -0.8558
  214MPD1    N1 3260   1.829   1.667  14.819  0.8856 -0.1046  0.0508
  214MPD1    H6 3261   1.804   1.568  14.822 -0.9198  0.3934  1.4370
  214MPD1    H7 3262   1.918   1.679  14.771 -0.6179 -0.6833 -2.9277
  215MPD1     C 3263   2.901   2.589  10.866 -0.7200  0.8811  0.1275
  215MPD1    C1 3264   2.934   2.648  10.987  0.4431 -0.2042  0.3361
  215MPD1    C2 3265   2.973   2.780  10.986  0.9542  0.0346  0.8379
  215MPD1    C3 3266   2.959   2.855  10.871  0.7410 -0.2665 -1.1455
  215MPD1    C4 3267   2.925   2.789  10.756  0.0809 -0.3363  0.0868
  215MPD1    C5 3268   2.898   2.662  10.755 -0.8829 -0.0914  0.1851
  215MPD1     H 3269   2.993   2.825  11.082  1.9573 -0.4870  0.8801
  215MPD1    H1 3270   2.922   2.841  10.661  1.5023 -0.2408  0.0832
  215MPD1    H2 3271   2.884   2.483  10.855  0.4256  0.7492 -0.4139
  215MPD1    H3 3272   2.865   2.619  10.661 -0.9082  1.7422 -0.6397
  215MPD1     N 3273   3.001   2.989  10.878 -0.1988  0.3132 -0.4972
  215MPD1    H5 3274   3.034   3.023  10.968 -0.1440 -2.5499  0.5846
  215MPD1    N1 3275   2.953   2.575  11.102  0.1571  0.6833  0.1427
  215MPD1    H6 3276   2.878   2.508  11.121  1.5925  0.0378  3.6493
  215MPD1    H7 3277   2.968   2.625  11.190  3.5338  0.7908 -0.4806
  216MPD1     C 3278   0.199   1.383  17.302  0.9632  0.2969 -0.8124
  216MPD1    C1 3279   0.308   1.313  17.359 -0.3676 -0.3393 -0.5639
  216MPD1    C2 3280   0.340   1.192  17.296 -0.1487  0.0406 -0.1532
  216MPD1    C3 3281   0.273   1.148  17.188 -0.2623  0.3503 -0.6210
  216MPD1    C4 3282   0.173   1.218  17.133 -0.0932  1.1097 -0.1017
  216MPD1    C5 3283   0.131   1.333  17.193 -0.1569 -0.6843 -0.3903
  216MPD1     H 3284   0.427   1.137  17.331 -0.9184  0.7015  2.8622
  216MPD1    H1 3285   0.125   1.188  17.041  0.1025 -1.5354  0.6607
  216MPD1    H2 3286   0.172   1.481  17.342  0.4607 -0.3329  0.4048
  216MPD1    H3 3287   0.041   1.386  17.163 -0.0542  0.7660  1.8608
  216MPD1     N 3288   0.300   1.018  17.139  0.4983 -0.0739 -0.4964
  216MPD1    H5 3289   0.381   0.972  17.178  0.8450  0.4192 -0.6361
  216MPD1    N1 3290   0.373   1.355  17.475 -0.5112  0.0068 -0.3921
  216MPD1    H6 3291   0.472   1.356  17.452  0.1657  0.8458  2.4213
  216MPD1    H7 3292   0.350   1.449  17.509 -1.6726 -0.8128  1.0839
  217MPD1     C 3293   0.311   2.316   8.630  0.0471 -0.4225 -0.6455
  217MPD1    C1 3294   0.419   2.240   8.640  0.0376 -0.4827  0.6481
  217MPD1    C2 3295   0.462   2.188   8.765  0.7917 -0.7231  1.0519
  217MPD1    C3 3296   0.377   2.191   8.873  0.3492  0.3992  0.4359
  217MPD1    C4 3297   0.259   2.254   8.861  0.3220 -0.5741 -0.7006
  217MPD1    C5 3298   0.229   2.317   8.740  0.1030 -0.1658 -0.2508
  217MPD1     H 3299   0.553   2.130   8.774  0.2174 -2.1904 -2.3424
  217MPD1    H1 3300   0.189   2.274   8.941 -0.5314  2.1509 -2.1396
  217MPD1    H2 3301   0.271   2.365   8.542 -1.3229 -0.7764 -0.2200
  217MPD1    H3 3302   0.134   2.366   8.724  0.1343  0.1411  0.5554
  217MPD1     N 3303   0.410   2.145   9.003 -0.0973 -0.0252  0.1399
  217MPD1    H5 3304   0.353   2.172   9.083 -0.6313 -0.7898  0.0141
  217MPD1    N1 3305   0.504   2.232   8.526 -0.0956  0.0818  0.4142
  217MPD1    H6 3306   0.547   2.141   8.510 -3.3380 -1.4584  0.5599
  217MPD1    H7 3307   0.464   2.264   8.438 -1.8967 -1.0111  0.8593
  218MPD1     C 3308   2.104   3.342  13.137 -0.4872  1.3218 -0.2809
  218MPD1    C1 3309   2.171   3.234  13.095 -0.2914 -0.5440 -0.0294
  218MPD1    C2 3310   2.249   3.233  12.986  0.2862 -0.2525 -0.4641
  218MPD1    C3 3311   2.283   3.350  12.923 -0.0161  0.1224 -0.4833
  218MPD1    C4 3312   2.226   3.467  12.966 -0.2259 -0.8970  0.4417
  218MPD1    C5 3313   2.128   3.456  13.064  0.3052 -0.0168 -0.0810
  218MPD1     H 3314   2.291   3.135  12.964 -0.4191 -0.3357 -1.4604
  218MPD1    H1 3315   2.257   3.563  12.926 -1.9763  0.5861  2.6499
  218MPD1    H2 3316   2.040   3.344  13.225  1.6805  0.4699  1.3156
  218MPD1    H3 3317   2.081   3.548  13.097  0.7784  0.6929 -1.3828
  218MPD1     N 3318   2.370   3.342  12.803  0.4679  0.2131  0.3294
  218MPD1    H5 3319   2.408   3.250  12.784  3.4442  1.2546  1.3548
  218MPD1    N1 3320   2.153   3.114  13.169 -0.0115 -0.2023 -0.5734
  218MPD1    H6 3321   2.239   3.058  13.172  0.9189  1.3456  1.5568
  218MPD1    H7 3322   2.137   3.138  13.266 -1.7864  3.5542 -1.8384
  219MPD1     C 3323   2.854   3.832  11.942 -0.1274  0.5610  0.1451
  219MPD1    C1 3324   2.749   3.879  12.017  0.7002 -0.4177  0.2571
  219MPD1    C2 3325   2.702   3.797  12.126 -0.7586  0.8478  0.1596
  219MPD1    C3 3326   2.766   3.677  12.152  0.3811  0.0478  0.9871
  219MPD1    C4 3327   2.870   3.628  12.073  0.4796  0.6561  0.7193
  219MPD1    C5 3328   2.913   3.707  11.969 -0.3383 -0.3103 -0.0280
  219MPD1     H 3329   2.626   3.839  12.191 -0.9585  0.7757 -0.0295
  219MPD1    H1 3330   2.916   3.532  12.093 -0.3813 -0.0631 -0.7454
  219MPD1    H2 3331   2.887   3.885  11.853  2.4343  0.6767  1.1689
  219MPD1    H3 3332   2.997   3.677  11.908 -0.4487  1.4791 -1.0725
  219MPD1     N 3333   2.730   3.605  12.259 -0.1156  0.4189  0.1949
  219MPD1    H5 3334   2.771   3.511  12.264 -0.8221  0.1134  0.1940
  219MPD1    N1 3335   2.679   3.998  11.979  0.0324  0.4675 -0.0306
  219MPD1    H6 3336   2.641   4.040  12.064 -1.7218 -1.0451 -0.0721
  219MPD1    H7 3337   2.758   4.055  11.948 -0.7835  0.7272 -1.6087
  220MPD1     C 3338   3.247   3.357   9.359 -0.3714 -0.5039 -0.5560
  220MPD1    C1 3339   3.283   3.405   9.485  0.2211 -0.1856 -0.7651
  220MPD1    C2 3340   3.184   3.417   9.581 -0.5595  0.1146  0.1764
  220MPD1    C3 3341   3.053   3.406   9.539  1.0446  0.0803  0.3564
  220MPD1    C4 3342   3.014   3.365   9.411 -0.0466  0.1357 -0.6796
  220MPD1    C5 3343   3.114   3.348   9.322 -0.5353 -0.0612 -0.4021
  220MPD1     H 3344   3.208   3.441   9.684 -1.7509  3.8623 -0.4117
  220MPD1    H1 3345   2.912   3.367   9.374  0.3047 -1.1955 -1.7341
  220MPD1    H2 3346   3.320   3.313   9.293 -0.0328  1.3987 -1.4457
  220MPD1    H3 3347   3.093   3.303   9.226 -0.8200 -2.5295  0.8063
  220MPD1     N 3348   2.955   3.451   9.634  0.0781  0.1768  0.4664
  220MPD1    H5 3349   2.995   3.472   9.725  0.5020  1.4231 -0.0025
  220MPD1    N1 3350   3.417   3.396   9.519 -0.2866 -1.1417  0.1785
  220MPD1    H6 3351   3.441   3.455   9.599 -0.5955  0.0972 -0.6459
  220MPD1    H7 3352   3.474   3.431   9.442  0.3849 -0.8386  0.8130
  221MPD1     C 3353   4.530   2.899  15.705  0.4706 -0.6257  0.3219
  221MPD1    C1 3354   4.627   2.998  15.707  0.1052 -0.6379 -1.0407
  221MPD1    C2 3355   4.707   2.997  15.821  0.1290 -0.0849 -0.3473
  221MPD1    C3 3356   4.699   2.896  15.913  0.2841 -0.5959  0.2008
  221MPD1    C4 3357   4.607   2.797  15.906 -0.0691 -0.3027 -0.7817
  221MPD1    C5 3358   4.524   2.799  15.801  0.3922  0.1748 -0.2644
  221MPD1     H 3359   0.055   3.079  15.841 -0.8970  0.9532 -1.0657
  221MPD1    H1 3360   4.603   2.714  15.975 -0.8842  1.8393  1.7443
  221MPD1    H2 3361   4.464   2.891  15.619  2.8043 -0.6581 -1.4362
  221MPD1    H3 3362   4.445   2.726  15.818 -0.2654  0.9196 -0.0972
  221MPD1     N 3363   0.068   2.875  16.018  0.1655 -0.1416 -0.1761
  221MPD1    H5 3364   0.051   2.796  16.079 -2.5255  0.2484 -0.4018
  221MPD1    N1 3365   4.624   3.109  15.622  0.5014  0.0194 -0.0991
  221MPD1    H6 3366   4.607   3.107  15.522 -0.6478 -1.0837  0.1237
  221MPD1    H7 3367   4.698   3.175  15.647 -0.2912  1.0151 -0.3984
  222MPD1     C 3368   0.709   2.843   0.034 -0.1105  0.0169 -0.2432
  222MPD1    C1 3369   0.744   2.706   0.054 -0.5346 -0.0618 -0.0880
  222MPD1    C2 3370   0.710   2.607  17.651 -0.9168  0.0705 -0.4775
  222MPD1    C3 3371   0.629   2.638  17.544  0.5053 -0.2590  0.3367
  222MPD1    C4 3372   0.593   2.766  17.533  0.0872 -0.5868 -0.1702
  222MPD1    C5 3373   0.626   2.871  17.614 -0.0381  0.3609  0.5621
  222MPD1     H 3374   0.737   2.506  17.680  1.5250  0.6525 -0.6987
  222MPD1    H1 3375   0.521   2.793  17.457  0.4908  1.5332  0.1929
  222MPD1    H2 3376   0.739   2.919   0.106  0.9959  0.6587 -1.3894
  222MPD1    H3 3377   0.593   2.971  17.587 -1.0672  0.9101  3.8172
  222MPD1     N 3378   0.574   2.541  17.461 -0.4934 -0.0753  0.0664
  222MPD1    H5 3379   0.502   2.576  17.399 -1.4580 -1.0868  0.6247
  222MPD1    N1 3380   0.803   2.673   0.177  0.5228  0.4522  0.1876
  222MPD1    H6 3381   0.862   2.591   0.170 -1.4985 -0.8605 -1.4589
  222MPD1    H7 3382   0.849   2.752   0.223 -1.2000  0.9711  1.0213
  223MPD1     C 3383   0.617   1.646  16.811 -0.6866 -0.4247 -0.1194
  223MPD1    C1 3384   0.495   1.701  16.786 -0.0498 -0.2359 -0.4382
  223MPD1    C2 3385   0.469   1.814  16.865 -0.3034 -0.9780 -0.0728
  223MPD1    C3 3386   0.535   1.836  16.992  0.4662  0.0297 -0.4536
  223MPD1    C4 3387   0.654   1.776  17.013 -0.4791 -0.6353  0.7441
  223MPD1    C5 3388   0.690   1.676  16.926 -0.2146 -0.3322 -0.6009
  223MPD1     H 3389   0.389   1.882  16.841  1.6007  0.7885 -1.4922
  223MPD1    H1 3390   0.712   1.791  17.103  2.4080 -0.6185 -1.0851
  223MPD1    H2 3391   0.658   1.568  16.747  2.6928  2.0913 -1.0285
  223MPD1    H3 3392   0.780   1.621  16.950  0.6082  0.9573 -0.7136
  223MPD1     N 3393   0.485   1.947  17.064  0.0199  0.6836 -0.6885
  223MPD1    H5 3394   0.400   1.985  17.024 -0.7331 -0.0083  0.2738
  223MPD1    N1 3395   0.425   1.681  16.666  0.0512 -0.1494 -0.2524
  223MPD1    H6 3396   0.324   1.689  16.676  0.0014 -0.9076 -0.1437
  223MPD1    H7 3397   0.442   1.591  16.622  1.1967 -1.4099  2.7110
  224MPD1     C 3398   1.129   2.902   9.253  0.2079  0.4682 -0.5215
  224MPD1    C1 3399   1.248   2.849   9.295 -0.0421  0.1118  0.1406
  224MPD1    C2 3400   1.257   2.803   9.424 -0.1375  0.2213 -0.0554
  224MPD1    C3 3401   1.156   2.827   9.522 -0.3461 -0.3105 -0.1734
  224MPD1    C4 3402   1.043   2.900   9.470  0.0222  0.4849  0.7402
  224MPD1    C5 3403   1.034   2.941   9.343  0.2528  0.1188  0.0204
  224MPD1     H 3404   1.349   2.757   9.457  0.2760 -0.1844 -1.8130
  224MPD1    H1 3405   0.968   2.942   9.536  2.0498  3.6005  1.0597
  224MPD1    H2 3406   1.111   2.927   9.149  2.7595 -3.4304 -1.9270
  224MPD1    H3 3407   0.954   3.009   9.316  0.8435  0.3639 -1.1109
  224MPD1     N 3408   1.164   2.788   9.657  0.3360 -0.1259 -0.0857
  224MPD1    H5 3409   1.085   2.807   9.718  1.1343 -2.3512  1.6537
  224MPD1    N1 3410   1.337   2.812   9.190  0.1248 -0.6867 -0.0224
  224MPD1    H6 3411   1.430   2.784   9.219  0.8865  2.1253  0.1732
  224MPD1    H7 3412   1.341   2.891   9.126  1.9631 -1.2658 -0.6266
  225MPD1     C 3413   2.090   4.311  13.029 -0.6180 -0.7594  0.7713
  225MPD1    C1 3414   2.071   4.174  13.010 -0.1762 -0.0280  0.2719
  225MPD1    C2 3415   1.984   4.133  12.912  0.2041  0.2691  0.3938
  225MPD1    C3 3416   1.937   4.221  12.818 -0.5000  0.2025 -0.3126
  225MPD1    C4 3417   1.967   4.356  12.830  0.0710  0.8276  0.4867
  225MPD1    C5 3418   2.036   4.400  12.941  0.3395  0.6132 -0.6531
  225MPD1     H 3419   1.939   4.034  12.919  0.6403  0.1709  1.8960
  225MPD1    H1 3420   1.918   4.429  12.767 -0.1436 -0.2401 -0.5969
  225MPD1    H2 3421   2.139   4.351  13.117 -0.4583  0.9802 -0.1160
  225MPD1    H3 3422   2.051   4.505  12.963  1.3268  0.7073 -1.7772
  225MPD1     N 3423   1.857   4.188  12.708  0.2554 -0.3287 -0.3559
  225MPD1    H5 3424   1.819   4.268  12.657 -1.3144 -0.6846  0.2601
  225MPD1    N1 3425   2.095   4.085  13.114 -0.2842  0.2030  0.0499
  225MPD1    H6 3426   2.104   3.986  13.091 -0.3969 -0.1312  1.4127
  225MPD1    H7 3427   2.168   4.115  13.178 -1.8838 -0.5138  2.2178
  226MPD1     C 3428   1.344   0.080   9.379 -0.3294 -0.0116 -0.0532
  226MPD1    C1 3429   1.442   0.099   9.468  0.5821 -0.4489  0.4919
  226MPD1    C2 3430   1.419   0.034   9.588  0.3947 -0.8662 -0.0540
  226MPD1    C3 3431   1.316   4.670   9.613  0.4219 -0.6715 -0.7033
  226MPD1    C4 3432   1.214   4.660   9.524 -0.5866 -0.2532  0.1297
  226MPD1    C5 3433   1.236   0.010   9.404  0.0499  0.2061  0.2240
  226MPD1     H 3434   1.495   0.051   9.664  0.3147 -2.2705  0.3372
  226MPD1    H1 3435   1.135   4.585   9.525 -0.7494 -0.0930 -0.6840
  226MPD1    H2 3436   1.370   0.133   9.288  2.8255 -1.5852 -0.0894
  226MPD1    H3 3437   1.159   4.720   9.328 -0.9854 -4.6774  2.0154
  226MPD1     N 3438   1.323   4.598   9.733  0.1233 -0.6130  0.4483
  226MPD1    H5 3439   1.401   4.616   9.795  1.0229  0.5993 -1.0428
  226MPD1    N1 3440   1.549   0.188   9.446 -0.0832 -1.2620  0.2793
  226MPD1    H6 3441   1.580   0.185   9.349 -1.6580 -1.1418 -0.2339
  226MPD1    H7 3442   1.638   0.180   9.495 -0.5200  0.9195  1.4136
  227MPD1     C 3443   2.061   4.416  10.048 -0.0678 -0.1005 -0.1544
  227MPD1    C1 3444   1.991   4.532  10.019 -0.0677 -0.2339 -0.4133
  227MPD1    C2 3445   1.848   4.524  10.006 -0.1210  0.0177 -0.3863
  227MPD1    C3 3446   1.787   4.404  10.033  0.1790  0.1043  0.2223
  227MPD1    C4 3447   1.852   4.293  10.062 -1.1702 -0.0078 -0.0063
  227MPD1    C5 3448   1.990   4.299  10.063 -0.0391 -0.3757 -0.2951
  227MPD1     H 3449   1.791   4.615   9.992 -0.3078 -0.5795 -3.3597
  227MPD1    H1 3450   1.809   4.195  10.079 -0.7130  0.0973  1.8271
  227MPD1    H2 3451   2.169   4.417  10.054 -0.1787  1.7740  1.6699
  227MPD1    H3 3452   2.051   4.213  10.089  0.4713 -0.1327 -0.6824
  227MPD1     N 3453   1.645   4.411  10.021 -0.2407 -0.1098 -0.4289
  227MPD1    H5 3454   1.610   4.500   9.988  1.6039  0.6784 -0.2523
  227MPD1    N1 3455   2.051   4.655   9.986 -0.0676 -0.5691 -0.5169
  227MPD1    H6 3456   2.131   4.679  10.045  1.0470 -0.5241 -2.0268
  227MPD1    H7 3457   1.991   0.016   9.978  0.6161 -0.0831 -0.7495
  228MPD1     C 3458   3.417   2.342  12.743 -0.3669  0.7636  0.1814
  228MPD1    C1 3459   3.438   2.296  12.617 -0.1064 -0.0585  0.0709
  228MPD1    C2 3460   3.414   2.160  12.587  0.0390 -0.1554 -0.4946
  228MPD1    C3 3461   3.385   2.072  12.685  0.7020  0.3535  1.1258
  228MPD1    C4 3462   3.366   2.118  12.812 -0.2061 -0.3987 -0.2565
  228MPD1    C5 3463   3.384   2.249  12.837 -1.2707 -0.6791 -0.2650
  228MPD1     H 3464   3.420   2.119  12.487 -0.3026  2.2108 -1.4859
  228MPD1    H1 3465   3.342   2.052  12.894 -0.6701  0.0260 -0.0511
  228MPD1    H2 3466   3.414   2.449  12.761 -1.4363  0.6870  0.4707
  228MPD1    H3 3467   3.361   2.286  12.937 -0.5821 -0.5809 -0.1424
  228MPD1     N 3468   3.368   1.930  12.656  0.0937  0.3301 -0.3089
  228MPD1    H5 3469   3.363   1.907  12.557  0.9084  0.2169 -0.3210
  228MPD1    N1 3470   3.445   2.390  12.515 -0.4994  0.1452 -0.1089
  228MPD1    H6 3471   3.490   2.478  12.541  0.2343  0.1274 -1.2767
  228MPD1    H7 3472   3.475   2.367  12.420  0.8555 -0.6245  0.5088
  229MPD1     C 3473   3.075   0.028  15.302 -0.7513 -0.2409 -0.3950
  229MPD1    C1 3474   3.110   4.630  15.241 -0.0735  0.4166 -0.3957
  229MPD1    C2 3475   3.250   4.603  15.220 -0.1989  0.2802 -0.6976
  229MPD1    C3 3476   3.348   4.687  15.271 -0.3631 -0.0399  0.9548
  229MPD1    C4 3477   3.316   0.087  15.327  0.6684  0.2558 -0.0132
  229MPD1    C5 3478   3.177   0.115  15.338  0.0879  0.3790  0.8794
  229MPD1     H 3479   3.281   4.510  15.173 -0.6454 -0.9895  1.5429
  229MPD1    H1 3480   3.386   0.160  15.368 -1.0303  2.0295 -0.2464
  229MPD1    H2 3481   2.973   0.056  15.325 -1.2006  0.1737 -2.9277
  229MPD1    H3 3482   3.147   0.207  15.386 -0.8314  0.1038  0.8275
  229MPD1     N 3483   3.485   4.652  15.274 -0.1274 -0.5764  0.2764
  229MPD1    H5 3484   3.558   4.709  15.314  0.3553 -1.1757  0.2452
  229MPD1    N1 3485   3.010   4.558  15.179 -0.3219  0.2970  0.4864
  229MPD1    H6 3486   3.015   4.458  15.196 -0.7179  0.1427 -0.2929
  229MPD1    H7 3487   2.916   4.587  15.204 -0.4846 -0.8751  1.2399
  230MPD1     C 3488   4.375   4.641  15.711  0.3594 -0.0378 -1.0985
  230MPD1    C1 3489   4.406   4.601  15.586  0.6621  0.4746  0.7249
  230MPD1    C2 3490   4.303   4.605  15.497  0.3106  0.0225  0.0001
  230MPD1    C3 3491   4.178   4.648  15.533  0.1693  0.0050 -0.3399
  230MPD1    C4 3492   4.149   4.698  15.660  0.3486  0.7255  0.2094
  230MPD1    C5 3493   4.253   4.694  15.744 -0.9333 -0.0786  0.6019
  230MPD1     H 3494   4.326   4.577  15.395 -1.8697  1.2545 -0.8186
  230MPD1    H1 3495   4.048   0.007  15.686  0.4496  0.1001  1.3380
  230MPD1    H2 3496   4.455   4.643  15.784 -0.1201 -1.2782 -0.5425
  230MPD1    H3 3497   4.237   0.009  15.845  0.8507  0.7004  0.6094
  230MPD1     N 3498   4.082   4.646  15.436  0.0625 -0.2863  0.3800
  230MPD1    H5 3499   4.095   4.578  15.362  0.9107  0.5756 -0.2574
  230MPD1    N1 3500   4.536   4.571  15.550 -0.5528  0.0665  0.4790
  230MPD1    H6 3501   4.554   4.519  15.464  0.8142 -2.3416  2.2132
  230MPD1    H7 3502   4.593   4.521  15.618  0.4531 -0.9006 -1.0807
  231MPD1     C 3503   1.154   2.025  15.144  0.4628  0.1158 -0.4566
  231MPD1    C1 3504   1.224   2.138  15.161  0.9587  0.3136  0.8244
  231MPD1    C2 3505   1.359   2.141  15.122 -0.2374  0.0637  0.6773
  231MPD1    C3 3506   1.433   2.032  15.073  0.3684  0.1632 -0.4390
  231MPD1    C4 3507   1.363   1.918  15.070  0.0271  0.4096  0.2492
  231MPD1    C5 3508   1.225   1.918  15.102  0.1845  0.5546 -0.1070
  231MPD1     H 3509   1.412   2.235  15.129  2.7436 -1.6354  0.9735
  231MPD1    H1 3510   1.405   1.824  15.035 -1.1842  0.2355 -0.7566
  231MPD1    H2 3511   1.052   2.010  15.179  0.6884 -2.1001 -0.7777
  231MPD1    H3 3512   1.167   1.828  15.087  0.4666  0.3518  0.0117
  231MPD1     N 3513   1.561   2.041  15.008 -0.4343 -0.7084  0.2325
  231MPD1    H5 3514   1.593   1.958  14.959 -1.5310 -0.2651 -1.2260
  231MPD1    N1 3515   1.165   2.256  15.200  0.1513  0.7559 -0.0434
  231MPD1    H6 3516   1.228   2.318  15.250 -0.0224  0.1680  0.9139
  231MPD1    H7 3517   1.084   2.236  15.259 -1.7347  1.5738 -2.3178
  232MPD1     C 3518   3.890   0.665   0.044  0.0081 -0.0093 -0.0270
  232MPD1    C1 3519   3.880   0.539   0.108 -0.4712  0.0043  0.2025
  232MPD1    C2 3520   3.771   0.465   0.072 -0.6076 -0.5083 -0.6409
  232MPD1    C3 3521   3.678   0.504  17.662 -0.7777  0.3685 -0.7350
  232MPD1    C4 3522   3.702   0.619  17.584 -0.4563 -0.4727 -0.0818
  232MPD1    C5 3523   3.808   0.705  17.625  0.1534  0.2215  0.6949
  232MPD1     H 3524   3.754   0.374   0.127  1.2457  0.2896  1.2422
  232MPD1    H1 3525   3.643   0.664  17.505 -0.1131 -0.3850 -0.2897
  232MPD1    H2 3526   3.960   0.743   0.071 -0.1733 -0.6850  2.4091
  232MPD1    H3 3527   3.819   0.806  17.586 -0.5112 -0.3502 -0.9757
  232MPD1     N 3528   3.563   0.426  17.647  0.0648 -0.0556 -0.1673
  232MPD1    H5 3529   3.558   0.343   0.020 -0.7066  0.3393  0.3240
  232MPD1    N1 3530   3.957   0.516   0.219 -1.0614 -0.1377  0.2412
  232MPD1    H6 3531   3.959   0.415   0.232  0.6292 -0.3803 -2.0294
  232MPD1    H7 3532   4.053   0.546   0.206 -0.9002 -1.2424 -1.2112
  233MPD1     C 3533   4.555   3.470   1.400  0.5755  0.1954  0.6228
  233MPD1    C1 3534   4.682   3.522   1.368 -0.2278  0.3840 -0.7340
  233MPD1    C2 3535   0.071   3.451   1.412  0.2605  0.1254 -0.4322
  233MPD1    C3 3536   0.056   3.341   1.497 -0.2720 -0.2053 -0.1522
  233MPD1    C4 3537   4.653   3.293   1.525 -0.5385 -0.3610 -0.7878
  233MPD1    C5 3538   4.549   3.354   1.475  0.2105  1.4722  0.3066
  233MPD1     H 3539   0.171   3.481   1.382 -0.1379  1.7408 -0.1845
  233MPD1    H1 3540   4.632   3.207   1.588  1.0608 -1.1115 -1.2704
  233MPD1    H2 3541   4.466   3.527   1.379  0.8540  0.0386 -0.9821
  233MPD1    H3 3542   4.452   3.313   1.501  0.1441  1.8020  0.5700
  233MPD1     N 3543   0.167   3.267   1.551 -0.6455  0.1655  0.7317
  233MPD1    H5 3544   0.140   3.189   1.610 -2.7165  0.2457 -0.1081
  233MPD1    N1 3545   4.697   3.621   1.269 -0.7000  0.3034  0.5547
  233MPD1    H6 3546   0.068   3.664   1.279 -0.6974  0.1610  1.1159
  233MPD1    H7 3547   4.629   3.696   1.269  0.2349  1.1528  1.2744
  234MPD1     C 3548   1.552   0.817   9.438 -0.2506  0.1884  0.1044
  234MPD1    C1 3549   1.429   0.878   9.408  0.5802  0.1736  0.4021
  234MPD1    C2 3550   1.426   1.015   9.416 -1.2669 -0.3247 -0.1184
  234MPD1    C3 3551   1.532   1.089   9.464  0.4092  0.7112  0.3814
  234MPD1    C4 3552   1.650   1.024   9.498 -0.0499  0.3268  0.3555
  234MPD1    C5 3553   1.659   0.887   9.477  0.0968  0.1111 -0.0720
  234MPD1     H 3554   1.337   1.065   9.380 -2.0164 -2.2665 -0.9540
  234MPD1    H1 3555   1.743   1.060   9.541  0.8653 -0.7968 -0.6965
  234MPD1    H2 3556   1.567   0.710   9.443  0.2238  0.1747 -1.4687
  234MPD1    H3 3557   1.744   0.830   9.511 -0.0232  0.4585  0.8084
  234MPD1     N 3558   1.517   1.223   9.483 -0.4356 -0.7209  0.3242
  234MPD1    H5 3559   1.422   1.258   9.487  0.5611  1.8598  1.3402
  234MPD1    N1 3560   1.317   0.798   9.376 -0.1971 -0.2220 -0.2819
  234MPD1    H6 3561   1.333   0.700   9.353 -0.6524  0.0754 -1.8740
  234MPD1    H7 3562   1.251   0.844   9.313  1.8786  0.9736 -1.5915
  235MPD1     C 3563   2.979   4.549  10.998  0.1108  0.0012 -0.5894
  235MPD1    C1 3564   2.870   4.570  10.926 -0.2675  0.1942  0.4714
  235MPD1    C2 3565   2.892   4.610  10.800 -0.0690  0.6022 -1.0604
  235MPD1    C3 3566   3.011   4.638  10.741  0.6756  0.1926  0.1465
  235MPD1    C4 3567   3.122   4.631  10.829 -0.1172  0.3972  0.0167
  235MPD1    C5 3568   3.110   4.571  10.947  0.3395  0.5357  0.4228
  235MPD1     H 3569   2.810   4.594  10.732 -0.6553  2.2196 -0.7437
  235MPD1    H1 3570   3.216   4.677  10.803  0.7474 -1.9136 -0.9777
  235MPD1    H2 3571   2.975   4.512  11.100 -1.0039 -1.5119 -1.1856
  235MPD1    H3 3572   3.192   4.564  11.017  1.0263  0.4356 -0.3940
  235MPD1     N 3573   3.017   4.679  10.604  0.0263  0.0154  0.3746
  235MPD1    H5 3574   2.936   4.676  10.542  0.3798 -0.5749 -0.0560
  235MPD1    N1 3575   2.743   4.520  10.961 -0.5883 -0.6510 -0.6012
  235MPD1    H6 3576   2.727   4.519  11.062  2.2777  1.6659 -0.1227
  235MPD1    H7 3577   2.676   4.584  10.921 -0.4319 -0.5975 -0.7767
  236MPD1     C 3578   2.616   0.856  10.220  0.1098 -0.5695  0.3605
  236MPD1    C1 3579   2.540   0.768  10.147 -0.0989 -0.1115  0.3398
  236MPD1    C2 3580   2.480   0.663  10.217  0.2560  0.1718 -0.4130
  236MPD1    C3 3581   2.495   0.651  10.352  0.5837 -0.0997 -0.2901
  236MPD1    C4 3582   2.575   0.740  10.418 -0.2932 -0.6667 -0.3581
  236MPD1    C5 3583   2.627   0.847  10.354  0.3235 -0.0253  0.3513
  236MPD1     H 3584   2.427   0.589  10.159  1.7772 -0.0152 -1.5636
  236MPD1    H1 3585   2.592   0.725  10.524 -1.2147 -1.2035 -0.2821
  236MPD1    H2 3586   2.664   0.941  10.172  0.1858 -1.0224 -0.3712
  236MPD1    H3 3587   2.696   0.911  10.407 -0.6071  2.3773 -1.3405
  236MPD1     N 3588   2.450   0.542  10.428 -0.2953  0.1977 -0.3101
  236MPD1    H5 3589   2.483   0.537  10.524 -0.8861 -3.1010 -0.2769
  236MPD1    N1 3590   2.507   0.794  10.014 -0.3978  0.0321 -0.1102
  236MPD1    H6 3591   2.569   0.864   9.973 -3.1825  0.2594 -3.8662
  236MPD1    H7 3592   2.481   0.719   9.951 -0.5496  0.0028 -0.0116
  237MPD1     C 3593   2.571   3.111  15.335  0.4686 -1.2907 -0.3209
  237MPD1    C1 3594   2.601   3.169  15.213  0.5573  0.3488  0.2014
  237MPD1    C2 3595   2.500   3.246  15.155  0.0531 -0.2194 -0.1129
  237MPD1    C3 3596   2.388   3.288  15.229 -0.0025  0.7377 -0.6011
  237MPD1    C4 3597   2.373   3.250  15.356  0.1622  0.1779 -0.0098
  237MPD1    C5 3598   2.461   3.155  15.408 -0.5782  0.3377  0.4035
  237MPD1     H 3599   2.526   3.283  15.056 -0.5282  2.7345  0.8470
  237MPD1    H1 3600   2.284   3.283  15.409 -0.9082 -2.3001 -0.2408
  237MPD1    H2 3601   2.646   3.053  15.387  2.3034  1.9861  0.7008
  237MPD1    H3 3602   2.452   3.121  15.510  2.4859 -0.5667  0.3656
  237MPD1     N 3603   2.277   3.360  15.175  0.4512 -0.2070  0.1690
  237MPD1    H5 3604   2.201   3.384  15.239  0.4786  0.9980 -0.2444
  237MPD1    N1 3605   2.720   3.137  15.147 -0.1566  0.0874  0.5591
  237MPD1    H6 3606   2.741   3.196  15.067 -4.3369  0.0218 -0.6130
  237MPD1    H7 3607   2.805   3.124  15.202 -0.2493 -1.2122  0.3760
  238MPD1     C 3608   4.012   2.120  15.186  0.2251  0.1894 -0.5028
  238MPD1    C1 3609   3.904   2.107  15.271  0.1373  0.0899 -0.6380
  238MPD1    C2 3610   3.781   2.107  15.215  0.3070 -0.8089  0.0016
  238MPD1    C3 3611   3.760   2.135  15.079 -0.2979  0.2729  0.2931
  238MPD1    C4 3612   3.870   2.154  15.004  0.1713 -0.3418  0.2248
  238MPD1    C5 3613   3.989   2.127  15.055  0.5618  0.3336  0.1132
  238MPD1     H 3614   3.697   2.068  15.271 -1.9399  0.5658 -2.4364
  238MPD1    H1 3615   3.878   2.170  14.897 -0.0571 -0.0609  0.2521
  238MPD1    H2 3616   4.110   2.112  15.232  0.1031  0.9109 -0.1018
  238MPD1    H3 3617   4.073   2.147  14.989  0.7544  0.4322  0.3858
  238MPD1     N 3618   3.633   2.128  15.018  0.3738  0.1256  0.0052
  238MPD1    H5 3619   3.636   2.133  14.917 -4.0369  1.8077 -0.0724
  238MPD1    N1 3620   3.913   2.055  15.402 -0.0503 -0.4152 -0.1667
  238MPD1    H6 3621   3.833   2.071  15.463  0.9125  2.6197  0.2699
  238MPD1    H7 3622   4.006   2.082  15.432 -1.4978  1.8735  2.2905
  239MPD1     C 3623   4.154   2.567  14.765  0.0378 -0.2433  0.0512
  239MPD1    C1 3624   4.253   2.620  14.679  0.7011 -0.2579  0.7530
  239MPD1    C2 3625   4.228   2.738  14.611  0.0963  0.2252  0.7173
  239MPD1    C3 3626   4.123   2.819  14.643 -0.5622 -0.7512 -0.5750
  239MPD1    C4 3627   4.031   2.778  14.738  0.0814  0.2510 -0.2709
  239MPD1    C5 3628   4.043   2.646  14.781 -0.3646  0.2587  0.7526
  239MPD1     H 3629   4.298   2.762  14.532 -1.9548 -0.3490 -1.2880
  239MPD1    H1 3630   3.948   2.833  14.782  0.5297 -0.0650  0.9814
  239MPD1    H2 3631   4.160   2.462  14.792 -2.9566  0.1034  2.0407
  239MPD1    H3 3632   3.965   2.616  14.850 -2.4184  1.8151 -0.8874
  239MPD1     N 3633   4.111   2.949  14.591  0.0501  0.2695  1.0454
  239MPD1    H5 3634   4.020   2.991  14.607  0.2739  1.2162 -0.1855
  239MPD1    N1 3635   4.362   2.544  14.648  0.4821 -0.3329 -0.7298
  239MPD1    H6 3636   4.393   2.501  14.735 -0.4324 -2.1267 -1.2804
  239MPD1    H7 3637   4.442   2.592  14.609 -0.3043  0.8430 -0.8889
  240MPD1     C 3638   3.869   2.649  13.876  0.2407 -0.2571 -0.1027
  240MPD1    C1 3639   3.896   2.619  14.006  0.1657 -0.0482  0.0403
  240MPD1    C2 3640   3.785   2.622  14.095  0.6109  0.0131 -0.7778
  240MPD1    C3 3641   3.661   2.669  14.057 -0.2029  0.1947  0.0276
  240MPD1    C4 3642   3.640   2.714  13.929  0.0223  0.0242  0.7614
  240MPD1    C5 3643   3.745   2.707  13.840  0.8361  0.1597 -0.4872
  240MPD1     H 3644   3.791   2.587  14.198  4.5274 -1.0218 -1.3520
  240MPD1    H1 3645   3.547   2.746  13.883  0.5309 -0.1710 -0.3911
  240MPD1    H2 3646   3.946   2.626  13.803  0.3927  2.8977 -0.9292
  240MPD1    H3 3647   3.727   2.748  13.741  0.7359 -0.8147 -0.8673
  240MPD1     N 3648   3.559   2.673  14.153 -0.3675 -0.5474 -0.1036
  240MPD1    H5 3649   3.588   2.676  14.250  3.2536 -1.1659 -1.1398
  240MPD1    N1 3650   3.999   2.534  14.044  0.6666  0.1854  0.2539
  240MPD1    H6 3651   4.075   2.547  13.977  0.6588  0.0320  0.2139
  240MPD1    H7 3652   4.032   2.544  14.140  0.9162 -1.1702  0.3216
  241MPD1     C 3653   3.504   2.423  15.058 -0.2907  1.0378  0.0922
  241MPD1    C1 3654   3.593   2.454  14.957  0.3903 -0.2853 -0.1400
  241MPD1    C2 3655   3.546   2.504  14.839 -0.4692  0.2825 -0.0149
  241MPD1    C3 3656   3.417   2.532  14.816  0.2090 -0.4398  0.3573
  241MPD1    C4 3657   3.324   2.484  14.907  0.0680 -0.6717  0.4618
  241MPD1    C5 3658   3.370   2.437  15.028  0.1337 -0.2198  0.2278
  241MPD1     H 3659   3.619   2.532  14.763  1.0043  2.5384  2.2290
  241MPD1    H1 3660   3.219   2.502  14.887 -0.1444 -1.6528  0.7035
  241MPD1    H2 3661   3.531   2.374  15.151  0.7262  0.9751 -0.2404
  241MPD1    H3 3662   3.300   2.405  15.104 -2.3916 -1.0219 -2.4230
  241MPD1     N 3663   3.366   2.588  14.699 -0.7957  0.4827 -0.0613
  241MPD1    H5 3664   3.266   2.603  14.700 -1.1869 -2.1629 -0.1609
  241MPD1    N1 3665   3.728   2.437  14.987 -0.9389 -0.1161  1.0293
  241MPD1    H6 3666   3.789   2.425  14.906 -0.7509  1.0317  1.0044
  241MPD1    H7 3667   3.754   2.373  15.062  0.3806 -0.1179  0.5724
  242MPD1     C 3668   2.688   1.242  16.077 -0.1204 -0.8354  0.1129
  242MPD1    C1 3669   2.785   1.152  16.110  0.0827  0.6714 -0.1951
  242MPD1    C2 3670   2.875   1.116  16.017  0.4740 -0.3924 -1.1535
  242MPD1    C3 3671   2.858   1.156  15.885 -0.0197  0.7459 -0.1536
  242MPD1    C4 3672   2.751   1.232  15.851 -0.0444  0.4326  0.4907
  242MPD1    C5 3673   2.670   1.285  15.946  0.8804 -0.3295 -0.7307
  242MPD1     H 3674   2.950   1.044  16.047 -0.4546 -1.1244 -0.5906
  242MPD1    H1 3675   2.733   1.264  15.749  1.9405 -0.0468 -0.0177
  242MPD1    H2 3676   2.620   1.275  16.155 -0.4255 -0.3496 -0.3567
  242MPD1    H3 3677   2.592   1.359  15.929  0.1808 -0.5265  1.5899
  242MPD1     N 3678   2.938   1.112  15.775  0.1261 -0.7330  0.0825
  242MPD1    H5 3679   2.937   1.155  15.683 -1.8107 -0.9309  0.0159
  242MPD1    N1 3680   2.810   1.122  16.246  0.1102 -0.2085  0.6034
  242MPD1    H6 3681   2.729   1.128  16.308  2.1624  3.0965  2.9733
  242MPD1    H7 3682   2.866   1.041  16.272  0.7605  0.3585  0.9640
  243MPD1     C 3683   0.584   0.775   0.064 -0.4829  0.8576 -0.1180
  243MPD1    C1 3684   0.572   0.765  17.610  0.5364  0.2746  0.7970
  243MPD1    C2 3685   0.539   0.635  17.561 -0.2277  0.4845  0.0116
  243MPD1    C3 3686   0.551   0.530  17.638  0.0532 -0.6835 -0.0491
  243MPD1    C4 3687   0.581   0.540   0.083 -0.2824  0.1524  0.4159
  243MPD1    C5 3688   0.595   0.665   0.139 -0.1405  0.1032 -0.3749
  243MPD1     H 3689   0.498   0.606  17.465 -0.5196 -0.8253  0.5309
  243MPD1    H1 3690   0.576   0.456   0.151 -2.0109  0.5238  0.7429
  243MPD1    H2 3691   0.591   0.871   0.114  2.5013 -0.4733  2.0225
  243MPD1    H3 3692   0.608   0.679   0.246 -2.9960 -2.0187  0.2764
  243MPD1     N 3693   0.502   0.407  17.582  0.6084  0.4603 -0.1180
  243MPD1    H5 3694   0.467   0.411  17.487  0.4738 -0.3504 -0.1023
  243MPD1    N1 3695   0.554   0.881  17.539 -0.9078 -0.2465 -0.3935
  243MPD1    H6 3696   0.583   0.879  17.441  2.5466  1.7513  0.5998
  243MPD1    H7 3697   0.616   0.954  17.574 -3.3506  1.6912 -0.0522
  244MPD1     C 3698   0.015   4.239   0.159  0.7457 -0.5154  0.1505
  244MPD1    C1 3699   0.139   4.277   0.210 -0.3223 -0.0677  0.1326
  244MPD1    C2 3700   0.222   4.373   0.151  0.8578 -0.1854 -0.2820
  244MPD1    C3 3701   0.178   4.436   0.032  0.5706  0.1912  0.4496
  244MPD1    C4 3702   0.063   4.385  17.657  0.1983 -0.0392 -0.5950
  244MPD1    C5 3703   4.698   4.297   0.037  0.7266 -0.0712  0.4068
  244MPD1     H 3704   0.313   4.404   0.203  1.0713  1.6607 -1.7519
  244MPD1    H1 3705   0.027   4.413  17.558 -1.0184 -2.0765 -0.7319
  244MPD1    H2 3706   4.662   4.175   0.207  1.3636 -1.0421  0.3928
  244MPD1    H3 3707   4.601   4.285  17.676  0.7496 -1.7798  0.8007
  244MPD1     N 3708   0.261   4.535  17.659  0.1828  0.4044  0.8977
  244MPD1    H5 3709   0.346   4.546   0.028 -0.3109  0.7965  1.5922
  244MPD1    N1 3710   0.168   4.232   0.342  0.0322  0.0220  0.3452
  244MPD1    H6 3711   0.270   4.224   0.348  0.2852  2.6595 -0.1564
  244MPD1    H7 3712   0.123   4.143   0.362  1.6551 -0.8124  0.3481
  245MPD1     C 3713   1.448   4.567  13.296  0.4768  0.8460 -0.3973
  245MPD1    C1 3714   1.464   4.679  13.208  0.3244 -0.0564  1.3114
  245MPD1    C2 3715   1.533   0.065  13.260 -0.2367  0.8007  0.0362
  245MPD1    C3 3716   1.602   0.065  13.380  0.5200  0.0609  0.7509
  245MPD1    C4 3717   1.585   4.675  13.459 -0.3500 -0.1865  0.0193
  245MPD1    C5 3718   1.504   4.575  13.421  0.0664 -0.3251 -0.7328
  245MPD1     H 3719   1.539   0.157  13.204  3.2232  1.2431  1.1040
  245MPD1    H1 3720   1.649   4.662  13.545 -0.7280 -1.5076  0.0992
  245MPD1    H2 3721   1.397   4.477  13.264 -0.4051  1.1926  0.0313
  245MPD1    H3 3722   1.493   4.490  13.487 -0.0702  1.0709  1.0757
  245MPD1     N 3723   1.682   0.173  13.403 -0.0268 -0.2898 -0.1311
  245MPD1    H5 3724   1.708   0.240  13.332 -0.8903  0.8945  0.6496
  245MPD1    N1 3725   1.379   4.692  13.099  0.2039  0.2645  0.1163
  245MPD1    H6 3726   1.433   0.019  13.027  2.7473 -0.0299  1.8614
  245MPD1    H7 3727   1.356   4.602  13.056  2.1295 -0.3001  0.2783
  246MPD1     C 3728   0.737   2.380   9.373 -0.3554  0.3035 -0.2176
  246MPD1    C1 3729   0.750   2.395   9.243 -0.1114 -0.1319 -0.0322
  246MPD1    C2 3730   0.820   2.294   9.175 -0.2862 -1.0558  0.1115
  246MPD1    C3 3731   0.896   2.200   9.240 -0.0537  0.8007 -0.6151
  246MPD1    C4 3732   0.887   2.192   9.383 -0.7505  0.2149 -0.3359
  246MPD1    C5 3733   0.808   2.283   9.446 -0.1669 -0.1247 -0.0544
  246MPD1     H 3734   0.816   2.294   9.067 -0.7187  0.3809  0.1294
  246MPD1    H1 3735   0.908   2.100   9.437  0.7383  0.5884 -0.2736
  246MPD1    H2 3736   0.655   2.438   9.414 -1.0151 -0.5320 -0.3662
  246MPD1    H3 3737   0.775   2.262   9.547  1.9080  1.3495  0.9372
  246MPD1     N 3738   0.963   2.097   9.172  0.4174  0.1242 -0.2558
  246MPD1    H5 3739   0.957   2.105   9.071 -0.3086  1.0605 -0.1415
  246MPD1    N1 3740   0.662   2.488   9.179  0.7345 -1.0883  0.2078
  246MPD1    H6 3741   0.697   2.499   9.084  1.8181  1.1383  0.8432
  246MPD1    H7 3742   0.659   2.580   9.223 -0.3871 -0.8949 -0.2927
  247MPD1     C 3743   1.565   1.334  16.475 -0.2320  0.4367 -0.3483
  247MPD1    C1 3744   1.519   1.284  16.350 -0.3585  0.1110 -0.4074
  247MPD1    C2 3745   1.481   1.150  16.341 -0.0305  0.6208 -0.0890
  247MPD1    C3 3746   1.460   1.078  16.462 -0.0688 -0.0353 -0.4484
  247MPD1    C4 3747   1.501   1.136  16.584 -0.5416 -0.5664 -0.1796
  247MPD1    C5 3748   1.557   1.261  16.596 -0.0007 -0.1588  0.1144
  247MPD1     H 3749   1.456   1.121  16.239 -1.7846 -1.8048  1.0315
  247MPD1    H1 3750   1.489   1.079  16.675  0.5622 -2.3539 -1.1606
  247MPD1    H2 3751   1.610   1.433  16.475 -1.5634  1.0452 -0.6708
  247MPD1    H3 3752   1.608   1.299  16.684  1.3619 -1.6688 -0.0231
  247MPD1     N 3753   1.404   0.951  16.470 -0.3735  0.1267 -0.6005
  247MPD1    H5 3754   1.396   0.910  16.563  0.6866  0.8554 -0.1892
  247MPD1    N1 3755   1.543   1.359  16.237  0.6725  0.5738 -0.2298
  247MPD1    H6 3756   1.481   1.344  16.157  1.5200  0.3801 -0.8471
  247MPD1    H7 3757   1.530   1.458  16.256  1.4681  0.4501  0.9950
  248MPD1     C 3758   2.680   4.065   0.376  0.2688 -0.1939 -0.1153
  248MPD1    C1 3759   2.714   4.179   0.443  0.4122  0.7113  0.0207
  248MPD1    C2 3760   2.607   4.267   0.474  0.0344 -0.2490 -0.0247
  248MPD1    C3 3761   2.474   4.235   0.456 -0.0356  0.4626 -0.3534
  248MPD1    C4 3762   2.444   4.113   0.394 -0.4468 -0.1075 -0.2727
  248MPD1    C5 3763   2.550   4.034   0.354  0.5199 -0.4814 -0.4740
  248MPD1     H 3764   2.623   4.370   0.502 -2.1998  0.5499 -1.7548
  248MPD1    H1 3765   2.341   4.083   0.377 -0.1391 -0.7112 -1.0708
  248MPD1    H2 3766   2.757   4.000   0.334  0.5944 -0.1225  0.3671
  248MPD1    H3 3767   2.528   3.933   0.321 -0.5206  0.3893 -2.4639
  248MPD1     N 3768   2.383   4.328   0.504 -0.2306  0.3685  0.7859
  248MPD1    H5 3769   2.425   4.392   0.570  2.7718 -0.7055 -0.0339
  248MPD1    N1 3770   2.843   4.227   0.440  0.6210  0.4738 -0.0810
  248MPD1    H6 3771   2.852   4.295   0.515 -1.0006 -0.2421  0.7489
  248MPD1    H7 3772   2.911   4.152   0.455  0.9886  0.8381  0.0831
  249MPD1     C 3773   3.262   2.568  10.782 -0.6295 -0.2189 -0.4860
  249MPD1    C1 3774   3.274   2.503  10.668  0.1871 -0.1701 -0.4955
  249MPD1    C2 3775   3.295   2.575  10.554 -0.3728  0.4443 -0.5214
  249MPD1    C3 3776   3.295   2.714  10.553 -1.2315 -1.4084 -0.0240
  249MPD1    C4 3777   3.271   2.780  10.672 -0.3554  0.3154 -0.1718
  249MPD1    C5 3778   3.262   2.708  10.783 -0.2042 -0.2537 -1.0147
  249MPD1     H 3779   3.299   2.524  10.459 -0.1612 -0.3098 -0.1106
  249MPD1    H1 3780   3.279   2.887  10.684 -0.5637  0.3380 -0.2428
  249MPD1    H2 3781   3.235   2.511  10.871  3.0093  1.3530  1.6056
  249MPD1    H3 3782   3.268   2.756  10.879 -1.5606 -0.5992 -0.7512
  249MPD1     N 3783   3.316   2.770  10.428 -0.0243 -0.5196 -0.3570
  249MPD1    H5 3784   3.328   2.705  10.352 -0.0575 -2.1947  1.0800
  249MPD1    N1 3785   3.284   2.362  10.671  0.6289 -0.4544  0.6770
  249MPD1    H6 3786   3.362   2.323  10.723  0.5824 -0.2001  0.9328
  249MPD1    H7 3787   3.299   2.323  10.578 -1.7036  0.9225 -0.2904
  250MPD2     C 3788   4.263   3.750  13.308  0.3976 -0.1021 -0.5761
  250MPD2    C1 3789   4.281   3.767  13.172 -0.7815  0.2292 -0.0603
  250MPD2    C2 3790   4.248   3.668  13.087  0.6406  0.1902  0.8163
  250MPD2    C3 3791   4.192   3.550  13.132 -0.3017 -0.6155  0.5182
  250MPD2    C4 3792   4.178   3.529  13.266 -0.5379 -0.6231  0.8261
  250MPD2    C5 3793   4.221   3.631  13.353  0.6025 -0.1751 -0.6864
  250MPD2     H 3794   4.252   3.683  12.979 -2.8573  0.9412  0.7716
  250MPD2    H1 3795   4.141   3.434  13.302 -2.1356 -0.1015  0.5374
  250MPD2    H2 3796   4.297   3.828  13.375 -0.0560 -0.1760 -0.2613
  250MPD2    H3 3797   4.214   3.606  13.458 -0.2920 -0.7924 -0.8903
  250MPD2     N 3798   4.133   3.447  13.045 -0.0680  0.5850 -0.3401
  250MPD2    H5 3799   4.079   3.372  13.086 -0.9094  0.2272 -2.0981
  250MPD2    N1 3800   4.319   3.901  13.139  0.7377 -0.4563  0.0883
  250MPD2    H7 3801   4.317   3.968  13.215 -1.4019 -0.3470 -0.0639
  251TMC3    C1 3802   4.369   4.087  13.007 -0.6641 -0.6908  0.0203
  251TMC3    C2 3803   4.288   4.161  13.095 -0.3185  0.3654  0.3310
  251TMC3    C3 3804   4.341   4.272  13.147 -0.2152  0.3774 -0.1999
  251TMC3    C4 3805   4.491   4.128  12.959 -0.2406 -0.4351 -0.1725
  251TMC3    C5 3806   4.544   4.237  13.031 -0.3379  0.1231 -0.0922
  251TMC3    C6 3807   4.469   4.312  13.116  0.0465 -0.2735 -0.0533
  251TMC3     C 3808   4.346   3.942  13.015  0.8269  0.8495  0.2267
  251TMC3     O 3809   4.391   3.872  12.925  0.3127  0.2775 -0.1811
  251TMC3     H 3810   4.200   4.117  13.139 -1.2489  0.6491 -1.2719
  251TMC3    H1 3811   4.551   4.063  12.896 -2.0242 -1.4165 -0.8703
  251TMC3    H2 3812   4.510   4.402  13.162 -1.9065  1.2343 -1.2829
  251TMC3    C7 3813   4.676   4.203  13.079  0.1989 -0.1163 -0.3258
  251TMC3    C8 3814   4.268   4.338  13.251  0.4008  0.9982  0.2184
  251TMC3    O1 3815   0.004   4.095  13.054  0.0421  0.1883 -0.7670
  251TMC3    O2 3816   4.325   4.437  13.308  0.1868  0.0101  0.1660
  252TMC3    C1 3817   0.672   0.505   9.233  0.4949  0.3594 -0.1926
  252TMC3    C2 3818   0.727   0.440   9.347  0.2109 -0.3945  0.6397
  252TMC3    C3 3819   0.689   0.308   9.368 -0.8966 -0.7476 -0.1964
  252TMC3    C4 3820   0.583   0.438   9.158 -0.4170 -0.3488 -0.1092
  252TMC3    C5 3821   0.543   0.308   9.188 -0.2730 -0.4856 -0.2730
  252TMC3    C6 3822   0.595   0.242   9.292 -1.1745 -0.1686 -0.6883
  252TMC3     C 3823   0.711   0.639   9.185 -0.4680 -0.0484 -0.5029
  252TMC3     O 3824   0.677   0.671   9.075 -0.0717  0.5310  0.2418
  252TMC3     H 3825   0.806   0.485   9.406 -1.2413  0.7285  1.7357
  252TMC3    H1 3826   0.533   0.487   9.076 -1.6818 -0.7424  0.4273
  252TMC3    H2 3827   0.589   0.134   9.306  0.3407 -0.0181  1.1822
  252TMC3    C7 3828   0.432   0.254   9.117  0.1247 -0.6635 -0.4609
  252TMC3    C8 3829   0.762   0.231   9.472  0.6178  0.7277  0.6820
  252TMC3    O1 3830   0.391   0.314   9.019 -0.0160 -0.3952  0.6577
  252TMC3    O2 3831   0.762   0.107   9.467 -0.0028  0.3758  0.1655
  253MPD2     C 3832   1.488   3.417  15.077 -0.3509  0.0400  0.2569
  253MPD2    C1 3833   1.391   3.395  15.174 -0.5278  0.0271  0.0565
  253MPD2    C2 3834   1.375   3.494  15.267 -0.6406 -0.2584  0.9266
  253MPD2    C3 3835   1.447   3.611  15.268  0.2191  0.2187 -0.5572
  253MPD2    C4 3836   1.536   3.627  15.171  0.0705  0.2645 -0.1720
  253MPD2    C5 3837   1.553   3.541  15.063 -0.1988  0.1252 -0.1359
  253MPD2     H 3838   1.303   3.475  15.345 -0.8613  1.9787  1.2764
  253MPD2    H1 3839   1.611   3.705  15.164 -2.0281  2.3741  0.8679
  253MPD2    H2 3840   1.510   3.350  14.995  0.5158  0.4246  0.1717
  253MPD2    H3 3841   1.624   3.558  14.983 -0.5478  0.4995 -0.3691
  253MPD2     N 3842   1.433   3.709  15.371  0.3911 -0.1792 -0.5185
  253MPD2    H5 3843   1.513   3.772  15.381 -1.4604  2.1004 -0.0006
  253MPD2    N1 3844   1.306   3.290  15.174 -0.3246  0.7302 -0.1167
  253MPD2    H7 3845   1.225   3.292  15.236 -0.4112  1.3727 -0.2529
  254TMC3    C1 3846   1.327   3.825  15.557  0.7737 -0.1393 -0.1113
  254TMC3    C2 3847   1.208   3.866  15.601  0.0207 -0.3056  0.2822
  254TMC3    C3 3848   1.203   3.932  15.719  0.1927 -0.2354  0.8536
  254TMC3    C4 3849   1.445   3.853  15.620 -0.3600  0.5263 -0.1512
  254TMC3    C5 3850   1.429   3.916  15.741 -0.3764  0.3142  0.4537
  254TMC3    C6 3851   1.313   3.951  15.793 -0.3757  0.4580 -0.1113
  254TMC3     C 3852   1.329   3.714  15.461  1.1430 -0.4770 -0.0279
  254TMC3     O 3853   1.228   3.651  15.468  0.6854  0.2032  0.0041
  254TMC3     H 3854   1.118   3.853  15.542  0.6036 -0.2801 -0.6056
  254TMC3    H1 3855   1.542   3.818  15.586 -1.2823 -0.9432 -1.2808
  254TMC3    H2 3856   1.304   4.005  15.887 -0.4637 -0.6647  0.5395
  254TMC3    C7 3857   1.550   3.936  15.813 -0.0393  0.1275 -0.6948
  254TMC3    C8 3858   1.075   3.964  15.764 -0.4545 -0.2896 -0.0014
  254TMC3    O1 3859   1.655   3.959  15.758 -0.1879 -0.7954 -0.0723
  254TMC3    O2 3860   1.000   4.004  15.679 -0.7533  0.1043  0.1201
  255MPD2     C 3861   4.233   1.081  10.419 -0.0862 -0.3680 -0.2186
  255MPD2    C1 3862   4.260   1.205  10.360  0.6537  0.7815  0.3987
  255MPD2    C2 3863   4.395   1.227  10.323 -0.2998  0.0895  0.0322
  255MPD2    C3 3864   4.478   1.115  10.311  0.1804  0.5566 -0.3679
  255MPD2    C4 3865   4.435   0.991  10.349 -0.3741 -0.3219 -0.1917
  255MPD2    C5 3866   4.316   0.974  10.414  0.1867  0.4169  0.4046
  255MPD2     H 3867   4.427   1.324  10.285 -0.5304  0.3997  0.6272
  255MPD2    H1 3868   4.502   0.907  10.351 -1.8226 -1.4784 -0.6373
  255MPD2    H2 3869   4.135   1.069  10.463  0.7558  1.9492  2.2664
  255MPD2    H3 3870   4.283   0.880  10.457  0.8267  0.1003  0.2088
  255MPD2     N 3871   4.609   1.119  10.255  0.1827 -0.2941 -0.3877
  255MPD2    H5 3872   4.649   1.030  10.227 -2.3969 -2.0866  1.6509
  255MPD2    N1 3873   4.151   1.297  10.366  1.0377  0.3805 -0.5025
  255MPD2    H7 3874   4.064   1.255  10.397 -0.1765  0.8202 -3.3555
  256TMC3    C1 3875   4.034   1.493  10.319 -0.0759 -0.4534  0.3350
  256TMC3    C2 3876   4.021   1.617  10.358  0.7594 -0.3077  0.5690
  256TMC3    C3 3877   3.889   1.666  10.363 -0.2187  1.0349  0.1956
  256TMC3    C4 3878   3.932   1.413  10.281  0.0774  0.8518  0.1815
  256TMC3    C5 3879   3.807   1.471  10.288  0.6044 -0.3405  0.3389
  256TMC3    C6 3880   3.776   1.599  10.331  0.2988  0.1040 -0.2757
  256TMC3     C 3881   4.162   1.427  10.327  0.2993  0.7159  0.3540
  256TMC3     O 3882   4.260   1.494  10.297  0.0444  0.8345  0.3989
  256TMC3     H 3883   4.115   1.666  10.380  0.1546  1.0311  0.1756
  256TMC3    H1 3884   3.956   1.316  10.237 -0.5143  0.2198  1.2380
  256TMC3    H2 3885   3.677   1.643  10.328 -0.2327 -1.1754 -1.5963
  256TMC3    C7 3886   3.706   1.381  10.244 -0.1192  0.1731  0.4467
  256TMC3    C8 3887   3.868   1.809  10.384 -0.6402 -0.0635 -0.3624
  256TMC3    O1 3888   3.743   1.279  10.193  0.3681  0.1538 -0.0001
  256TMC3    O2 3889   3.754   1.853  10.374  0.1688  0.5983  0.2333
  257MPD2     C 3890   3.511   3.933  13.224 -0.1582 -0.1001 -0.0119
  257MPD2    C1 3891   3.517   3.821  13.146  0.5748  0.4261  0.8630
  257MPD2    C2 3892   3.521   3.696  13.204 -0.6869 -0.5521  0.5591
  257MPD2    C3 3893   3.517   3.683  13.340  0.6945 -0.3816  0.7670
  257MPD2    C4 3894   3.501   3.795  13.418  0.0395  0.5866 -0.4624
  257MPD2    C5 3895   3.497   3.920  13.361  0.4327 -0.2162 -0.2201
  257MPD2     H 3896   3.547   3.607  13.148  0.4355 -0.7499  1.3807
  257MPD2    H1 3897   3.488   3.789  13.526 -2.5673  0.6816 -0.7764
  257MPD2    H2 3898   3.511   4.031  13.179  1.8713  0.2465  0.7527
  257MPD2    H3 3899   3.488   4.006  13.426 -0.0767 -0.8227  0.5090
  257MPD2     N 3900   3.525   3.554  13.395 -0.2931  0.6428 -0.1561
  257MPD2    H5 3901   3.522   3.477  13.328 -1.5602  0.1128  0.5037
  257MPD2    N1 3902   3.520   3.833  13.007  0.2130 -0.1723 -0.1350
  257MPD2    H7 3903   3.529   3.926  12.967  0.2144 -0.5622 -1.0504
  258TMC3    C1 3904   3.594   3.385  13.538  0.1691  0.3937 -0.4710
  258TMC3    C2 3905   3.626   3.296  13.433 -0.2721 -1.0805  0.3199
  258TMC3    C3 3906   3.682   3.180  13.457 -0.3917 -0.9428 -0.2539
  258TMC3    C4 3907   3.636   3.353  13.660 -0.3313  0.1433 -0.5506
  258TMC3    C5 3908   3.688   3.226  13.677 -0.2254  0.0886 -0.3527
  258TMC3    C6 3909   3.718   3.133  13.575  0.0770  0.3691  0.1586
  258TMC3     C 3910   3.568   3.528  13.521 -0.3526  0.1092 -0.3955
  258TMC3     O 3911   3.553   3.596  13.621 -0.4982 -0.4216  0.0453
  258TMC3     H 3912   3.612   3.325  13.330  2.0724  0.0761  0.3213
  258TMC3    H1 3913   3.611   3.413  13.747  1.1777 -1.0608  0.7167
  258TMC3    H2 3914   3.750   3.030  13.588  0.8700  1.0646  3.6928
  258TMC3    C7 3915   3.705   3.191  13.810 -0.1280 -0.6221  0.3009
  258TMC3    C8 3916   3.709   3.090  13.347 -0.2699  0.2066 -0.6317
  258TMC3    O1 3917   3.637   3.244  13.895 -0.1701 -0.3380  0.6702
  258TMC3    O2 3918   3.821   3.040  13.322 -0.0072  0.2146 -0.0105
  259MPD2     C 3919   2.478   0.336   0.819  0.2441 -0.1878 -0.1532
  259MPD2    C1 3920   2.584   0.254   0.800 -0.2293  0.0286  0.3798
  259MPD2    C2 3921   2.633   0.239   0.672  0.3657  0.6984 -0.4293
  259MPD2    C3 3922   2.576   0.306   0.568  0.4967  0.6839  0.2880
  259MPD2    C4 3923   2.473   0.393   0.585  0.2067 -0.5882  0.5494
  259MPD2    C5 3924   2.426   0.402   0.717  0.3397 -0.3538 -0.4568
  259MPD2     H 3925   2.704   0.164   0.641 -0.8170  0.1722 -1.8380
  259MPD2    H1 3926   2.427   0.458   0.512  0.2738 -2.3275 -1.0437
  259MPD2    H2 3927   2.449   0.358   0.921 -1.1392  1.8512 -1.0051
  259MPD2    H3 3928   2.338   0.464   0.727 -0.7739 -2.0153  0.1265
  259MPD2     N 3929   2.636   0.290   0.442  1.0705  0.6463  0.2583
  259MPD2    H5 3930   2.722   0.235   0.441  0.2576 -0.6348  0.1138
  259MPD2    N1 3931   2.653   0.194   0.908 -0.2378  0.4465 -0.7657
  259MPD2    H7 3932   2.615   0.207   1.001  1.4373 -1.5139  0.2022
  260TMC3    C1 3933   2.713   0.344   0.236 -0.4926 -0.9825  0.2676
  260TMC3    C2 3934   2.713   0.438   0.141  0.4875  0.0759  0.8372
  260TMC3    C3 3935   2.828   0.450   0.063  0.3019  0.7447 -0.2591
  260TMC3    C4 3936   2.824   0.271   0.272  0.3221  0.1930 -0.4902
  260TMC3    C5 3937   2.944   0.301   0.216 -0.2568 -0.3563  0.6583
  260TMC3    C6 3938   2.943   0.384   0.105 -0.5246  0.7093 -0.0797
  260TMC3     C 3939   2.598   0.351   0.324 -0.5260 -0.0457  0.2891
  260TMC3     O 3940   2.502   0.419   0.300  0.5584 -0.1978 -0.2602
  260TMC3     H 3941   2.622   0.492   0.118  0.9796 -0.1714 -1.6605
  260TMC3    H1 3942   2.801   0.174   0.314  1.5990 -0.1059 -0.4832
  260TMC3    H2 3943   3.034   0.408   0.051 -0.3608 -0.1193 -0.1708
  260TMC3    C7 3944   3.025   0.190   0.185 -0.3630  0.2392 -0.7427
  260TMC3    C8 3945   2.796   0.445  17.604  0.1784  0.6419 -0.4998
  260TMC3    O1 3946   3.058   0.178   0.066 -0.8343 -0.4093 -0.2606
  260TMC3    O2 3947   2.693   0.501  17.567 -0.4142  0.7381  0.3937
  261MPD2     C 3948   3.883   3.134  12.294  0.2647 -0.2042 -0.0367
  261MPD2    C1 3949   3.934   3.249  12.353 -0.5978  0.3953  0.1222
  261MPD2    C2 3950   4.013   3.329  12.272  1.2396 -0.0336 -0.1619
  261MPD2    C3 3951   4.024   3.316  12.135  0.1259  0.3095 -0.2544
  261MPD2    C4 3952   3.949   3.209  12.087 -0.5403 -0.3219  1.2554
  261MPD2    C5 3953   3.896   3.108  12.162  0.5578 -0.4281  0.0562
  261MPD2     H 3954   4.071   3.412  12.312  2.4896 -0.7341 -0.5378
  261MPD2    H1 3955   3.945   3.185  11.981  1.3881  0.7342  0.9450
  261MPD2    H2 3956   3.821   3.066  12.351 -1.6831  0.3013 -1.5711
  261MPD2    H3 3957   3.842   3.027  12.115 -0.1663 -0.4187  0.8556
  261MPD2     N 3958   4.096   3.405  12.045  0.1905  0.4918 -0.2274
  261MPD2    H5 3959   4.097   3.368  11.950  1.3418 -1.1494  0.4047
  261MPD2    N1 3960   3.932   3.276  12.492 -0.3157 -0.0764 -0.0839
  261MPD2    H7 3961   4.000   3.346  12.523 -0.7111  0.3304 -0.1336
  262TMC3    C1 3962   4.229   3.596  11.981  0.2005  0.3450  0.2698
  262TMC3    C2 3963   4.214   3.724  11.942  0.1466  0.0837 -0.0945
  262TMC3    C3 3964   4.304   3.779  11.854 -0.0851  0.5001 -0.3420
  262TMC3    C4 3965   4.323   3.512  11.924  0.5153  0.8863  0.3026
  262TMC3    C5 3966   4.413   3.573  11.842 -0.4383 -0.8987  0.3145
  262TMC3    C6 3967   4.411   3.707  11.818  0.2576  0.4168 -0.4515
  262TMC3     C 3968   4.140   3.534  12.079  0.0678 -0.0195  0.4193
  262TMC3     O 3969   4.127   3.588  12.186  0.0244 -0.4569  0.3894
  262TMC3     H 3970   4.131   3.780  11.983  1.5886  0.1852  2.6645
  262TMC3    H1 3971   4.333   3.412  11.965 -0.2211  0.2284 -1.1356
  262TMC3    H2 3972   4.486   3.761  11.761 -0.2640  1.2534 -0.3482
  262TMC3    C7 3973   4.478   3.481  11.753  0.0777 -0.5621 -0.1925
  262TMC3    C8 3974   4.279   3.898  11.778  0.7615  0.7673 -0.0227
  262TMC3    O1 3975   4.437   3.367  11.746  0.0528  0.2976  0.1956
  262TMC3    O2 3976   4.319   3.893  11.662  0.3595 -0.7414  0.1456
  263MPD2     C 3977   0.463   2.666  11.107 -0.0965  0.3944  0.3371
  263MPD2    C1 3978   0.493   2.759  11.199 -0.1014  0.5626  0.4472
  263MPD2    C2 3979   0.539   2.881  11.158 -0.2833 -0.2072 -0.4114
  263MPD2    C3 3980   0.570   2.902  11.024  0.2121  0.5727  0.3759
  263MPD2    C4 3981   0.543   2.801  10.933  0.2417  0.5996  0.5340
  263MPD2    C5 3982   0.489   2.683  10.973 -0.5611  0.1852 -0.1553
  263MPD2     H 3983   0.562   2.964  11.225 -1.0352 -0.1289 -0.2465
  263MPD2    H1 3984   0.561   2.820  10.828 -1.5440 -0.5018  0.0140
  263MPD2    H2 3985   0.432   2.567  11.138  0.8629 -0.6826 -2.0686
  263MPD2    H3 3986   0.475   2.598  10.907 -1.2656  0.1261  0.0743
  263MPD2     N 3987   0.645   3.018  10.994  0.2983 -0.0071  0.4611
  263MPD2    H5 3988   0.671   3.077  11.072  0.2138  0.6743 -0.0225
  263MPD2    N1 3989   0.461   2.727  11.333  0.2687  0.2882  0.7248
  263MPD2    H7 3990   0.441   2.630  11.353 -0.9920  0.4171  0.0601
  264TMC3    C1 3991   0.763   3.174  10.869  0.1385  0.7471 -0.4664
  264TMC3    C2 3992   0.735   3.274  10.962 -0.7794 -0.4353 -0.0076
  264TMC3    C3 3993   0.782   3.402  10.934 -0.7851 -0.0191 -0.6213
  264TMC3    C4 3994   0.840   3.199  10.753  0.5949  0.0926 -0.6409
  264TMC3    C5 3995   0.879   3.327  10.729  0.5659 -0.1537  0.3261
  264TMC3    C6 3996   0.849   3.427  10.819  0.3780  0.5682  0.6372
  264TMC3     C 3997   0.673   3.062  10.868  0.0660 -0.3219  0.4608
  264TMC3     O 3998   0.643   3.016  10.757 -0.0409  0.1177  0.8953
  264TMC3     H 3999   0.650   3.262  11.028 -1.3940 -2.0226 -1.0834
  264TMC3    H1 4000   0.868   3.118  10.686 -1.1759 -2.6725  1.9759
  264TMC3    H2 4001   0.892   3.524  10.793  0.0145  0.4486 -0.4191
  264TMC3    C7 4002   0.997   3.344  10.646 -0.7717  0.2769  0.6302
  264TMC3    C8 4003   0.760   3.506  11.021  0.3968 -0.4351 -0.1834
  264TMC3    O1 4004   1.062   3.245  10.618 -0.8566 -0.0210  0.0511
  264TMC3    O2 4005   0.783   3.618  10.977 -0.2695 -0.3265 -0.1305
  265MPD2     C 4006   2.800   3.029  15.630  0.7357  0.0347 -0.1407
  265MPD2    C1 4007   2.831   3.147  15.560 -0.0764 -0.0557 -0.2758
  265MPD2    C2 4008   2.908   3.145  15.446  0.7263 -0.7479 -0.2294
  265MPD2    C3 4009   2.940   3.024  15.389 -0.3646  0.3049 -0.1015
  265MPD2    C4 4010   2.892   2.907  15.457 -0.7110  0.0402  0.0429
  265MPD2    C5 4011   2.834   2.911  15.583  0.1090  0.0107 -0.3666
  265MPD2     H 4012   2.923   3.246  15.409 -0.1507 -0.3817  0.3936
  265MPD2    H1 4013   2.929   2.810  15.428 -1.8017 -0.7269  1.2314
  265MPD2    H2 4014   2.755   3.027  15.729  0.0085 -0.4500 -0.4871
  265MPD2    H3 4015   2.807   2.819  15.633  1.0352  0.0517  0.2162
  265MPD2     N 4016   3.006   3.003  15.268  0.3725  0.4253 -0.4451
  265MPD2    H5 4017   3.012   2.908  15.233  1.2586 -0.1308  1.2217
  265MPD2    N1 4018   2.776   3.270  15.596 -0.1955 -0.1881  0.2398
  265MPD2    H7 4019   2.824   3.345  15.547 -1.6532 -0.3063 -1.3869
  266TMC3    C1 4020   2.661   3.426  15.690 -0.7889  0.4758  0.6083
  266TMC3    C2 4021   2.764   3.493  15.750  0.0446 -0.3356  0.4219
  266TMC3    C3 4022   2.741   3.623  15.781  0.7012 -0.0592 -0.0135
  266TMC3    C4 4023   2.541   3.485  15.670  0.4105  0.0443 -0.7316
  266TMC3    C5 4024   2.523   3.616  15.707  0.2131 -0.1544 -0.1879
  266TMC3    C6 4025   2.626   3.695  15.757  0.2042  0.4638  0.0611
  266TMC3     C 4026   2.687   3.285  15.694 -0.3984  0.4278  0.0994
  266TMC3     O 4027   2.602   3.208  15.742  0.6625 -0.4941  0.0147
  266TMC3     H 4028   2.859   3.444  15.769 -0.1494 -0.4418  1.0890
  266TMC3    H1 4029   2.463   3.423  15.628  0.3282 -1.7818  2.1313
  266TMC3    H2 4030   2.616   3.797  15.791 -0.9300 -0.0901  1.3987
  266TMC3    C7 4031   2.388   3.665  15.691 -0.3965 -0.0590 -0.3593
  266TMC3    C8 4032   2.861   3.684  15.844 -0.2212 -0.0170 -0.7540
  266TMC3    O1 4033   2.295   3.589  15.657  0.3647  0.3485  0.1359
  266TMC3    O2 4034   2.959   3.611  15.835  0.3076 -0.0713 -0.2496
  267MPD2     C 4035   0.914   0.358  17.418  0.4443  0.5750  0.5155
  267MPD2    C1 4036   0.883   0.493  17.427  0.0250  1.0159  0.4718
  267MPD2    C2 4037   0.775   0.544  17.351 -0.8351 -0.1039  0.0992
  267MPD2    C3 4038   0.700   0.463  17.267  0.8436  0.4606  0.5256
  267MPD2    C4 4039   0.736   0.332  17.254 -0.0723  0.0383 -0.1667
  267MPD2    C5 4040   0.837   0.283  17.333 -0.0912 -0.2369  0.1377
  267MPD2     H 4041   0.746   0.648  17.366 -0.9346  0.0096 -0.8591
  267MPD2    H1 4042   0.694   0.268  17.177  0.8290  0.9615 -1.4290
  267MPD2    H2 4043   0.992   0.311  17.477  1.6198  3.2083  1.0728
  267MPD2    H3 4044   0.868   0.180  17.324  1.0493  0.0508  0.8586
  267MPD2     N 4045   0.591   0.496  17.183 -0.0851 -0.7832 -0.2054
  267MPD2    H5 4046   0.552   0.422  17.125 -0.1541 -0.6704 -0.3038
  267MPD2    N1 4047   0.956   0.567  17.517 -0.0639  0.5266 -0.3410
  267MPD2    H7 4048   1.023   0.523  17.579  1.7376  1.5296 -1.5410
  268TMC3    C1 4049   1.023   0.738  17.648 -0.2606 -0.2923 -0.3006
  268TMC3    C2 4050   1.030   0.870  17.658 -0.1355  0.1975 -0.7386
  268TMC3    C3 4051   0.984   0.932   0.090  0.1264 -0.7221  0.3187
  268TMC3    C4 4052   1.000   0.658   0.068  0.3579  0.0522  0.2379
  268TMC3    C5 4053   0.986   0.718   0.183 -0.0609  0.5454 -0.2350
  268TMC3    C6 4054   0.972   0.854   0.200 -0.2131  0.0794 -0.6369
  268TMC3     C 4055   0.951   0.703  17.525 -0.7607  0.0812 -0.1841
  268TMC3     O 4056   0.914   0.790  17.446  0.0809  0.0643  0.0554
  268TMC3     H 4057   1.050   0.933  17.572  0.6664 -2.3373 -2.3901
  268TMC3    H1 4058   0.996   0.550   0.071 -0.8716  0.0682 -0.9930
  268TMC3    H2 4059   0.958   0.913   0.290  1.9203  1.6834 -1.3724
  268TMC3    C7 4060   0.973   0.629   0.301  0.2807 -0.2955  0.3002
  268TMC3    C8 4061   0.916   1.059   0.081  0.1284 -0.2249  0.1051
  268TMC3    O1 4062   1.041   0.529   0.305 -0.3246  0.2824  0.3448
  268TMC3    O2 4063   0.861   1.102   0.181  0.0531 -0.5029  0.1645
  269MPD2     C 4064   0.621   3.944  15.531  0.0868  0.0800  0.3478
  269MPD2    C1 4065   0.514   3.945  15.615  1.0106 -0.1912  0.1166
  269MPD2    C2 4066   0.462   4.063  15.657  0.1219  0.1194  0.9543
  269MPD2    C3 4067   0.513   4.185  15.610 -0.7035 -0.1741 -0.6570
  269MPD2    C4 4068   0.612   4.179  15.514 -0.0937  0.0955  0.3200
  269MPD2    C5 4069   0.668   4.060  15.480 -0.3320  0.0474  0.8179
  269MPD2     H 4070   0.384   4.070  15.732 -0.1426 -3.7253  1.0354
  269MPD2    H1 4071   0.662   4.263  15.467 -1.1895  0.3984 -0.3166
  269MPD2    H2 4072   0.675   3.860  15.491  0.3199  0.9299 -1.1301
  269MPD2    H3 4073   0.756   4.055  15.418 -0.2111 -1.6709  1.1473
  269MPD2     N 4074   0.447   4.303  15.653  0.2502 -1.0984  0.1023
  269MPD2    H5 4075   0.371   4.299  15.720  1.3219 -0.0099  1.3526
  269MPD2    N1 4076   0.473   3.822  15.672 -1.0884 -0.1640 -0.3857
  269MPD2    H7 4077   0.533   3.743  15.650 -1.1146 -0.6184  1.1881
  270TMC3    C1 4078   0.336   3.665  15.782  0.1458 -0.5446 -0.1273
  270TMC3    C2 4079   0.207   3.612  15.794 -0.0504  0.7759 -0.2155
  270TMC3    C3 4080   0.201   3.475  15.801 -0.2592 -0.5788 -0.2174
  270TMC3    C4 4081   0.447   3.595  15.815 -0.1922  0.7746  0.3368
  270TMC3    C5 4082   0.430   3.469  15.852 -0.1159 -0.3828 -0.6818
  270TMC3    C6 4083   0.311   3.407  15.845 -0.4467 -0.5284  0.3267
  270TMC3     C 4084   0.353   3.799  15.735  0.0793 -0.7088  0.7391
  270TMC3     O 4085   0.259   3.875  15.754 -0.3491 -0.2880  0.2605
  270TMC3     H 4086   0.124   3.671  15.755 -2.4528 -1.7746  0.9694
  270TMC3    H1 4087   0.546   3.640  15.806 -0.3000  2.0027  4.8140
  270TMC3    H2 4088   0.301   3.300  15.856  1.8829 -0.5186  2.9172
  270TMC3    C7 4089   0.548   3.383  15.838  0.1228 -0.5071 -1.0267
  270TMC3    C8 4090   0.131   3.414  15.685  0.0894  0.4093  0.6073
  270TMC3    O1 4091   0.646   3.420  15.776  0.0705 -0.2140  0.1012
  270TMC3    O2 4092   0.174   3.300  15.666  0.6711  0.5050  0.1640
  271MPD2     C 4093   4.002   3.735  14.128 -0.0034 -0.6778 -0.1541
  271MPD2    C1 4094   3.961   3.653  14.228 -0.4847  0.4822 -0.6505
  271MPD2    C2 4095   3.832   3.607  14.228 -0.7434  0.0889  0.3897
  271MPD2    C3 4096   3.755   3.625  14.110  0.2891 -0.6352  0.9489
  271MPD2    C4 4097   3.804   3.699  14.002 -0.1147  0.1372  0.4539
  271MPD2    C5 4098   3.925   3.763  14.017  0.3245 -0.0025  0.6301
  271MPD2     H 4099   3.797   3.554  14.315  1.2529 -0.6474  0.7478
  271MPD2    H1 4100   3.748   3.707  13.909 -0.3242 -1.8129  0.4068
  271MPD2    H2 4101   4.099   3.783  14.130 -0.0308 -0.6825  1.7041
  271MPD2    H3 4102   3.962   3.827  13.937 -0.3411  0.4635  0.6896
  271MPD2     N 4103   3.635   3.559  14.088  0.5880 -0.3064  0.2780
  271MPD2    H5 4104   3.578   3.590  14.010  1.3516  0.1288 -0.0921
  271MPD2    N1 4105   4.047   3.609  14.330  0.2652  0.5141 -0.3306
  271MPD2    H7 4106   4.014   3.546  14.402 -0.6126  0.0096 -1.1674
  272TMC3    C1 4107   4.246   3.537  14.435  0.2520 -0.4866  0.4833
  272TMC3    C2 4108   4.348   3.453  14.405  0.4765  0.1507 -0.2586
  272TMC3    C3 4109   4.406   3.386  14.507  0.1131  0.1798  0.3447
  272TMC3    C4 4110   4.206   3.569  14.560  1.0378 -0.0950  0.1561
  272TMC3    C5 4111   4.290   3.524  14.662 -0.3550  0.5165  0.1050
  272TMC3    C6 4112   4.380   3.423  14.638  0.0353 -0.1405  0.1531
  272TMC3     C 4113   4.185   3.618  14.329  0.5682 -0.2676  0.1010
  272TMC3     O 4114   4.260   3.662  14.240 -0.3470  0.2219  0.7632
  272TMC3     H 4115   4.393   3.434  14.308 -0.4826 -1.0563 -0.4571
  272TMC3    H1 4116   4.123   3.635  14.583  0.6286 -0.4788 -0.2217
  272TMC3    H2 4117   4.427   3.372  14.721  0.1328  1.2052  0.9385
  272TMC3    C7 4118   4.288   3.571  14.800 -0.4351 -0.1851 -0.0800
  272TMC3    C8 4119   4.524   3.310  14.474 -0.1015  0.0638 -0.0574
  272TMC3    O1 4120   4.184   3.621  14.840 -0.0076 -0.1708 -0.4147
  272TMC3    O2 4121   4.556   3.297  14.360  0.0085  0.2928  0.2527
  273MPD2     C 4122   1.869   1.767  11.593  0.2257 -0.6699 -0.0128
  273MPD2    C1 4123   1.775   1.818  11.686  0.2692 -0.4365 -0.2604
  273MPD2    C2 4124   1.652   1.849  11.638 -0.7485 -0.8215 -0.4768
  273MPD2    C3 4125   1.610   1.821  11.509 -0.5636  0.2643  0.1128
  273MPD2    C4 4126   1.704   1.765  11.425  0.6292 -0.3024  0.2065
  273MPD2    C5 4127   1.831   1.738  11.466 -0.0074 -0.7600  0.2892
  273MPD2     H 4128   1.582   1.897  11.705 -2.9282 -1.4734 -2.2909
  273MPD2    H1 4129   1.673   1.725  11.329 -0.4782  0.0648  0.4013
  273MPD2    H2 4130   1.972   1.747  11.621  0.3802  0.4297  0.1879
  273MPD2    H3 4131   1.897   1.698  11.390  1.5327 -1.9526  2.2313
  273MPD2     N 4132   1.478   1.846  11.454  0.0149  0.5309  0.0767
  273MPD2    H5 4133   1.479   1.836  11.353  1.7204  0.2922  0.1184
  273MPD2    N1 4134   1.823   1.855  11.817  0.3400  0.7590 -0.2059
  273MPD2    H7 4135   1.920   1.848  11.844  0.3080 -2.3106 -0.8930
  274TMC3    C1 4136   1.246   1.881  11.458  0.8199  0.5083 -0.0555
  274TMC3    C2 4137   1.241   1.858  11.323 -0.0201 -0.2383 -0.0511
  274TMC3    C3 4138   1.113   1.862  11.271  0.3553  0.1733 -0.6953
  274TMC3    C4 4139   1.137   1.915  11.536  0.0256 -0.3637  0.4186
  274TMC3    C5 4140   1.013   1.909  11.477  0.2102 -0.1142 -0.1244
  274TMC3    C6 4141   1.003   1.905  11.343 -0.0201 -0.3204  0.2003
  274TMC3     C 4142   1.374   1.864  11.529  0.3966 -0.3351 -0.0136
  274TMC3     O 4143   1.363   1.867  11.652 -0.1477  0.7364 -0.3402
  274TMC3     H 4144   1.327   1.819  11.270  0.2537  0.8152 -0.3937
  274TMC3    H1 4145   1.160   1.930  11.640  0.4863  0.8208  0.1435
  274TMC3    H2 4146   0.903   1.900  11.302 -0.2641  0.6951  0.6831
  274TMC3    C7 4147   0.911   1.991  11.542 -0.1490  0.2761  0.5594
  274TMC3    C8 4148   1.083   1.844  11.128 -0.3202 -0.7158 -0.1930
  274TMC3    O1 4149   0.833   2.053  11.470  0.2843  0.8120 -0.3151
  274TMC3    O2 4150   0.980   1.784  11.107  0.2081 -0.1524 -0.1359
  275MPD2     C 4151   1.188   4.284  14.392  0.6373  0.3133  0.0229
  275MPD2    C1 4152   1.120   4.174  14.442 -0.2328 -0.0986 -0.3206
  275MPD2    C2 4153   0.998   4.145  14.386 -0.0927  0.1814  0.2609
  275MPD2    C3 4154   0.945   4.216  14.277 -1.1334 -0.1704 -0.0225
  275MPD2    C4 4155   1.019   4.325  14.223  0.5861  0.4662  0.2198
  275MPD2    C5 4156   1.145   4.354  14.276  0.5884 -0.0265  0.1415
  275MPD2     H 4157   0.937   4.074  14.439  0.0383  1.6224  2.3385
  275MPD2    H1 4158   0.992   4.375  14.131  1.8129  1.3860  0.3526
  275MPD2    H2 4159   1.290   4.305  14.422  0.4801  0.0620  0.7314
  275MPD2    H3 4160   1.205   4.434  14.236  3.0085 -1.8054  0.2677
  275MPD2     N 4161   0.822   4.197  14.215 -0.0856 -0.0384  0.0888
  275MPD2    H5 4162   0.785   4.260  14.145 -1.1963  0.0957  0.7978
  275MPD2    N1 4163   1.165   4.104  14.547  0.2449 -0.0274  0.6930
  275MPD2    H7 4164   1.112   4.020  14.569 -1.4808  0.8060 -0.2961
  276TMC3    C1 4165   1.260   4.115  14.757 -0.1236 -0.1857  0.2621
  276TMC3    C2 4166   1.159   4.030  14.802  0.6946  0.3760 -0.2029
  276TMC3    C3 4167   1.125   4.034  14.937 -0.1916  0.1138 -0.3197
  276TMC3    C4 4168   1.331   4.191  14.842 -0.3665 -0.7472  0.3936
  276TMC3    C5 4169   1.290   4.197  14.975 -1.5205 -0.3858  0.2774
  276TMC3    C6 4170   1.184   4.124  15.023 -0.0603 -0.4899  0.5747
  276TMC3     C 4171   1.277   4.138  14.620  0.0498 -0.4519 -0.3814
  276TMC3     O 4172   1.381   4.200  14.588 -0.4377  0.8183 -0.0597
  276TMC3     H 4173   1.098   3.974  14.732  1.9909 -0.3743 -0.7242
  276TMC3    H1 4174   1.423   4.239  14.810 -0.5598 -2.2143 -2.4205
  276TMC3    H2 4175   1.149   4.142  15.124  2.0445  2.1781  0.8410
  276TMC3    C7 4176   1.366   4.284  15.055 -0.0895 -0.1653  0.9814
  276TMC3    C8 4177   0.991   3.980  14.969 -0.8118 -0.5568  0.0336
  276TMC3    O1 4178   1.307   4.354  15.136 -0.6430 -0.2423 -0.2817
  276TMC3    O2 4179   0.905   4.046  15.026  0.4380  0.0352 -0.9091
  277MPD2     C 4180   3.044   3.294  13.224  0.2348  0.0666  0.5029
  277MPD2    C1 4181   2.966   3.362  13.316 -0.0932  0.6919  0.9126
  277MPD2    C2 4182   2.910   3.288  13.419 -0.3632 -0.2405 -0.4885
  277MPD2    C3 4183   2.942   3.161  13.446 -0.1141  0.4893  0.4326
  277MPD2    C4 4184   3.039   3.096  13.363 -0.0050 -0.0617  0.2963
  277MPD2    C5 4185   3.077   3.167  13.248  1.3283 -0.1692 -0.5283
  277MPD2     H 4186   2.827   3.334  13.472  0.1033 -0.4590  0.4303
  277MPD2    H1 4187   3.075   2.994  13.370  0.3377  0.1807  2.3249
  277MPD2    H2 4188   3.075   3.347  13.134 -2.5446  2.1869  0.8148
  277MPD2    H3 4189   3.141   3.126  13.171 -0.4002  0.2564 -2.1792
  277MPD2     N 4190   2.875   3.093  13.550 -0.2738 -0.7439  0.0711
  277MPD2    H5 4191   2.811   3.150  13.605 -0.7323 -0.3829 -0.8371
  277MPD2    N1 4192   2.935   3.496  13.287 -0.6009  1.0431 -0.5334
  277MPD2    H7 4193   2.972   3.544  13.206 -1.0037 -0.1951 -1.4397
  278TMC3    C1 4194   2.765   2.918  13.656 -0.2175 -0.3130  0.4951
  278TMC3    C2 4195   2.681   2.833  13.587  0.1711  0.0131 -0.0002
  278TMC3    C3 4196   2.554   2.817  13.646 -0.0658  0.0798  0.1859
  278TMC3    C4 4197   2.721   3.010  13.750  0.0996 -0.1113  0.1594
  278TMC3    C5 4198   2.594   2.998  13.795  0.1469  0.0425 -0.7174
  278TMC3    C6 4199   2.510   2.892  13.756 -0.0616  0.0045 -0.1161
  278TMC3     C 4200   2.875   2.955  13.572  0.4419 -0.2287  0.4139
  278TMC3     O 4201   2.930   2.865  13.504 -0.1997  0.0975 -0.0241
  278TMC3     H 4202   2.716   2.786  13.496 -0.0069  0.5692 -0.3540
  278TMC3    H1 4203   2.781   3.091  13.791  0.3358  0.0579 -0.5254
  278TMC3    H2 4204   2.421   2.866  13.811  0.5470  2.0060  1.7869
  278TMC3    C7 4205   2.536   3.105  13.872 -0.2782 -0.1303  0.3130
  278TMC3    C8 4206   2.473   2.701  13.601  0.2451 -0.0652 -0.8723
  278TMC3    O1 4207   2.610   3.171  13.948 -0.2311 -0.3763  0.3486
  278TMC3    O2 4208   2.395   2.646  13.678 -0.1446  0.4090  0.2435
  279MPD2     C 4209   2.379   4.253   0.092 -0.4154 -0.2770  0.0735
  279MPD2    C1 4210   2.285   4.155   0.062 -0.1698  0.1602  0.1177
  279MPD2    C2 4211   2.293   4.080  17.635 -0.6575  0.6866 -0.1439
  279MPD2    C3 4212   2.399   4.091  17.551  0.5453 -0.1527  0.0601
  279MPD2    C4 4213   2.498   4.183  17.582  0.3903  0.0858  0.0776
  279MPD2    C5 4214   2.476   4.269  17.682 -0.7595  0.1586 -0.3282
  279MPD2     H 4215   2.227   3.997  17.612  0.7645 -0.3875 -0.3426
  279MPD2    H1 4216   2.588   4.187  17.521 -1.4539 -0.4091 -2.6685
  279MPD2    H2 4217   2.383   4.310   0.185  0.5316  0.7390 -0.5859
  279MPD2    H3 4218   2.555   4.341   0.014 -0.0051 -0.5935 -0.6226
  279MPD2     N 4219   2.418   4.012  17.437 -0.0332 -0.5546 -1.0063
  279MPD2    H5 4220   2.515   4.005  17.409 -0.0259 -1.9456 -0.6496
  279MPD2    N1 4221   2.181   4.137   0.152  0.3182 -0.0773 -0.9254
  279MPD2    H7 4222   2.166   4.201   0.229  2.0612 -0.3004 -0.4044
  280TMC3    C1 4223   1.992   4.015   0.251  0.1424 -0.1140 -0.1582
  280TMC3    C2 4224   1.937   3.891   0.280 -0.0789 -0.6825 -0.2685
  280TMC3    C3 4225   1.812   3.881   0.348 -0.4574 -0.3893 -0.2204
  280TMC3    C4 4226   1.935   4.130   0.303  0.0942 -0.1786  0.3926
  280TMC3    C5 4227   1.816   4.115   0.358 -0.0314 -0.7482 -1.0400
  280TMC3    C6 4228   1.751   3.997   0.378  0.2771 -0.1604 -0.1146
  280TMC3     C 4229   2.102   4.021   0.157  0.0232 -0.0635  0.1254
  280TMC3     O 4230   2.128   3.911   0.112  0.2448 -0.3654 -0.1576
  280TMC3     H 4231   1.974   3.800   0.235  1.8339 -0.3288  0.5823
  280TMC3    H1 4232   1.968   4.233   0.298  1.2231 -0.5298  0.5764
  280TMC3    H2 4233   1.654   3.994   0.426  0.8880 -0.1049  1.1172
  280TMC3    C7 4234   1.741   4.230   0.401 -0.1973 -0.4750 -0.0099
  280TMC3    C8 4235   1.726   3.770   0.302 -0.9093 -0.3899 -0.2431
  280TMC3    O1 4236   1.794   4.322   0.462  0.0527 -0.4619  0.2880
  280TMC3    O2 4237   1.607   3.797   0.292 -0.2367 -0.3213  0.4806
  281TMC3    C1 4238   0.020   3.838  13.485 -0.6450  0.4402  0.2741
  281TMC3    C2 4239   0.124   3.917  13.442 -0.1642  0.3537 -0.3305
  281TMC3    C3 4240   0.190   3.882  13.333 -0.9468 -0.5489  0.3077
  281TMC3    C4 4241   4.705   3.725  13.416 -0.4916  0.6403 -0.4653
  281TMC3    C5 4242   0.060   3.692  13.307  0.1287 -0.1708  0.3723
  281TMC3    C6 4243   0.161   3.767  13.261 -0.3001 -0.9415  1.0001
  281TMC3     C 4244   4.634   3.898  13.557 -0.1078  0.0327  0.6943
  281TMC3     O 4245   4.518   3.874  13.531 -0.1511  0.6585  0.1728
  281TMC3     H 4246   0.158   4.010  13.488 -0.0436 -0.1799  0.6650
  281TMC3    H1 4247   4.621   3.665  13.448  0.4162 -0.4780 -0.1913
  281TMC3    H2 4248   0.217   3.729  13.176  2.4045 -0.2931  2.4954
  281TMC3    C7 4249   0.078   3.546  13.300 -0.2864  0.0403  0.1173
  281TMC3    C8 4250   0.332   3.922  13.339 -0.3576  0.1917  1.1716
  281TMC3    O1 4251   0.028   3.476  13.385  0.4118 -0.0437  0.4034
  281TMC3    O2 4252   0.403   3.824  13.325  0.1514  0.1665 -0.0626
  282MPD2     C 4253   2.445   0.491  15.105 -0.3573  0.1858  0.0717
  282MPD2    C1 4254   2.346   0.585  15.149  0.2612 -0.2636  0.5654
  282MPD2    C2 4255   2.239   0.601  15.066 -0.1466 -0.2320  0.5881
  282MPD2    C3 4256   2.218   0.527  14.957  0.4330  0.4573 -0.1777
  282MPD2    C4 4257   2.314   0.428  14.917  0.4897 -0.3147 -0.0774
  282MPD2    C5 4258   2.426   0.410  14.997 -0.4967 -0.0244  0.1059
  282MPD2     H 4259   2.156   0.660  15.101 -0.0034 -0.2061  0.8873
  282MPD2    H1 4260   2.313   0.361  14.832  1.2863  0.0607 -0.3888
  282MPD2    H2 4261   2.529   0.460  15.167  1.2234  3.2442 -0.5412
  282MPD2    H3 4262   2.503   0.335  14.984 -0.6541 -0.6052  2.3750
  282MPD2     N 4263   2.106   0.554  14.873  0.8152  0.1147 -0.2769
  282MPD2    H5 4264   2.049   0.634  14.897  1.3895 -0.1275  1.8909
  282MPD2    N1 4265   2.348   0.657  15.273  0.4382 -0.0006 -0.5041
  282MPD2    H7 4266   2.263   0.711  15.285 -1.4791 -2.6462 -2.0611
  283TMC3    C1 4267   2.360   0.680  15.499  0.0764  0.4290 -0.3784
  283TMC3    C2 4268   2.299   0.803  15.506  0.1858 -0.3034 -0.5298
  283TMC3    C3 4269   2.219   0.812  15.618  0.9054  0.6836 -0.1531
  283TMC3    C4 4270   2.349   0.576  15.593 -0.7005  0.0711  0.5764
  283TMC3    C5 4271   2.282   0.598  15.706  0.3969  0.4415 -0.6197
  283TMC3    C6 4272   2.213   0.723  15.717  0.1352  0.1936  0.2143
  283TMC3     C 4273   2.424   0.623  15.379  0.3885  0.1046 -0.8700
  283TMC3     O 4274   2.511   0.539  15.395  0.7544  0.3259 -0.3101
  283TMC3     H 4275   2.319   0.882  15.435 -0.3008  0.3333  0.0400
  283TMC3    H1 4276   2.398   0.482  15.574 -1.4513 -0.0175 -0.8670
  283TMC3    H2 4277   2.151   0.735  15.805 -0.2530  0.4910 -0.0997
  283TMC3    C7 4278   2.229   0.486  15.790  0.2864 -0.3723 -0.0479
  283TMC3    C8 4279   2.154   0.941  15.649 -0.0808  0.1449 -0.4556
  283TMC3    O1 4280   2.192   0.512  15.902 -0.5041 -0.6527 -0.0941
  283TMC3    O2 4281   2.121   0.958  15.768 -0.2645  0.2511 -0.1869
  284MPD2     C 4282   0.622   4.287  12.541 -0.2996 -0.0062  0.1733
  284MPD2    C1 4283   0.516   4.326  12.465 -0.3645  0.5758  0.3357
  284MPD2    C2 4284   0.413   4.238  12.445  0.1592  0.6120  0.3542
  284MPD2    C3 4285   0.416   4.117  12.510 -0.3880  0.3612 -0.8194
  284MPD2    C4 4286   0.508   4.083  12.593  0.2117  1.0368 -1.2698
  284MPD2    C5 4287   0.621   4.167  12.605  0.7375  0.2996 -0.9285
  284MPD2     H 4288   0.343   4.254  12.364  0.6325 -1.4183 -0.4773
  284MPD2    H1 4289   0.512   3.983  12.635 -1.8176  0.7611 -1.7356
  284MPD2    H2 4290   0.710   4.346  12.565 -0.4840 -0.4140  1.8562
  284MPD2    H3 4291   0.699   4.147  12.678  0.7316  1.3974 -0.6138
  284MPD2     N 4292   0.333   4.010  12.477  0.6620 -0.0049  0.1795
  284MPD2    H5 4293   0.373   3.921  12.507 -1.9012 -1.1057  0.3595
  284MPD2    N1 4294   0.513   4.449  12.395  0.0678  0.7672  0.5083
  284MPD2    H7 4295   0.430   4.460  12.338  1.2613 -0.2598 -1.4569
  285TMC3    C1 4296   0.568   4.642  12.286  0.7259 -0.4235 -0.0279
  285TMC3    C2 4297   0.509   4.581  12.176 -0.4597 -0.3797 -0.1633
  285TMC3    C3 4298   0.476   4.662  12.074 -0.3227  0.1765 -0.1152
  285TMC3    C4 4299   0.577   0.055  12.302 -0.0861 -0.7325 -0.0654
  285TMC3    C5 4300   0.530   0.131  12.199  0.2669 -1.5246 -0.1109
  285TMC3    C6 4301   0.478   0.074  12.081  0.1602 -0.5980 -0.0650
  285TMC3     C 4302   0.603   4.552  12.396  0.5710 -0.1039 -0.2848
  285TMC3     O 4303   0.695   4.580  12.478  0.4450 -0.1189  0.0382
  285TMC3     H 4304   0.515   4.476  12.150 -0.9088 -0.5888  0.5753
  285TMC3    H1 4305   0.619   0.094  12.394  0.9428 -1.5174 -0.2091
  285TMC3    H2 4306   0.443   0.136  12.000 -0.2956 -0.4660  0.2275
  285TMC3    C7 4307   0.585   0.262  12.184 -0.3872  0.4015 -0.1490
  285TMC3    C8 4308   0.409   4.601  11.956 -0.1837 -0.3283 -0.2005
  285TMC3    O1 4309   0.535   0.332  12.097 -0.6656  0.2057 -0.0885
  285TMC3    O2 4310   0.436   4.650  11.846 -0.5131 -0.3425 -0.3707
  286MPD2     C 4311   1.126   3.742   1.555  0.3368  0.4538 -0.4662
  286MPD2    C1 4312   1.118   3.712   1.420 -0.2652  0.5366 -0.2029
  286MPD2    C2 4313   1.225   3.645   1.360 -0.1329 -0.0332 -0.4144
  286MPD2    C3 4314   1.325   3.601   1.439  0.2567  0.1660  0.5677
  286MPD2    C4 4315   1.325   3.628   1.576 -0.3294  0.0819  0.5485
  286MPD2    C5 4316   1.224   3.697   1.636  0.6064  0.2778  0.1223
  286MPD2     H 4317   1.220   3.645   1.251 -0.1358 -0.8020 -0.4153
  286MPD2    H1 4318   1.407   3.593   1.638  0.5023 -1.8152 -1.6140
  286MPD2    H2 4319   1.051   3.800   1.607  0.0535 -0.6187  0.3107
  286MPD2    H3 4320   1.219   3.724   1.741  0.2590 -0.6705  0.3499
  286MPD2     N 4321   1.436   3.529   1.389 -1.0661 -0.2443 -0.1424
  286MPD2    H5 4322   1.503   3.495   1.458 -2.2560 -2.0207  0.1256
  286MPD2    N1 4323   1.023   3.772   1.328 -0.3083  0.7006 -0.1667
  286MPD2    H7 4324   1.032   3.759   1.228  1.4346  0.3251  0.0391
  287TMC3    C1 4325   1.568   3.376   1.247  0.8257 -0.1545  0.4496
  287TMC3    C2 4326   1.564   3.303   1.126 -0.4244  0.6792  0.6104
  287TMC3    C3 4327   1.682   3.250   1.092 -0.5675  0.2427  0.0781
  287TMC3    C4 4328   1.676   3.379   1.333 -0.7839  0.3126 -0.4744
  287TMC3    C5 4329   1.786   3.310   1.295 -0.2072 -0.4835 -0.1684
  287TMC3    C6 4330   1.790   3.242   1.170 -0.3643 -0.0384 -0.4427
  287TMC3     C 4331   1.455   3.477   1.261  0.5622 -0.1321  0.5121
  287TMC3     O 4332   1.377   3.493   1.166 -0.4091 -0.1349 -0.2206
  287TMC3     H 4333   1.479   3.294   1.060 -0.7671  0.0470  1.1469
  287TMC3    H1 4334   1.679   3.433   1.427 -0.7099 -0.6792  0.0877
  287TMC3    H2 4335   1.881   3.193   1.139 -0.1853 -1.4281  2.2444
  287TMC3    C7 4336   1.903   3.316   1.376  0.0586 -0.1631  0.0838
  287TMC3    C8 4337   1.690   3.192   0.955 -0.2884  0.2237  0.2270
  287TMC3    O1 4338   1.931   3.422   1.440  0.1533  0.3044 -0.3986
  287TMC3    O2 4339   1.583   3.172   0.904 -0.4733 -0.0327 -0.2440
  288TMC3    C1 4340   2.702   2.723  14.249  0.0275 -0.5297  0.4615
  288TMC3    C2 4341   2.657   2.648  14.354 -0.3634  0.0913 -0.7792
  288TMC3    C3 4342   2.716   2.673  14.476  0.3038 -0.2136  0.2067
  288TMC3    C4 4343   2.784   2.828  14.267  0.3039  0.1542 -0.1169
  288TMC3    C5 4344   2.852   2.844  14.390 -0.4349  0.4003 -0.6251
  288TMC3    C6 4345   2.810   2.769  14.492 -0.5411 -0.0324  0.2083
  288TMC3     C 4346   2.676   2.660  14.120 -0.4006  0.4490 -0.2109
  288TMC3     O 4347   2.593   2.570  14.111  0.4004  0.2150  0.0121
  288TMC3     H 4348   2.590   2.563  14.344 -2.3122  1.2117  2.6610
  288TMC3    H1 4349   2.816   2.889  14.183 -3.2877 -0.0885 -1.6742
  288TMC3    H2 4350   2.868   2.783  14.583 -0.3721 -1.0817  0.2601
  288TMC3    C7 4351   2.984   2.919  14.412 -0.0530 -0.6276  0.3993
  288TMC3    C8 4352   2.621   2.698  14.581  0.6769 -0.6267 -1.0299
  288TMC3    O1 4353   3.018   2.939  14.527 -0.7648  0.1978  0.1758
  288TMC3    O2 4354   2.625   2.805  14.637  0.1147  0.2821  0.1983
  289MPD2     C 4355   2.917   2.187  14.407 -0.4599 -0.0562 -0.0679
  289MPD2    C1 4356   2.924   2.313  14.349  0.5564  0.3257 -0.5077
  289MPD2    C2 4357   2.829   2.347  14.254  0.4871 -0.1094 -0.0313
  289MPD2    C3 4358   2.731   2.253  14.220 -0.1106  0.4646  0.2448
  289MPD2    C4 4359   2.725   2.136  14.294  0.6989 -0.3340 -0.2710
  289MPD2    C5 4360   2.821   2.092  14.378 -0.0780 -0.2119  0.3686
  289MPD2     H 4361   2.828   2.440  14.198  4.0000 -1.2202 -1.9669
  289MPD2    H1 4362   2.646   2.062  14.282  0.6623 -0.7702  2.5654
  289MPD2    H2 4363   2.987   2.159  14.485 -0.7418  0.1262  0.2494
  289MPD2    H3 4364   2.820   1.992  14.421 -2.5618 -0.3300  0.0348
  289MPD2     N 4365   2.637   2.279  14.114 -0.3188 -0.5093  0.1671
  289MPD2    H5 4366   2.634   2.375  14.082 -1.5832 -0.1326  1.4323
  289MPD2    N1 4367   3.017   2.405  14.396  0.1831 -0.1363  0.9537
  289MPD2    H7 4368   3.080   2.364  14.464  0.3996  1.4594  1.7020
  290TMC3    C1 4369   2.483   2.225  13.935  0.2346  0.8182 -0.2516
  290TMC3    C2 4370   2.393   2.333  13.950  0.1291 -0.9069 -0.2329
  290TMC3    C3 4371   2.283   2.335  13.869  0.4801  0.4066  0.3163
  290TMC3    C4 4372   2.464   2.122  13.839 -0.0785  0.4928  0.2195
  290TMC3    C5 4373   2.349   2.134  13.765  0.8892 -0.6907 -0.8186
  290TMC3    C6 4374   2.260   2.238  13.776 -0.1071  0.0146  0.2157
  290TMC3     C 4375   2.562   2.180  14.051 -0.1454  0.1632  0.6110
  290TMC3     O 4376   2.574   2.059  14.065 -0.3357  0.5142 -0.3843
  290TMC3     H 4377   2.429   2.407  14.021 -1.4068 -0.1161 -0.2712
  290TMC3    H1 4378   2.536   2.043  13.818 -1.3545 -0.3447 -1.0223
  290TMC3    H2 4379   2.176   2.233  13.709  0.6354 -0.6427 -0.6630
  290TMC3    C7 4380   2.305   2.023  13.686  0.8072  0.5068 -0.1224
  290TMC3    C8 4381   2.182   2.441  13.874 -0.0867 -0.2021  0.1772
  290TMC3    O1 4382   2.239   2.036  13.580  0.3833  0.3516  0.1044
  290TMC3    O2 4383   2.076   2.425  13.812  1.0741 -0.4329  0.2865
  291MPD2     C 4384   1.633   1.833   0.462 -0.2496 -0.1740 -0.5509
  291MPD2    C1 4385   1.606   1.792   0.331 -0.1647  0.1715  0.0944
  291MPD2    C2 4386   1.697   1.829   0.231 -0.6804 -0.4654  0.5357
  291MPD2    C3 4387   1.806   1.912   0.254 -0.1290 -0.1679 -0.5764
  291MPD2    C4 4388   1.820   1.962   0.387  0.0647  0.6768  0.0177
  291MPD2    C5 4389   1.736   1.923   0.484  0.3638 -0.6153 -0.0701
  291MPD2     H 4390   1.679   1.789   0.132 -0.7549  0.9750 -0.0349
  291MPD2    H1 4391   1.903   2.023   0.420 -0.4766  0.4919  1.7181
  291MPD2    H2 4392   1.561   1.810   0.540  0.7273 -0.6908  0.1980
  291MPD2    H3 4393   1.756   1.961   0.584  0.3544 -1.8914  0.4169
  291MPD2     N 4394   1.901   1.954   0.154  0.0357 -0.1434 -0.8770
  291MPD2    H5 4395   1.959   2.032   0.183  0.7103 -0.5061 -1.2583
  291MPD2    N1 4396   1.500   1.712   0.291  0.0191  0.2650  0.5768
  291MPD2    H7 4397   1.482   1.705   0.191  1.8333 -1.9536  0.4024
  292TMC3    C1 4398   1.290   1.604   0.300  0.0361  1.0376  0.5613
  292TMC3    C2 4399   1.162   1.603   0.352 -0.5937  1.0375  0.9396
  292TMC3    C3 4400   1.075   1.518   0.292  0.3808  0.0641 -0.5186
  292TMC3    C4 4401   1.327   1.517   0.205 -0.9487 -1.0276 -0.3559
  292TMC3    C5 4402   1.227   1.436   0.141 -0.6845 -0.5033 -0.3723
  292TMC3    C6 4403   1.097   1.432   0.191  0.7933  0.7606 -0.2678
  292TMC3     C 4404   1.398   1.668   0.374  0.2281 -0.1521  0.0256
  292TMC3     O 4405   1.389   1.667   0.498 -0.0768  0.1246  0.2367
  292TMC3     H 4406   1.146   1.658   0.444 -2.3943  1.2372  0.5079
  292TMC3    H1 4407   1.430   1.496   0.178  0.2231  0.8166  2.7321
  292TMC3    H2 4408   1.016   1.366   0.163 -0.0479  1.3244  0.8066
  292TMC3    C7 4409   1.274   1.306   0.095 -0.2835 -0.2184  0.2576
  292TMC3    C8 4410   0.935   1.511   0.350 -0.2945 -0.6790  0.2388
  292TMC3    O1 4411   1.373   1.259   0.149  0.4836 -0.7734 -0.0692
  292TMC3    O2 4412   0.838   1.503   0.275 -0.3814 -0.8449 -0.4099
  293MPD2     C 4413   3.980   3.726  12.642  0.6592 -0.4547  0.1900
  293MPD2    C1 4414   3.871   3.650  12.676 -1.4484  0.6991 -0.1981
  293MPD2    C2 4415   3.832   3.660  12.812 -0.6862  0.5184  0.0856
  293MPD2    C3 4416   3.904   3.736  12.907 -0.3018 -0.5001  0.2789
  293MPD2    C4 4417   4.015   3.802  12.871 -0.4204 -0.1727 -0.4672
  293MPD2    C5 4418   4.055   3.793  12.739 -0.8547  0.0966 -0.1080
  293MPD2     H 4419   3.744   3.602  12.836 -0.2627  0.7275  2.0937
  293MPD2    H1 4420   4.077   3.846  12.949  0.2270 -0.0747 -1.0350
  293MPD2    H2 4421   4.015   3.729  12.539 -0.4304  0.0894 -0.1637
  293MPD2    H3 4422   4.149   3.839  12.711 -0.1986  0.0379  1.9518
  293MPD2     N 4423   3.869   3.738  13.038 -0.4221  0.3844 -0.0071
  293MPD2    H5 4424   3.822   3.656  13.076  0.7122 -0.6024 -0.7219
  293MPD2    N1 4425   3.797   3.599  12.565  0.2393 -0.3024 -0.0846
  293MPD2    H7 4426   3.841   3.614  12.475 -1.5335 -1.3411 -1.1152
  294TMC3    C1 4427   3.652   3.452  12.450 -0.4898  0.0321 -0.6247
  294TMC3    C2 4428   3.597   3.320  12.464  0.3904  0.0946  0.6228
  294TMC3    C3 4429   3.555   3.260  12.348  0.0709  0.1663  0.2087
  294TMC3    C4 4430   3.654   3.521  12.330  0.7502  0.2116 -0.2750
  294TMC3    C5 4431   3.614   3.448  12.219 -0.5532 -0.0917 -0.3776
  294TMC3    C6 4432   3.572   3.317  12.223  0.1954  0.1473 -0.1428
  294TMC3     C 4433   3.695   3.513  12.576 -0.5069  0.3476  0.2742
  294TMC3     O 4434   3.660   3.463  12.676 -0.4165 -0.4689 -0.4731
  294TMC3     H 4435   3.586   3.268  12.558  1.4773 -2.1045 -0.4448
  294TMC3    H1 4436   3.690   3.623  12.324  0.2706  0.2882 -1.6595
  294TMC3    H2 4437   3.535   3.277  12.129  0.2164  1.3284 -0.6553
  294TMC3    C7 4438   3.666   3.492  12.091  0.4987  0.3963 -0.3500
  294TMC3    C8 4439   3.511   3.128  12.360 -0.0269 -0.2777 -0.3765
  294TMC3    O1 4440   3.697   3.412  12.006 -0.7637  0.3086 -0.1424
  294TMC3    O2 4441   3.474   3.099  12.474  0.2435 -0.1195 -0.0013
  295MPD2     C 4442   3.749   2.369  17.477  0.2156  0.6200  0.0219
  295MPD2    C1 4443   3.797   2.478  17.532  0.5963 -0.3174 -0.3970
  295MPD2    C2 4444   3.750   2.519  17.660 -0.2482 -0.4699 -0.4368
  295MPD2    C3 4445   3.642   2.455   0.041 -0.1572  0.1741  0.6875
  295MPD2    C4 4446   3.601   2.336  17.672  0.1270  0.0043  0.1824
  295MPD2    C5 4447   3.649   2.307  17.547  0.2171  0.0284 -0.0530
  295MPD2     H 4448   3.799   2.601   0.024 -0.0684 -1.2166  0.6187
  295MPD2    H1 4449   3.522   2.269   0.017 -0.6071  1.1975  0.8967
  295MPD2    H2 4450   3.776   2.334  17.378  0.9654  0.6195  0.2272
  295MPD2    H3 4451   3.595   2.237  17.484  2.5783 -0.9738 -0.9663
  295MPD2     N 4452   3.579   2.502   0.159  0.1225  0.4822  0.3613
  295MPD2    H5 4453   3.492   2.458   0.189 -0.1614  0.5682 -0.3409
  295MPD2    N1 4454   3.913   2.539  17.482 -0.4070  0.9153  0.4309
  295MPD2    H7 4455   3.949   2.611  17.544 -1.4498  3.0587 -1.4496
  296TMC3    C1 4456   3.556   2.616   0.367 -0.8083  0.6267 -1.0804
  296TMC3    C2 4457   3.595   2.721   0.448 -0.3523  0.1261 -0.0174
  296TMC3    C3 4458   3.527   2.742   0.567 -0.4304  0.0143  0.1695
  296TMC3    C4 4459   3.482   2.516   0.417  0.3010 -0.4054  0.6087
  296TMC3    C5 4460   3.413   2.544   0.531  0.7243 -0.8217  0.6295
  296TMC3    C6 4461   3.435   2.652   0.611  0.2459  0.1507 -0.3086
  296TMC3     C 4462   3.633   2.596   0.242  0.0345 -0.0175 -0.6312
  296TMC3     O 4463   3.737   2.668   0.239  0.1499  0.0830 -0.3900
  296TMC3     H 4464   3.679   2.781   0.417 -0.1415  0.6178  1.5567
  296TMC3    H1 4465   3.462   2.424   0.363 -0.2641 -0.3620  0.7465
  296TMC3    H2 4466   3.386   2.674   0.705 -1.3012  2.0649 -1.5727
  296TMC3    C7 4467   3.303   2.456   0.569 -0.0056  0.5717 -0.4464
  296TMC3    C8 4468   3.560   2.855   0.655  0.2980  0.0498  0.1488
  296TMC3    O1 4469   3.244   2.390   0.484 -0.2047  0.4467 -0.0705
  296TMC3    O2 4470   3.520   2.859   0.769  0.0271  0.1098 -0.7188
  297MPD2     C 4471   1.535   4.087  16.702 -0.2619  0.4680 -0.4350
  297MPD2    C1 4472   1.573   4.157  16.584  0.4355 -0.0394 -0.0973
  297MPD2    C2 4473   1.697   4.213  16.592 -0.4654  0.1539 -0.3061
  297MPD2    C3 4474   1.773   4.216  16.707  0.8934 -0.0329  0.1255
  297MPD2    C4 4475   1.735   4.145  16.818 -0.2385  0.6501 -0.8704
  297MPD2    C5 4476   1.613   4.085  16.812 -0.3598 -0.6088  0.0825
  297MPD2     H 4477   1.740   4.264  16.507  2.1434  2.5366  2.4370
  297MPD2    H1 4478   1.799   4.139  16.905 -2.5320 -0.2759  0.7688
  297MPD2    H2 4479   1.442   4.033  16.716 -0.9421  1.9399  0.7059
  297MPD2    H3 4480   1.561   4.036  16.894 -1.0215 -0.6710 -0.3777
  297MPD2     N 4481   1.890   4.303  16.701  0.2589  0.6356  0.2544
  297MPD2    H5 4482   1.890   4.359  16.616 -0.5466  0.6395  0.2595
  297MPD2    N1 4483   1.495   4.153  16.469  0.5662 -0.0277  0.6625
  297MPD2    H7 4484   1.537   4.197  16.388  0.3768 -2.4341 -0.7427
  298TMC3    C1 4485   1.294   4.152  16.337  0.8262 -0.0525  0.2856
  298TMC3    C2 4486   1.362   4.160  16.212  0.9830 -0.1387 -0.6331
  298TMC3    C3 4487   1.296   4.232  16.117  0.5549 -0.2145 -0.3209
  298TMC3    C4 4488   1.172   4.196  16.354  0.4973  0.2231 -0.0245
  298TMC3    C5 4489   1.104   4.263  16.253 -0.9799 -0.2883  0.0372
  298TMC3    C6 4490   1.164   4.275  16.131  0.1566  0.1512 -0.2230
  298TMC3     C 4491   1.360   4.119  16.463  0.3799 -0.2025 -0.2283
  298TMC3     O 4492   1.294   4.060  16.547  0.6283 -0.0393  0.0444
  298TMC3     H 4493   1.464   4.125  16.204  0.7956 -0.9342  0.5114
  298TMC3    H1 4494   1.134   4.201  16.455  0.4544 -1.1791  0.0201
  298TMC3    H2 4495   1.112   4.319  16.047 -0.2181 -0.3099 -0.2308
  298TMC3    C7 4496   1.032   4.385  16.294 -1.3200 -0.2619  0.2208
  298TMC3    C8 4497   1.357   4.264  15.995  0.2721 -0.0687  0.7330
  298TMC3    O1 4498   1.058   4.416  16.408 -0.5781  0.1716  0.2184
  298TMC3    O2 4499   1.286   4.275  15.899 -0.1930 -0.2190 -0.6125
  299MPD2     C 4500   1.685   0.030  10.248 -1.0198  0.1738 -0.3909
  299MPD2    C1 4501   1.612   4.642  10.293  0.0041  0.2870  0.3274
  299MPD2    C2 4502   1.476   4.651  10.296  0.7819 -0.6904 -0.1902
  299MPD2    C3 4503   1.411   0.043  10.259 -0.2949  0.4921  0.3624
  299MPD2    C4 4504   1.490   0.149  10.226  0.4629 -0.0265 -0.1080
  299MPD2    C5 4505   1.624   0.139  10.215  0.3822 -0.0626  0.0163
  299MPD2     H 4506   1.418   4.561  10.313 -2.0729  1.4018  0.9880
  299MPD2    H1 4507   1.455   0.250  10.208  0.8641 -0.0558 -1.0811
  299MPD2    H2 4508   1.794   0.034  10.255 -1.0975  1.3606  0.1706
  299MPD2    H3 4509   1.685   0.223  10.186  1.0994 -0.3362  0.7526
  299MPD2     N 4510   1.270   0.071  10.270  0.2912 -0.1746  0.0398
  299MPD2    H5 4511   1.239   0.163  10.242 -0.1427 -0.1129  0.7336
  299MPD2    N1 4512   1.681   4.523  10.334  0.3636 -0.5990  0.1790
  299MPD2    H7 4513   1.781   4.532  10.322  0.0800  1.9848 -0.2198
  300TMC3    C1 4514   1.041   0.050  10.324 -0.3332  1.3001  0.4482
  300TMC3    C2 4515   1.038   0.150  10.418 -1.0229  0.0378 -0.1158
  300TMC3    C3 4516   0.934   0.160  10.504  0.2473 -0.5349 -0.2047
  300TMC3    C4 4517   0.933   4.686  10.315  0.7450 -0.0735 -0.0437
  300TMC3    C5 4518   0.834   4.691  10.407  0.3192  0.1211 -0.7041
  300TMC3    C6 4519   0.828   0.072  10.498  0.4566 -0.2321  0.1254
  300TMC3     C 4520   1.168   4.707  10.307 -0.4507 -0.6555  0.4519
  300TMC3     O 4521   1.184   4.591  10.335 -0.5534 -0.5577 -0.1296
  300TMC3     H 4522   1.115   0.226  10.418 -2.0409  1.0293  2.4993
  300TMC3    H1 4523   0.958   4.587  10.280  0.5829 -0.5921  1.2943
  300TMC3    H2 4524   0.757   0.079  10.580 -0.4393 -1.9266 -0.5135
  300TMC3    C7 4525   0.764   4.568  10.429 -0.4263  0.0757  0.0555
  300TMC3    C8 4526   0.976   0.220  10.628  0.3298 -0.1543 -0.4540
  300TMC3    O1 4527   0.758   4.484  10.340 -0.2094  0.7021 -0.1078
  300TMC3    O2 4528   1.089   0.266  10.634  0.0700  0.2709 -0.0639
  301MPD2     C 4529   4.155   0.929   1.379 -0.5695  0.3889  0.1847
  301MPD2    C1 4530   4.045   0.856   1.325 -0.2579  1.0866 -0.4037
  301MPD2    C2 4531   4.071   0.733   1.275  0.4549 -0.6198 -0.0520
  301MPD2    C3 4532   4.199   0.670   1.272  0.4014  0.7266 -0.2269
  301MPD2    C4 4533   4.303   0.731   1.338  0.0237  0.2529 -0.3457
  301MPD2    C5 4534   4.281   0.862   1.380  0.4415  0.0903  0.2434
  301MPD2     H 4535   3.983   0.685   1.234 -0.5098  1.4145 -0.3646
  301MPD2    H1 4536   4.406   0.697   1.332  1.2560  4.0047 -0.4843
  301MPD2    H2 4537   4.158   1.031   1.415  3.8917  0.2377  0.3126
  301MPD2    H3 4538   4.366   0.911   1.426 -0.4686  1.2394  0.6944
  301MPD2     N 4539   4.230   0.551   1.199 -0.2668 -0.2577 -0.5898
  301MPD2    H5 4540   4.327   0.521   1.199 -0.5627 -1.2496  2.3382
  301MPD2    N1 4541   3.912   0.908   1.314 -0.1955  0.2769  0.0776
  301MPD2    H7 4542   3.839   0.850   1.274  0.4754  0.9064 -2.0678
  302TMC3    C1 4543   4.183   0.353   1.068  0.4998  0.4864 -0.0639
  302TMC3    C2 4544   4.263   0.271   1.137 -0.3008 -0.8305 -0.5724
  302TMC3    C3 4545   4.295   0.150   1.077 -0.1005  0.4713 -0.1228
  302TMC3    C4 4546   4.122   0.321   0.952 -0.0511 -0.2919 -0.0950
  302TMC3    C5 4547   4.156   0.205   0.890  0.3784  0.3811 -0.0372
  302TMC3    C6 4548   4.254   0.125   0.952 -0.1979  0.1959 -0.0160
  302TMC3     C 4549   4.131   0.475   1.133 -0.1846  0.3573 -0.1115
  302TMC3     O 4550   4.020   0.503   1.099  0.1271 -0.4577  0.8261
  302TMC3     H 4551   4.299   0.294   1.237  0.2753  0.0032 -0.9756
  302TMC3    H1 4552   4.047   0.387   0.912 -1.0737 -1.1282  0.4323
  302TMC3    H2 4553   4.277   0.029   0.907 -0.7087 -0.9358  2.1189
  302TMC3    C7 4554   4.095   0.159   0.769 -0.0696 -1.2207 -0.5622
  302TMC3    C8 4555   4.392   0.054   1.140 -0.8948 -0.4611  0.1076
  302TMC3    O1 4556   4.136   0.055   0.720  0.0300  0.0152 -0.4323
  302TMC3    O2 4557   4.455   4.709   1.060 -0.4826  0.0242  0.1012
  303MPD2     C 4558   4.682   3.584  10.384 -0.1785 -0.1313  1.1515
  303MPD2    C1 4559   4.559   3.554  10.443 -0.2534  0.3189  1.1756
  303MPD2    C2 4560   4.444   3.555  10.364  0.2701  0.0939 -0.4547
  303MPD2    C3 4561   4.450   3.577  10.226 -0.1878 -0.2187  0.2388
  303MPD2    C4 4562   4.573   3.603  10.162 -0.3275  0.4334  0.7020
  303MPD2    C5 4563   4.685   3.604  10.248  0.7118 -0.2036  0.0457
  303MPD2     H 4564   4.347   3.533  10.407  0.5154  1.7436  0.9514
  303MPD2    H1 4565   4.596   3.612  10.056 -0.0327 -0.3994  0.6939
  303MPD2    H2 4566   0.057   3.571  10.433  0.1327 -1.5044  0.1938
  303MPD2    H3 4567   0.060   3.626  10.202  1.4710  0.3688  1.9250
  303MPD2     N 4568   4.342   3.567  10.135 -0.5283 -0.1037 -0.2706
  303MPD2    H5 4569   4.352   3.568  10.034  2.4230  0.3394  0.0297
  303MPD2    N1 4570   4.549   3.535  10.581 -0.0201 -0.0619  0.1694
  303MPD2    H7 4571   4.639   3.517  10.624 -0.1740 -2.8628 -0.7143
  304TMC3    C1 4572   4.459   3.465  10.780 -0.1951  0.6752  0.4226
  304TMC3    C2 4573   4.377   3.491  10.880  0.0255 -0.1333  0.1126
  304TMC3    C3 4574   4.378   3.404  10.985  0.3423  0.3052 -0.2081
  304TMC3    C4 4575   4.546   3.366  10.780  0.5755  0.7471  1.1895
  304TMC3    C5 4576   4.542   3.276  10.882  0.1682  0.6423  0.7806
  304TMC3    C6 4577   4.469   3.300  10.999  0.0991  0.1779  0.8545
  304TMC3     C 4578   4.434   3.531  10.659 -0.8094 -0.2899  0.4363
  304TMC3     O 4579   4.315   3.552  10.639  0.2777 -0.1809  0.2543
  304TMC3     H 4580   4.301   3.568  10.880 -0.0321 -0.1982 -0.7260
  304TMC3    H1 4581   4.607   3.349  10.692  1.0854  0.4015  1.6056
  304TMC3    H2 4582   4.465   3.240  11.090 -0.8520  0.2181  0.8388
  304TMC3    C7 4583   4.556   3.134  10.854 -0.0852 -0.5732 -0.1540
  304TMC3    C8 4584   4.243   3.359  11.020  0.1710 -0.0817 -0.3640
  304TMC3    O1 4585   4.487   3.057  10.919  0.3959 -0.0459 -0.1274
  304TMC3    O2 4586   4.154   3.444  11.035 -0.0522 -0.7340  0.0776
  305MPD2     C 4587   2.697   0.793  14.198 -0.0930 -0.7255  0.5065
  305MPD2    C1 4588   2.622   0.685  14.215  0.1470 -0.6523  0.2008
  305MPD2    C2 4589   2.561   0.623  14.111  0.3767 -0.6135  0.7444
  305MPD2    C3 4590   2.584   0.660  13.977 -0.1701  0.1695 -0.0242
  305MPD2    C4 4591   2.657   0.777  13.965  0.5373 -0.1220  0.2087
  305MPD2    C5 4592   2.709   0.845  14.074  0.1623  0.1403  0.1865
  305MPD2     H 4593   2.496   0.538  14.130  1.6091 -1.7024  0.1018
  305MPD2    H1 4594   2.668   0.812  13.863  0.2940 -1.2095 -0.1944
  305MPD2    H2 4595   2.742   0.838  14.286 -0.3823  0.9870 -0.2295
  305MPD2    H3 4596   2.752   0.942  14.052  2.4845 -0.9088  0.0066
  305MPD2     N 4597   2.559   0.587  13.857  0.1004  0.1507  0.5289
  305MPD2    H5 4598   2.566   0.644  13.773  2.9300  0.7931  1.2387
  305MPD2    N1 4599   2.621   0.640  14.353  0.5971  0.0889 -0.2063
  305MPD2    H7 4600   2.668   0.704  14.417  1.4560  0.6630 -1.4117
  306TMC3    C1 4601   2.566   0.507  14.540  0.2911  0.5238 -0.4678
  306TMC3    C2 4602   2.623   0.393  14.586  0.4534  1.0270  0.7702
  306TMC3    C3 4603   2.667   0.379  14.708 -0.2072 -0.3702 -0.1153
  306TMC3    C4 4604   2.554   0.621  14.617  0.8759  0.2133 -0.0841
  306TMC3    C5 4605   2.611   0.613  14.741 -1.5781 -0.2489 -0.2632
  306TMC3    C6 4606   2.663   0.493  14.789 -0.6134 -0.1020 -0.4425
  306TMC3     C 4607   2.566   0.521  14.396  0.2230  0.0558  0.1623
  306TMC3     O 4608   2.549   0.419  14.332  0.1376 -0.0814  0.6980
  306TMC3     H 4609   2.617   0.307  14.519  0.2447  1.5065  0.1724
  306TMC3    H1 4610   2.527   0.719  14.579  1.3244  0.1074 -0.6835
  306TMC3    H2 4611   2.672   0.483  14.897  1.2120  0.6825 -0.5334
  306TMC3    C7 4612   2.576   0.723  14.835 -0.2618  0.4469  0.1122
  306TMC3    C8 4613   2.689   0.241  14.760  0.1233  0.5168 -0.3330
  306TMC3    O1 4614   2.469   0.781  14.819  0.4299  0.7310  0.4846
  306TMC3    O2 4615   2.776   0.226  14.847 -0.2616  0.6233  0.1989
  307MPD2     C 4616   0.108   2.912   1.285 -0.2280  0.3171 -0.1228
  307MPD2    C1 4617   0.114   3.046   1.261 -0.4108 -0.6367 -0.5179
  307MPD2    C2 4618   0.001   3.122   1.237  0.1355  0.2292 -0.0081
  307MPD2    C3 4619   4.602   3.060   1.227  0.0680 -0.6758  0.3156
  307MPD2    C4 4620   4.594   2.924   1.262  0.0837  0.8231  0.3342
  307MPD2    C5 4621   4.703   2.851   1.293 -0.2647  0.0620  0.0971
  307MPD2     H 4622   0.006   3.228   1.216 -1.6386  0.3640  0.2038
  307MPD2    H1 4623   4.496   2.882   1.283  0.8317 -0.0630  2.0370
  307MPD2    H2 4624   0.194   2.853   1.314  1.1127  2.4091  0.0941
  307MPD2    H3 4625   4.692   2.749   1.325 -2.0572  0.9267  2.2061
  307MPD2     N 4626   4.485   3.137   1.213  0.6104 -0.0232  0.7609
  307MPD2    H5 4627   4.502   3.235   1.196  0.7947 -0.3707 -1.0306
  307MPD2    N1 4628   0.242   3.109   1.249  0.1385  0.4849 -0.2370
  307MPD2    H7 4629   0.243   3.207   1.220  1.1280  0.4838 -0.2106
  308TMC3    C1 4630   4.162   3.297   0.974 -0.2980 -0.6883 -0.5752
  308TMC3    C2 4631   4.135   3.400   1.066 -0.1367  0.6502  0.0025
  308TMC3    C3 4632   4.187   3.387   1.190 -0.6001 -0.3334  0.0996
  308TMC3    C4 4633   4.219   3.178   1.017 -0.5492 -0.1774  0.3594
  308TMC3    C5 4634   4.271   3.176   1.140  0.7657 -0.4272  0.2346
  308TMC3    C6 4635   4.257   3.280   1.228  0.5432 -0.0813  0.3475
  308TMC3     C 4636   4.127   3.308   0.834  0.6497  0.1154  0.4992
  308TMC3     O 4637   4.169   3.225   0.752  0.4121  0.1796 -0.3285
  308TMC3     H 4638   4.083   3.492   1.041 -0.7114  0.1447 -0.6596
  308TMC3    H1 4639   4.249   3.111   0.938  1.9553  0.7490  0.5386
  308TMC3    H2 4640   4.289   3.266   1.331  1.4519  1.3940  0.2600
  308TMC3    C7 4641   4.369   3.075   1.172  0.3661  0.3648 -0.0073
  308TMC3    C8 4642   4.214   3.507   1.272 -0.5596 -0.4556 -0.4150
  308TMC3    O1 4643   4.336   2.956   1.144 -0.1121 -0.0957 -0.3342
  308TMC3    O2 4644   4.200   3.505   1.396 -0.4962  0.2011 -0.1774
  309MPD2     C 4645   4.320   4.187  17.336 -0.6787 -0.7295  0.5638
  309MPD2    C1 4646   4.268   4.208  17.211 -0.3340 -0.0955 -0.6148
  309MPD2    C2 4647   4.153   4.278  17.199  0.4429  0.6972  0.0294
  309MPD2    C3 4648   4.078   4.313  17.312  0.2302 -0.2220  0.7617
  309MPD2    C4 4649   4.134   4.292  17.437  0.6477 -0.3447 -0.0563
  309MPD2    C5 4650   4.257   4.227  17.453 -0.7101 -0.1701  0.3365
  309MPD2     H 4651   4.114   4.298  17.099  1.7348  0.5616 -0.4977
  309MPD2    H1 4652   4.080   4.319  17.527  2.7548  1.1881  0.7419
  309MPD2    H2 4653   4.402   4.117  17.353  0.2417  0.5810  1.5788
  309MPD2    H3 4654   4.296   4.221  17.554  1.8124 -0.3825 -0.6527
  309MPD2     N 4655   3.951   4.389  17.298 -0.1765  0.4497  0.0912
  309MPD2    H5 4656   3.902   4.411  17.384  0.0710 -0.5522  0.4943
  309MPD2    N1 4657   4.348   4.177  17.094  0.5601 -0.4914  0.4920
  309MPD2    H7 4658   4.303   4.197  17.005 -1.4432 -0.4950  1.5028
  310TMC3    C1 4659   4.522   4.093  16.957  0.3361  0.2672  0.0500
  310TMC3    C2 4660   4.461   4.160  16.846  0.0281 -0.0435  0.1881
  310TMC3    C3 4661   4.512   4.152  16.724 -0.2633 -0.3879  0.1855
  310TMC3    C4 4662   4.636   4.019  16.934  0.1260  0.8596  0.1404
  310TMC3    C5 4663   4.697   4.027  16.812  0.5410  0.8984 -0.2466
  310TMC3    C6 4664   4.631   4.094  16.705 -0.0198 -0.2154  1.0485
  310TMC3     C 4665   4.467   4.107  17.092 -0.4234 -0.1685 -0.9187
  310TMC3     O 4666   4.531   4.053  17.182 -0.3554  0.1671  0.3084
  310TMC3     H 4667   4.390   4.241  16.861  1.1094  0.8890  0.3449
  310TMC3    H1 4668   4.680   3.970  17.020 -0.5443 -0.2045 -0.1356
  310TMC3    H2 4669   4.688   4.120  16.616 -1.4903 -2.8028 -0.6440
  310TMC3    C7 4670   0.082   3.936  16.787 -0.3849 -0.3092 -0.6617
  310TMC3    C8 4671   4.439   4.197  16.605  0.9509 -0.1382  0.7471
  310TMC3    O1 4672   0.102   3.912  16.667  0.0893 -0.1608 -0.3711
  310TMC3    O2 4673   4.505   4.209  16.505  0.0153  0.2393 -0.2274
  311MPD2     C 4674   1.452   0.173  12.750 -0.2954  0.1437  0.2281
  311MPD2    C1 4675   1.463   0.304  12.773  0.3868  0.1739 -0.3343
  311MPD2    C2 4676   1.354   0.368  12.831 -0.8370  0.2173 -0.4668
  311MPD2    C3 4677   1.234   0.309  12.850 -0.3367 -0.4021 -0.8148
  311MPD2    C4 4678   1.224   0.173  12.821  0.1587 -0.1845 -0.8763
  311MPD2    C5 4679   1.335   0.106  12.775  0.2081 -0.1898  0.1245
  311MPD2     H 4680   1.364   0.475  12.835  1.4662 -0.0324  0.5749
  311MPD2    H1 4681   1.133   0.114  12.818 -0.3918  0.6495 -0.5174
  311MPD2    H2 4682   1.534   0.116  12.707  0.2146  0.9142  0.1828
  311MPD2    H3 4683   1.320   0.002  12.747  2.6474 -0.7395  0.8911
  311MPD2     N 4684   1.124   0.390  12.892 -1.2215 -0.2029  0.5660
  311MPD2    H5 4685   1.148   0.487  12.907  0.4333 -0.7567  1.5091
  311MPD2    N1 4686   1.574   0.384  12.737  0.0873 -0.4165 -0.0638
  311MPD2    H7 4687   1.577   0.481  12.766  1.0423 -0.4997  0.1328
  312TMC3    C1 4688   0.918   0.438  12.990  0.1579 -0.5695  0.5920
  312TMC3    C2 4689   0.788   0.406  12.960 -0.4216 -0.2537  0.2283
  312TMC3    C3 4690   0.695   0.506  12.950 -0.0506 -1.1139 -0.4973
  312TMC3    C4 4691   0.956   0.567  12.995  0.5838  0.6164  0.0256
  312TMC3    C5 4692   0.859   0.667  12.967 -0.5578  0.1513  0.3484
  312TMC3    C6 4693   0.733   0.636  12.934 -0.5015 -0.0688 -0.1947
  312TMC3     C 4694   1.004   0.341  12.934 -0.4144 -0.2990 -0.0814
  312TMC3     O 4695   0.947   0.233  12.913  0.2285 -0.0594 -0.2642
  312TMC3     H 4696   0.749   0.306  12.978  0.6397 -0.4618  1.3980
  312TMC3    H1 4697   1.057   0.606  12.998  1.5605 -1.9207  0.0165
  312TMC3    H2 4698   0.666   0.720  12.922 -0.0132  0.1132 -1.6517
  312TMC3    C7 4699   0.881   0.799  13.021 -0.5791  0.5202  0.1918
  312TMC3    C8 4700   0.555   0.463  12.920  0.4311  0.7149 -0.8495
  312TMC3    O1 4701   0.791   0.878  12.995  0.1767  0.2473  0.4212
  312TMC3    O2 4702   0.527   0.358  12.974  0.0880  0.2277 -0.4678
  313MPD2     C 4703   0.350   0.119  11.480 -0.3392  0.4863 -0.1557
  313MPD2    C1 4704   0.389   0.160  11.358 -0.0803  0.8068 -0.2208
  313MPD2    C2 4705   0.357   0.076  11.249  0.2074  0.2190 -0.3524
  313MPD2    C3 4706   0.299   4.672  11.266  0.3578  0.1547  0.6510
  313MPD2    C4 4707   0.268   4.634  11.388  0.8278  0.3719  0.3522
  313MPD2    C5 4708   0.289   4.715  11.495  0.2433  0.1934 -0.2649
  313MPD2     H 4709   0.398   0.098  11.151  0.1052  2.9363  0.2163
  313MPD2    H1 4710   0.218   4.539  11.408 -0.9389  1.3283  0.4900
  313MPD2    H2 4711   0.359   0.170  11.575 -2.3555 -1.4540  1.0812
  313MPD2    H3 4712   0.259   4.689  11.595 -1.0384  1.6326 -0.2875
  313MPD2     N 4713   0.281   4.588  11.151 -0.2328 -0.0060  0.3517
  313MPD2    H5 4714   0.324   4.617  11.064 -0.3187 -1.8988 -0.3003
  313MPD2    N1 4715   0.466   0.275  11.335 -0.3712 -0.0692 -0.1894
  313MPD2    H7 4716   0.492   0.294  11.239  0.2618  0.4041  0.0715
  314TMC3    C1 4717   0.537   0.497  11.363 -0.1726 -0.6646 -0.9890
  314TMC3    C2 4718   0.663   0.536  11.391  0.2718 -0.8229 -0.2120
  314TMC3    C3 4719   0.719   0.640  11.319 -0.5218 -0.3508  0.6906
  314TMC3    C4 4720   0.478   0.541  11.250 -0.1157  0.4937  0.2600
  314TMC3    C5 4721   0.531   0.641  11.183  0.1470 -0.2485 -0.1549
  314TMC3    C6 4722   0.652   0.690  11.216 -0.1286 -0.1477  0.1437
  314TMC3     C 4723   0.497   0.373  11.426 -0.3287 -0.7632 -0.3102
  314TMC3     O 4724   0.476   0.370  11.549  0.0964 -0.0178  0.5852
  314TMC3     H 4725   0.708   0.491  11.479  2.2105 -0.6311 -1.1058
  314TMC3    H1 4726   0.379   0.499  11.236  0.6363 -1.4275  0.6619
  314TMC3    H2 4727   0.681   0.778  11.161  3.1304 -1.2958 -0.0179
  314TMC3    C7 4728   0.490   0.641  11.036 -0.7205 -0.5916 -0.0240
  314TMC3    C8 4729   0.863   0.665  11.314 -0.0561  1.0321  0.0759
  314TMC3    O1 4730   0.375   0.614  11.007  0.3636  0.0255 -0.1658
  314TMC3    O2 4731   0.902   0.715  11.212 -0.4139 -0.2777 -0.2666
  315MPD2     C 4732   0.704   3.745   0.172 -0.4101  0.3434  0.2597
  315MPD2    C1 4733   0.828   3.781   0.218 -0.0138  0.2507 -0.6861
  315MPD2    C2 4734   0.902   3.879   0.152  0.2407  0.0094  0.4377
  315MPD2    C3 4735   0.848   3.951   0.045 -0.1740 -0.4940  0.1244
  315MPD2    C4 4736   0.723   3.914   0.001  0.1346  0.1160  0.5903
  315MPD2    C5 4737   0.651   3.812   0.061  0.4176  0.2253 -0.1992
  315MPD2     H 4738   1.003   3.906   0.180  0.0998  0.5740  0.4174
  315MPD2    H1 4739   0.691   3.938  17.586  0.7197 -2.7088 -0.2656
  315MPD2    H2 4740   0.647   3.666   0.220 -0.7114 -0.1331 -0.8774
  315MPD2    H3 4741   0.563   3.770   0.015  0.4167 -0.4841  0.4597
  315MPD2     N 4742   0.917   4.064   0.004 -0.3271 -0.1861  0.1442
  315MPD2    H5 4743   0.997   4.090   0.062 -0.5725 -1.5540  1.1016
  315MPD2    N1 4744   0.901   3.711   0.310  0.1405  0.5346  0.0340
  315MPD2    H7 4745   0.997   3.742   0.325  1.0079 -1.8361 -0.5934
  316TMC3    C1 4746   0.968   4.256  17.554 -0.1503  0.4668 -0.3478
  316TMC3    C2 4747   1.029   4.317  17.664  0.0713 -0.2091  0.0712
  316TMC3    C3 4748   1.063   4.447  17.648 -0.9407  0.2825 -0.0572
  316TMC3    C4 4749   0.929   4.333  17.446 -0.8284  0.6196 -0.2047
  316TMC3    C5 4750   0.955   4.461  17.447  0.0326  0.5969 -0.2528
  316TMC3    C6 4751   1.023   4.527  17.542  0.9155 -0.2478  1.1630
  316TMC3     C 4752   0.891   4.137  17.575  0.4998  0.3479 -0.0883
  316TMC3     O 4753   0.801   4.106  17.495  0.0444  0.3948  0.1682
  316TMC3     H 4754   1.039   4.273   0.077  4.1621 -0.2472 -0.3807
  316TMC3    H1 4755   0.845   4.302  17.385 -0.2635  0.4533 -0.8946
  316TMC3    H2 4756   1.044   4.632  17.524 -0.4672 -0.1148  0.3280
  316TMC3    C7 4757   0.970   4.521  17.318 -0.0367 -0.0004 -0.7348
  316TMC3    C8 4758   1.156   4.501   0.055 -0.0307 -0.5324 -0.0916
  316TMC3    O1 4759   0.980   4.639  17.317  0.6636  0.4260 -0.3873
  316TMC3    O2 4760   1.175   4.618   0.036  0.0066  0.0295  0.5547
  317MPD2     C 4761   2.658   2.464  12.560  0.7927 -0.0969 -0.4938
  317MPD2    C1 4762   2.697   2.334  12.537  0.4622  0.4405  0.0727
  317MPD2    C2 4763   2.720   2.254  12.645 -0.5894 -0.5948 -0.1044
  317MPD2    C3 4764   2.716   2.310  12.776  0.2891  0.0672  0.8184
  317MPD2    C4 4765   2.678   2.441  12.798  0.0999  0.2079 -0.1812
  317MPD2    C5 4766   2.646   2.516  12.689  0.1791  0.1700  0.0170
  317MPD2     H 4767   2.723   2.146  12.643  0.8942 -0.5721  1.2979
  317MPD2    H1 4768   2.666   2.497  12.890  2.8048  2.9908 -1.5090
  317MPD2    H2 4769   2.622   2.524  12.476  1.2349  1.0709  0.1513
  317MPD2    H3 4770   2.618   2.618  12.711 -1.1526  0.1865 -1.7182
  317MPD2     N 4771   2.737   2.223  12.887 -0.0473 -0.0121  0.9578
  317MPD2    H5 4772   2.769   2.129  12.866 -1.5877 -0.7160  1.7299
  317MPD2    N1 4773   2.701   2.273  12.405  0.0287 -0.6446  0.3920
  317MPD2    H7 4774   2.712   2.172  12.401  0.3212 -0.6595  1.4140
  318TMC3    C1 4775   2.768   2.149  13.104  0.6464 -0.0652  0.0811
  318TMC3    C2 4776   2.715   2.028  13.078 -0.0327 -0.6177 -0.2611
  318TMC3    C3 4777   2.762   1.911  13.134  0.0898  0.5245 -0.5177
  318TMC3    C4 4778   2.875   2.154  13.191 -0.1130 -0.5414 -0.1199
  318TMC3    C5 4779   2.922   2.036  13.248  0.4237  0.1015 -0.1229
  318TMC3    C6 4780   2.875   1.915  13.219 -0.4429  0.3359  0.4765
  318TMC3     C 4781   2.743   2.264  13.022 -0.1132  0.0146  0.2760
  318TMC3     O 4782   2.763   2.374  13.070  0.3977 -0.1219 -0.3328
  318TMC3     H 4783   2.631   2.026  13.010  0.6748  1.8957 -1.2253
  318TMC3    H1 4784   2.934   2.245  13.201 -0.5878 -0.3697  1.0683
  318TMC3    H2 4785   2.923   1.829  13.265  0.9296  1.1689  0.6054
  318TMC3    C7 4786   3.032   2.051  13.343 -0.0343 -0.2570  0.5274
  318TMC3    C8 4787   2.725   1.784  13.077  0.0737  0.6617  0.4276
  318TMC3    O1 4788   3.031   2.161  13.399 -0.0634  0.5424  0.2920
  318TMC3    O2 4789   2.814   1.697  13.084 -0.3047 -0.0450 -0.2540
  319MPD2     C 4790   3.916   3.563  15.938 -0.2670 -0.2311 -0.4984
  319MPD2    C1 4791   3.796   3.611  15.972 -0.2015 -0.0233 -0.4184
  319MPD2    C2 4792   3.695   3.625  15.881  0.5607 -0.3886  0.5599
  319MPD2    C3 4793   3.708   3.581  15.752  0.1385  0.6609 -0.5161
  319MPD2    C4 4794   3.824   3.521  15.715  0.2411 -0.3243 -0.0821
  319MPD2    C5 4795   3.925   3.504  15.810  0.2178  0.4414 -0.1721
  319MPD2     H 4796   3.602   3.669  15.915  1.1566  2.0414 -0.9415
  319MPD2    H1 4797   3.834   3.482  15.614  0.8653  0.5606 -0.3668
  319MPD2    H2 4798   4.000   3.537  16.001 -1.5668 -1.2540  0.7957
  319MPD2    H3 4799   4.018   3.459  15.778 -1.4974 -1.8827 -1.9308
  319MPD2     N 4800   3.600   3.597  15.663  0.8168 -0.1636 -1.0246
  319MPD2    H5 4801   3.598   3.544  15.577  0.1823  0.1467 -1.2073
  319MPD2    N1 4802   3.776   3.656  16.105 -0.6623  1.2847  0.1062
  319MPD2    H7 4803   3.682   3.691  16.123 -0.3003  1.4482  1.6951
  320TMC3    C1 4804   3.390   3.632  15.587  0.3124 -0.2654  0.2692
  320TMC3    C2 4805   3.296   3.728  15.564 -0.1148 -0.3782 -0.0098
  320TMC3    C3 4806   3.161   3.702  15.582  0.7617  0.8057 -0.3816
  320TMC3    C4 4807   3.345   3.499  15.599  0.0988 -0.1466 -0.7179
  320TMC3    C5 4808   3.209   3.476  15.604 -0.1802 -0.3037 -0.2579
  320TMC3    C6 4809   3.107   3.572  15.589  0.8661 -0.4148  0.5062
  320TMC3     C 4810   3.493   3.676  15.677 -0.1226  0.4714 -0.0292
  320TMC3     O 4811   3.463   3.765  15.756  0.5551 -0.2287 -0.2539
  320TMC3     H 4812   3.325   3.831  15.550  1.0602 -0.9100 -1.5170
  320TMC3    H1 4813   3.419   3.422  15.622  1.9444  0.8823 -3.1664
  320TMC3    H2 4814   3.003   3.546  15.604  1.0008 -0.5630  1.1847
  320TMC3    C7 4815   3.182   3.353  15.665 -0.7137 -0.6930 -0.4764
  320TMC3    C8 4816   3.075   3.819  15.570  0.6412 -0.3119  0.4277
  320TMC3    O1 4817   3.252   3.263  15.625  0.6354  0.7441  0.2532
  320TMC3    O2 4818   3.127   3.925  15.611 -0.2335  0.2044 -0.0950
  321TMC3    C1 4819   3.808   3.691  16.328 -0.1230  0.2110 -0.0763
  321TMC3    C2 4820   3.690   3.628  16.360  0.3193 -0.1199  0.3562
  321TMC3    C3 4821   3.591   3.689  16.437  0.4860 -0.0138  0.1725
  321TMC3    C4 4822   3.816   3.827  16.346  0.0715 -0.3977 -0.1145
  321TMC3    C5 4823   3.717   3.894  16.413 -0.5228 -0.4518  0.1060
  321TMC3    C6 4824   3.602   3.829  16.457 -0.3266  0.0597  0.1141
  321TMC3     C 4825   3.868   3.645  16.210 -0.5056  1.3297 -0.0539
  321TMC3     O 4826   3.989   3.653  16.211 -0.1308 -0.2022 -0.2422
  321TMC3     H 4827   3.688   3.519  16.364  0.5407 -0.0424  2.7271
  321TMC3    H1 4828   3.904   3.880  16.313 -0.4949 -0.2614 -1.3996
  321TMC3    H2 4829   3.521   3.875  16.513  1.4629  1.1530  1.7787
  321TMC3    C7 4830   3.768   3.985  16.515  0.5694  0.9274  0.1355
  321TMC3    C8 4831   3.551   3.623  16.553 -0.8586  0.2001  0.0913
  321TMC3    O1 4832   3.852   4.075  16.497 -0.0093 -0.2078  0.1134
  321TMC3    O2 4833   3.540   3.701  16.644  0.3376  0.3659 -0.2812
  322MPD2     C 4834   2.726   0.225  13.693 -0.0800  0.4951 -0.4188
  322MPD2    C1 4835   2.687   0.132  13.796  0.5162  0.4207 -0.5648
  322MPD2    C2 4836   2.648   0.007  13.761 -0.3777  0.1091 -0.3525
  322MPD2    C3 4837   2.674   4.688  13.631  0.2124 -0.2182  0.0600
  322MPD2    C4 4838   2.718   0.054  13.530 -0.2657  0.4682 -0.1138
  322MPD2    C5 4839   2.734   0.186  13.566  0.2353  0.7510 -1.1261
  322MPD2     H 4840   2.626   4.653  13.836  1.9541  0.0343  0.2589
  322MPD2    H1 4841   2.735   0.012  13.432  1.0989  0.0551  0.3002
  322MPD2    H2 4842   2.751   0.327  13.717  1.7777 -0.0609 -0.0090
  322MPD2    H3 4843   2.752   0.257  13.485 -2.0326  2.2419 -0.3048
  322MPD2     N 4844   2.653   4.545  13.613  0.2429 -0.8482  0.5017
  322MPD2    H5 4845   2.616   4.490  13.690  1.1720  0.5095  1.9225
  322MPD2    N1 4846   2.695   0.168  13.927 -0.1473  0.6752 -0.0051
  322MPD2    H7 4847   2.747   0.251  13.956 -0.3887  0.8808 -0.1651
  323TMC3    C1 4848   2.678   0.142  14.165 -0.6180 -0.7235  0.3542
  323TMC3    C2 4849   2.740   0.257  14.181  0.0918  0.6665  0.0959
  323TMC3    C3 4850   2.814   0.273  14.296  0.6955  0.1348 -0.0759
  323TMC3    C4 4851   2.682   0.043  14.258  0.0031  0.0854 -0.0618
  323TMC3    C5 4852   2.750   0.060  14.375 -0.4706  0.5641  0.7181
  323TMC3    C6 4853   2.818   0.176  14.390 -0.6205  0.0546  0.4823
  323TMC3     C 4854   2.643   0.092  14.033  0.7923 -0.5638  0.2902
  323TMC3     O 4855   2.557   0.008  14.032  0.3107 -0.5075 -0.6814
  323TMC3     H 4856   2.717   0.341  14.116  0.4383 -0.2915 -1.2763
  323TMC3    H1 4857   2.627   4.673  14.233  1.8740 -1.4032  1.2314
  323TMC3    H2 4858   2.877   0.183  14.481 -0.3307  1.4445  0.1810
  323TMC3    C7 4859   2.783   4.663  14.455 -0.0827 -0.9062  0.5154
  323TMC3    C8 4860   2.905   0.388  14.319  0.4215 -0.3234 -0.1156
  323TMC3    O1 4861   2.894   4.670  14.504  0.1428 -0.2838 -0.1437
  323TMC3    O2 4862   2.961   0.394  14.430  0.3048  0.7507  0.3248
  324MPD2     C 4863   4.117   1.081  14.645 -0.6500 -0.2338 -0.0027
  324MPD2    C1 4864   4.167   1.195  14.583  0.7023 -0.5903 -0.0096
  324MPD2    C2 4865   4.100   1.240  14.468  0.6559 -0.1473 -0.0219
  324MPD2    C3 4866   3.990   1.166  14.411 -0.6058  0.3878  0.2204
  324MPD2    C4 4867   3.952   1.058  14.480 -0.0980  0.0057 -0.2188
  324MPD2    C5 4868   4.014   1.012  14.591  0.0134  0.3579 -0.0042
  324MPD2     H 4869   4.112   1.342  14.433 -0.8406  0.1117  0.2224
  324MPD2    H1 4870   3.882   0.990  14.433  1.8307 -1.9957 -0.1642
  324MPD2    H2 4871   4.159   1.040  14.736  1.6172  0.0435 -0.9355
  324MPD2    H3 4872   3.984   0.922  14.644  0.7870 -0.5512 -1.1353
  324MPD2     N 4873   3.923   1.193  14.284 -0.3246  0.2889  0.4137
  324MPD2    H5 4874   3.843   1.134  14.263 -0.6742 -0.0358  2.6562
  324MPD2    N1 4875   4.272   1.277  14.635 -0.2143 -0.2305 -0.3965
  324MPD2    H7 4876   4.313   1.351  14.580  0.3658 -0.3513 -0.1264
  325TMC3    C1 4877   3.876   1.308  14.078  0.3390 -0.0721 -0.2896
  325TMC3    C2 4878   3.773   1.222  14.051  0.1324 -0.4923  0.3381
  325TMC3    C3 4879   3.675   1.267  13.970 -0.7480 -0.4873 -0.8299
  325TMC3    C4 4880   3.874   1.435  14.018 -0.8612 -0.0742  0.5413
  325TMC3    C5 4881   3.778   1.466  13.939 -0.2947 -0.2665 -0.3293
  325TMC3    C6 4882   3.673   1.388  13.916 -0.0510 -0.1795  0.1067
  325TMC3     C 4883   3.970   1.290  14.195 -0.0758 -0.3628 -0.1149
  325TMC3     O 4884   4.063   1.369  14.202 -0.0278  0.0939 -0.1798
  325TMC3     H 4885   3.761   1.124  14.095  0.0309 -0.4469  0.4133
  325TMC3    H1 4886   3.965   1.495  14.023  0.0041 -1.0854 -2.7127
  325TMC3    H2 4887   3.593   1.404  13.844 -0.9220 -0.4697  1.0143
  325TMC3    C7 4888   3.776   1.592  13.885 -0.4566  0.3684  0.8157
  325TMC3    C8 4889   3.571   1.170  13.941 -0.7840  0.0926 -0.1879
  325TMC3    O1 4890   3.884   1.641  13.859 -0.5219 -0.1043  0.4911
  325TMC3    O2 4891   3.599   1.051  13.959 -0.1769  0.7688  0.4295
  326MPD2     C 4892   0.535   2.180  11.109 -0.2639 -0.3199  0.9934
  326MPD2    C1 4893   0.561   2.223  10.981 -0.1531 -0.1351 -0.3905
  326MPD2    C2 4894   0.632   2.343  10.966 -0.5546  0.0908  0.7192
  326MPD2    C3 4895   0.690   2.406  11.076 -0.2077  0.0882 -0.6269
  326MPD2    C4 4896   0.671   2.350  11.201 -0.3425  0.7039  0.5502
  326MPD2    C5 4897   0.580   2.247  11.214 -0.3622  0.3483  0.1034
  326MPD2     H 4898   0.637   2.385  10.866 -0.4597 -0.6828  0.4038
  326MPD2    H1 4899   0.712   2.394  11.291 -2.7730  1.0100  1.5026
  326MPD2    H2 4900   0.470   2.098  11.135 -1.7732  0.5935  0.0923
  326MPD2    H3 4901   0.553   2.210  11.312  0.3920 -0.1113  0.1338
  326MPD2     N 4902   0.771   2.520  11.059  0.5597 -0.1526  0.5535
  326MPD2    H5 4903   0.791   2.580  11.139  2.7533  0.5790 -0.5611
  326MPD2    N1 4904   0.526   2.158  10.861 -0.1214  0.4971 -0.0018
  326MPD2    H7 4905   0.529   2.210  10.774 -0.5996 -0.9118 -0.8650
  327TMC3    C1 4906   0.494   1.984  10.707  0.1545 -0.4025 -0.2847
  327TMC3    C2 4907   0.438   2.071  10.609 -0.1592 -0.0319 -0.4525
  327TMC3    C3 4908   0.505   2.077  10.492  1.0799  0.2774 -0.1209
  327TMC3    C4 4909   0.608   1.910  10.676 -0.2932  0.6910 -0.2023
  327TMC3    C5 4910   0.665   1.920  10.551 -0.2243 -0.1578 -0.4893
  327TMC3    C6 4911   0.621   2.012  10.460 -0.5047 -0.3314 -0.2463
  327TMC3     C 4912   0.485   2.028  10.848 -0.2131  0.5108 -0.0230
  327TMC3     O 4913   0.485   1.932  10.925 -0.0645  0.0693 -0.7114
  327TMC3     H 4914   0.363   2.142  10.645 -0.1603  1.1554 -2.8045
  327TMC3    H1 4915   0.632   1.843  10.758  0.0977  0.3977 -0.5607
  327TMC3    H2 4916   0.661   2.034  10.362  1.5046  1.4898  0.9804
  327TMC3    C7 4917   0.810   1.914  10.543 -0.5853 -0.1950 -0.0581
  327TMC3    C8 4918   0.449   2.174  10.390 -0.9602  0.1080  0.6600
  327TMC3    O1 4919   0.851   1.998  10.470  0.9215  0.7719  0.4700
  327TMC3    O2 4920   0.496   2.181  10.279 -0.1047 -0.2715 -0.0430
  328MPD2     C 4921   3.054   1.550  16.627  0.6177  0.3449 -0.8138
  328MPD2    C1 4922   2.947   1.614  16.682 -0.4533 -0.2628  0.2118
  328MPD2    C2 4923   2.946   1.756  16.704 -0.7720  0.3509  0.2336
  328MPD2    C3 4924   3.061   1.829  16.669 -0.4672 -0.0721 -0.4654
  328MPD2    C4 4925   3.171   1.757  16.623  0.1374  0.0444 -0.4478
  328MPD2    C5 4926   3.163   1.621  16.598  0.3476  1.1157  0.8205
  328MPD2     H 4927   2.859   1.797  16.753 -1.1239  1.6705 -1.5108
  328MPD2    H1 4928   3.256   1.808  16.578 -0.0285 -0.6890 -1.5946
  328MPD2    H2 4929   3.052   1.445  16.601  0.7981  0.1985 -0.2535
  328MPD2    H3 4930   3.253   1.575  16.558 -0.8452 -0.0225 -0.5548
  328MPD2     N 4931   3.054   1.972  16.682  0.8956 -0.7154 -0.6882
  328MPD2    H5 4932   3.137   2.023  16.653  0.1241  0.6587 -0.5024
  328MPD2    N1 4933   2.831   1.538  16.712  0.2936  0.0594 -0.1535
  328MPD2    H7 4934   2.836   1.441  16.684  0.8253 -0.3052  1.1696
  329TMC3    C1 4935   2.594   1.497  16.738  0.0568  0.0417 -0.0015
  329TMC3    C2 4936   2.471   1.558  16.774 -0.2267  0.3862 -0.1910
  329TMC3    C3 4937   2.359   1.514  16.708 -0.6366 -0.0166 -0.1291
  329TMC3    C4 4938   2.597   1.394  16.649 -0.7822 -0.0226 -0.0777
  329TMC3    C5 4939   2.479   1.355  16.587  0.2861  0.2480 -0.3005
  329TMC3    C6 4940   2.364   1.421  16.610  0.2594  0.4113  0.7149
  329TMC3     C 4941   2.710   1.583  16.768  0.1536 -0.7315  0.5633
  329TMC3     O 4942   2.688   1.686  16.829  0.2478 -0.0703 -0.1558
  329TMC3     H 4943   2.461   1.633  16.852  0.7461 -1.1521  1.4095
  329TMC3    H1 4944   2.693   1.360  16.613 -1.1487 -1.9202  0.7515
  329TMC3    H2 4945   2.269   1.373  16.588  1.2690 -0.9845 -0.6106
  329TMC3    C7 4946   2.491   1.262  16.480  0.4900 -0.6339 -0.0599
  329TMC3    C8 4947   2.234   1.586  16.731 -0.3100  0.0800 -0.7019
  329TMC3    O1 4948   2.594   1.193  16.481 -0.5510  0.3203 -0.5458
  329TMC3    O2 4949   2.163   1.602  16.632  0.8488 -0.1225 -0.6183
  330TMC3    C1 4950   0.552   1.566   9.705  0.0892 -0.6822 -0.4982
  330TMC3    C2 4951   0.490   1.498   9.609  0.5766  0.3597 -0.1914
  330TMC3    C3 4952   0.566   1.432   9.515  0.7838  0.1944  0.1688
  330TMC3    C4 4953   0.691   1.558   9.718 -0.1693  0.1831 -0.2082
  330TMC3    C5 4954   0.765   1.475   9.630 -0.1174  0.1931 -0.2616
  330TMC3    C6 4955   0.702   1.413   9.523 -0.3727  0.6701  0.0570
  330TMC3     C 4956   0.480   1.604   9.827  0.0087 -0.2025 -0.1583
  330TMC3     O 4957   0.530   1.692   9.892  0.3090  0.0687 -0.0195
  330TMC3     H 4958   0.386   1.513   9.586  0.3604  0.3708  0.7697
  330TMC3    H1 4959   0.730   1.588   9.815 -1.5375  1.2889  0.0034
  330TMC3    H2 4960   0.765   1.364   9.449 -1.3391 -2.0492  1.0688
  330TMC3    C7 4961   0.905   1.462   9.642  0.3850 -0.0548 -0.3753
  330TMC3    C8 4962   0.494   1.371   9.404  0.5790  0.2488 -0.5288
  330TMC3    O1 4963   0.959   1.364   9.586  0.2854 -0.2455  0.1707
  330TMC3    O2 4964   0.417   1.450   9.358  0.3431 -0.2755  0.3324
  331MPD2     C 4965   3.235   0.320  12.654 -0.4354 -0.4045  0.3712
  331MPD2    C1 4966   3.311   0.362  12.550 -0.4143 -0.3819  0.1520
  331MPD2    C2 4967   3.372   0.274  12.470  0.0535 -0.5568  0.3750
  331MPD2    C3 4968   3.370   0.143  12.509 -0.0400 -0.6462  0.1040
  331MPD2    C4 4969   3.298   0.092  12.618 -0.6334 -0.1882  0.1849
  331MPD2    C5 4970   3.216   0.182  12.684  0.7389  0.2215  0.8466
  331MPD2     H 4971   3.423   0.318  12.385 -3.4765 -0.6726 -1.8359
  331MPD2    H1 4972   3.279   4.707  12.632  3.2360 -1.3047 -2.9113
  331MPD2    H2 4973   3.195   0.393  12.723 -1.1440  0.2419 -0.7229
  331MPD2    H3 4974   3.155   0.154  12.769  0.4511  1.1889  0.9616
  331MPD2     N 4975   3.457   0.068  12.435  0.5015  0.5001  0.2360
  331MPD2    H5 4976   3.501   0.109  12.353  2.1081 -1.3286  0.1723
  331MPD2    N1 4977   3.313   0.497  12.515 -0.1666  0.3416 -0.3560
  331MPD2    H7 4978   3.371   0.522  12.435  0.0980  1.0122  0.0415
  332TMC3    C1 4979   3.580   4.604  12.369  0.2946 -0.2837  0.3588
  332TMC3    C2 4980   3.625   4.679  12.266 -0.6883 -0.3044 -1.0446
  332TMC3    C3 4981   3.738   4.641  12.200 -0.0912 -0.4233  0.5319
  332TMC3    C4 4982   3.661   4.514  12.427 -0.0291 -0.2925  0.2352
  332TMC3    C5 4983   3.778   4.475  12.367  0.3003  0.1079  0.1234
  332TMC3    C6 4984   3.816   4.540  12.247  0.0727 -0.1028 -0.0245
  332TMC3     C 4985   3.483   4.660  12.459  0.0967 -0.1652  0.3195
  332TMC3     O 4986   3.458   4.589  12.553 -0.4740  0.1798 -0.5060
  332TMC3     H 4987   3.543   0.003  12.211 -0.2653  2.5216  0.6481
  332TMC3    H1 4988   3.643   4.457  12.517  1.8562  0.8922  1.3509
  332TMC3    H2 4989   3.907   4.512  12.195  0.8362  1.9853  0.1856
  332TMC3    C7 4990   3.865   4.396  12.451  0.0897 -0.2578 -0.4142
  332TMC3    C8 4991   3.783   0.025  12.105  0.1547 -0.4992  0.4932
  332TMC3    O1 4992   3.813   4.336  12.540  0.8354 -0.4701  0.5015
  332TMC3    O2 4993   3.735   0.137  12.114 -0.3494 -0.0302  0.0575
  333MPD2     C 4994   3.999   0.952  11.161 -0.6808 -0.1007  0.2266
  333MPD2    C1 4995   4.052   0.861  11.071 -0.0818 -0.1495  0.2256
  333MPD2    C2 4996   4.023   0.727  11.086 -1.1622  0.7611 -0.0557
  333MPD2    C3 4997   3.969   0.680  11.202  0.1276  0.6897  0.7112
  333MPD2    C4 4998   3.933   0.772  11.298 -0.4965  1.4057  1.1180
  333MPD2    C5 4999   3.945   0.906  11.278  0.9208  0.2722  0.2454
  333MPD2     H 5000   4.055   0.660  11.007 -0.8239  0.5683  0.2473
  333MPD2    H1 5001   3.911   0.741  11.400 -0.8926 -0.2274  0.5403
  333MPD2    H2 5002   4.016   1.058  11.148 -3.5297  0.2543 -0.5970
  333MPD2    H3 5003   3.936   0.968  11.366 -1.1625  0.5974 -0.1883
  333MPD2     N 5004   3.937   0.541  11.213 -0.1537  0.0629 -0.7003
  333MPD2    H5 5005   3.976   0.487  11.137  0.5103 -2.2656  1.2956
  333MPD2    N1 5006   4.136   0.921  10.971  0.5417 -0.2348  0.6051
  333MPD2    H7 5007   4.161   1.017  10.991  0.2989  0.1848 -1.0696
  334TMC3    C1 5008   4.298   0.943  10.781  1.1413  0.5129 -0.6316
  334TMC3    C2 5009   4.411   0.874  10.742 -0.0069 -0.0250 -0.4610
  334TMC3    C3 5010   4.513   0.950  10.687 -0.0845 -0.4630  0.5353
  334TMC3    C4 5011   4.277   1.078  10.775  0.1973 -0.0619  0.1236
  334TMC3    C5 5012   4.378   1.143  10.713  0.1553 -0.4927 -0.1422
  334TMC3    C6 5013   4.486   1.083  10.652 -0.3324  0.4703 -0.2341
  334TMC3     C 5014   4.194   0.866  10.855 -0.5509 -0.3237  0.1136
  334TMC3     O 5015   4.191   0.745  10.835 -0.6147 -0.2670  0.5193
  334TMC3     H 5016   4.412   0.767  10.758 -0.6101 -0.0909 -0.8642
  334TMC3    H1 5017   4.203   1.126  10.839 -0.4580  1.4250 -1.7658
  334TMC3    H2 5018   4.548   1.143  10.587 -1.6183  1.2627 -0.7398
  334TMC3    C7 5019   4.362   1.283  10.685 -1.1545  0.4220 -0.6311
  334TMC3    C8 5020   4.615   0.876  10.612  0.7267  0.4140 -0.3280
  334TMC3    O1 5021   4.467   1.345  10.668  0.2533  0.0544  0.6116
  334TMC3    O2 5022   4.600   0.757  10.603  0.2341 -0.0749  0.3971
  335TMC3    C1 5023   3.604   2.543  17.208  0.4178  0.6091  0.3914
  335TMC3    C2 5024   3.592   2.411  17.163 -0.6229 -0.2042 -0.3504
  335TMC3    C3 5025   3.673   2.366  17.062 -0.7597  0.1778  0.3651
  335TMC3    C4 5026   3.699   2.628  17.148  0.7001 -0.0288 -0.4541
  335TMC3    C5 5027   3.792   2.575  17.064 -0.1406  0.1932  0.1255
  335TMC3    C6 5028   3.779   2.445  17.017  0.0541  0.2804  0.4096
  335TMC3     C 5029   3.518   2.577  17.314  0.2042 -0.0175 -0.4483
  335TMC3     O 5030   3.410   2.518  17.308 -0.2170 -0.6346 -0.5390
  335TMC3     H 5031   3.523   2.343  17.212 -1.9546  1.3300 -0.0874
  335TMC3    H1 5032   3.692   2.735  17.166 -1.2399 -0.4004  1.0601
  335TMC3    H2 5033   3.872   2.401  16.983  1.2885  1.9089  1.6733
  335TMC3    C7 5034   3.918   2.646  17.026 -0.2236  0.7476  0.9638
  335TMC3    C8 5035   3.707   2.220  17.061  0.1554 -0.8406  0.3830
  335TMC3    O1 5036   3.974   2.597  16.932  0.4743  0.5929 -0.3586
  335TMC3    O2 5037   3.807   2.183  16.997 -0.1182 -0.6370 -0.2822
  336MPD2     C 5038   3.492   4.687  16.464  0.2528  0.1722  0.2678
  336MPD2    C1 5039   3.558   4.685  16.338 -0.1452  0.1189  0.2059
  336MPD2    C2 5040   3.640   4.578  16.297 -0.3739 -0.2332  0.0010
  336MPD2    C3 5041   3.644   4.468  16.376 -0.2710 -0.4931  0.4176
  336MPD2    C4 5042   3.584   4.469  16.496  0.2872 -0.5076  0.8780
  336MPD2    C5 5043   3.525   4.580  16.544  0.2113 -0.0669  1.2365
  336MPD2     H 5044   3.690   4.579  16.201  2.1300 -0.9319  1.2823
  336MPD2    H1 5045   3.596   4.384  16.562 -0.2269 -0.3392  1.1874
  336MPD2    H2 5046   3.424   0.041  16.502  0.6277 -0.2235  1.6907
  336MPD2    H3 5047   3.481   4.585  16.643 -0.1458 -1.0361  1.1199
  336MPD2     N 5048   3.693   4.344  16.328  0.2042 -0.4246  0.4251
  336MPD2    H5 5049   3.667   4.259  16.377  2.6407 -1.8023 -0.6770
  336MPD2    N1 5050   3.530   0.060  16.238 -0.3590  0.1064 -0.0880
  336MPD2    H7 5051   3.569   0.046  16.145  2.1623  0.5373  0.9123
  337TMC3    C1 5052   3.411   0.234  16.132 -0.7741  0.1606  0.1307
  337TMC3    C2 5053   3.275   0.248  16.125 -0.4867  0.2873 -0.5325
  337TMC3    C3 5054   3.217   0.249  16.005 -0.9493 -0.2789  0.1482
  337TMC3    C4 5055   3.481   0.235  16.019 -0.2346  0.6874  0.7467
  337TMC3    C5 5056   3.422   0.245  15.898 -0.2935  0.0250  0.2769
  337TMC3    C6 5057   3.281   0.254  15.879  0.0202 -0.1964 -1.4471
  337TMC3     C 5058   3.450   0.174  16.258  0.2583 -0.6551 -0.8545
  337TMC3     O 5059   3.387   0.217  16.359  0.0388 -0.5308  0.1496
  337TMC3     H 5060   3.213   0.239  16.213 -0.6345  0.8670 -0.5783
  337TMC3    H1 5061   3.589   0.225  16.031 -0.4641 -1.0979  1.3064
  337TMC3    H2 5062   3.232   0.257  15.783 -3.2006 -1.8205  0.1417
  337TMC3    C7 5063   3.506   0.234  15.777 -0.0278  0.1854 -0.2326
  337TMC3    C8 5064   3.075   0.250  16.004 -0.1431  0.3015 -0.8029
  337TMC3    O1 5065   3.595   0.154  15.776  0.0581 -0.7291  0.1381
  337TMC3    O2 5066   3.025   0.286  16.111  0.0764  0.0753  0.3448
  338MPD2     C 5067   4.179   4.446   1.047 -0.4259 -0.5955  0.3337
  338MPD2    C1 5068   4.103   4.475   0.933 -0.3906  0.0295 -0.1136
  338MPD2    C2 5069   4.004   4.565   0.952  0.2994 -0.2741  0.0701
  338MPD2    C3 5070   3.968   4.626   1.068 -0.0082  0.9743  0.8594
  338MPD2    C4 5071   4.051   4.608   1.176 -0.0851  0.1033  0.2114
  338MPD2    C5 5072   4.147   4.510   1.167 -0.3731  0.0336 -0.7109
  338MPD2     H 5073   3.944   4.602   0.869  0.9714  1.2540  0.2531
  338MPD2    H1 5074   4.032   4.652   1.274  1.7447  1.6359 -0.1231
  338MPD2    H2 5075   4.259   4.373   1.052 -0.8232 -1.0066  0.7087
  338MPD2    H3 5076   4.205   4.495   1.257  0.7323  0.0737 -1.4223
  338MPD2     N 5077   3.856   4.711   1.057 -0.2500  1.0219  0.0545
  338MPD2    H5 5078   3.823   0.000   0.962  0.4066  0.4069 -0.2401
  338MPD2    N1 5079   4.116   4.420   0.807  0.2057  0.1430  0.7434
  338MPD2    H7 5080   4.040   4.450   0.747 -0.2188 -2.6105 -0.0786
  339TMC3    C1 5081   3.677   0.135   1.082 -0.0814 -0.3883 -0.1787
  339TMC3    C2 5082   3.562   0.119   1.161  0.0103 -0.1242  0.7648
  339TMC3    C3 5083   3.449   0.096   1.093  0.2310 -0.7417 -1.0614
  339TMC3    C4 5084   3.674   0.120   0.947 -0.1706  0.2496  0.3084
  339TMC3    C5 5085   3.557   0.108   0.878  0.0877 -1.0205 -0.3059
  339TMC3    C6 5086   3.446   0.081   0.952 -0.3373 -0.1039 -0.0242
  339TMC3     C 5087   3.796   0.071   1.144  0.3236 -0.5157  0.0230
  339TMC3     O 5088   3.805   0.073   1.265  1.0313 -0.1459  0.3320
  339TMC3     H 5089   3.560   0.134   1.268  1.1196 -0.9264  0.8954
  339TMC3    H1 5090   3.764   0.143   0.890  0.9848  0.0576  2.0382
  339TMC3    H2 5091   3.359   0.045   0.898  0.2836 -0.4477 -0.8069
  339TMC3    C7 5092   3.575   0.022   0.768 -0.1360 -0.1355  0.5091
  339TMC3    C8 5093   3.334   0.045   1.161  0.0018  0.2097  0.2128
  339TMC3    O1 5094   3.666   4.660   0.785 -0.7685 -0.3502 -0.3907
  339TMC3    O2 5095   3.231   0.063   1.095 -0.3783 -0.8671  0.2223
  340MPD2     C 5096   3.212   1.204  10.222 -0.2768 -0.2194  0.3703
  340MPD2    C1 5097   3.330   1.163  10.151 -0.2558 -0.1031 -0.1372
  340MPD2    C2 5098   3.450   1.230  10.164 -0.2314  0.4306 -0.4566
  340MPD2    C3 5099   3.458   1.343  10.241 -0.0914  0.4749 -0.3798
  340MPD2    C4 5100   3.343   1.387  10.304 -0.3178  0.4733  0.1680
  340MPD2    C5 5101   3.229   1.307  10.303  0.2252 -0.0045  0.6980
  340MPD2     H 5102   3.536   1.190  10.111 -0.8679 -0.3041 -0.9339
  340MPD2    H1 5103   3.346   1.469  10.374 -2.2296 -0.0309  0.8353
  340MPD2    H2 5104   3.113   1.162  10.205  0.9194 -3.3230  0.9905
  340MPD2    H3 5105   3.143   1.336  10.363 -0.2282 -1.7388  0.8697
  340MPD2     N 5106   3.576   1.418  10.273  0.3555  0.1897 -1.0035
  340MPD2    H5 5107   3.561   1.502  10.328 -1.5861 -1.5557  1.1324
  340MPD2    N1 5108   3.316   1.046  10.079 -0.5775 -0.5268  0.3164
  340MPD2    H7 5109   3.227   0.999  10.076 -0.6993 -0.2469 -0.6928
  341TMC3    C1 5110   3.383   0.854   9.953  0.0299  0.2621  0.8684
  341TMC3    C2 5111   3.257   0.832   9.907  0.0458  0.8473  0.6599
  341TMC3    C3 5112   3.238   0.724   9.829  0.6660 -0.3136  0.6410
  341TMC3    C4 5113   3.488   0.759   9.933  0.3223  0.2736 -0.0809
  341TMC3    C5 5114   3.453   0.641   9.866  0.1520 -0.1454  0.3360
  341TMC3    C6 5115   3.328   0.624   9.812  0.2356 -0.1584 -0.0394
  341TMC3     C 5116   3.424   0.976  10.021 -0.5818 -1.0623 -0.3521
  341TMC3     O 5117   3.545   0.993  10.015  0.2468 -0.0101 -0.2207
  341TMC3     H 5118   3.174   0.897   9.932 -0.2161  0.7001  0.1842
  341TMC3    H1 5119   3.580   0.764   9.989  0.8928  0.2720 -1.0183
  341TMC3    H2 5120   3.317   0.542   9.742  1.1021  1.8885 -2.5783
  341TMC3    C7 5121   3.564   0.586   9.785 -1.1162  0.0287  0.1209
  341TMC3    C8 5122   3.124   0.716   9.742 -0.7705  0.3867  0.1712
  341TMC3    O1 5123   3.664   0.655   9.788 -0.2207  0.4958  0.7384
  341TMC3    O2 5124   3.070   0.609   9.740  0.2663  0.6343 -0.3487
  342MPD2     C 5125   1.645   0.016  17.135 -0.5666 -0.0109 -0.1638
  342MPD2    C1 5126   1.732   0.009  17.242  0.3474 -0.0085  0.1369
  342MPD2    C2 5127   1.743   0.115  17.324  0.8444  0.6841  0.3047
  342MPD2    C3 5128   1.648   0.216  17.315  0.8712  0.1055  0.3959
  342MPD2    C4 5129   1.557   0.220  17.215 -0.6793  0.4837  0.2792
  342MPD2    C5 5130   1.565   0.125  17.120 -0.4963  0.2920 -0.1359
  342MPD2     H 5131   1.817   0.113  17.403  0.5337 -0.5154  0.5667
  342MPD2    H1 5132   1.495   0.306  17.196  0.9795  1.2915 -1.5626
  342MPD2    H2 5133   1.635   4.665  17.055 -2.1234 -2.4852  2.2804
  342MPD2    H3 5134   1.512   0.144  17.027 -0.8357 -3.6239 -0.7503
  342MPD2     N 5135   1.656   0.323  17.401  0.0618  0.6153  0.2623
  342MPD2    H5 5136   1.596   0.404  17.390 -1.4110 -0.3220  1.4106
  342MPD2    N1 5137   1.827   4.619  17.247 -0.4707  0.2152 -0.0501
  342MPD2    H7 5138   1.884   4.619  17.331  1.7950  0.0375 -1.5889
  343TMC3    C1 5139   1.914   4.410  17.226  0.1281 -1.1276  0.1172
  343TMC3    C2 5140   2.036   4.454  17.267  0.6910  0.6932  0.6631
  343TMC3    C3 5141   2.110   4.360  17.339 -0.0097  1.1823 -0.9652
  343TMC3    C4 5142   1.867   4.280  17.238 -0.5200  0.2766  0.2735
  343TMC3    C5 5143   1.948   4.194  17.312 -0.2746 -0.3875  0.2010
  343TMC3    C6 5144   2.069   4.231  17.361 -0.3917  0.0410 -0.1666
  343TMC3     C 5145   1.827   4.509  17.165  0.0160  0.3006  0.3400
  343TMC3     O 5146   1.768   4.479  17.064 -0.0042 -0.0993  0.0260
  343TMC3     H 5147   2.088   4.542  17.230 -1.5211  1.4098 -0.7261
  343TMC3    H1 5148   1.769   4.253  17.202 -0.0662  3.4090 -3.3624
  343TMC3    H2 5149   2.127   4.170  17.428  0.6872  1.7936  0.4808
  343TMC3    C7 5150   1.871   4.089  17.373 -0.2931  0.3533 -0.0566
  343TMC3    C8 5151   2.250   4.384  17.330  0.5618  0.3500 -0.0170
  343TMC3    O1 5152   1.749   4.103  17.355  0.2778  0.3973  0.0512
  343TMC3    O2 5153   2.301   4.474  17.398  0.0039 -0.3193 -0.4101
  344MPD2     C 5154   2.373   4.318  10.382 -0.0105 -0.7891 -0.5662
  344MPD2    C1 5155   2.266   4.403  10.339 -1.0072 -0.2370  0.4332
  344MPD2    C2 5156   2.298   4.527  10.283  0.4103 -0.5901  0.2025
  344MPD2    C3 5157   2.428   4.573  10.266 -0.4292 -0.1880  0.2804
  344MPD2    C4 5158   2.527   4.492  10.317 -0.4869  0.0063  0.1916
  344MPD2    C5 5159   2.500   4.367  10.367  0.0194  0.5205  0.7859
  344MPD2     H 5160   2.216   4.593  10.257  0.1804 -0.1259  2.0691
  344MPD2    H1 5161   2.625   4.536  10.306  0.3264 -1.8089  0.1933
  344MPD2    H2 5162   2.363   4.225  10.437  0.0985  0.9551  2.4201
  344MPD2    H3 5163   2.587   4.309  10.397  0.6192  0.7557 -0.5288
  344MPD2     N 5164   2.468   4.698  10.206  0.2846  0.5458  0.0260
  344MPD2    H5 5165   2.566   0.005  10.206  0.3510  0.3144 -1.8609
  344MPD2    N1 5166   2.130   4.361  10.354 -0.0930  0.1170 -0.2562
  344MPD2    H7 5167   2.054   4.418  10.319  2.6591  3.3923 -0.9505
  345TMC3    C1 5168   2.464   0.182  10.101 -0.2307 -0.2150  0.2155
  345TMC3    C2 5169   2.581   0.214  10.163  0.6253  0.1951 -0.0126
  345TMC3    C3 5170   2.646   0.322  10.124 -0.4420 -0.2860 -0.5800
  345TMC3    C4 5171   2.407   0.259  10.003 -0.0858  0.4816 -0.0061
  345TMC3    C5 5172   2.479   0.368   9.961  0.2944  0.3543  0.1865
  345TMC3    C6 5173   2.592   0.411  10.037  0.0301  0.3446 -0.1804
  345TMC3     C 5174   2.387   0.063  10.140  0.1866  0.2517  0.4844
  345TMC3     O 5175   2.265   0.061  10.128 -0.0483  0.1741  0.0761
  345TMC3     H 5176   2.623   0.154  10.243  0.2823  1.4880  1.1397
  345TMC3    H1 5177   2.327   0.214   9.946 -0.5770 -0.3546  1.3442
  345TMC3    H2 5178   2.638   0.509  10.026 -1.0690  0.7760 -1.0078
  345TMC3    C7 5179   2.444   0.458   9.852  0.0074  0.1410 -0.3337
  345TMC3    C8 5180   2.756   0.353  10.208  0.3965 -0.1168 -0.6736
  345TMC3    O1 5181   2.499   0.569   9.861  0.0449  0.3487  0.0394
  345TMC3    O2 5182   2.740   0.341  10.329 -0.1384  0.0494  0.2747
  346MPD2     C 5183   2.769   1.216  13.968  0.0654  0.6100 -0.3566
  346MPD2    C1 5184   2.784   1.332  13.896  0.3911 -0.2467  0.1420
  346MPD2    C2 5185   2.848   1.442  13.948 -0.2613 -0.2699  0.0779
  346MPD2    C3 5186   2.882   1.445  14.077  0.4287  0.0031  0.0727
  346MPD2    C4 5187   2.868   1.329  14.154  0.5640  0.5815 -0.5571
  346MPD2    C5 5188   2.819   1.212  14.094  0.4329 -0.4732 -0.3749
  346MPD2     H 5189   2.871   1.530  13.890 -1.3728 -1.2813 -1.8976
  346MPD2    H1 5190   2.904   1.323  14.256  0.9836 -2.8507 -0.8995
  346MPD2    H2 5191   2.715   1.128  13.933  1.0117  0.0217 -0.3510
  346MPD2    H3 5192   2.806   1.125  14.158  0.8350  2.0859  3.1200
  346MPD2     N 5193   2.940   1.565  14.119  0.2707 -0.1900 -0.1099
  346MPD2    H5 5194   2.963   1.632  14.046 -0.7837  0.7159  0.3767
  346MPD2    N1 5195   2.725   1.352  13.766 -0.4419 -0.0312 -0.0735
  346MPD2    H7 5196   2.706   1.449  13.742  0.7511  0.6798  1.8714
  347TMC3    C1 5197   3.020   1.731  14.280  0.3299  0.1569  0.1311
  347TMC3    C2 5198   3.076   1.800  14.171 -0.3762 -0.1081  0.2222
  347TMC3    C3 5199   3.178   1.881  14.191  0.6819 -0.7170 -0.4313
  347TMC3    C4 5200   3.075   1.736  14.406 -0.3308 -0.0405  0.4758
  347TMC3    C5 5201   3.185   1.819  14.418  0.2520  0.3675  0.0876
  347TMC3    C6 5202   3.237   1.897  14.314 -0.4208 -0.2933  0.2129
  347TMC3     C 5203   2.961   1.596  14.250 -0.2752  0.6205 -0.0830
  347TMC3     O 5204   2.932   1.529  14.349  0.3552  0.4917  0.6083
  347TMC3     H 5205   3.024   1.800  14.076 -0.7247  2.2718  0.4128
  347TMC3    H1 5206   3.041   1.668  14.483  1.5737 -0.9527  0.4988
  347TMC3    H2 5207   3.321   1.965  14.316 -0.4636 -0.3213  2.7395
  347TMC3    C7 5208   3.260   1.811  14.545  0.6264  0.3314 -0.2632
  347TMC3    C8 5209   3.264   1.880  14.077  1.3591 -0.0293  0.0478
  347TMC3    O1 5210   3.216   1.741  14.636 -0.5072 -0.1355  0.7815
  347TMC3    O2 5211   3.229   1.817  13.977  0.0623  0.1729  0.1364
  348MPD2     C 5212   2.210   0.889  11.877 -0.2773 -0.3925 -0.6416
  348MPD2    C1 5213   2.084   0.897  11.827  0.5156 -0.6017 -0.1579
  348MPD2    C2 5214   2.051   0.996  11.735  0.1637 -0.3844  0.4501
  348MPD2    C3 5215   2.148   1.096  11.706  0.8328 -0.7982 -0.1751
  348MPD2    C4 5216   2.278   1.075  11.748  0.2273 -0.0296  0.1502
  348MPD2    C5 5217   2.305   0.974  11.834 -0.2643  0.6005 -0.6622
  348MPD2     H 5218   1.951   1.001  11.692  0.0164  0.0799  0.8403
  348MPD2    H1 5219   2.356   1.143  11.716  0.3885 -0.2788  0.0156
  348MPD2    H2 5220   2.228   0.807  11.947 -0.4499  0.8475  0.8686
  348MPD2    H3 5221   2.408   0.961  11.864 -1.3334 -2.6312  1.6635
  348MPD2     N 5222   2.100   1.197  11.621 -0.8003 -0.0574 -0.2078
  348MPD2    H5 5223   2.008   1.181  11.582 -0.3631 -1.9154 -0.5054
  348MPD2    N1 5224   1.981   0.809  11.863 -0.7111  0.0867 -0.1361
  348MPD2    H7 5225   1.888   0.844  11.839 -0.8102  1.6475  2.6361
  349TMC3    C1 5226   1.862   0.636  11.980 -0.1240  0.1479 -0.0603
  349TMC3    C2 5227   1.869   0.522  12.059  0.4089 -1.1096 -0.2393
  349TMC3    C3 5228   1.761   0.497  12.134  0.3343 -0.3956  0.0986
  349TMC3    C4 5229   1.754   0.715  11.969  0.1644  0.2922  0.3098
  349TMC3    C5 5230   1.650   0.685  12.045 -0.4195  0.0855 -0.6711
  349TMC3    C6 5231   1.652   0.578  12.129  0.5821  0.0392 -0.4139
  349TMC3     C 5232   1.990   0.686  11.933  0.3004 -0.6311 -0.5330
  349TMC3     O 5233   2.084   0.618  11.968 -0.3458  0.2741  0.5108
  349TMC3     H 5234   1.959   0.462  12.066  0.4956 -1.3050 -3.0425
  349TMC3    H1 5235   1.736   0.782  11.886  1.9180  2.0005  1.3101
  349TMC3    H2 5236   1.568   0.566  12.197  0.2945 -0.5736 -0.8742
  349TMC3    C7 5237   1.533   0.770  12.061 -0.1973  0.5566  0.3417
  349TMC3    C8 5238   1.747   0.376  12.208 -1.3622 -0.2512  0.5951
  349TMC3    O1 5239   1.423   0.715  12.071 -0.0097  0.1368 -0.7554
  349TMC3    O2 5240   1.661   0.368  12.296  0.2045 -0.1364  0.0258
  350MPD2     C 5241   0.443   3.544  10.921 -0.3989 -0.1050 -0.2454
  350MPD2    C1 5242   0.429   3.601  10.800 -0.7391  0.1801  0.5064
  350MPD2    C2 5243   0.415   3.737  10.793  0.2750 -0.3174 -0.1542
  350MPD2    C3 5244   0.400   3.817  10.905  0.2353 -0.0992  0.6969
  350MPD2    C4 5245   0.405   3.755  11.032  0.3415 -0.5243 -0.1809
  350MPD2    C5 5246   0.417   3.615  11.033  0.3337  0.5656 -0.4817
  350MPD2     H 5247   0.408   3.788  10.697  1.5298 -1.3847 -0.8223
  350MPD2    H1 5248   0.400   3.811  11.124  1.5568 -2.3184  0.9881
  350MPD2    H2 5249   0.459   3.437  10.930 -0.1469  0.1298  2.0313
  350MPD2    H3 5250   0.429   3.569  11.131  0.6823  1.1861 -0.2276
  350MPD2     N 5251   0.366   3.955  10.888  0.0399 -0.4929 -0.4806
  350MPD2    H5 5252   0.357   3.990  10.792 -0.0665 -0.0282 -0.3020
  350MPD2    N1 5253   0.465   3.536  10.673 -0.2804  0.9945  0.8933
  350MPD2    H7 5254   0.452   3.584  10.584  1.1519  0.2305  0.2634
  351TMC3    C1 5255   0.549   3.369  10.527  0.9296  0.8964  0.3794
  351TMC3    C2 5256   0.595   3.242  10.519  0.7946  0.4533 -0.6000
  351TMC3    C3 5257   0.640   3.199  10.397  0.0347 -0.4573  0.0475
  351TMC3    C4 5258   0.549   3.450  10.424  0.7183  0.4381 -0.0224
  351TMC3    C5 5259   0.591   3.403  10.301  0.1734  0.3181 -0.2859
  351TMC3    C6 5260   0.640   3.278  10.286 -1.2076 -0.0243 -0.0050
  351TMC3     C 5261   0.511   3.408  10.656  0.5042  0.5671  0.0930
  351TMC3     O 5262   0.513   3.323  10.742  0.1634 -0.8432 -0.0083
  351TMC3     H 5263   0.602   3.168  10.597 -1.4428  0.8856  0.0053
  351TMC3    H1 5264   0.495   3.543  10.434 -0.6397 -0.1467 -1.8980
  351TMC3    H2 5265   0.697   3.253  10.198  1.7431 -1.1493  2.2188
  351TMC3    C7 5266   0.626   3.497  10.196  0.4720 -0.8177 -0.6525
  351TMC3    C8 5267   0.735   3.091  10.390 -0.1232  0.1752  0.0023
  351TMC3    O1 5268   0.699   3.457  10.108  0.0784  0.1532 -0.2348
  351TMC3    O2 5269   0.819   3.107  10.303 -0.3680 -0.2713  0.3449
  352MPD2     C 5270   3.584   1.850   1.238 -0.2476 -0.6804  0.2434
  352MPD2    C1 5271   3.490   1.780   1.166  0.6347 -0.5385 -0.0686
  352MPD2    C2 5272   3.488   1.644   1.196  1.1235  0.6759  0.1163
  352MPD2    C3 5273   3.578   1.577   1.284  0.1472 -0.2769  0.0847
  352MPD2    C4 5274   3.671   1.654   1.352  0.8797  0.6007  0.2180
  352MPD2    C5 5275   3.668   1.789   1.331  0.1880  0.2459 -0.1412
  352MPD2     H 5276   3.422   1.580   1.139  2.2402 -1.0756  0.7851
  352MPD2    H1 5277   3.730   1.606   1.429  0.7445 -0.4377 -0.3136
  352MPD2    H2 5278   3.587   1.958   1.224  2.1174 -0.7595  0.0637
  352MPD2    H3 5279   3.742   1.843   1.388 -0.7539  0.6482  0.6966
  352MPD2     N 5280   3.585   1.432   1.302  0.2982  0.9136  0.7021
  352MPD2    H5 5281   3.658   1.399   1.363 -1.8015 -1.0285  2.1563
  352MPD2    N1 5282   3.425   1.844   1.060 -1.0602 -0.1236  0.2048
  352MPD2    H7 5283   3.462   1.931   1.022  0.2247 -0.8749 -0.3006
  353TMC3    C1 5284   3.551   1.212   1.277  0.6542 -0.3428 -0.2308
  353TMC3    C2 5285   3.682   1.192   1.311  0.2014 -0.5720 -0.0629
  353TMC3    C3 5286   3.742   1.075   1.273  0.5191  0.8631  0.3930
  353TMC3    C4 5287   3.486   1.109   1.212 -0.5935 -0.0850  1.0064
  353TMC3    C5 5288   3.551   0.997   1.174 -0.3742 -0.2897 -0.2788
  353TMC3    C6 5289   3.678   0.972   1.207 -0.0599  0.3655  0.5646
  353TMC3     C 5290   3.499   1.339   1.243 -0.0604  0.4914  0.4145
  353TMC3     O 5291   3.400   1.364   1.171 -0.2976  0.0998  0.3355
  353TMC3     H 5292   3.738   1.260   1.373  0.8310 -0.1662 -1.0714
  353TMC3    H1 5293   3.384   1.127   1.181 -0.6196 -2.6048 -0.2962
  353TMC3    H2 5294   3.725   0.883   1.165  2.2004  2.3605 -1.1088
  353TMC3    C7 5295   3.499   0.898   1.081  0.0531 -0.2544 -0.0821
  353TMC3    C8 5296   3.875   1.041   1.324 -0.6324  0.1905  0.4583
  353TMC3    O1 5297   3.570   0.821   1.023  0.2597  0.2834 -0.2770
  353TMC3    O2 5298   3.941   1.135   1.370  0.2628 -0.2974 -0.5641
  354TMC3    C1 5299   0.749   2.459  13.283  0.4388  0.7295  0.7711
  354TMC3    C2 5300   0.759   2.597  13.313  0.4493 -0.4704  0.3262
  354TMC3    C3 5301   0.812   2.670  13.212  0.0293 -0.7312 -0.0242
  354TMC3    C4 5302   0.783   2.402  13.161  0.0023 -0.1434  0.6397
  354TMC3    C5 5303   0.852   2.477  13.068 -0.3494  0.0529 -0.2883
  354TMC3    C6 5304   0.863   2.614  13.097  0.4826  0.8888  0.5779
  354TMC3     C 5305   0.699   2.368  13.386 -0.7053 -0.4755 -0.1622
  354TMC3     O 5306   0.622   2.277  13.355 -0.3158 -0.1249 -0.0319
  354TMC3     H 5307   0.739   2.635  13.412  4.1734  0.8075  0.5592
  354TMC3    H1 5308   0.781   2.294  13.160  2.5156 -0.1748  0.5596
  354TMC3    H2 5309   0.913   2.675  13.024  2.5455 -1.0141  0.4024
  354TMC3    C7 5310   0.923   2.409  12.956 -0.0450  0.3409 -0.3716
  354TMC3    C8 5311   0.816   2.815  13.217  0.0287 -0.0604  0.1118
  354TMC3    O1 5312   0.899   2.289  12.950 -0.4920  0.2452  0.3975
  354TMC3    O2 5313   0.805   2.867  13.330  0.5304 -0.1928 -0.3080
  355MPD2     C 5314   0.772   2.896  11.989  0.1367  0.0303  0.0986
  355MPD2    C1 5315   0.775   2.985  11.886  0.2749  0.0606  0.1563
  355MPD2    C2 5316   0.895   3.010  11.822  0.3442 -0.0633  0.0780
  355MPD2    C3 5317   1.014   2.966  11.875 -0.0481 -0.0197  0.2509
  355MPD2    C4 5318   1.015   2.886  11.987  0.2677  0.3072 -0.5978
  355MPD2    C5 5319   0.890   2.850  12.040 -0.3008 -0.6414  0.2660
  355MPD2     H 5320   0.896   3.080  11.740  0.5803  0.8266  0.8367
  355MPD2    H1 5321   1.108   2.849  12.029 -0.6917 -1.2173  0.1695
  355MPD2    H2 5322   0.684   2.881  12.051  0.7585 -0.2530  0.9117
  355MPD2    H3 5323   0.899   2.790  12.130  0.6238  0.4423  0.8914
  355MPD2     N 5324   1.135   3.004  11.825 -1.2349  1.0354  0.0056
  355MPD2    H5 5325   1.204   2.958  11.884 -1.4570  2.2724  1.2369
  355MPD2    N1 5326   0.658   3.058  11.848  0.7638 -0.5342  0.2165
  355MPD2    H7 5327   0.569   3.013  11.868  0.2730 -0.2154 -1.2841
  356TMC3    C1 5328   1.274   3.145  11.729  0.0473  0.1125 -0.2468
  356TMC3    C2 5329   1.274   3.256  11.647  0.6167  0.7475  0.5152
  356TMC3    C3 5330   1.331   3.371  11.693 -0.2583 -0.2074  0.4441
  356TMC3    C4 5331   1.322   3.157  11.858  0.4358  0.1983 -0.4349
  356TMC3    C5 5332   1.381   3.273  11.905  0.2092  0.4351  0.4743
  356TMC3    C6 5333   1.389   3.378  11.818 -0.0561  1.0651  0.6238
  356TMC3     C 5334   1.161   3.061  11.707  0.1720 -0.2867 -0.4222
  356TMC3     O 5335   1.086   3.089  11.611  0.2783  0.1291  0.3483
  356TMC3     H 5336   1.215   3.257  11.556 -0.6248  0.0458  1.3161
  356TMC3    H1 5337   1.334   3.074  11.927 -0.0895  0.8750  0.4599
  356TMC3    H2 5338   1.453   3.462  11.843  0.8785  0.5319 -0.0091
  356TMC3    C7 5339   1.456   3.270  12.034 -0.1394  0.8806 -0.3280
  356TMC3    C8 5340   1.331   3.483  11.602  0.0361  0.0926 -0.0413
  356TMC3    O1 5341   1.469   3.159  12.081  0.4397  0.1678 -0.1085
  356TMC3    O2 5342   1.335   3.456  11.483  0.3606 -0.4459 -0.2467
  357MPD2     C 5343   1.056   3.318   1.179 -0.0027 -0.1637  0.5881
  357MPD2    C1 5344   1.043   3.194   1.232 -0.9684 -0.2982  0.4738
  357MPD2    C2 5345   0.951   3.173   1.335 -0.5642  0.8356 -0.2518
  357MPD2    C3 5346   0.872   3.280   1.376  0.4000  0.0227  0.1755
  357MPD2    C4 5347   0.881   3.401   1.317 -0.2410  0.5882 -0.0070
  357MPD2    C5 5348   0.969   3.419   1.216 -0.4740  0.1485 -0.1471
  357MPD2     H 5349   0.936   3.073   1.374 -2.8842  0.1382 -2.9372
  357MPD2    H1 5350   0.815   3.485   1.337  0.2111  0.4759  1.9833
  357MPD2    H2 5351   1.123   3.335   1.096  0.7516  0.1551  1.2655
  357MPD2    H3 5352   0.974   3.512   1.160 -3.0623 -1.0620 -2.3774
  357MPD2     N 5353   0.766   3.270   1.463 -0.5495  0.2785  0.4265
  357MPD2    H5 5354   0.704   3.349   1.473 -1.1059  0.1396 -2.0096
  357MPD2    N1 5355   1.135   3.090   1.189 -0.0972  0.2499  0.0067
  357MPD2    H7 5356   1.185   3.113   1.103 -0.0506 -2.1993 -0.6182
  358TMC3    C1 5357   1.211   2.862   1.168 -0.2014  0.3426  0.2161
  358TMC3    C2 5358   1.183   2.861   1.032  0.2443  0.4055 -0.3405
  358TMC3    C3 5359   1.239   2.759   0.960 -0.4135 -0.3080 -0.1720
  358TMC3    C4 5360   1.267   2.753   1.233 -0.4471 -0.7439  0.1896
  358TMC3    C5 5361   1.330   2.670   1.152 -0.1251  0.9924 -0.3411
  358TMC3    C6 5362   1.317   2.667   1.018 -0.5332  0.8760  0.4197
  358TMC3     C 5363   1.152   2.965   1.251 -0.0870 -0.2891 -0.2784
  358TMC3     O 5364   1.114   2.932   1.365 -0.4134  0.3737 -0.1222
  358TMC3     H 5365   1.117   2.930   0.981  0.3967 -0.9676 -2.4158
  358TMC3    H1 5366   1.298   2.761   1.337  1.0742 -0.5833 -0.2806
  358TMC3    H2 5367   1.369   2.596   0.954 -2.3949 -0.1172  0.0158
  358TMC3    C7 5368   1.375   2.544   1.204  0.1241  0.1109 -0.0438
  358TMC3    C8 5369   1.193   2.739   0.824 -0.1377 -0.2223 -0.9810
  358TMC3    O1 5370   1.447   2.475   1.137  0.2518 -0.0777 -0.2692
  358TMC3    O2 5371   1.161   2.846   0.769 -0.1738 -0.3220  0.5871
  359MPD2     C 5372   1.334   2.231  12.282  0.7722  0.1530  0.3937
  359MPD2    C1 5373   1.410   2.114  12.304  0.3433 -0.4710  0.2235
  359MPD2    C2 5374   1.349   1.998  12.352 -0.2384  0.3602  0.0047
  359MPD2    C3 5375   1.215   2.009  12.384 -0.2721  0.0371  0.4245
  359MPD2    C4 5376   1.141   2.121  12.344  0.3874  0.6269  0.0316
  359MPD2    C5 5377   1.198   2.230  12.293  0.3119  0.0505 -0.0846
  359MPD2     H 5378   1.399   1.904  12.371 -0.3198  0.4172  0.5018
  359MPD2    H1 5379   1.033   2.127  12.355  0.3146  0.9094 -0.7959
  359MPD2    H2 5380   1.379   2.322  12.244  0.7126  1.4747  3.5018
  359MPD2    H3 5381   1.135   2.314  12.267 -0.4600 -0.6455 -0.4729
  359MPD2     N 5382   1.146   1.897  12.426 -0.1346 -0.1268 -0.0815
  359MPD2    H5 5383   1.045   1.905  12.429 -0.1015  0.4024 -0.4688
  359MPD2    N1 5384   1.543   2.098  12.273  0.4927  0.2028 -0.5301
  359MPD2    H7 5385   1.573   2.002  12.287  3.7653  1.4058  0.7940
  360TMC3    C1 5386   1.752   2.154  12.173  0.3257  0.1602 -0.3116
  360TMC3    C2 5387   1.842   2.245  12.123 -0.0473  0.1101  0.1487
  360TMC3    C3 5388   1.918   2.206  12.025 -0.6167  0.0399  0.7612
  360TMC3    C4 5389   1.750   2.027  12.124  0.1469 -0.7440 -0.3003
  360TMC3    C5 5390   1.820   2.002  12.007  0.1098 -0.2355 -0.2590
  360TMC3    C6 5391   1.911   2.088  11.964  0.2184  0.1171 -0.1403
  360TMC3     C 5392   1.632   2.195  12.232 -0.1345  0.2200 -0.3772
  360TMC3     O 5393   1.613   2.317  12.230 -0.5977 -0.1364  0.4250
  360TMC3     H 5394   1.843   2.349  12.155  0.2683 -0.2595  1.3594
  360TMC3    H1 5395   1.691   1.944  12.161 -0.0287 -0.8072 -0.7257
  360TMC3    H2 5396   1.952   2.084  11.864  1.3267  0.5025  0.2982
  360TMC3    C7 5397   1.747   1.926  11.909 -0.1367 -0.3117  0.8451
  360TMC3    C8 5398   2.006   2.307  11.974 -0.1032 -0.2996 -0.3060
  360TMC3    O1 5399   1.627   1.912  11.924  0.0326  0.3146  0.0236
  360TMC3    O2 5400   1.988   2.425  11.995 -0.1775  0.3113  0.4991
  361MPD2     C 5401   2.394   0.897  16.540 -0.0537 -1.0148  0.3382
  361MPD2    C1 5402   2.396   0.939  16.674 -0.4945 -0.2776  0.5792
  361MPD2    C2 5403   2.505   0.912  16.749 -0.4815 -0.0457  0.0013
  361MPD2    C3 5404   2.614   0.842  16.699 -0.4092  0.1982 -0.1755
  361MPD2    C4 5405   2.605   0.794  16.569  0.3343  0.9677  0.4307
  361MPD2    C5 5406   2.493   0.817  16.493  0.5423 -0.4806 -0.0901
  361MPD2     H 5407   2.518   0.950  16.850 -0.7477  1.1906 -0.4301
  361MPD2    H1 5408   2.686   0.740  16.522  0.0025 -0.8329  1.9203
  361MPD2    H2 5409   2.302   0.922  16.488  0.7315 -0.7221 -0.9125
  361MPD2    H3 5410   2.490   0.767  16.397 -1.6821  2.2263 -1.4289
  361MPD2     N 5411   2.736   0.827  16.765  0.9847 -0.2020 -0.5458
  361MPD2    H5 5412   2.809   0.771  16.721  1.3478 -0.9989  1.0552
  361MPD2    N1 5413   2.292   1.019  16.728  0.6961 -0.2168 -1.1249
  361MPD2    H7 5414   2.310   1.039  16.826  3.8782  1.7838 -2.1316
  362TMC3    C1 5415   2.099   1.168  16.726  0.6672  0.2462 -0.0733
  362TMC3    C2 5416   2.116   1.195  16.858 -0.0164  0.2541  0.4458
  362TMC3    C3 5417   2.044   1.299  16.904  0.3458  0.6172  0.3404
  362TMC3    C4 5418   2.017   1.234  16.637 -0.7549 -0.5818  0.0068
  362TMC3    C5 5419   1.941   1.334  16.699 -0.0319 -0.8528  0.2341
  362TMC3    C6 5420   1.957   1.369  16.832 -0.7736  0.4632 -0.3536
  362TMC3     C 5421   2.172   1.052  16.663  0.5554 -0.1019  0.3595
  362TMC3     O 5422   2.124   1.000  16.568  0.1308  0.3355  0.0254
  362TMC3     H 5423   2.178   1.128  16.917  0.5591  1.8737  1.6780
  362TMC3    H1 5424   2.003   1.210  16.532  1.4836 -0.3989 -0.3356
  362TMC3    H2 5425   1.899   1.451  16.872 -1.0413 -0.1850  0.5785
  362TMC3    C7 5426   1.881   1.429  16.603  0.0581  0.6553 -0.1961
  362TMC3    C8 5427   2.059   1.324  17.047 -0.9301  0.3679  0.8955
  362TMC3    O1 5428   1.908   1.412  16.485  0.5168  0.2324  0.3471
  362TMC3    O2 5429   2.165   1.297  17.100 -0.0435 -0.2148 -0.1529
  363TMC3    C1 5430   1.555   3.313   9.805  0.5020 -0.4750 -0.1077
  363TMC3    C2 5431   1.520   3.194   9.874  0.1252 -0.3608 -0.9550
  363TMC3    C3 5432   1.422   3.211   9.966  0.0376  0.2617  0.1529
  363TMC3    C4 5433   1.487   3.436   9.822 -0.1502 -0.1229  0.5150
  363TMC3    C5 5434   1.385   3.443   9.913  0.2154  0.2883  0.4196
  363TMC3    C6 5435   1.352   3.327   9.989  0.3548 -0.2064 -0.4117
  363TMC3     C 5436   1.645   3.317   9.693  0.4437  0.2888  0.2590
  363TMC3     O 5437   1.690   3.422   9.653 -0.7416 -0.4009  0.4372
  363TMC3     H 5438   1.595   3.117   9.880  0.2071 -0.1765  0.4209
  363TMC3    H1 5439   1.497   3.520   9.755 -0.9566  0.2958  0.9173
  363TMC3    H2 5440   1.264   3.324  10.052 -0.5625  1.2170 -1.6307
  363TMC3    C7 5441   1.343   3.571   9.955  0.3120  0.6770 -0.1391
  363TMC3    C8 5442   1.382   3.087  10.036  0.3980  0.0149 -0.6766
  363TMC3    O1 5443   1.412   3.666   9.914 -0.2166  0.2393 -0.1268
  363TMC3    O2 5444   1.300   3.093  10.131 -0.2300 -0.0994  0.1769
  364MPD2     C 5445   0.091   2.534  10.283  0.0867  0.5400 -0.0430
  364MPD2    C1 5446   0.212   2.514  10.222 -0.8898 -0.8715  0.0399
  364MPD2    C2 5447   0.293   2.404  10.258 -0.0919 -0.3973  0.2836
  364MPD2    C3 5448   0.250   2.328  10.368 -0.2797 -0.0981  0.5561
  364MPD2    C4 5449   0.139   2.360  10.441 -0.3154  0.3835 -0.8591
  364MPD2    C5 5450   0.059   2.458  10.389  0.0278  0.1235  0.2649
  364MPD2     H 5451   0.377   2.373  10.197 -0.8199  0.4340 -1.1365
  364MPD2    H1 5452   0.103   2.312  10.531  0.4687  0.4511 -0.5153
  364MPD2    H2 5453   0.019   2.610  10.256 -1.2726 -1.6362 -2.6049
  364MPD2    H3 5454   4.687   2.480  10.441 -1.1592 -2.2704 -0.8416
  364MPD2     N 5455   0.326   2.223  10.427  0.4632 -0.1244  0.4137
  364MPD2    H5 5456   0.275   2.169  10.497 -0.2416  0.9680  0.7523
  364MPD2    N1 5457   0.241   2.601  10.112  0.1062  0.1101 -0.1548
  364MPD2    H7 5458   0.170   2.672  10.101  0.3416  0.2037 -1.0350
  365TMC3    C1 5459   0.344   2.698   9.931  0.3658 -0.3969 -0.3256
  365TMC3    C2 5460   0.429   2.679   9.834 -0.5778  0.3725  0.1299
  365TMC3    C3 5461   0.495   2.787   9.778  0.2900 -0.0622  0.1430
  365TMC3    C4 5462   0.319   2.828   9.971 -0.0737  0.6040 -0.0820
  365TMC3    C5 5463   0.380   2.940   9.913  0.3966 -0.0887 -0.3744
  365TMC3    C6 5464   0.472   2.919   9.809  0.2555  0.1660  0.5520
  365TMC3     C 5465   0.341   2.584  10.022  0.3699 -0.1285 -0.0394
  365TMC3     O 5466   0.432   2.499  10.019 -0.3468 -0.1368 -0.3313
  365TMC3     H 5467   0.442   2.578   9.796 -1.7451  0.4426 -0.4395
  365TMC3    H1 5468   0.255   2.844  10.057  1.5460  1.1459  1.0264
  365TMC3    H2 5469   0.538   2.994   9.766  1.0394 -0.6335  0.3477
  365TMC3    C7 5470   0.370   3.068   9.979  0.7211 -0.2168  0.5182
  365TMC3    C8 5471   0.627   2.760   9.736 -0.3369 -0.1899  0.7796
  365TMC3    O1 5472   0.414   3.163   9.920  0.3865  0.1058 -0.5716
  365TMC3    O2 5473   0.684   2.830   9.655  0.7837 -0.7225 -0.3231
  366MPD2     C 5474   3.269   3.473  15.275 -0.4451 -0.5423  0.4270
  366MPD2    C1 5475   3.344   3.575  15.215 -0.0601  0.6272 -0.0849
  366MPD2    C2 5476   3.462   3.545  15.158 -0.0474  0.1977 -0.8376
  366MPD2    C3 5477   3.505   3.419  15.172 -0.1522 -0.4793  1.0993
  366MPD2    C4 5478   3.438   3.319  15.237 -0.0632 -0.3363 -0.4106
  366MPD2    C5 5479   3.317   3.341  15.287 -0.0481 -0.3986  0.0785
  366MPD2     H 5480   3.514   3.623  15.103  3.1608  0.1556  2.1561
  366MPD2    H1 5481   3.479   3.219  15.249  1.7381  0.8075  3.0279
  366MPD2    H2 5482   3.178   3.496  15.329  0.5029  2.8363  0.6390
  366MPD2    H3 5483   3.275   3.266  15.354  3.4681 -0.1225  2.5948
  366MPD2     N 5484   3.637   3.399  15.125  0.3359 -0.3093  0.2044
  366MPD2    H5 5485   3.685   3.482  15.090 -3.0320  0.7473 -1.8800
  366MPD2    N1 5486   3.307   3.709  15.217 -0.4290  0.0863  0.4473
  366MPD2    H7 5487   3.378   3.772  15.182  0.7868 -1.8219 -0.5051
  367TMC3    C1 5488   3.182   3.901  15.265  0.4823  0.2903  0.3938
  367TMC3    C2 5489   3.299   3.961  15.306  0.4214  0.2753 -0.3255
  367TMC3    C3 5490   3.296   4.091  15.340 -0.2315 -0.2610  0.2077
  367TMC3    C4 5491   3.060   3.967  15.265  0.2809 -0.1765 -0.4637
  367TMC3    C5 5492   3.059   4.098  15.312  0.1947 -0.4010  0.0027
  367TMC3    C6 5493   3.179   4.162  15.339  0.9273  0.1440  0.8336
  367TMC3     C 5494   3.177   3.757  15.229  0.5846  0.3128  0.3853
  367TMC3     O 5495   3.069   3.701  15.229  0.4860 -0.3374  0.2295
  367TMC3     H 5496   3.393   3.907  15.314  0.6147  0.7448  0.5970
  367TMC3    H1 5497   2.978   3.901  15.239  1.4896 -2.2307  1.0043
  367TMC3    H2 5498   3.171   4.264  15.375  0.5556 -0.0704  1.3506
  367TMC3    C7 5499   2.941   4.179  15.284 -0.4871 -0.2349  0.1295
  367TMC3    C8 5500   3.407   4.155  15.409  0.6877 -0.0398 -0.1971
  367TMC3    O1 5501   2.964   4.301  15.282 -0.1194  0.1199  0.0050
  367TMC3    O2 5502   3.512   4.092  15.421  0.2302  0.0494 -0.0005
  368MPD2     C 5503   4.239   1.125  13.139  0.6367 -0.6870 -0.0884
  368MPD2    C1 5504   4.228   1.227  13.043  0.1047 -0.0580 -0.3837
  368MPD2    C2 5505   4.335   1.287  12.982 -0.8157  0.6860  0.4779
  368MPD2    C3 5506   4.459   1.248  13.013  0.5690  0.2972 -0.3512
  368MPD2    C4 5507   4.475   1.151  13.107  0.0063 -0.0543 -0.3939
  368MPD2    C5 5508   4.371   1.085  13.162 -0.4027  0.8538 -0.2831
  368MPD2     H 5509   4.313   1.359  12.904  1.1237 -0.6508 -1.2977
  368MPD2    H1 5510   4.574   1.136  13.149 -0.7458  1.2602  1.8522
  368MPD2    H2 5511   4.161   1.063  13.182 -1.6287  2.8828  0.8938
  368MPD2    H3 5512   4.384   1.019  13.247  0.5322  1.9802  0.4367
  368MPD2     N 5513   4.576   1.326  12.979  0.6505 -0.3782  0.2491
  368MPD2    H5 5514   4.664   1.293  13.018  1.2561  1.0717  0.1022
  368MPD2    N1 5515   4.091   1.256  13.010 -0.5247 -0.3529 -0.1491
  368MPD2    H7 5516   4.034   1.176  13.033 -3.0957  1.2430 -0.9413
  369TMC3    C1 5517   3.906   1.379  12.926 -0.1450  0.0460  0.3113
  369TMC3    C2 5518   3.860   1.474  12.839 -0.3558  0.2857  0.7785
  369TMC3    C3 5519   3.729   1.480  12.807 -0.6295 -0.5706 -0.0791
  369TMC3    C4 5520   3.821   1.274  12.965  0.1616 -0.3149  0.4054
  369TMC3    C5 5521   3.693   1.283  12.923  0.6286  0.1935  0.4534
  369TMC3    C6 5522   3.643   1.387  12.851  0.7276  0.4264  0.9136
  369TMC3     C 5523   4.054   1.370  12.948  0.3846  0.5443 -0.2247
  369TMC3     O 5524   4.121   1.469  12.934  0.0633 -1.0684 -0.3573
  369TMC3     H 5525   3.932   1.547  12.806  0.0380 -0.0025  1.0023
  369TMC3    H1 5526   3.838   1.187  13.028  2.3823  0.0837  0.3667
  369TMC3    H2 5527   3.538   1.400  12.826  0.6979 -1.3955  0.0738
  369TMC3    C7 5528   3.596   1.192  12.974 -0.0281 -0.0855  0.3384
  369TMC3    C8 5529   3.691   1.562  12.700  0.2421 -0.1707 -0.1475
  369TMC3    O1 5530   3.616   1.159  13.091 -0.2030 -0.4257 -0.6107
  369TMC3    O2 5531   3.573   1.598  12.689  0.0770 -0.0653  0.5581
  370TMC3    C1 5532   3.952   1.497  16.324  0.5542  0.1842  0.7272
  370TMC3    C2 5533   3.880   1.474  16.440 -0.6202 -0.8475 -0.3186
  370TMC3    C3 5534   3.792   1.364  16.435  0.7623 -0.5154 -0.3159
  370TMC3    C4 5535   3.932   1.428  16.203 -0.0053  0.2623 -0.4033
  370TMC3    C5 5536   3.836   1.324  16.205  0.1749  0.0558  0.1267
  370TMC3    C6 5537   3.767   1.293  16.319 -0.3411  0.0480 -0.0361
  370TMC3     C 5538   4.079   1.557  16.344 -0.7103 -0.0876 -0.1604
  370TMC3     O 5539   4.109   1.558  16.463  0.2154  0.1445  0.5021
  370TMC3     H 5540   3.891   1.535  16.529  1.4134  2.2532 -2.7137
  370TMC3    H1 5541   3.996   1.447  16.118  0.7698  1.6537  0.5008
  370TMC3    H2 5542   3.693   1.214  16.313  1.1591 -1.3340 -0.4134
  370TMC3    C7 5543   3.853   1.226  16.100 -0.8669 -0.4011 -0.2542
  370TMC3    C8 5544   3.768   1.289  16.562 -0.0525 -0.0248 -0.1329
  370TMC3    O1 5545   3.907   1.272  16.004 -0.5645 -0.1189 -0.0661
  370TMC3    O2 5546   3.733   1.173  16.550 -0.7403 -0.4326  0.3460
  371TMC3    C1 5547   0.379   4.526  15.645 -0.6399  0.8557  0.0596
  371TMC3    C2 5548   0.260   4.494  15.695 -0.3577  0.1698  0.1337
  371TMC3    C3 5549   0.179   4.588  15.744  0.0877 -0.1721 -0.3727
  371TMC3    C4 5550   0.416   4.660  15.632 -0.3690  0.0205 -0.5846
  371TMC3    C5 5551   0.335   0.034  15.683 -0.2399 -0.0730 -0.2366
  371TMC3    C6 5552   0.214   0.004  15.738  0.2695 -0.2066  0.0323
  371TMC3     C 5553   0.475   4.428  15.607  0.0801 -0.6178 -0.6243
  371TMC3     O 5554   0.568   4.471  15.537  0.1221  0.0085 -0.2953
  371TMC3     H 5555   0.224   4.393  15.679  1.3907  0.1100 -3.3065
  371TMC3    H1 5556   0.513   4.685  15.592 -0.7008  1.7325 -0.3027
  371TMC3    H2 5557   0.141   0.074  15.777  1.6353  1.0370  0.3409
  371TMC3    C7 5558   0.376   0.173  15.689 -0.6307  0.4309  0.0409
  371TMC3    C8 5559   0.077   4.544  15.837  0.1793 -0.1099  0.4011
  371TMC3    O1 5560   0.298   0.266  15.672 -0.7118 -0.5197 -0.3997
  371TMC3    O2 5561   0.088   4.432  15.885  0.3556  0.1505 -0.0070
  372MPD2     C 5562   4.072   1.264  13.618  0.1307 -1.0554  0.4295
  372MPD2    C1 5563   4.206   1.219  13.621 -0.9189 -0.4545 -0.4357
  372MPD2    C2 5564   4.241   1.137  13.728 -0.5050 -0.1748 -0.9508
  372MPD2    C3 5565   4.139   1.088  13.806  0.0511 -0.1752 -0.0903
  372MPD2    C4 5566   4.007   1.129  13.793  0.0330 -0.0231 -0.2368
  372MPD2    C5 5567   3.967   1.210  13.693 -0.6835 -0.5637 -0.2021
  372MPD2     H 5568   4.343   1.113  13.752 -1.8927 -2.8054  2.2646
  372MPD2    H1 5569   3.927   1.083  13.848 -0.0645 -0.1137 -0.4519
  372MPD2    H2 5570   4.036   1.337  13.546  1.7858 -1.4054 -0.7480
  372MPD2    H3 5571   3.865   1.237  13.669 -0.9882 -1.3340  0.2082
  372MPD2     N 5572   4.181   1.004  13.917  0.6370  0.1096  0.0491
  372MPD2    H5 5573   4.276   0.968  13.919  0.8803  0.6364 -2.4465
  372MPD2    N1 5574   4.302   1.282  13.532  0.2409  0.2486 -0.4348
  372MPD2    H7 5575   4.401   1.273  13.557 -0.1558  5.9115  3.2028
  373TMC3    C1 5576   4.151   0.871  14.098 -0.4456  0.5101 -0.6526
  373TMC3    C2 5577   4.198   0.908  14.214  0.3078 -0.1193  1.0796
  373TMC3    C3 5578   4.282   0.822  14.278  1.0294  0.0242 -0.0283
  373TMC3    C4 5579   4.202   0.759  14.035  0.5445 -0.6611  0.4721
  373TMC3    C5 5580   4.269   0.662  14.111 -0.2841 -0.9933 -0.8794
  373TMC3    C6 5581   4.319   0.697  14.230  0.5485 -0.2427 -0.3215
  373TMC3     C 5582   4.092   0.970  14.020 -0.6685 -0.6162  1.1699
  373TMC3     O 5583   3.989   1.021  14.061  0.0194 -0.0436  0.3373
  373TMC3     H 5584   4.172   1.008  14.249 -1.8476 -0.1618 -0.3488
  373TMC3    H1 5585   4.176   0.739  13.932  0.8573  0.1265  0.2334
  373TMC3    H2 5586   4.388   0.644  14.295 -1.2615 -1.1651  0.8505
  373TMC3    C7 5587   4.331   0.548  14.050  0.2865  0.3215 -0.0844
  373TMC3    C8 5588   4.368   0.869  14.386 -0.9728 -0.0912 -0.4327
  373TMC3    O1 5589   4.425   0.494  14.114 -0.0846 -0.0222  0.1912
  373TMC3    O2 5590   4.400   0.793  14.476  0.5632 -0.3818 -0.5892
  374TMC3    C1 5591   0.763   0.843   9.942 -0.4339  0.4932 -0.2075
  374TMC3    C2 5592   0.891   0.874   9.915  0.0745  0.5319  0.2687
  374TMC3    C3 5593   0.917   0.959   9.807 -0.4605 -0.0110  0.1149
  374TMC3    C4 5594   0.659   0.912   9.884  0.7022 -0.1267  0.1990
  374TMC3    C5 5595   0.689   0.999   9.778 -0.6153 -0.3350 -0.7042
  374TMC3    C6 5596   0.813   1.023   9.741  1.0769  0.0708 -0.1728
  374TMC3     C 5597   0.732   0.701   9.994 -0.3466  0.8476 -0.7947
  374TMC3     O 5598   0.831   0.627   9.993  0.0581 -0.4365  0.1818
  374TMC3     H 5599   0.970   0.809   9.950 -1.6513 -0.1636  2.8493
  374TMC3    H1 5600   0.558   0.895   9.920  1.3147 -1.0265  1.4959
  374TMC3    H2 5601   0.826   1.101   9.667 -1.8996 -1.8918 -2.7619
  374TMC3    C7 5602   0.582   1.073   9.714  0.1153 -0.3728 -0.0635
  374TMC3    C8 5603   1.053   0.990   9.776  0.4721  0.1858  0.2688
  374TMC3    O1 5604   0.603   1.187   9.683  0.1837 -1.0480 -0.6628
  374TMC3    O2 5605   1.072   1.051   9.671 -0.7272  0.5707  0.4934
  375MPD2     C 5606   0.484   2.591  17.084 -0.1234  0.7283  0.1066
  375MPD2    C1 5607   0.426   2.521  16.985  0.3637 -0.2500  0.3297
  375MPD2    C2 5608   0.497   2.420  16.918 -0.0635  0.4453 -0.1554
  375MPD2    C3 5609   0.623   2.380  16.956 -0.0967  0.4054  0.0105
  375MPD2    C4 5610   0.679   2.456  17.056  0.2918  0.2941  0.6028
  375MPD2    C5 5611   0.613   2.562  17.111  0.2416 -0.0346 -0.5540
  375MPD2     H 5612   0.443   2.367  16.840  0.6894 -2.1095  1.0542
  375MPD2    H1 5613   0.778   2.420  17.084  1.2483  2.0193 -0.6053
  375MPD2    H2 5614   0.440   2.676  17.134 -1.7978  0.3728 -0.7804
  375MPD2    H3 5615   0.652   2.622  17.193 -0.2186 -1.8242  0.9595
  375MPD2     N 5616   0.689   2.277  16.896  0.3878  0.4909  0.3303
  375MPD2    H5 5617   0.773   2.246  16.945 -0.8505 -0.6242  1.7765
  375MPD2    N1 5618   0.290   2.549  16.947  0.3960 -1.1993 -0.5908
  375MPD2    H7 5619   0.254   2.491  16.871 -0.5657 -0.5673 -0.6212
  376TMC3    C1 5620   0.735   2.081  16.769  0.4355 -0.1822 -0.2306
  376TMC3    C2 5621   0.862   2.074  16.824 -0.3357 -0.4820  0.2642
  376TMC3    C3 5622   0.945   1.975  16.776  0.0983  0.0327 -0.3403
  376TMC3    C4 5623   0.692   1.989  16.682  0.1019 -0.0537  0.3166
  376TMC3    C5 5624   0.774   1.881  16.650 -1.5786 -0.0838  0.1527
  376TMC3    C6 5625   0.906   1.880  16.683  0.8644 -0.2513  0.2799
  376TMC3     C 5626   0.639   2.189  16.804  0.4704  0.6283  0.6759
  376TMC3     O 5627   0.527   2.183  16.758 -0.4312 -0.1514  0.3851
  376TMC3     H 5628   0.903   2.154  16.885  0.6093 -0.6240 -0.1954
  376TMC3    H1 5629   0.601   1.993  16.623 -0.2352  2.0475  0.9848
  376TMC3    H2 5630   0.970   1.800  16.647  2.0899  0.9537 -0.2283
  376TMC3    C7 5631   0.754   1.836  16.520 -0.0436  0.3304 -0.7018
  376TMC3    C8 5632   1.089   1.997  16.784  0.0288  0.1691 -0.7162
  376TMC3    O1 5633   0.850   1.843  16.444  0.1868  0.1791  0.5933
  376TMC3    O2 5634   1.129   2.080  16.702  0.2047 -1.0314 -0.1481
  377MPD2     C 5635   2.804   1.451  12.139  0.2824 -0.6094 -0.4865
  377MPD2    C1 5636   2.864   1.397  12.249  0.1586 -0.6339 -0.0004
  377MPD2    C2 5637   2.783   1.329  12.338  0.3190  0.3544  0.0905
  377MPD2    C3 5638   2.644   1.307  12.309  0.1581  0.0767  0.0930
  377MPD2    C4 5639   2.592   1.371  12.195  0.2192 -0.7036  0.3897
  377MPD2    C5 5640   2.675   1.439  12.112  0.1974  0.7381  1.0382
  377MPD2     H 5641   2.824   1.285  12.428 -1.6159 -2.6194 -0.4856
  377MPD2    H1 5642   2.486   1.368  12.173  0.1356  1.5208  0.5009
  377MPD2    H2 5643   2.859   1.503  12.061  1.4276 -0.0311  0.7058
  377MPD2    H3 5644   2.629   1.493  12.030 -0.3084 -1.7378 -0.3068
  377MPD2     N 5645   2.559   1.240  12.402  0.0062  0.2586 -0.1782
  377MPD2    H5 5646   2.459   1.242  12.385  0.0430  2.9828 -0.0645
  377MPD2    N1 5647   3.004   1.395  12.263  0.3010  0.1526  0.5752
  377MPD2    H7 5648   3.056   1.444  12.192  1.5127  2.0613  2.7678
  378TMC3    C1 5649   3.388   1.447  12.217 -0.8148  0.1253 -0.3800
  378TMC3    C2 5650   3.258   1.418  12.223 -0.2184 -0.1699  0.0502
  378TMC3    C3 5651   3.219   1.363  12.343 -0.7149  0.0325 -0.3840
  378TMC3    C4 5652   3.478   1.418  12.315  0.2733  0.0763 -0.2630
  378TMC3    C5 5653   3.440   1.358  12.427 -0.0579 -0.1381 -0.4510
  378TMC3    C6 5654   3.307   1.333  12.444 -0.3646  0.2359 -0.6032
  378TMC3     C 5655   3.431   1.476  12.083 -0.1760 -0.0104  0.0887
  378TMC3     O 5656   3.353   1.536  12.004  0.2241 -0.5413  1.0619
  378TMC3     H 5657   3.193   1.430  12.138  0.2920 -0.1483 -0.3328
  378TMC3    H1 5658   3.586   1.430  12.305  0.1878  1.0446  0.0004
  378TMC3    H2 5659   3.270   1.281  12.531  0.4824  0.0102 -0.3717
  378TMC3    C7 5660   3.529   1.288  12.512 -0.6188 -0.3218  0.1150
  378TMC3    C8 5661   3.079   1.340  12.364 -0.8749  0.1090  0.0162
  378TMC3    O1 5662   3.485   1.232  12.611 -0.0545 -1.2289 -0.5974
  378TMC3    O2 5663   3.053   1.287  12.470  0.4856  0.1633 -0.1839
  379MPD2     C 5664   4.004   4.405  16.411 -0.3801  0.4677 -0.8245
  379MPD2    C1 5665   4.115   4.370  16.339  0.0372  0.1730 -0.5458
  379MPD2    C2 5666   4.218   4.307  16.416 -0.2640  0.5225  0.5497
  379MPD2    C3 5667   4.201   4.271  16.547  0.6947  1.0519 -0.2581
  379MPD2    C4 5668   4.077   4.301  16.607 -0.2202  0.1960  0.4845
  379MPD2    C5 5669   3.989   4.379  16.544 -0.1924  0.4453  0.0949
  379MPD2     H 5670   4.305   4.268  16.366 -1.3027 -2.9196  1.4317
  379MPD2    H1 5671   4.052   4.267  16.707 -0.5723  1.6061  0.8808
  379MPD2    H2 5672   3.926   4.460  16.360 -2.2316 -0.0115  1.5107
  379MPD2    H3 5673   3.895   4.396  16.594  1.2085  2.1028  2.1574
  379MPD2     N 5674   4.301   4.202  16.626 -0.0388  0.1277 -0.3206
  379MPD2    H5 5675   4.269   4.180  16.720  0.5566 -3.0458 -0.8629
  379MPD2    N1 5676   4.103   4.385  16.201 -0.3249  0.1381 -0.5702
  379MPD2    H7 5677   4.010   4.408  16.165 -0.1826  0.1406 -0.9425
  380TMC3    C1 5678   4.164   4.362  15.973 -0.0080  0.3568  0.9320
  380TMC3    C2 5679   4.237   4.290  15.887 -0.4277  0.3262  0.5755
  380TMC3    C3 5680   4.201   4.286  15.755  0.0342 -0.7527  0.2865
  380TMC3    C4 5681   4.043   4.417  15.933  0.0806  0.8316 -0.1706
  380TMC3    C5 5682   4.008   4.409  15.802  0.0961 -0.4632 -0.4487
  380TMC3    C6 5683   4.074   4.337  15.713 -0.6598 -0.5175  0.6651
  380TMC3     C 5684   4.197   4.340  16.114  0.1281  0.3313 -0.1504
  380TMC3     O 5685   4.298   4.273  16.137  0.8531  0.0811 -0.1655
  380TMC3     H 5686   4.337   4.262  15.917 -0.3560  2.0707  1.9836
  380TMC3    H1 5687   3.977   4.479  15.991 -1.0020 -0.0538 -0.4495
  380TMC3    H2 5688   4.048   4.334  15.607  2.0701 -0.6255 -0.0080
  380TMC3    C7 5689   3.877   4.466  15.762  0.3243  0.0305  0.8412
  380TMC3    C8 5690   4.303   4.268  15.647 -0.7771 -0.3522 -0.0028
  380TMC3    O1 5691   3.826   4.545  15.844  0.6224  0.1240 -0.0288
  380TMC3    O2 5692   4.278   4.295  15.532  0.1463 -0.2396 -0.1398
  381TMC3    C1 5693   3.705   0.444  16.442 -0.5044  0.6076  0.5012
  381TMC3    C2 5694   3.817   0.511  16.488  0.2797  0.3346  0.2020
  381TMC3    C3 5695   3.807   0.641  16.539  0.4656 -0.6528 -0.4715
  381TMC3    C4 5696   3.583   0.505  16.446 -0.1798  0.8132  0.4069
  381TMC3    C5 5697   3.573   0.627  16.516 -0.2943 -0.2504 -0.0148
  381TMC3    C6 5698   3.686   0.695  16.559 -0.1261  0.0997  0.4842
  381TMC3     C 5699   3.732   0.375  16.319  0.1275 -0.2273 -0.0846
  381TMC3     O 5700   3.670   0.398  16.219 -0.3335 -0.4067 -0.2314
  381TMC3     H 5701   3.913   0.462  16.477  0.2279 -0.1130  1.7480
  381TMC3    H1 5702   3.497   0.450  16.410 -0.0460  0.3285  0.8284
  381TMC3    H2 5703   3.678   0.802  16.574 -1.4841 -0.0019  0.4826
  381TMC3    C7 5704   3.441   0.687  16.511  0.1684 -0.1069  0.0388
  381TMC3    C8 5705   3.907   0.727  16.484  0.4039 -0.3281 -0.2269
  381TMC3    O1 5706   3.367   0.628  16.432  0.4589  0.5221 -0.7534
  381TMC3    O2 5707   3.949   0.683  16.380  0.0574 -0.0885 -0.2140
  382MPD2     C 5708   2.737   3.000   0.541 -0.4612 -0.3541  0.0235
  382MPD2    C1 5709   2.771   3.036   0.416  0.1505 -0.1461  0.8515
  382MPD2    C2 5710   2.734   2.956   0.306  0.6923 -0.1350 -0.6349
  382MPD2    C3 5711   2.640   2.852   0.320 -0.0416  0.9033  0.0564
  382MPD2    C4 5712   2.591   2.828   0.452 -0.3192  0.4498  0.0125
  382MPD2    C5 5713   2.650   2.896   0.556 -0.1588 -0.5438  0.4896
  382MPD2     H 5714   2.787   2.981   0.215 -0.0398  1.1940 -0.6834
  382MPD2    H1 5715   2.513   2.754   0.464  1.0750 -0.8427  1.1546
  382MPD2    H2 5716   2.777   3.051   0.628 -0.7675 -3.7149  2.1274
  382MPD2    H3 5717   2.614   2.873   0.655 -0.2031 -0.2706  0.5381
  382MPD2     N 5718   2.587   2.776   0.215 -0.1954 -0.0953 -0.1327
  382MPD2    H5 5719   2.526   2.699   0.241  0.1472  0.0480  1.0938
  382MPD2    N1 5720   2.866   3.138   0.395 -0.4017 -0.5567 -0.3565
  382MPD2    H7 5721   2.893   3.151   0.298  0.0582 -3.9580 -0.6854
  383TMC3    C1 5722   2.569   2.689  17.676 -0.1626 -0.4219 -0.5839
  383TMC3    C2 5723   2.567   2.721  17.538 -0.3969 -0.1846  0.0283
  383TMC3    C3 5724   2.516   2.631  17.448  0.1714 -0.0409  0.5799
  383TMC3    C4 5725   2.517   2.569   0.038 -0.0263  0.2333 -0.1251
  383TMC3    C5 5726   2.486   2.478  17.625  0.5407 -0.3540 -0.1081
  383TMC3    C6 5727   2.476   2.504  17.494  0.3594  0.0955  0.3327
  383TMC3     C 5728   2.615   2.800   0.080 -0.4540  0.3284 -0.1312
  383TMC3     O 5729   2.673   2.896   0.031  0.0116 -0.1320 -0.2629
  383TMC3     H 5730   2.610   2.818  17.516 -0.2379 -0.1792  0.3615
  383TMC3    H1 5731   2.539   2.539   0.140  0.3513 -0.5207 -0.4280
  383TMC3    H2 5732   2.420   2.441  17.426 -3.0575  1.1206  2.2258
  383TMC3    C7 5733   2.454   2.342  17.675 -0.0884 -0.1624  0.0109
  383TMC3    C8 5734   2.510   2.680  17.313  0.1108  0.3613 -0.6914
  383TMC3    O1 5735   2.449   2.335   0.111  0.0521  0.2319  0.9034
  383TMC3    O2 5736   2.484   2.794  17.292 -0.3140  0.0520  0.1259
  384MPD2     C 5737   4.635   3.968  11.760  0.0063  0.5455 -0.0716
  384MPD2    C1 5738   4.661   3.917  11.881 -0.0024  0.2384  0.4858
  384MPD2    C2 5739   0.031   3.823  11.887 -0.0685  0.2423 -0.6099
  384MPD2    C3 5740   0.086   3.765  11.774 -0.3176 -0.1915  0.7991
  384MPD2    C4 5741   0.057   3.816  11.653  0.3683  0.4115 -0.0358
  384MPD2    C5 5742   4.703   3.930  11.648 -0.5539  0.2167  0.1658
  384MPD2     H 5743   0.055   3.797  11.989  0.4522  4.4067  0.3382
  384MPD2    H1 5744   0.098   3.774  11.562 -0.2145 -0.8963  0.3077
  384MPD2    H2 5745   4.564   4.048  11.741 -1.8002 -0.7859  1.0538
  384MPD2    H3 5746   4.680   3.973  11.552  2.2441  0.5637 -0.3520
  384MPD2     N 5747   0.185   3.664  11.793 -0.1002 -0.0086 -0.0921
  384MPD2    H5 5748   0.201   3.643  11.891 -1.5659  1.9489  0.5594
  384MPD2    N1 5749   4.603   3.966  11.993  0.6604  0.5780  0.3247
  384MPD2    H7 5750   4.624   3.909  12.075  3.8669 -0.2949 -1.0875
  385TMC3    C1 5751   0.307   3.459  11.753  1.0181 -0.0577  0.5451
  385TMC3    C2 5752   0.257   3.351  11.687 -0.3579 -0.7304  0.3040
  385TMC3    C3 5753   0.212   3.247  11.766 -0.0484  0.2464  0.3724
  385TMC3    C4 5754   0.311   3.468  11.892  0.7640  0.5089 -0.1899
  385TMC3    C5 5755   0.241   3.373  11.963 -0.3079 -0.1206  0.0167
  385TMC3    C6 5756   0.195   3.260  11.900 -0.0917  0.0782 -0.9528
  385TMC3     C 5757   0.246   3.583  11.700 -0.1727 -0.5497  0.1447
  385TMC3     O 5758   0.234   3.580  11.578 -0.0557 -0.0394  0.2459
  385TMC3     H 5759   0.254   3.343  11.579  0.2899  0.3193  0.2025
  385TMC3    H1 5760   0.351   3.559  11.936  0.6818  0.6055 -0.3106
  385TMC3    H2 5761   0.169   3.173  11.959  0.9051  1.2067  1.1227
  385TMC3    C7 5762   0.150   3.445  12.043 -0.3430  0.2143  0.5722
  385TMC3    C8 5763   0.121   3.155  11.704  0.4845 -1.3149 -0.5638
  385TMC3    O1 5764   0.172   3.564  12.062  0.7220  0.4591 -0.1114
  385TMC3    O2 5765   0.041   3.106  11.780  0.0874  0.6637 -0.3084
  386TMC3    C1 5766   4.405   1.545  11.930  0.4354 -0.1589 -0.3639
  386TMC3    C2 5767   4.470   1.534  11.807 -0.3574  0.1345 -0.1944
  386TMC3    C3 5768   4.392   1.537  11.693  0.8207 -0.5132  0.3174
  386TMC3    C4 5769   4.273   1.559  11.941 -0.0460  0.4259  0.8421
  386TMC3    C5 5770   4.199   1.561  11.828 -0.6245  0.0719  0.6676
  386TMC3    C6 5771   4.252   1.544  11.699 -0.1388 -0.2519  0.2196
  386TMC3     C 5772   4.473   1.517  12.053  0.6651  0.5814  0.2835
  386TMC3     O 5773   4.424   1.562  12.154 -0.5697  0.3854  0.0882
  386TMC3     H 5774   4.578   1.549  11.805 -0.2448 -0.5144  0.7984
  386TMC3    H1 5775   4.228   1.575  12.038  0.3126 -0.5006  1.1646
  386TMC3    H2 5776   4.191   1.539  11.609 -0.9669 -1.6197  0.8469
  386TMC3    C7 5777   4.078   1.644  11.839  0.1056 -0.5135  0.1400
  386TMC3    C8 5778   4.454   1.588  11.573  0.6009  0.2994  0.0679
  386TMC3    O1 5779   4.012   1.638  11.944 -0.6531 -1.0180 -0.5167
  386TMC3    O2 5780   4.380   1.653  11.501  0.5254  0.3220  0.4948
  387MPD2     C 5781   2.190   1.854   9.387  0.2117 -0.0054  0.2992
  387MPD2    C1 5782   2.250   1.803   9.496  0.4316 -0.3172  0.0588
  387MPD2    C2 5783   2.266   1.668   9.504  0.5900 -0.3511  0.3907
  387MPD2    C3 5784   2.225   1.584   9.404 -0.1242 -0.0361  0.2150
  387MPD2    C4 5785   2.173   1.633   9.289 -0.0266  0.3770 -0.2618
  387MPD2    C5 5786   2.143   1.768   9.287  0.2674 -0.1465 -0.2483
  387MPD2     H 5787   2.298   1.626   9.599  1.2107 -2.1483 -0.6059
  387MPD2    H1 5788   2.142   1.568   9.208 -0.1532 -1.8310  1.5712
  387MPD2    H2 5789   2.177   1.960   9.367  0.3321  0.4671  2.7180
  387MPD2    H3 5790   2.098   1.814   9.200  0.1964  0.5764  0.1701
  387MPD2     N 5791   2.252   1.451   9.427  1.0836 -0.1110 -0.6001
  387MPD2    H5 5792   2.285   1.420   9.518  0.0785 -1.0603 -0.5560
  387MPD2    N1 5793   2.303   1.874   9.602  0.4677  0.1825 -0.4304
  387MPD2    H7 5794   2.330   1.818   9.682  0.2053  3.7207  2.1023
  388TMC3    C1 5795   2.421   2.038   9.723  0.1636  0.3290  0.3843
  388TMC3    C2 5796   2.418   2.157   9.788 -0.3187 -0.0826 -0.0743
  388TMC3    C3 5797   2.518   2.162   9.894 -0.2686  0.0389 -0.3213
  388TMC3    C4 5798   2.527   1.947   9.740  0.6029 -0.0598  0.1784
  388TMC3    C5 5799   2.620   1.958   9.839  0.3076  0.7920 -0.7024
  388TMC3    C6 5800   2.613   2.070   9.919 -0.0205 -0.1728 -0.0574
  388TMC3     C 5801   2.322   2.012   9.617 -0.2027  0.8305 -0.0356
  388TMC3     O 5802   2.276   2.099   9.549 -0.6029 -0.8296  0.2965
  388TMC3     H 5803   2.338   2.227   9.768  1.5823  1.3348 -2.7289
  388TMC3    H1 5804   2.527   1.862   9.672 -0.3970 -0.7498  1.0292
  388TMC3    H2 5805   2.691   2.085   9.993 -0.9098 -1.8683  1.2364
  388TMC3    C7 5806   2.716   1.849   9.885  0.0903 -0.2090 -1.3265
  388TMC3    C8 5807   2.494   2.271   9.991 -0.3134 -0.0704 -0.4977
  388TMC3    O1 5808   2.796   1.862   9.982 -0.5098  0.1114 -0.2162
  388TMC3    O2 5809   2.389   2.328   9.972  0.0919  0.0970  0.0904
  389MPD2     C 5810   1.734   4.631  11.735  0.6743  0.3130  0.6709
  389MPD2    C1 5811   1.601   4.627  11.695  0.2988  0.2008  0.4389
  389MPD2    C2 5812   1.521   4.535  11.761 -0.2724 -0.1713 -0.3364
  389MPD2    C3 5813   1.567   4.462  11.871  0.0715  0.1389 -0.3179
  389MPD2    C4 5814   1.695   4.485  11.920 -0.7796  0.3238  0.1617
  389MPD2    C5 5815   1.780   4.559  11.842  0.3904 -0.1165  0.9076
  389MPD2     H 5816   1.418   4.526  11.730 -0.5781  0.3513  0.5437
  389MPD2    H1 5817   1.713   4.449  12.021 -0.1038 -1.7875 -0.7043
  389MPD2    H2 5818   1.807   4.689  11.680  3.1752 -1.1236  2.4856
  389MPD2    H3 5819   1.881   4.579  11.879  0.7374 -0.0650 -0.0660
  389MPD2     N 5820   1.490   4.373  11.947 -0.0177 -0.0325  0.5180
  389MPD2    H5 5821   1.540   4.319  12.017 -0.3831  0.8637  1.4679
  389MPD2    N1 5822   1.559   4.705  11.591  0.1841  0.2594  0.1475
  389MPD2    H7 5823   1.635   0.034  11.545 -1.5732  3.0563  0.2359
  390TMC3    C1 5824   1.296   4.271  12.035  0.3272 -0.0803  0.1548
  390TMC3    C2 5825   1.360   4.158  12.061  0.1851  0.1878 -0.3391
  390TMC3    C3 5826   1.321   4.073  12.168 -0.1614 -0.4461  0.4917
  390TMC3    C4 5827   1.189   4.309  12.106  0.2541  0.3414 -0.2103
  390TMC3    C5 5828   1.145   4.224  12.201 -0.2419 -0.0515  0.0922
  390TMC3    C6 5829   1.203   4.101  12.230  0.8124  0.0170  0.3718
  390TMC3     C 5830   1.354   4.368  11.941 -0.0540 -0.3298 -0.3355
  390TMC3     O 5831   1.271   4.450  11.905 -0.3585  0.4949 -0.3161
  390TMC3     H 5832   1.449   4.130  12.007 -0.4449  0.7545 -1.6758
  390TMC3    H1 5833   1.134   4.401  12.086  0.2968  0.3078 -0.4874
  390TMC3    H2 5834   1.143   4.037  12.294 -0.4128 -1.1942 -1.9639
  390TMC3    C7 5835   0.998   4.210  12.205  0.8598 -0.6641  0.4057
  390TMC3    C8 5836   1.329   3.936  12.132 -0.1859 -0.1508  0.9248
  390TMC3    O1 5837   0.951   4.149  12.302  0.2433  0.3067  0.2165
  390TMC3    O2 5838   1.336   3.898  12.011 -0.2506 -0.1676 -0.4301
  391MPD2     C 5839   1.583   1.177  11.233  0.2542 -0.5159  0.6679
  391MPD2    C1 5840   1.695   1.216  11.159  0.7057  0.8177 -0.0231
  391MPD2    C2 5841   1.669   1.260  11.031  0.3687 -0.2464  0.2059
  391MPD2    C3 5842   1.545   1.232  10.970 -0.0770  0.2733  0.3176
  391MPD2    C4 5843   1.441   1.175  11.037 -0.2234  1.0601 -0.1224
  391MPD2    C5 5844   1.465   1.150  11.169  0.2561 -1.2284 -0.1608
  391MPD2     H 5845   1.748   1.301  10.970 -0.3728  0.1971 -0.4689
  391MPD2    H1 5846   1.350   1.139  10.992  0.0346 -2.6617  2.3812
  391MPD2    H2 5847   1.581   1.157  11.339 -0.5520  1.8422  1.0911
  391MPD2    H3 5848   1.381   1.108  11.223 -0.0844 -1.9120 -1.2350
  391MPD2     N 5849   1.544   1.257  10.829  0.1322 -0.2804  0.8205
  391MPD2    H5 5850   1.631   1.293  10.790  0.6341 -1.9968  0.3764
  391MPD2    N1 5851   1.820   1.254  11.221  0.6015 -0.9583 -0.1416
  391MPD2    H7 5852   1.822   1.238  11.322  1.8162 -0.3252 -0.0638
  392TMC3    C1 5853   1.481   1.309  10.616 -1.0623 -0.7704 -0.1092
  392TMC3    C2 5854   1.406   1.278  10.505 -0.3111 -0.1800 -0.1843
  392TMC3    C3 5855   1.458   1.317  10.388  0.5161 -0.0006 -0.6310
  392TMC3    C4 5856   1.602   1.368  10.610  0.0785  0.0336  0.1267
  392TMC3    C5 5857   1.641   1.420  10.489  0.1913  0.0304  0.8515
  392TMC3    C6 5858   1.573   1.393  10.376 -0.5819 -0.3322  0.1252
  392TMC3     C 5859   1.441   1.246  10.745  0.2328  0.2695 -0.2674
  392TMC3     O 5860   1.327   1.209  10.756  0.4349  0.1796  0.2367
  392TMC3     H 5861   1.318   1.216  10.518  1.9026 -2.8634  2.2015
  392TMC3    H1 5862   1.646   1.421  10.693  0.4203 -1.5282  0.9511
  392TMC3    H2 5863   1.598   1.432  10.278 -0.8794 -0.0972  0.1436
  392TMC3    C7 5864   1.730   1.537  10.492 -0.4790 -0.8359 -0.3543
  392TMC3    C8 5865   1.380   1.269  10.273  0.5697  0.2720 -0.0687
  392TMC3    O1 5866   1.806   1.541  10.592  0.1479  0.1381 -0.6198
  392TMC3    O2 5867   1.261   1.248  10.297 -0.9799  0.2261 -0.1410
  393TMC3    C1 5868   4.056   4.131  10.243  0.9585 -0.3540 -0.3834
  393TMC3    C2 5869   3.982   4.132  10.357 -0.2824  0.1938  0.1299
  393TMC3    C3 5870   4.014   4.224  10.453 -0.0803 -0.2414  0.3181
  393TMC3    C4 5871   4.155   4.222  10.217  0.0875 -0.1415 -0.1568
  393TMC3    C5 5872   4.195   4.306  10.320  0.6845  0.5813  0.5396
  393TMC3    C6 5873   4.127   4.311  10.440  0.0861 -0.1930  0.1192
  393TMC3     C 5874   3.993   4.057  10.134  0.6633 -0.4881  0.2165
  393TMC3     O 5875   3.933   3.952  10.164  0.0665  0.5656  0.1477
  393TMC3     H 5876   3.886   4.081  10.357 -0.2001  0.0438  0.9304
  393TMC3    H1 5877   4.222   4.205  10.134  0.6316 -3.1381  0.8884
  393TMC3    H2 5878   4.137   4.398  10.504  3.0280  0.6470 -1.4775
  393TMC3    C7 5879   4.327   4.362  10.303 -0.6304  0.0960  0.0881
  393TMC3    C8 5880   3.907   4.253  10.545 -0.1419  0.0047  0.4477
  393TMC3    O1 5881   4.364   4.377  10.190 -0.2868  0.0457  0.2885
  393TMC3    O2 5882   3.790   4.251  10.507  0.0064 -0.1160  0.1280
  394TMC3    C1 5883   1.431   0.086  11.432  0.2442  0.3576 -0.0150
  394TMC3    C2 5884   1.306   0.148  11.407 -0.1537 -0.7480  0.4002
  394TMC3    C3 5885   1.278   0.202  11.289  0.4231 -0.5479  0.5456
  394TMC3    C4 5886   1.532   0.085  11.334  0.0775 -0.8834  0.1185
  394TMC3    C5 5887   1.491   0.140  11.214  0.1410 -0.4259  0.6547
  394TMC3    C6 5888   1.367   0.199  11.192  0.6202 -0.2768 -0.9995
  394TMC3     C 5889   1.428   0.011  11.555 -0.1885 -0.2127  0.1780
  394TMC3     O 5890   1.326   4.708  11.615 -0.0692  0.0470 -0.1765
  394TMC3     H 5891   1.235   0.149  11.488  0.4977  0.3875  0.9585
  394TMC3    H1 5892   1.616   0.019  11.353  1.4534  0.3643 -1.8012
  394TMC3    H2 5893   1.367   0.278  11.118  0.9923 -0.6331 -1.3783
  394TMC3    C7 5894   1.585   0.134  11.100 -0.7608  0.1426 -0.7403
  394TMC3    C8 5895   1.140   0.246  11.270 -0.1254 -0.0813  0.3887
  394TMC3    O1 5896   1.702   0.133  11.131 -0.1952  0.0659 -0.0945
  394TMC3    O2 5897   1.054   0.244  11.359  0.2400 -0.3179 -0.2919
  395TMC3    C1 5898   1.118   1.473  14.252  0.3207 -0.3230  0.3835
  395TMC3    C2 5899   1.002   1.541  14.280  0.3078 -0.4592 -0.0798
  395TMC3    C3 5900   1.000   1.678  14.275 -0.4201 -0.2244 -0.3264
  395TMC3    C4 5901   1.235   1.542  14.216 -0.5240 -0.2685 -0.1516
  395TMC3    C5 5902   1.233   1.675  14.228  0.1225  0.1553 -0.1908
  395TMC3    C6 5903   1.118   1.745  14.240 -0.1455 -0.5877  0.0725
  395TMC3     C 5904   1.141   1.354  14.321 -0.1239 -0.4610 -0.4542
  395TMC3     O 5905   1.067   1.338  14.418 -0.1964  0.8893 -0.6899
  395TMC3     H 5906   0.907   1.491  14.296 -0.5434  1.0010 -0.5767
  395TMC3    H1 5907   1.331   1.492  14.223  0.6674  1.6879 -2.1909
  395TMC3    H2 5908   1.123   1.853  14.248 -1.9685 -0.5704  0.9429
  395TMC3    C7 5909   1.349   1.730  14.300 -0.0152  0.3673 -0.2372
  395TMC3    C8 5910   0.909   1.750  14.360  0.6542 -0.1519 -0.4712
  395TMC3    O1 5911   1.327   1.765  14.413 -0.2827  0.1895  0.3224
  395TMC3    O2 5912   0.903   1.870  14.345  0.1596  0.1596  0.0184
  396MPD2     C 5913   0.949   3.178  16.753  0.1956 -0.0341  0.3689
  396MPD2    C1 5914   1.067   3.155  16.821  0.0265  0.5119 -0.0622
  396MPD2    C2 5915   1.152   3.256  16.859 -0.0459  0.3433 -0.2544
  396MPD2    C3 5916   1.124   3.386  16.809  0.4946 -0.4438  0.4474
  396MPD2    C4 5917   1.003   3.408  16.747 -0.3491  0.0584  0.3570
  396MPD2    C5 5918   0.908   3.309  16.738 -0.2327  0.5366 -0.8009
  396MPD2     H 5919   1.246   3.257  16.912 -0.9001  0.7546  1.2417
  396MPD2    H1 5920   0.980   3.510  16.720 -1.9007 -0.2298  0.5983
  396MPD2    H2 5921   0.886   3.096  16.720  0.4295 -0.1163  0.1267
  396MPD2    H3 5922   0.816   3.336  16.688 -0.1546  1.3137 -0.5156
  396MPD2     N 5923   1.227   3.487  16.820  0.0651  0.1738  0.3539
  396MPD2    H5 5924   1.315   3.461  16.864 -0.9799  0.3201  2.5402
  396MPD2    N1 5925   1.093   3.020  16.854 -0.2663  0.2786 -0.2800
  396MPD2    H7 5926   1.032   2.961  16.798  0.8492 -0.6847 -0.4768
  397TMC3    C1 5927   1.208   2.838  16.943  0.2377 -0.1704 -0.4085
  397TMC3    C2 5928   1.256   2.790  16.823 -0.6694  0.0891  0.7418
  397TMC3    C3 5929   1.377   2.728  16.818 -0.5930 -0.5363 -0.0859
  397TMC3    C4 5930   1.281   2.796  17.053 -0.1656  0.2885 -0.1696
  397TMC3    C5 5931   1.402   2.728  17.051 -0.3269  0.1983 -0.1910
  397TMC3    C6 5932   1.446   2.687  16.928 -0.6557 -0.0429  0.0813
  397TMC3     C 5933   1.183   2.975  16.944  0.5255 -0.0629  0.1191
  397TMC3     O 5934   1.248   3.041  17.023  0.1979 -0.2366 -0.3568
  397TMC3     H 5935   1.220   2.823  16.726  1.8352 -1.3331 -0.6497
  397TMC3    H1 5936   1.242   2.826  17.149  3.5767  1.5306  0.9776
  397TMC3    H2 5937   1.533   2.623  16.925  0.6540  1.5947  3.2798
  397TMC3    C7 5938   1.399   2.626  17.155 -0.4259  0.5515 -1.1652
  397TMC3    C8 5939   1.442   2.703  16.689 -0.3949  0.0256  0.0788
  397TMC3    O1 5940   1.428   2.510  17.120  0.5134 -0.2514 -0.2156
  397TMC3    O2 5941   1.386   2.645  16.599 -0.0728 -0.1613 -0.0622
  398MPD2     C 5942   4.371   4.236   0.272 -0.2766 -0.1972  0.2709
  398MPD2    C1 5943   4.396   4.117   0.333 -0.5299 -0.2432  0.1414
  398MPD2    C2 5944   4.475   4.101   0.446 -0.1848 -0.6729 -0.3256
  398MPD2    C3 5945   4.515   4.218   0.504  0.1872  0.4401  0.7392
  398MPD2    C4 5946   4.482   4.337   0.455  0.3910  0.1053 -0.4488
  398MPD2    C5 5947   4.407   4.347   0.341 -0.3910 -0.0959 -0.5543
  398MPD2     H 5948   4.502   4.005   0.488 -1.8501 -0.3464  1.4754
  398MPD2    H1 5949   4.493   4.435   0.502  2.0733 -0.2366 -0.1331
  398MPD2    H2 5950   4.329   4.230   0.173 -0.1390  2.6872  0.0299
  398MPD2    H3 5951   4.387   4.446   0.301  0.1755  1.0666  2.0180
  398MPD2     N 5952   4.573   4.203   0.633 -0.1915  0.0154 -0.1554
  398MPD2    H5 5953   4.562   4.111   0.676  4.4396  1.1314  3.3678
  398MPD2    N1 5954   4.362   3.988   0.275  0.3804 -0.0906 -0.0343
  398MPD2    H7 5955   4.402   3.909   0.323  0.0487 -1.0034 -1.2759
  399TMC3    C1 5956   4.278   3.831   0.133 -0.1177 -0.3665  0.5383
  399TMC3    C2 5957   4.379   3.738   0.151  0.0345 -0.0436 -1.2065
  399TMC3    C3 5958   4.352   3.614   0.116 -0.3367 -0.9313  0.3458
  399TMC3    C4 5959   4.157   3.790   0.085 -0.1672  0.1218  0.4738
  399TMC3    C5 5960   4.134   3.655   0.059 -0.5528  0.2492 -0.1678
  399TMC3    C6 5961   4.231   3.563   0.082  0.2700  0.4283  0.3821
  399TMC3     C 5962   4.288   3.970   0.162 -0.1740  0.0971  0.0423
  399TMC3     O 5963   4.218   4.052   0.112  0.0950 -0.5448  0.1989
  399TMC3     H 5964   4.472   3.766   0.199 -1.4688  0.9479  1.1645
  399TMC3    H1 5965   4.082   3.868   0.071 -0.4369 -0.5137 -1.7527
  399TMC3    H2 5966   4.220   3.457   0.061 -1.7603  0.7185 -0.0414
  399TMC3    C7 5967   4.008   3.607   0.001 -0.3319 -0.5669 -0.0808
  399TMC3    C8 5968   4.458   3.510   0.110 -0.5813  0.3362 -0.3906
  399TMC3    O1 5969   3.993   3.485  17.682 -0.0912 -0.5510  0.2669
  399TMC3    O2 5970   4.439   3.403   0.167  0.2404 -0.3436  0.6189
  400TMC3    C1 5971   2.974   2.192  16.687 -0.0987  0.5772 -0.1715
  400TMC3    C2 5972   2.892   2.249  16.605 -0.0348  0.0444  0.5200
  400TMC3    C3 5973   2.877   2.387  16.615  0.1552  0.2079 -0.0668
  400TMC3    C4 5974   3.041   2.260  16.790  0.2321 -0.2970 -0.3389
  400TMC3    C5 5975   3.022   2.395  16.795 -0.7022  0.1097 -0.3634
  400TMC3    C6 5976   2.943   2.464  16.705  0.3652 -0.1774 -0.2693
  400TMC3     C 5977   2.940   2.055  16.711 -0.0233  0.6799 -0.1604
  400TMC3     O 5978   2.828   2.028  16.753  0.2429 -0.1821  0.5574
  400TMC3     H 5979   2.861   2.186  16.523  0.2528  0.6031 -0.0168
  400TMC3    H1 5980   3.107   2.219  16.864  0.5702 -0.7786 -0.9102
  400TMC3    H2 5981   2.911   2.566  16.721  2.4754  0.7119 -1.7178
  400TMC3    C7 5982   3.063   2.459  16.928 -0.7133  0.2713 -0.4556
  400TMC3    C8 5983   2.771   2.456  16.534  0.0963  0.2260  0.0146
  400TMC3    O1 5984   3.109   2.383  17.015 -0.3387  0.2987  0.3548
  400TMC3    O2 5985   2.786   2.579  16.528 -0.2080 -0.0888  0.2493
  401MPD2     C 5986   0.813   1.091   0.670 -0.0467  0.0618  0.7055
  401MPD2    C1 5987   0.830   1.002   0.770 -0.3481  0.3529  0.8156
  401MPD2    C2 5988   0.937   0.915   0.773  0.0488  0.2254  0.6749
  401MPD2    C3 5989   1.031   0.913   0.677  0.4635 -0.4335 -0.7461
  401MPD2    C4 5990   1.023   1.007   0.579  0.2515  0.4660 -0.2471
  401MPD2    C5 5991   0.916   1.098   0.573  0.6832 -0.1038  0.0380
  401MPD2     H 5992   0.956   0.856   0.862 -2.0313 -0.8124  0.4367
  401MPD2    H1 5993   1.091   1.011   0.495 -0.1097  1.8333 -0.4857
  401MPD2    H2 5994   0.734   1.164   0.665 -0.4324 -0.4307 -0.4212
  401MPD2    H3 5995   0.906   1.171   0.493 -1.0713 -1.0035 -0.5732
  401MPD2     N 5996   1.126   0.808   0.682  0.1263  0.3886 -0.1880
  401MPD2    H5 5997   1.110   0.746   0.760  1.1838 -1.1351 -1.1794
  401MPD2    N1 5998   0.745   1.022   0.876  0.1697  0.2271 -0.6126
  401MPD2    H7 5999   0.674   1.093   0.862 -1.2878 -1.0520  0.3247
  402TMC3    C1 6000   1.287   0.653   0.604 -0.0394  0.1331 -0.3019
  402TMC3    C2 6001   1.339   0.636   0.728  0.2568 -0.3142  0.1726
  402TMC3    C3 6002   1.418   0.525   0.752  0.5077 -0.8676  0.7864
  402TMC3    C4 6003   1.316   0.568   0.501 -0.0673 -0.3895 -0.3825
  402TMC3    C5 6004   1.409   0.467   0.529 -0.0465  0.5675  0.4328
  402TMC3    C6 6005   1.441   0.434   0.658 -0.7366  0.0860  0.2303
  402TMC3     C 6006   1.204   0.769   0.577 -0.6232 -0.4103 -0.4117
  402TMC3     O 6007   1.210   0.816   0.465  0.4044  0.7101  0.1004
  402TMC3     H 6008   1.337   0.717   0.800  0.3286 -0.9538  0.9056
  402TMC3    H1 6009   1.277   0.592   0.403 -0.8909 -1.2918 -0.2760
  402TMC3    H2 6010   1.505   0.350   0.684  0.8448  1.6449  1.4028
  402TMC3    C7 6011   1.453   0.387   0.418 -1.0209 -0.6317 -0.1404
  402TMC3    C8 6012   1.475   0.486   0.879 -0.2194  0.3255  0.7886
  402TMC3    O1 6013   1.403   0.415   0.307  0.2218 -0.5217  0.0141
  402TMC3    O2 6014   1.579   0.423   0.875 -0.5027  0.1352  0.6479
  403MPD2     C 6015   3.900   4.149  13.869  0.2947 -0.4129 -0.2022
  403MPD2    C1 6016   3.990   4.087  13.789 -0.0428  0.3418  0.0604
  403MPD2    C2 6017   4.123   4.099  13.817 -0.1028 -0.1294  0.0084
  403MPD2    C3 6018   4.171   4.165  13.929 -0.8716  0.0635 -0.1179
  403MPD2    C4 6019   4.082   4.244  14.003 -0.0175  0.1291  0.1668
  403MPD2    C5 6020   3.947   4.230  13.973  1.3002 -0.5283 -0.1052
  403MPD2     H 6021   4.202   4.052  13.759 -0.4914  0.0923 -0.6920
  403MPD2    H1 6022   4.109   4.280  14.102  2.2542 -0.2003 -0.3455
  403MPD2    H2 6023   3.794   4.160  13.845  0.3852  0.5913 -0.1556
  403MPD2    H3 6024   3.873   4.286  14.028  0.5319 -2.5170  0.8889
  403MPD2     N 6025   4.314   4.177  13.939  0.0363  0.3211  0.2132
  403MPD2    H5 6026   4.366   4.136  13.862  1.6171 -2.9313  3.0442
  403MPD2    N1 6027   3.932   4.022  13.679 -0.3012  0.0602  0.5048
  403MPD2    H7 6028   3.831   4.020  13.673 -0.2489 -0.8660 -0.2955
  404TMC3    C1 6029   3.909   3.905  13.480  0.0536 -0.1756  0.1071
  404TMC3    C2 6030   3.882   3.781  13.533 -0.7691  0.4978  0.5343
  404TMC3    C3 6031   3.879   3.677  13.445  0.5421 -0.3907 -0.1349
  404TMC3    C4 6032   3.922   3.921  13.350 -0.5322 -0.0521  0.1650
  404TMC3    C5 6033   3.892   3.820  13.265 -1.3043 -0.3120  0.5149
  404TMC3    C6 6034   3.882   3.693  13.309 -0.1517  0.3318 -1.0109
  404TMC3     C 6035   3.998   3.987  13.560  0.0249  0.0152 -0.5263
  404TMC3     O 6036   4.113   4.009  13.525 -0.2671 -0.1753  0.1063
  404TMC3     H 6037   3.871   3.774  13.640  2.1737 -0.9325  0.7323
  404TMC3    H1 6038   3.966   4.016  13.322 -0.6045 -0.1845 -0.4001
  404TMC3    H2 6039   3.889   3.607  13.243 -1.2948 -2.0158  1.9582
  404TMC3    C7 6040   3.900   3.852  13.122  0.0746  0.3424 -0.0597
  404TMC3    C8 6041   3.906   3.546  13.500  0.0161 -0.8979 -0.0919
  404TMC3    O1 6042   3.920   3.969  13.097 -0.5049  0.2697  0.2476
  404TMC3    O2 6043   3.907   3.451  13.420 -0.2983  0.2709  0.0607
  405MPD2     C 6044   0.053   4.579  14.676  0.1798  0.1024 -0.1810
  405MPD2    C1 6045   4.713   4.489  14.590 -0.0872 -0.3543 -0.2581
  405MPD2    C2 6046   4.578   4.519  14.550 -0.5500  1.2251 -0.1495
  405MPD2    C3 6047   4.511   4.624  14.604 -0.5451 -0.4212  0.1968
  405MPD2    C4 6048   4.582   4.709  14.691  0.0165  0.6750 -0.6321
  405MPD2    C5 6049   4.718   4.694  14.720  0.7714 -0.4462 -0.1301
  405MPD2     H 6050   4.520   4.454  14.485  1.8128 -1.4440  0.4583
  405MPD2    H1 6051   4.528   0.077  14.720 -1.2473  0.4105 -2.1662
  405MPD2    H2 6052   0.153   4.569  14.717  0.4984  1.0065 -0.7337
  405MPD2    H3 6053   0.070   0.034  14.772 -0.5565 -0.1797  1.4176
  405MPD2     N 6054   4.371   4.637  14.578  0.3748  0.2765  0.0042
  405MPD2    H5 6055   4.332   4.589  14.497  1.7434 -2.5266  1.0044
  405MPD2    N1 6056   0.049   4.363  14.563 -0.2227  0.3127 -0.0977
  405MPD2    H7 6057   0.136   4.334  14.605  0.6808  0.3273 -1.9768
  406TMC3    C1 6058   3.938   4.660  14.709 -0.6042 -0.1543  0.2365
  406TMC3    C2 6059   3.904   4.569  14.608  0.5454  0.2295 -0.6294
  406TMC3    C3 6060   3.996   4.550  14.505 -0.0259  0.9225 -0.2743
  406TMC3    C4 6061   4.059   0.003  14.710  0.3744  0.5257 -1.0854
  406TMC3    C5 6062   4.148   4.692  14.610  0.2187 -0.0426  0.4545
  406TMC3    C6 6063   4.120   4.604  14.513 -1.1486  0.1836  0.1551
  406TMC3     C 6064   3.841   4.717  14.794  0.6831  0.0143  0.2250
  406TMC3     O 6065   3.863   0.091  14.866  0.3060  1.0444  0.5606
  406TMC3     H 6066   3.809   4.518  14.615  0.8490 -0.4049 -1.0418
  406TMC3    H1 6067   4.072   0.076  14.789 -1.1784 -0.3211 -0.0410
  406TMC3    H2 6068   4.149   4.610  14.409 -0.3978  1.7565  0.4643
  406TMC3    C7 6069   4.289   4.714  14.652  0.2822  0.3261 -0.4407
  406TMC3    C8 6070   3.981   4.419  14.436 -0.5187  0.4437  0.0650
  406TMC3    O1 6071   4.301   0.066  14.751  0.6624  0.5645 -0.2275
  406TMC3    O2 6072   3.869   4.375  14.430  0.1266 -0.5139 -0.1620
  407MPD2     C 6073   2.023   0.848   9.560 -0.4877 -0.1196  0.5434
  407MPD2    C1 6074   2.035   0.982   9.509 -0.1874  0.8088 -0.0558
  407MPD2    C2 6075   2.105   1.075   9.590  0.0778  0.2260  0.1436
  407MPD2    C3 6076   2.165   1.030   9.709 -0.1356  0.0288  0.8374
  407MPD2    C4 6077   2.144   0.901   9.760 -1.1445  0.0422  0.4861
  407MPD2    C5 6078   2.085   0.809   9.678  0.1706 -0.1510  0.2670
  407MPD2     H 6079   2.129   1.176   9.560 -0.8790  0.0535 -1.2206
  407MPD2    H1 6080   2.184   0.866   9.855 -0.9745  0.5361  0.5973
  407MPD2    H2 6081   1.975   0.769   9.503  2.1148 -1.0025 -0.4476
  407MPD2    H3 6082   2.083   0.706   9.709 -1.0334  0.4750  2.2803
  407MPD2     N 6083   2.238   1.115   9.792  0.2343  0.0322  0.7844
  407MPD2    H5 6084   2.275   1.081   9.880  1.9954 -1.4934 -0.5353
  407MPD2    N1 6085   1.977   1.033   9.393  0.1877  0.1263 -0.0328
  407MPD2    H7 6086   1.989   1.134   9.391  1.7351 -0.0744 -1.1555
  408TMC3    C1 6087   1.905   1.039   9.172 -0.4770 -0.2223  0.0664
  408TMC3    C2 6088   1.995   1.013   9.069  0.2318 -1.2548 -0.5032
  408TMC3    C3 6089   2.032   1.118   8.983  0.1872 -0.3791 -0.7490
  408TMC3    C4 6090   1.865   1.167   9.199  0.1406  0.6960  0.2040
  408TMC3    C5 6091   1.905   1.268   9.116  0.2979  0.1242 -0.4074
  408TMC3    C6 6092   1.984   1.241   9.008  0.1828  0.3314  0.3473
  408TMC3     C 6093   1.921   0.958   9.292 -0.3029  0.0613  0.0485
  408TMC3     O 6094   1.917   0.832   9.286  0.0173 -0.2707 -0.0623
  408TMC3     H 6095   2.054   0.922   9.067 -1.7467 -2.5374 -0.0353
  408TMC3    H1 6096   1.795   1.189   9.278  1.3177 -0.9603  1.6973
  408TMC3    H2 6097   2.015   1.327   8.950  0.1795  1.2584  1.7291
  408TMC3    C7 6098   1.834   1.393   9.115  0.6968  0.2579 -0.5266
  408TMC3    C8 6099   2.161   1.108   8.918  0.1459 -0.1595  0.0426
  408TMC3    O1 6100   1.798   1.422   9.005  0.2282  0.1791 -0.1535
  408TMC3    O2 6101   2.190   0.997   8.873 -0.2637 -0.3929 -0.1129
  409MPD2     C 6102   1.428   2.128  16.846  0.5200 -0.6462  0.6287
  409MPD2    C1 6103   1.520   2.183  16.937  0.4920 -0.9882 -0.3361
  409MPD2    C2 6104   1.617   2.276  16.892  0.3678  0.6510 -0.4878
  409MPD2    C3 6105   1.630   2.300  16.756 -0.4696  0.2893  0.2244
  409MPD2    C4 6106   1.550   2.235  16.661 -0.0754 -0.3428 -0.1871
  409MPD2    C5 6107   1.450   2.152  16.710 -0.0720  0.4157  0.1373
  409MPD2     H 6108   1.692   2.315  16.960 -1.7471  2.7663  0.6306
  409MPD2    H1 6109   1.568   2.249  16.555  0.2255 -1.9573 -0.3464
  409MPD2    H2 6110   1.332   2.084  16.868  0.5369 -0.3057  1.3644
  409MPD2    H3 6111   1.370   2.109  16.651 -1.9323  1.1195  2.1810
  409MPD2     N 6112   1.713   2.400  16.711 -0.1307 -0.2441 -0.4367
  409MPD2    H5 6113   1.712   2.415  16.610  1.9373 -2.4705 -0.7835
  409MPD2    N1 6114   1.516   2.141  17.070 -0.6842 -0.3652  0.0050
  409MPD2    H7 6115   1.589   2.175  17.132 -0.5676  0.8960 -0.8326
  410TMC3    C1 6116   1.911   2.542  16.721  0.4895 -0.2766 -0.3259
  410TMC3    C2 6117   1.990   2.620  16.803 -0.6759  0.0785  0.1209
  410TMC3    C3 6118   2.114   2.660  16.750 -0.3259  0.2372 -0.3492
  410TMC3    C4 6119   1.937   2.516  16.587 -0.6294 -0.0383  0.1288
  410TMC3    C5 6120   2.050   2.566  16.540  0.3368  0.1662  0.0607
  410TMC3    C6 6121   2.143   2.629  16.616  0.4685  0.3583  0.4828
  410TMC3     C 6122   1.794   2.480  16.784 -0.4255  0.0142  0.0021
  410TMC3     O 6123   1.787   2.510  16.902 -0.1663  0.1188  0.2412
  410TMC3     H 6124   1.972   2.645  16.907 -1.9194 -0.7510  0.0987
  410TMC3    H1 6125   1.866   2.467  16.521 -1.8866 -0.0996  1.5236
  410TMC3    H2 6126   2.236   2.657  16.568  0.5625 -1.7311 -0.5474
  410TMC3    C7 6127   2.061   2.579  16.397 -0.3258  0.6091 -0.1728
  410TMC3    C8 6128   2.222   2.670  16.850  0.2111 -0.2461  0.6491
  410TMC3    O1 6129   2.003   2.488  16.341  0.4865  1.1583  0.0477
  410TMC3    O2 6130   2.189   2.702  16.965  0.1983  0.1197  0.3598
  411MPD2     C 6131   2.319   2.543  14.305 -0.0295  0.9211  0.3186
  411MPD2    C1 6132   2.195   2.600  14.330  0.0029 -0.0581  0.4550
  411MPD2    C2 6133   2.083   2.519  14.338  0.0032  0.0118  0.4098
  411MPD2    C3 6134   2.097   2.381  14.321  0.7353 -0.1115 -0.3756
  411MPD2    C4 6135   2.219   2.324  14.300 -0.4582 -0.4323  0.2504
  411MPD2    C5 6136   2.331   2.406  14.286 -0.2913 -0.6559 -0.1696
  411MPD2     H 6137   1.986   2.566  14.347  0.1160  0.2984  0.1211
  411MPD2    H1 6138   2.233   2.220  14.274 -1.1855 -0.2945 -0.6475
  411MPD2    H2 6139   2.404   2.610  14.304  0.7597 -0.0519  2.3367
  411MPD2    H3 6140   2.427   2.357  14.274  0.4155  0.5869  0.4877
  411MPD2     N 6141   1.981   2.300  14.305  0.3895 -0.3501 -0.6817
  411MPD2    H5 6142   1.994   2.208  14.263  2.7426  0.0906 -0.9164
  411MPD2    N1 6143   2.181   2.736  14.332  0.0029  0.1395 -0.6137
  411MPD2    H7 6144   2.258   2.798  14.310  3.0737 -2.2095  3.5786
  412TMC3    C1 6145   1.742   2.249  14.311 -0.1264  0.2797  0.3949
  412TMC3    C2 6146   1.620   2.299  14.324  0.2154 -0.4605  0.0690
  412TMC3    C3 6147   1.519   2.238  14.257 -0.1962 -0.4674 -0.3441
  412TMC3    C4 6148   1.763   2.127  14.248  0.5498  0.0818  0.1431
  412TMC3    C5 6149   1.652   2.058  14.201 -0.6324  0.1299  0.2467
  412TMC3    C6 6150   1.532   2.112  14.204  0.4273 -0.2177  0.1929
  412TMC3     C 6151   1.858   2.325  14.358  0.5979 -0.2436 -0.0480
  412TMC3     O 6152   1.823   2.419  14.431  0.1984 -0.1343  0.3721
  412TMC3     H 6153   1.608   2.399  14.363  0.2465  0.0537 -1.2722
  412TMC3    H1 6154   1.866   2.103  14.224  0.4267  0.4268 -0.7028
  412TMC3    H2 6155   1.449   2.051  14.171 -0.8983  1.2007  0.8938
  412TMC3    C7 6156   1.668   2.003  14.071 -0.3370 -0.0035  0.2705
  412TMC3    C8 6157   1.457   2.331  14.164  0.0281 -0.1157 -0.0928
  412TMC3    O1 6158   1.589   2.032  13.983 -0.1819  0.0391 -0.2506
  412TMC3    O2 6159   1.447   2.445  14.200 -0.2539  0.4537  0.0465
  413MPD2     C 6160   3.592   0.637  15.828 -0.5610 -0.5758  0.1584
  413MPD2    C1 6161   3.565   0.667  15.697  0.3156  0.5721 -0.1771
  413MPD2    C2 6162   3.660   0.631  15.598 -0.2946  0.6563  0.0679
  413MPD2    C3 6163   3.773   0.560  15.634 -0.1861  0.5984 -0.8592
  413MPD2    C4 6164   3.790   0.516  15.766 -1.2043 -0.3597 -0.0294
  413MPD2    C5 6165   3.704   0.559  15.867 -0.4218  0.5568 -0.3431
  413MPD2     H 6166   3.648   0.639  15.490 -2.0958 -2.6739  0.0377
  413MPD2    H1 6167   3.863   0.440  15.792 -1.1131 -0.5024 -0.6891
  413MPD2    H2 6168   3.527   0.673  15.907 -0.3961 -0.5438  0.2790
  413MPD2    H3 6169   3.722   0.527  15.968 -0.4101  1.5353 -0.0296
  413MPD2     N 6170   3.843   0.502  15.524 -0.0049 -0.3679  0.1978
  413MPD2    H5 6171   3.811   0.530  15.432 -2.4368 -1.1324  0.7967
  413MPD2    N1 6172   3.449   0.739  15.679 -0.1238 -0.4354 -0.1936
  413MPD2    H7 6173   3.394   0.747  15.764  0.6046  0.2269  0.2135
  414TMC3    C1 6174   3.984   0.364  15.392  0.7461  0.0725  0.0798
  414TMC3    C2 6175   4.087   0.273  15.387  0.3937 -0.4365 -0.4246
  414TMC3    C3 6176   4.117   0.216  15.266 -0.4493  0.0182  0.5224
  414TMC3    C4 6177   3.928   0.409  15.279 -0.4467  0.0050 -0.0049
  414TMC3    C5 6178   3.949   0.346  15.160 -0.7873 -0.3141  0.7699
  414TMC3    C6 6179   4.039   0.241  15.155 -0.2345 -0.3863 -0.0674
  414TMC3     C 6180   3.946   0.411  15.526 -0.1571  0.3341  0.1966
  414TMC3     O 6181   4.011   0.373  15.626 -0.3658 -0.4777 -0.1718
  414TMC3     H 6182   4.133   0.244  15.481 -1.4667 -1.2196  0.2568
  414TMC3    H1 6183   3.853   0.488  15.277  1.5252  1.9740  3.1955
  414TMC3    H2 6184   4.058   0.168  15.078  2.3088  0.1909  0.0158
  414TMC3    C7 6185   3.968   0.431  15.045  0.0575 -0.4420 -0.5308
  414TMC3    C8 6186   4.243   0.147  15.253  0.0734  0.6401 -1.0838
  414TMC3    O1 6187   3.951   0.551  15.073 -0.4115  0.0684  0.6575
  414TMC3    O2 6188   4.260   0.059  15.171  0.7129 -0.6929  0.6998
  415TMC3    C1 6189   4.146   3.506  10.043  0.1427 -0.7034  0.0590
  415TMC3    C2 6190   4.167   3.574   9.932 -0.0518  0.6138  0.5847
  415TMC3    C3 6191   4.103   3.526   9.822  0.1350 -0.1101 -0.0710
  415TMC3    C4 6192   4.055   3.406  10.065  0.1510  0.8001  0.3049
  415TMC3    C5 6193   3.989   3.366   9.955 -0.4536  0.5276  0.5225
  415TMC3    C6 6194   4.007   3.427   9.833  0.0406 -0.7643  0.4476
  415TMC3     C 6195   4.212   3.542  10.170 -0.9356  0.1714 -0.2527
  415TMC3     O 6196   4.162   3.524  10.279 -0.0633 -0.1549 -0.2812
  415TMC3     H 6197   4.241   3.652   9.939  0.9692 -0.1562 -1.7245
  415TMC3    H1 6198   4.031   3.367  10.163  2.5256 -1.3499  0.0076
  415TMC3    H2 6199   3.946   3.395   9.749 -1.1869  1.4563  0.4997
  415TMC3    C7 6200   3.908   3.249   9.971  0.3841  1.0824  0.7555
  415TMC3    C8 6201   4.122   3.587   9.691 -0.3715  0.1927  0.4845
  415TMC3    O1 6202   3.824   3.229   9.883 -0.5770 -0.2417 -0.3346
  415TMC3    O2 6203   4.050   3.552   9.601 -0.0113 -0.7512 -0.5878
  416MPD2     C 6204   0.756   2.244  11.965  0.4180 -0.4175 -0.2855
  416MPD2    C1 6205   0.712   2.258  11.835 -0.6766 -0.0073  0.1335
  416MPD2    C2 6206   0.763   2.172  11.740 -0.6448 -0.1265  0.4021
  416MPD2    C3 6207   0.846   2.071  11.773  0.2852 -0.3567 -0.2296
  416MPD2    C4 6208   0.877   2.050  11.907 -0.1100 -0.7202 -0.7514
  416MPD2    C5 6209   0.839   2.145  11.995  0.1045  0.9252  0.1917
  416MPD2     H 6210   0.740   2.193  11.636 -1.3975 -1.5545  0.2744
  416MPD2    H1 6211   0.950   1.976  11.936  1.8834  1.5714  0.0010
  416MPD2    H2 6212   0.727   2.312  12.044  1.5489  0.2961 -0.4833
  416MPD2    H3 6213   0.887   2.142  12.092 -2.0701 -1.4848  1.1900
  416MPD2     N 6214   0.924   1.997  11.681  0.1378 -0.0640  0.0799
  416MPD2    H5 6215   0.994   1.932  11.716 -2.0326 -1.7623  1.2382
  416MPD2    N1 6216   0.626   2.368  11.801  0.8202  0.2921 -0.9590
  416MPD2    H7 6217   0.597   2.427  11.879 -3.0233 -1.7463 -0.8789
  417TMC3    C1 6218   0.512   2.536  11.672 -0.2304 -0.4372  0.8420
  417TMC3    C2 6219   0.484   2.591  11.795  0.9012 -0.3661 -0.2823
  417TMC3    C3 6220   0.460   2.724  11.792  0.0590  0.1463  0.8994
  417TMC3    C4 6221   0.521   2.603  11.557  0.0519  0.2632  0.0020
  417TMC3    C5 6222   0.496   2.737  11.558  0.0095 -0.0364  0.2972
  417TMC3    C6 6223   0.460   2.796  11.673 -1.0476  0.5901 -0.2963
  417TMC3     C 6224   0.586   2.408  11.679 -0.3566 -0.5691  0.9505
  417TMC3     O 6225   0.622   2.360  11.577 -0.0083  0.0695  0.4621
  417TMC3     H 6226   0.475   2.524  11.880  3.6656 -1.3634 -0.7668
  417TMC3    H1 6227   0.549   2.540  11.474 -1.5563  1.4035 -1.4126
  417TMC3    H2 6228   0.441   2.903  11.683  0.0804  0.9944 -2.6995
  417TMC3    C7 6229   0.487   2.811  11.438 -0.2947  0.0468  0.2790
  417TMC3    C8 6230   0.440   2.803  11.916  0.6500  0.2319  0.0057
  417TMC3    O1 6231   0.508   2.929  11.452 -0.3033  0.1322  0.0253
  417TMC3    O2 6232   0.411   2.922  11.902 -0.3024 -0.2792 -0.3099
  418TMC3    C1 6233   0.196   4.101   0.833 -0.1067 -0.5933 -0.6731
  418TMC3    C2 6234   0.132   4.204   0.770 -0.1127 -0.4341  1.2147
  418TMC3    C3 6235   0.001   4.235   0.804 -1.0719 -0.5224  0.3412
  418TMC3    C4 6236   0.125   4.029   0.929  0.5630  0.3514  0.4166
  418TMC3    C5 6237   4.712   4.053   0.953 -0.1513  0.2137  0.4444
  418TMC3    C6 6238   4.645   4.151   0.888 -0.4625  0.2040 -0.2803
  418TMC3     C 6239   0.298   4.027   0.763 -0.1699 -0.0484 -0.2008
  418TMC3     O 6240   0.305   4.047   0.642  0.4897 -0.5680 -1.0065
  418TMC3     H 6241   0.191   4.257   0.696 -1.8977 -0.4582 -0.2190
  418TMC3    H1 6242   0.164   3.942   0.981  2.1051 -1.2711 -3.4345
  418TMC3    H2 6243   4.540   4.172   0.900 -0.2955  1.0448 -0.2608
  418TMC3    C7 6244   4.632   3.944   1.002 -0.9507 -0.1237  0.3384
  418TMC3    C8 6245   4.657   4.295   0.689 -0.4721  0.8010 -0.3045
  418TMC3    O1 6246   4.682   3.834   0.995 -0.3149 -0.1361  0.0960
  418TMC3    O2 6247   4.712   4.386   0.632 -0.3380 -0.2784  0.5920
  419MPD2     C 6248   3.040   2.116  12.052  0.4679 -0.1183  0.1256
  419MPD2    C1 6249   3.065   2.252  12.070  0.0059 -0.2952  0.4001
  419MPD2    C2 6250   3.069   2.307  12.194  0.6891 -0.1055  0.5027
  419MPD2    C3 6251   3.066   2.224  12.299  0.7741 -0.1865 -0.2587
  419MPD2    C4 6252   3.044   2.089  12.286 -0.4155  0.0424  0.5825
  419MPD2    C5 6253   3.032   2.037  12.160 -1.0405  0.4621 -0.7850
  419MPD2     H 6254   3.074   2.415  12.202 -0.8856  0.2190 -2.6754
  419MPD2    H1 6255   3.064   2.020  12.368  0.5725  0.0158  0.3202
  419MPD2    H2 6256   3.013   2.069  11.959 -0.7880  0.4696  0.2005
  419MPD2    H3 6257   3.025   1.929  12.148  0.9304  0.0774  1.5748
  419MPD2     N 6258   3.087   2.283  12.423  0.4867  0.0994  0.1478
  419MPD2    H5 6259   3.105   2.383  12.429  1.6299 -0.0793 -0.1476
  419MPD2    N1 6260   3.088   2.330  11.960 -0.0817 -0.0012  0.2846
  419MPD2    H7 6261   3.079   2.429  11.982  0.5922  0.2180 -0.4417
  420TMC3    C1 6262   3.067   2.333  12.640  0.2255  0.6520  0.8219
  420TMC3    C2 6263   3.020   2.455  12.597 -0.5976  0.4836  0.1331
  420TMC3    C3 6264   2.999   2.553  12.695 -0.8908  0.0325  0.4295
  420TMC3    C4 6265   3.084   2.308  12.771  0.2869 -0.7666  0.0512
  420TMC3    C5 6266   3.065   2.414  12.859 -0.2234 -0.9437  0.0659
  420TMC3    C6 6267   3.028   2.537  12.822 -0.0137  0.6529 -0.4206
  420TMC3     C 6268   3.071   2.226  12.548  0.4983 -0.1306 -0.0839
  420TMC3     O 6269   3.055   2.112  12.586 -0.0451  0.3321  0.1782
  420TMC3     H 6270   2.975   2.485  12.503  2.0192 -2.4419 -2.0307
  420TMC3    H1 6271   3.124   2.212  12.805  0.9193 -0.2003  0.9129
  420TMC3    H2 6272   2.998   2.620  12.885 -2.6439 -0.6210 -0.0111
  420TMC3    C7 6273   3.100   2.408  12.999  0.9520  0.7443 -0.3093
  420TMC3    C8 6274   2.969   2.683  12.651 -0.3049  0.5890  0.6393
  420TMC3    O1 6275   3.098   2.302  13.059 -0.2979 -0.5104 -0.0514
  420TMC3    O2 6276   2.889   2.741  12.727 -0.0340 -0.2438  0.5770
  421TMC3    C1 6277   4.521   4.236  14.035 -0.2325  0.0401  0.0757
  421TMC3    C2 6278   4.586   4.339  14.094 -0.6995 -0.3228  0.2264
  421TMC3    C3 6279   4.719   4.343  14.083  0.4334  0.0771  0.1765
  421TMC3    C4 6280   4.578   4.123  13.992 -0.1429 -0.2930  0.5215
  421TMC3    C5 6281   4.718   4.123  13.995  0.6583 -0.6614 -0.6196
  421TMC3    C6 6282   0.065   4.239  14.029 -0.3589 -0.4514  0.6473
  421TMC3     C 6283   4.378   4.255  14.030 -0.1959  0.6191  0.1600
  421TMC3     O 6284   4.336   4.336  14.111 -0.2217  0.5327  0.2703
  421TMC3     H 6285   4.533   4.417  14.148  1.3825 -0.2227  2.1417
  421TMC3    H1 6286   4.514   4.040  13.964 -1.2229  0.5159  0.5879
  421TMC3    H2 6287   0.171   4.252  14.009 -0.5666 -0.4215 -0.4170
  421TMC3    C7 6288   0.076   4.011  13.946 -0.5018 -0.0897  0.3754
  421TMC3    C8 6289   0.079   4.439  14.153 -0.2562 -0.0358  0.2952
  421TMC3    O1 6290   0.195   4.030  13.939  0.1236  0.4835  0.0396
  421TMC3    O2 6291   0.196   4.409  14.164  0.0681  0.5022  0.0667
  422TMC3    C1 6292   2.000   0.440  12.533  0.8470  0.1549 -0.9305
  422TMC3    C2 6293   1.957   0.550  12.466 -0.2603 -0.1199 -0.0516
  422TMC3    C3 6294   1.840   0.612  12.507 -0.2346  0.1301 -0.4900
  422TMC3    C4 6295   1.913   0.369  12.612 -0.7615 -0.0991  0.1520
  422TMC3    C5 6296   1.796   0.429  12.644 -0.0497 -0.2385 -0.5283
  422TMC3    C6 6297   1.748   0.550  12.592  0.4416  0.1568  0.0345
  422TMC3     C 6298   2.096   0.363  12.465 -0.1051  0.7914 -0.2303
  422TMC3     O 6299   2.123   0.401  12.352  0.2364 -0.3285 -0.1885
  422TMC3     H 6300   2.017   0.591  12.385  1.4525 -1.7194  0.4206
  422TMC3    H1 6301   1.952   0.278  12.656 -0.3819  0.8387  1.7432
  422TMC3    H2 6302   1.667   0.604  12.640 -0.0786 -1.2757  0.7694
  422TMC3    C7 6303   1.693   0.338  12.689 -0.5782  0.5722 -0.4394
  422TMC3    C8 6304   1.821   0.748  12.472  0.2370  0.1780  0.9241
  422TMC3    O1 6305   1.727   0.219  12.670 -1.1269 -0.1907  0.1965
  422TMC3    O2 6306   1.924   0.802  12.440 -0.2754 -0.2563 -0.1064
  423MPD2     C 6307   3.666   2.132   0.444 -0.0687  1.1162  0.2844
  423MPD2    C1 6308   3.539   2.077   0.423  0.0242 -0.4661 -0.6126
  423MPD2    C2 6309   3.508   2.032   0.298  0.3307  0.0246  0.1362
  423MPD2    C3 6310   3.603   2.029   0.197 -0.9036  0.3435  0.7109
  423MPD2    C4 6311   3.728   2.068   0.231  0.4292 -0.3347  0.2623
  423MPD2    C5 6312   3.762   2.124   0.349  0.5257  0.7054  0.2491
  423MPD2     H 6313   3.406   2.005   0.275  0.8698 -2.2971  0.5204
  423MPD2    H1 6314   3.803   2.073   0.152 -0.4862  1.3764 -0.5126
  423MPD2    H2 6315   3.694   2.174   0.539  1.1508  2.8354 -0.8372
  423MPD2    H3 6316   3.859   2.168   0.369  1.5396 -1.6340  0.4427
  423MPD2     N 6317   3.583   1.968   0.074 -0.4655  0.3022  0.8226
  423MPD2    H5 6318   3.667   1.968   0.018 -0.9099 -2.9995  0.1735
  423MPD2    N1 6319   3.428   2.075   0.515 -0.9556 -0.0034 -0.4602
  423MPD2    H7 6320   3.347   2.021   0.485 -0.3987  0.3211 -2.5587
  424TMC3    C1 6321   3.330   2.022   0.717 -0.0624  0.5971 -0.0109
  424TMC3    C2 6322   3.365   1.955   0.827 -0.0204  0.0991  0.0518
  424TMC3    C3 6323   3.274   1.863   0.879  0.2042 -0.3517 -0.0445
  424TMC3    C4 6324   3.215   2.002   0.643  0.4718 -0.1368 -0.0708
  424TMC3    C5 6325   3.127   1.910   0.699  0.2352 -0.5633  0.4865
  424TMC3    C6 6326   3.153   1.844   0.819  0.3520 -0.2621  0.3726
  424TMC3     C 6327   3.443   2.087   0.652  0.4772  0.0512 -0.6622
  424TMC3     O 6328   3.542   2.112   0.716 -0.6707  0.2239  0.0437
  424TMC3     H 6329   3.462   1.970   0.872  1.6944 -2.1265 -2.9146
  424TMC3    H1 6330   3.196   2.047   0.546  0.9311  2.2310  0.9282
  424TMC3    H2 6331   3.095   1.768   0.868 -0.1060 -1.4301 -1.9601
  424TMC3    C7 6332   2.992   1.900   0.635  0.4501 -0.0659  0.6368
  424TMC3    C8 6333   3.317   1.792   0.994 -0.1164 -0.6992 -0.0763
  424TMC3    O1 6334   2.985   1.941   0.522 -0.1745 -0.1997 -0.5710
  424TMC3    O2 6335   3.249   1.700   1.033 -0.4357  0.1837  0.5924
  425MPD2     C 6336   2.410   0.636  17.671  0.1855 -0.2796  0.2397
  425MPD2    C1 6337   2.348   0.589  17.559  0.0842  0.1918 -0.2020
  425MPD2    C2 6338   2.215   0.600  17.548 -0.2287 -0.1367  0.4405
  425MPD2    C3 6339   2.143   0.662  17.646 -0.9378  0.4412 -0.0332
  425MPD2    C4 6340   2.206   0.727   0.066  0.6251  0.8605 -0.0491
  425MPD2    C5 6341   2.340   0.706   0.083  0.0103  0.3436  0.0814
  425MPD2     H 6342   2.162   0.557  17.464 -0.0422 -0.0530  0.2826
  425MPD2    H1 6343   2.155   0.781   0.145 -1.2325 -1.0274  0.0332
  425MPD2    H2 6344   2.518   0.624  17.679  0.5940  2.9254 -0.4843
  425MPD2    H3 6345   2.395   0.749   0.165 -2.1488  2.7318  0.2806
  425MPD2     N 6346   2.007   0.647  17.642  0.4380 -0.3171  0.6082
  425MPD2    H5 6347   1.970   0.584  17.572 -3.8913  0.7411  1.9053
  425MPD2    N1 6348   2.424   0.494  17.488  0.2911 -0.2248 -0.0035
  425MPD2    H7 6349   2.517   0.467  17.519  0.8969 -0.1114 -1.7086
  426TMC3    C1 6350   2.465   0.309  17.342  0.1914 -0.4464  0.2873
  426TMC3    C2 6351   2.452   0.256  17.217  0.5265 -0.5292 -0.6906
  426TMC3    C3 6352   2.530   0.156  17.185  0.2808 -0.2271 -0.2089
  426TMC3    C4 6353   2.539   0.246  17.442 -0.4591  0.0926  0.0764
  426TMC3    C5 6354   2.609   0.133  17.405  0.3591 -0.2190 -0.6116
  426TMC3    C6 6355   2.612   0.087  17.276  0.2346  0.2078 -0.3077
  426TMC3     C 6356   2.388   0.437  17.365 -0.4384  0.5787 -0.1795
  426TMC3     O 6357   2.311   0.483  17.276  0.3407 -0.0264  0.4187
  426TMC3     H 6358   2.395   0.309  17.141  0.3939  0.3597  0.0307
  426TMC3    H1 6359   2.539   0.290  17.541  0.8296  0.9096 -0.2777
  426TMC3    H2 6360   2.668   4.716  17.262 -0.0870 -0.3945  2.3141
  426TMC3    C7 6361   2.664   0.049  17.512  0.7186  0.6302  0.2494
  426TMC3    C8 6362   2.575   0.125  17.050  0.3514  0.4175 -0.3231
  426TMC3    O1 6363   2.751   4.687  17.477 -0.4965 -0.0288 -0.3968
  426TMC3    O2 6364   2.671   0.052  17.037 -0.3526  0.6166 -0.6630
  427MPD2     C 6365   0.719   2.400  14.608  0.3661  0.2397 -0.4303
  427MPD2    C1 6366   0.681   2.335  14.721  0.2731  0.1522  0.2758
  427MPD2    C2 6367   0.588   2.390  14.801  0.3855 -0.0126 -0.0943
  427MPD2    C3 6368   0.519   2.505  14.767  0.3437 -0.1498  0.2253
  427MPD2    C4 6369   0.557   2.565  14.653  0.3358  0.1116 -0.4284
  427MPD2    C5 6370   0.657   2.514  14.575  0.7608 -0.5084 -0.5203
  427MPD2     H 6371   0.567   2.341  14.895 -0.5895  0.2867 -0.1572
  427MPD2    H1 6372   0.515   2.658  14.618 -0.0499  0.6808  1.5147
  427MPD2    H2 6373   0.801   2.358  14.551  1.6594 -0.7758  2.1609
  427MPD2    H3 6374   0.687   2.559  14.481  0.3780  0.9757  0.0611
  427MPD2     N 6375   0.412   2.568  14.834 -0.0594  0.4186  0.4158
  427MPD2    H5 6376   0.371   2.654  14.799  1.3233  1.3604  1.0810
  427MPD2    N1 6377   0.758   2.215  14.749 -0.0705  0.1936  0.2135
  427MPD2    H7 6378   0.837   2.197  14.688 -1.1439 -0.1260 -1.0840
  428TMC3    C1 6379   0.862   2.054  14.870  0.3866  0.1434  0.2193
  428TMC3    C2 6380   0.850   1.924  14.909 -0.2676 -0.2559 -0.6454
  428TMC3    C3 6381   0.948   1.847  14.864 -0.0836 -0.6882 -0.3176
  428TMC3    C4 6382   0.985   2.116  14.831 -0.3587  0.1392  0.7746
  428TMC3    C5 6383   1.084   2.026  14.799  0.0628 -0.1382  0.1282
  428TMC3    C6 6384   1.072   1.892  14.818 -0.3574 -0.3171  0.6928
  428TMC3     C 6385   0.746   2.141  14.864  0.3559 -0.6089 -0.1790
  428TMC3     O 6386   0.657   2.129  14.944  0.2907 -0.3423  0.2318
  428TMC3     H 6387   0.757   1.881  14.945 -0.0744 -2.0968 -2.3620
  428TMC3    H1 6388   0.996   2.222  14.814 -1.3386 -0.0882 -1.2760
  428TMC3    H2 6389   1.148   1.822  14.786 -0.1295 -0.5106  1.6570
  428TMC3    C7 6390   1.209   2.081  14.749  0.3193 -0.8446  0.1518
  428TMC3    C8 6391   0.953   1.714  14.925 -0.4254 -0.4401 -0.9619
  428TMC3    O1 6392   1.275   2.006  14.678 -0.0433 -0.6415  0.2504
  428TMC3    O2 6393   1.012   1.624  14.866  0.2659 -0.0706  0.1350
  429MPD2     C 6394   2.224   3.351  17.412 -0.3576  0.2498 -0.5921
  429MPD2    C1 6395   2.228   3.273  17.302 -0.4838 -0.1731  0.2781
  429MPD2    C2 6396   2.341   3.283  17.221  0.0222 -0.3528  0.5973
  429MPD2    C3 6397   2.452   3.359  17.245  0.3859 -0.1326  0.5204
  429MPD2    C4 6398   2.441   3.447  17.354 -0.6668  0.3516  0.1287
  429MPD2    C5 6399   2.324   3.444  17.428  0.8685  0.3782 -0.5248
  429MPD2     H 6400   2.350   3.216  17.137  0.1624  3.2985 -2.2860
  429MPD2    H1 6401   2.521   3.512  17.388  0.7576 -0.7072 -1.1438
  429MPD2    H2 6402   2.145   3.352  17.485  0.6022 -2.2985  0.4945
  429MPD2    H3 6403   2.313   3.506  17.516 -1.2977 -0.9890  0.1669
  429MPD2     N 6404   2.549   3.369  17.144 -0.0966  0.1085  0.0935
  429MPD2    H5 6405   2.544   3.311  17.061 -0.1195  0.1261  0.0823
  429MPD2    N1 6406   2.125   3.189  17.264 -0.7751  0.2969 -0.9463
  429MPD2    H7 6407   2.139   3.153  17.170 -0.1784  1.0133 -1.1320
  430TMC3    C1 6408   2.763   3.401  17.053  0.0048 -0.3803  0.3679
  430TMC3    C2 6409   2.735   3.452  16.929  0.6735 -0.1774 -0.0597
  430TMC3    C3 6410   2.792   3.389  16.820  0.8031 -0.8041  0.5529
  430TMC3    C4 6411   2.834   3.289  17.075 -0.2996 -0.0419  0.3452
  430TMC3    C5 6412   2.883   3.230  16.961  0.0054  0.7110 -1.3260
  430TMC3    C6 6413   2.869   3.273  16.831  0.3875  0.0607  0.2020
  430TMC3     C 6414   2.675   3.426  17.164  0.0483 -0.2773  0.0609
  430TMC3     O 6415   2.702   3.515  17.244 -0.2537 -0.4555  0.2798
  430TMC3     H 6416   2.680   3.542  16.905 -1.1387 -1.0211  0.8927
  430TMC3    H1 6417   2.854   3.252  17.175  0.8200  2.3544  1.0193
  430TMC3    H2 6418   2.926   3.245  16.743  0.8293  2.8878 -0.3867
  430TMC3    C7 6419   2.935   3.094  16.973 -0.5268  0.0611 -0.3677
  430TMC3    C8 6420   2.733   3.408  16.693 -0.4931  0.1730  0.4156
  430TMC3    O1 6421   2.956   3.047  16.861  0.4834 -0.3511  0.1682
  430TMC3    O2 6422   2.619   3.450  16.696 -0.8041 -0.4553  0.1254
  431MPD2     C 6423   3.509   2.827  12.375 -1.3029 -0.0318  0.3570
  431MPD2    C1 6424   3.509   2.900  12.262  0.6332 -0.1571  0.0453
  431MPD2    C2 6425   3.489   2.829  12.143 -0.3314  0.1665 -0.5707
  431MPD2    C3 6426   3.480   2.693  12.130 -0.4930 -0.3645 -0.5745
  431MPD2    C4 6427   3.506   2.621  12.246  0.2236 -0.0978 -0.6192
  431MPD2    C5 6428   3.518   2.686  12.369  0.0234 -0.1432 -0.1009
  431MPD2     H 6429   3.477   2.887  12.052 -1.8784 -1.5189 -1.4369
  431MPD2    H1 6430   3.508   2.513  12.260  1.6126 -0.0470 -0.4469
  431MPD2    H2 6431   3.527   2.870  12.473 -0.6112 -0.7386  0.5341
  431MPD2    H3 6432   3.540   2.629  12.459  2.1540 -0.1111 -0.5926
  431MPD2     N 6433   3.442   2.619  12.016 -0.3858  0.2132  0.0925
  431MPD2    H5 6434   3.435   2.518  12.016  0.4228  0.1600  0.7764
  431MPD2    N1 6435   3.528   3.041  12.252  0.1624 -0.0755 -0.1768
  431MPD2    H7 6436   3.561   3.080  12.164 -1.2793  0.3589 -0.5317
  432TMC3    C1 6437   3.340   2.588  11.798 -0.4291 -0.2400 -0.8908
  432TMC3    C2 6438   3.400   2.558  11.677  0.8551  0.1134 -0.2447
  432TMC3    C3 6439   3.347   2.457  11.603 -0.4931  0.4134  0.1239
  432TMC3    C4 6440   3.229   2.522  11.843  0.0495 -0.0743 -0.0751
  432TMC3    C5 6441   3.179   2.412  11.769  0.3769 -0.2451  0.1430
  432TMC3    C6 6442   3.244   2.383  11.650  0.0543  0.0579 -0.4364
  432TMC3     C 6443   3.410   2.679  11.896 -1.0215  0.1010 -0.5729
  432TMC3     O 6444   3.410   2.797  11.867  0.1775 -0.6165 -0.7301
  432TMC3     H 6445   3.485   2.618  11.646 -0.9134  2.2932 -0.9282
  432TMC3    H1 6446   3.185   2.556  11.936  1.3105  0.0822  0.4628
  432TMC3    H2 6447   3.190   2.308  11.593 -0.3292 -1.1179  1.4807
  432TMC3    C7 6448   3.109   2.299  11.833  0.3992 -0.7914  0.5912
  432TMC3    C8 6449   3.424   2.395  11.496 -0.0376 -0.0416 -0.1860
  432TMC3    O1 6450   3.132   2.191  11.786 -0.0320 -0.2670 -0.3003
  432TMC3    O2 6451   3.370   2.308  11.428 -0.4843 -0.2033  0.1437
  433MPD2     C 6452   2.229   1.939  10.645 -0.3685  0.1332  0.1852
  433MPD2    C1 6453   2.207   1.829  10.721  0.6057 -0.0580 -0.5572
  433MPD2    C2 6454   2.248   1.824  10.854 -0.0233 -1.0937 -0.1283
  433MPD2    C3 6455   2.312   1.934  10.904 -0.0533  0.1094 -0.0372
  433MPD2    C4 6456   2.325   2.050  10.824  0.3997 -0.3722 -0.6404
  433MPD2    C5 6457   2.287   2.048  10.693  0.1954 -0.3907  0.0440
  433MPD2     H 6458   2.234   1.744  10.925  0.8180 -2.2744 -1.2971
  433MPD2    H1 6459   2.379   2.136  10.863  1.4709 -0.3810 -2.0922
  433MPD2    H2 6460   2.200   1.937  10.540  1.3079  1.3345 -0.3003
  433MPD2    H3 6461   2.311   2.132  10.629  1.0600  0.9140  2.1121
  433MPD2     N 6462   2.375   1.910  11.027 -0.0113 -0.5689 -0.6071
  433MPD2    H5 6463   2.354   1.823  11.075 -1.5482  0.4727  0.6109
  433MPD2    N1 6464   2.155   1.709  10.661 -0.3585 -0.2014 -0.5132
  433MPD2    H7 6465   2.150   1.711  10.559 -0.6454 -0.6602 -0.5100
  434TMC3    C1 6466   2.095   1.469  10.671 -0.0621  0.6134 -0.4387
  434TMC3    C2 6467   2.138   1.366  10.744  0.1248 -0.0906  0.1384
  434TMC3    C3 6468   2.217   1.269  10.687 -0.1514 -0.3413 -1.3111
  434TMC3    C4 6469   2.106   1.462  10.531  0.2085 -0.1978 -1.1107
  434TMC3    C5 6470   2.168   1.357  10.474  0.7738  0.4676 -0.4656
  434TMC3    C6 6471   2.234   1.262  10.545 -0.8047  0.0202  0.2059
  434TMC3     C 6472   2.104   1.601  10.734  0.2114  0.5926  0.3909
  434TMC3     O 6473   2.091   1.593  10.853 -0.1776 -0.4609 -0.2913
  434TMC3     H 6474   2.133   1.357  10.852  0.0639 -1.0005  0.0636
  434TMC3    H1 6475   2.062   1.535  10.463 -2.2819  0.8161  1.5955
  434TMC3    H2 6476   2.291   1.188  10.491 -0.7158  0.0269  0.2898
  434TMC3    C7 6477   2.174   1.354  10.327 -0.1092  0.1297  0.4495
  434TMC3    C8 6478   2.282   1.179  10.780 -0.2123  0.5852 -0.0655
  434TMC3    O1 6479   2.267   1.416  10.285  0.0414  0.1910  0.1762
  434TMC3    O2 6480   2.277   1.203  10.897 -0.4050  0.1280  0.2226
  435MPD2     C 6481   3.932   1.539  15.513 -0.4357  1.1882  0.5224
  435MPD2    C1 6482   3.867   1.468  15.615  0.0436 -0.3330  0.5243
  435MPD2    C2 6483   3.950   1.395  15.696  0.0697 -0.3820 -0.3417
  435MPD2    C3 6484   4.090   1.386  15.680  0.3855  0.3114 -0.2700
  435MPD2    C4 6485   4.144   1.461  15.581  0.8073  0.6416  0.2810
  435MPD2    C5 6486   4.065   1.540  15.502 -0.2889  0.6349  0.2268
  435MPD2     H 6487   3.917   1.337  15.781 -2.8826  3.0423  0.8733
  435MPD2    H1 6488   4.251   1.454  15.564  0.9567  3.0304  0.1755
  435MPD2    H2 6489   3.890   1.613  15.445 -1.3389  0.5186  0.3608
  435MPD2    H3 6490   4.111   1.590  15.418 -0.3061  2.7827  1.5140
  435MPD2     N 6491   4.160   1.301  15.766 -0.1325 -0.0100  0.7669
  435MPD2    H5 6492   4.098   1.251  15.829 -1.1122  0.1826 -0.0429
  435MPD2    N1 6493   3.730   1.466  15.649  0.3204 -0.4379 -0.6782
  435MPD2    H7 6494   3.700   1.417  15.732 -1.5313  2.1763  0.2091
  436TMC3    C1 6495   3.339   1.579  15.771  0.0879 -0.2464  0.2563
  436TMC3    C2 6496   3.461   1.510  15.752  0.2294 -0.3021 -0.6524
  436TMC3    C3 6497   3.495   1.494  15.625 -0.4379 -0.2201  0.4043
  436TMC3    C4 6498   3.244   1.601  15.674 -0.4088 -0.5462 -0.6290
  436TMC3    C5 6499   3.277   1.558  15.551  0.0779  0.1637  0.1153
  436TMC3    C6 6500   3.404   1.516  15.525  0.2908  0.9832 -0.4012
  436TMC3     C 6501   3.291   1.614  15.907 -0.0779 -0.6260  0.5470
  436TMC3     O 6502   3.300   1.524  15.988  0.2085 -0.2856  0.0892
  436TMC3     H 6503   3.533   1.510  15.833 -0.1180 -0.7048 -0.3440
  436TMC3    H1 6504   3.148   1.649  15.691  0.4233  0.7630  0.3321
  436TMC3    H2 6505   3.425   1.489  15.423 -0.4109 -1.8279  0.1726
  436TMC3    C7 6506   3.185   1.592  15.439 -0.0588  0.6031  0.4033
  436TMC3    C8 6507   3.628   1.514  15.574  0.0843 -0.6162 -0.3829
  436TMC3    O1 6508   3.083   1.653  15.464 -0.2502  0.2493 -0.3553
  436TMC3    O2 6509   3.635   1.568  15.468 -0.1268 -0.2568  0.2414
  437TMC3    C1 6510   2.502   3.857  12.802 -0.1089  0.3974  0.3896
  437TMC3    C2 6511   2.467   3.958  12.889  0.4776  0.0038  0.4638
  437TMC3    C3 6512   2.471   4.086  12.835  0.8922 -0.4832  0.6119
  437TMC3    C4 6513   2.549   3.882  12.675 -0.3687 -0.5548  0.1690
  437TMC3    C5 6514   2.551   4.008  12.629 -0.1573  0.4548 -0.1571
  437TMC3    C6 6515   2.511   4.114  12.711  0.0864 -0.4570  0.1616
  437TMC3     C 6516   2.566   3.748  12.862  0.2471 -0.5058 -0.4012
  437TMC3     O 6517   2.681   3.739  12.823 -0.3633  0.4289  0.2408
  437TMC3     H 6518   2.435   3.946  12.991  0.0016 -0.7906  0.2210
  437TMC3    H1 6519   2.583   3.792  12.625  1.0195  0.0670  0.0137
  437TMC3    H2 6520   2.535   4.215  12.678  1.3473 -0.5770  0.7247
  437TMC3    C7 6521   2.649   4.035  12.522  0.6331  0.0290  0.4423
  437TMC3    C8 6522   2.475   4.199  12.927 -0.0440  0.4186  0.2590
  437TMC3    O1 6523   2.636   4.138  12.456 -0.0259 -0.0011  0.5396
  437TMC3    O2 6524   2.473   4.167  13.046  0.3927 -0.1815  0.3300
  438MPD2     C 6525   0.442   4.385  16.846 -0.8902 -0.0007  0.7172
  438MPD2    C1 6526   0.423   4.249  16.867 -0.4630 -0.1220 -0.2925
  438MPD2    C2 6527   0.339   4.216  16.966  0.4977  0.1290  0.3629
  438MPD2    C3 6528   0.286   4.303  17.059 -0.7723  0.7135  0.0630
  438MPD2    C4 6529   0.311   4.436  17.039  0.1019  0.0750  0.6471
  438MPD2    C5 6530   0.386   4.473  16.930  0.0194 -0.1247 -0.3352
  438MPD2     H 6531   0.334   4.110  16.991 -1.0927  0.2652  0.6144
  438MPD2    H1 6532   0.283   4.509  17.114 -1.5495  0.5311 -0.4203
  438MPD2    H2 6533   0.506   4.435  16.775  0.6764 -2.8681  0.1027
  438MPD2    H3 6534   0.395   4.579  16.911  1.2605 -0.2065 -0.2444
  438MPD2     N 6535   0.229   4.268  17.183 -0.6788  0.0573 -1.3463
  438MPD2    H5 6536   0.224   4.348  17.245  0.1003 -1.1065  0.2138
  438MPD2    N1 6537   0.487   4.148  16.795  1.0220  0.0546 -0.7493
  438MPD2    H7 6538   0.454   4.053  16.809  1.9346  0.0430  1.2249
  439TMC3    C1 6539   0.655   4.052  16.666  0.0623 -0.0653  0.0361
  439TMC3    C2 6540   0.722   4.044  16.549 -0.1973 -0.1522  0.3969
  439TMC3    C3 6541   0.834   3.963  16.544 -0.2419 -0.0861  0.1067
  439TMC3    C4 6542   0.710   3.982  16.773  0.6262  0.0627 -0.5725
  439TMC3    C5 6543   0.813   3.893  16.753 -0.0836  0.3216 -0.1538
  439TMC3    C6 6544   0.875   3.877  16.637 -0.1798 -0.3556  0.5184
  439TMC3     C 6545   0.577   4.170  16.696 -0.0547  0.6877  0.6715
  439TMC3     O 6546   0.598   4.273  16.633 -0.0752  0.1296 -0.0864
  439TMC3     H 6547   0.677   4.102  16.469  0.5361 -1.7484 -1.1584
  439TMC3    H1 6548   0.661   3.993  16.869  1.0482 -2.4969 -0.0784
  439TMC3    H2 6549   0.973   3.830  16.629  0.0770 -0.0121  1.5942
  439TMC3    C7 6550   0.881   3.857  16.880  0.2280  0.5135  0.1242
  439TMC3    C8 6551   0.887   3.947  16.411 -0.4876  0.4282  0.2647
  439TMC3    O1 6552   0.907   3.946  16.960 -0.4749  0.0469  0.2004
  439TMC3    O2 6553   1.005   3.936  16.397 -0.4369  0.2161 -0.1974
  440MPD2     C 6554   4.140   4.343  14.811 -0.3839  0.5096 -0.2003
  440MPD2    C1 6555   4.176   4.434  14.909  0.0271  0.0447  0.1101
  440MPD2    C2 6556   4.306   4.478  14.924 -0.3265  0.0126 -0.4266
  440MPD2    C3 6557   4.411   4.393  14.873  0.3530  0.6518 -0.1648
  440MPD2    C4 6558   4.370   4.295  14.778  0.4066 -0.3149 -0.1446
  440MPD2    C5 6559   4.239   4.277  14.747 -0.2271  0.1494 -0.4193
  440MPD2     H 6560   4.331   4.554  14.997  0.3338 -0.2799 -0.3481
  440MPD2    H1 6561   4.443   4.231  14.731 -0.6823  0.7791 -3.3319
  440MPD2    H2 6562   4.036   4.323  14.789 -0.9787  1.2767  1.9503
  440MPD2    H3 6563   4.209   4.208  14.668  1.4428 -1.0501 -0.0106
  440MPD2     N 6564   4.552   4.399  14.916  0.3861 -0.1554  0.3505
  440MPD2    H5 6565   4.612   4.321  14.893  1.8150  0.9861  0.1939
  440MPD2    N1 6566   4.072   4.502  14.973 -0.6737  0.4439  0.3597
  440MPD2    H7 6567   4.104   4.585  15.024  0.4719 -1.4578  2.7605
  441TMC3    C1 6568   0.035   4.471  15.009 -0.2309  0.0869  0.0531
  441TMC3    C2 6569   0.088   4.595  15.030 -0.4024 -0.8025 -0.1267
  441TMC3    C3 6570   0.181   4.608  15.132 -0.0542  0.0615  0.0585
  441TMC3    C4 6571   0.060   4.374  15.100  0.3066  0.1299 -0.7120
  441TMC3    C5 6572   0.165   4.389  15.184  0.2841  0.2791 -0.4675
  441TMC3    C6 6573   0.236   4.502  15.193  0.2522 -0.4850 -0.0932
  441TMC3     C 6574   4.613   4.495  14.991  0.3148  0.0840  0.6544
  441TMC3     O 6575   4.565   4.589  15.051  0.4333 -0.0004  0.4436
  441TMC3     H 6576   0.056   4.684  14.977 -0.4506 -0.5961  0.2456
  441TMC3    H1 6577   0.001   4.284  15.104 -0.0830  0.4311  0.2013
  441TMC3    H2 6578   0.308   4.502  15.274  2.1846  1.9455 -1.8107
  441TMC3    C7 6579   0.160   4.310  15.309  0.6507  1.0694  0.0632
  441TMC3    C8 6580   0.157   0.001  15.217  0.1181 -1.1307 -0.2119
  441TMC3    O1 6581   0.264   4.260  15.345 -0.1966 -0.4866 -0.2523
  441TMC3    O2 6582   0.242   0.048  15.288 -0.2938  0.3546 -0.5199
  442MPD2     C 6583   2.048   0.319  17.328 -0.1114 -0.1166 -0.7483
  442MPD2    C1 6584   1.988   0.346  17.206 -0.6282  0.2129 -0.0008
  442MPD2    C2 6585   1.995   0.254  17.117 -0.4295  0.3935 -0.2032
  442MPD2    C3 6586   2.061   0.137  17.126  0.4690 -0.8443  0.2045
  442MPD2    C4 6587   2.120   0.105  17.248 -0.6041 -0.6924 -0.0410
  442MPD2    C5 6588   2.110   0.195  17.351 -0.3943 -0.1562 -0.9278
  442MPD2     H 6589   1.963   0.281  17.016  2.6022 -3.4829 -2.1944
  442MPD2    H1 6590   2.174   0.011  17.261 -0.5078 -0.6377 -0.0456
  442MPD2    H2 6591   2.057   0.389  17.410 -0.7781  0.3583 -1.0796
  442MPD2    H3 6592   2.145   0.172  17.450 -1.0895 -0.9698 -0.8639
  442MPD2     N 6593   2.085   0.052  17.020  0.4242  0.3038 -0.0483
  442MPD2    H5 6594   2.134   4.684  17.033  1.3235  0.8457  0.2845
  442MPD2    N1 6595   1.935   0.477  17.184  0.1711  0.6585  0.1163
  442MPD2    H7 6596   1.896   0.499  17.093 -0.2251  1.8275  0.5773
  443TMC3    C1 6597   1.849   0.683  17.214 -0.5270 -0.5461 -0.3949
  443TMC3    C2 6598   1.864   0.694  17.081  0.0335 -0.1566  0.7339
  443TMC3    C3 6599   1.769   0.756  17.010 -0.5864  0.2715 -0.9712
  443TMC3    C4 6600   1.730   0.723  17.270 -0.3120 -0.3648  0.4562
  443TMC3    C5 6601   1.627   0.769  17.201  0.2628  0.4921 -0.1052
  443TMC3    C6 6602   1.649   0.795  17.071  0.0553  0.3594  0.3969
  443TMC3     C 6603   1.926   0.578  17.275  1.1922 -0.7020 -0.3542
  443TMC3     O 6604   1.921   0.575  17.398 -0.0676  0.0095  0.3888
  443TMC3     H 6605   1.959   0.677  17.031 -0.6860  0.0745 -0.7245
  443TMC3    H1 6606   1.697   0.698  17.370  1.0276 -1.3509  0.6591
  443TMC3    H2 6607   1.573   0.826  17.001  2.0867  4.2246 -0.0990
  443TMC3    C7 6608   1.519   0.671  17.209  0.2964  0.0909  0.4494
  443TMC3    C8 6609   1.779   0.730  16.868  0.2468 -0.1663 -0.3613
  443TMC3    O1 6610   1.558   0.559  17.238  0.8599 -0.5517 -0.0613
  443TMC3    O2 6611   1.830   0.622  16.839  0.1193 -0.1019  0.2744
  444MPD2     C 6612   2.524   4.423  17.235  0.3501 -0.9986  0.1880
  444MPD2    C1 6613   2.429   4.334  17.184  0.2006  0.3446 -1.1941
  444MPD2    C2 6614   2.453   4.291  17.056 -1.1009  0.0837  1.1302
  444MPD2    C3 6615   2.575   4.305  16.988  0.2591 -0.6937  0.5730
  444MPD2    C4 6616   2.670   4.385  17.048 -0.0892  0.0490 -0.5075
  444MPD2    C5 6617   2.644   4.442  17.169 -0.1377 -0.1126  0.4974
  444MPD2     H 6618   2.381   4.221  17.015 -0.1213  0.1762 -0.7775
  444MPD2    H1 6619   2.771   4.401  17.010 -0.2194  1.2770 -0.3269
  444MPD2    H2 6620   2.513   4.460  17.336 -0.4074 -0.7372  0.0105
  444MPD2    H3 6621   2.721   4.498  17.222 -0.6893  0.1400  1.0243
  444MPD2     N 6622   2.600   4.238  16.868 -0.1662  0.0826 -0.0025
  444MPD2    H5 6623   2.519   4.190  16.830  0.2681  1.1515 -2.2822
  444MPD2    N1 6624   2.304   4.303  17.232  0.4063 -0.3992 -0.2169
  444MPD2    H7 6625   2.243   4.238  17.183 -0.5591  1.3171 -1.2926
  445TMC3    C1 6626   2.701   4.174  16.666 -0.5570 -0.4237  0.6757
  445TMC3    C2 6627   2.600   4.080  16.655 -0.0881  0.0559  0.4778
  445TMC3    C3 6628   2.610   3.997  16.550 -0.1742  0.3670  0.3037
  445TMC3    C4 6629   2.808   4.185  16.575  0.1804 -0.3280  0.6662
  445TMC3    C5 6630   2.809   4.101  16.472 -0.4358 -0.2673 -0.4321
  445TMC3    C6 6631   2.711   4.004  16.458 -0.7006  0.0883 -0.2789
  445TMC3     C 6632   2.712   4.250  16.790 -0.4923 -0.4767  0.4100
  445TMC3     O 6633   2.812   4.313  16.815  0.6153  0.5396  0.2035
  445TMC3     H 6634   2.506   4.089  16.709 -1.2090  0.2844 -1.5008
  445TMC3    H1 6635   2.891   4.254  16.588 -1.4707  1.4717  1.5625
  445TMC3    H2 6636   2.715   3.939  16.371  1.7261  1.4578 -1.1867
  445TMC3    C7 6637   2.947   4.074  16.443 -0.0184 -0.7156  0.1964
  445TMC3    C8 6638   2.485   3.922  16.522  0.2218  0.1975 -0.3338
  445TMC3    O1 6639   3.027   4.168  16.433  0.4148 -0.4332  0.0697
  445TMC3    O2 6640   2.421   3.896  16.626 -0.4027  0.1590 -0.4079
  446MPD2     C 6641   2.066   0.897  11.320 -0.1051  0.4081  0.4692
  446MPD2    C1 6642   2.055   0.943  11.189  0.4048  0.0013  0.5872
  446MPD2    C2 6643   2.149   1.037  11.144  0.4859 -0.9051  0.1929
  446MPD2    C3 6644   2.255   1.072  11.221  0.2165  0.3985 -0.0241
  446MPD2    C4 6645   2.272   1.009  11.341 -1.1287  0.1987 -0.1776
  446MPD2    C5 6646   2.181   0.922  11.389  0.1546  0.1396 -0.2299
  446MPD2     H 6647   2.123   1.084  11.050 -0.2887 -3.9198 -1.0804
  446MPD2    H1 6648   2.357   1.037  11.402 -1.2289 -1.5465  0.7676
  446MPD2    H2 6649   2.003   0.825  11.370 -2.2603  1.5481 -0.6166
  446MPD2    H3 6650   2.196   0.884  11.490 -1.2176 -2.5493 -1.0303
  446MPD2     N 6651   2.339   1.171  11.166 -0.6207 -0.5997 -0.1506
  446MPD2    H5 6652   2.326   1.192  11.067  3.3467 -1.5246 -0.8703
  446MPD2    N1 6653   1.941   0.918  11.108 -0.9557  0.1477  0.7770
  446MPD2    H7 6654   1.938   0.981  11.029  0.9729 -2.0413 -1.0351
  447TMC3    C1 6655   2.556   1.280  11.155 -0.4659 -0.1549 -0.1423
  447TMC3    C2 6656   2.539   1.304  11.021  0.5664  0.4912 -0.0164
  447TMC3    C3 6657   2.660   1.323  10.949  0.3597 -0.2320 -0.3898
  447TMC3    C4 6658   2.679   1.281  11.220 -0.2257 -0.5522 -0.0928
  447TMC3    C5 6659   2.797   1.310  11.141 -0.5314 -0.4669  0.1086
  447TMC3    C6 6660   2.785   1.331  11.006  0.4719  0.1423 -0.7811
  447TMC3     C 6661   2.446   1.225  11.232  0.1729 -1.1718 -0.3498
  447TMC3     O 6662   2.470   1.221  11.349  0.1013 -0.1929  0.0392
  447TMC3     H 6663   2.441   1.322  10.978  1.6766  2.1633 -1.8305
  447TMC3    H1 6664   2.680   1.265  11.327 -1.7941 -0.5657 -0.0780
  447TMC3    H2 6665   2.874   1.353  10.948  0.2801  1.3427 -0.6358
  447TMC3    C7 6666   2.930   1.263  11.184 -0.0966  0.1515 -0.6231
  447TMC3    C8 6667   2.644   1.310  10.803 -0.0786  0.2919  0.4609
  447TMC3    O1 6668   3.020   1.262  11.098  0.1747 -0.8766 -0.4915
  447TMC3    O2 6669   2.536   1.347  10.755 -0.4998  0.1159 -0.6248
  448TMC3    C1 6670   0.378   1.419  16.971 -0.1067 -0.0212 -0.2729
  448TMC3    C2 6671   0.393   1.297  16.911 -0.2813 -0.3550  0.1459
  448TMC3    C3 6672   0.506   1.227  16.947  0.4801 -0.2224  0.4269
  448TMC3    C4 6673   0.457   1.468  17.077 -0.2855  0.1186 -0.9439
  448TMC3    C5 6674   0.572   1.390  17.100  0.1516  0.0236  0.3102
  448TMC3    C6 6675   0.590   1.268  17.047 -0.9888 -0.1430  0.0168
  448TMC3     C 6676   0.250   1.486  16.945 -0.0636 -0.1611  0.8500
  448TMC3     O 6677   0.179   1.438  16.859 -0.0297 -1.0999  0.1528
  448TMC3     H 6678   0.317   1.257  16.845 -2.0791  2.9216  0.2491
  448TMC3    H1 6679   0.435   1.564  17.122 -0.8718  0.4798 -2.0035
  448TMC3    H2 6680   0.684   1.216  17.057 -1.8464 -1.2289  2.5526
  448TMC3    C7 6681   0.647   1.424  17.215  0.3418 -0.2450  0.3739
  448TMC3    C8 6682   0.533   1.099  16.883  0.2473 -0.9136  0.3771
  448TMC3    O1 6683   0.641   1.542  17.248 -0.1244  0.2871 -0.5556
  448TMC3    O2 6684   0.610   1.025  16.940  0.0493  0.3813 -0.3324
  449MPD2     C 6685   1.739   3.490  13.996  0.0333 -0.4188 -0.5434
  449MPD2    C1 6686   1.661   3.607  13.981 -0.6094 -0.8405 -0.1812
  449MPD2    C2 6687   1.523   3.601  13.962  0.3106 -0.2418  0.7127
  449MPD2    C3 6688   1.458   3.481  13.944  0.0036  0.4987  0.2805
  449MPD2    C4 6689   1.535   3.366  13.960 -0.4889 -0.7175  0.1447
  449MPD2    C5 6690   1.666   3.375  13.985 -0.2783 -0.1072  0.0755
  449MPD2     H 6691   1.469   3.695  13.958 -2.5767 -1.8615  2.3232
  449MPD2    H1 6692   1.490   3.268  13.948 -0.0823 -0.7622 -1.0508
  449MPD2    H2 6693   1.847   3.493  14.004 -0.2241  1.1142  2.4717
  449MPD2    H3 6694   1.720   3.281  13.996 -2.6264 -1.3813  0.7613
  449MPD2     N 6695   1.327   3.491  13.895 -0.5301 -0.2495 -0.1248
  449MPD2    H5 6696   1.288   3.585  13.897  0.9152  0.2594  4.5306
  449MPD2    N1 6697   1.725   3.731  13.978  0.3036 -0.5816  0.3748
  449MPD2    H7 6698   1.662   3.810  13.989  0.5245 -0.0690 -2.1901
  450TMC3    C1 6699   1.890   3.901  13.949 -0.1019 -0.4585  0.1878
  450TMC3    C2 6700   1.952   3.956  13.842 -0.0903  0.0944  0.7046
  450TMC3    C3 6701   1.923   4.087  13.817 -0.8356 -0.0233  0.2877
  450TMC3    C4 6702   1.806   3.973  14.031 -0.5348  0.7058 -0.2300
  450TMC3    C5 6703   1.762   4.094  13.991  0.0039  0.5474 -0.1494
  450TMC3    C6 6704   1.835   4.157  13.894 -0.0744  0.6252 -0.3263
  450TMC3     C 6705   1.852   3.758  13.934  0.3965  0.1289  0.7909
  450TMC3     O 6706   1.937   3.682  13.876  0.2722  0.7008 -0.7366
  450TMC3     H 6707   2.025   3.897  13.787 -0.0839  1.1001 -0.3837
  450TMC3    H1 6708   1.776   3.934  14.127 -0.0622  0.7549 -0.0618
  450TMC3    H2 6709   1.811   4.260  13.868  1.7364  0.5067 -2.4964
  450TMC3    C7 6710   1.618   4.086  13.968 -0.3240  0.0384  0.1645
  450TMC3    C8 6711   1.992   4.155  13.709 -1.0876 -0.0955  0.5076
  450TMC3    O1 6712   1.563   3.987  14.014  0.3411  0.2491  0.4899
  450TMC3    O2 6713   1.963   4.277  13.703 -0.0758 -0.4803 -0.1254
  451MPD2     C 6714   3.513   3.625   1.008  0.1803  0.2886  0.1142
  451MPD2    C1 6715   3.436   3.561   1.101 -0.0794 -0.4509  0.4483
  451MPD2    C2 6716   3.372   3.443   1.067  0.5738 -0.2349  0.0441
  451MPD2    C3 6717   3.380   3.387   0.943 -0.1098 -0.4842  0.6619
  451MPD2    C4 6718   3.471   3.448   0.855  0.4331  0.2559 -0.1731
  451MPD2    C5 6719   3.539   3.565   0.890 -0.3459 -0.1600  0.7577
  451MPD2     H 6720   3.311   3.392   1.141 -1.2158 -0.5061 -1.6300
  451MPD2    H1 6721   3.484   3.409   0.755 -2.2120 -2.0505  0.3891
  451MPD2    H2 6722   3.554   3.720   1.037 -0.7246  0.6301  0.2722
  451MPD2    H3 6723   3.607   3.621   0.826  0.9783 -1.4122  1.0819
  451MPD2     N 6724   3.333   3.263   0.910  1.3814 -0.4438  0.3183
  451MPD2    H5 6725   3.343   3.239   0.812  4.5310 -1.6088  0.9394
  451MPD2    N1 6726   3.442   3.614   1.232 -0.0654  0.2527  0.2269
  451MPD2    H7 6727   3.490   3.702   1.249  0.5852 -0.3519  1.5680
  452TMC3    C1 6728   3.259   3.047   0.922  0.3459  0.1773  0.5221
  452TMC3    C2 6729   3.189   2.955   0.995  1.6291  0.3972 -0.0588
  452TMC3    C3 6730   3.114   2.861   0.934  0.4463 -0.0528  0.5273
  452TMC3    C4 6731   3.242   3.047   0.789  0.0920 -0.3952  0.5140
  452TMC3    C5 6732   3.178   2.940   0.731 -0.2017 -0.0501 -0.2402
  452TMC3    C6 6733   3.112   2.842   0.800  0.2923  0.3988  0.3108
  452TMC3     C 6734   3.288   3.164   0.996  0.1514 -0.8845  0.0610
  452TMC3     O 6735   3.303   3.161   1.118  0.0280 -0.5392 -0.2903
  452TMC3     H 6736   3.206   2.958   1.102 -0.4729 -1.2842  0.3094
  452TMC3    H1 6737   3.284   3.124   0.725 -0.1112 -1.6809 -1.1696
  452TMC3    H2 6738   3.080   2.749   0.754  1.1933  0.4542 -0.4372
  452TMC3    C7 6739   3.189   2.938   0.590  0.3092  1.0499 -0.6607
  452TMC3    C8 6740   3.087   2.741   1.015 -0.7400 -1.0167  0.1538
  452TMC3    O1 6741   3.277   3.005   0.541  0.0807 -0.2479  0.0403
  452TMC3    O2 6742   3.148   2.740   1.122  0.1712  0.8816 -0.2844
  453TMC3    C1 6743   4.632   4.599  11.537  0.7714 -0.0745 -0.4273
  453TMC3    C2 6744   4.524   4.518  11.550 -0.6152 -0.0162 -0.4042
  453TMC3    C3 6745   4.416   4.533  11.461  0.1466  1.1645  0.3500
  453TMC3    C4 6746   4.650   4.674  11.419  0.3914 -0.7514 -0.1402
  453TMC3    C5 6747   4.547   4.681  11.329 -0.0354  0.0918  0.2853
  453TMC3    C6 6748   4.425   4.613  11.351 -0.6643 -0.1411  0.0372
  453TMC3     C 6749   4.679   4.667  11.654 -0.3167 -0.1932  0.6916
  453TMC3     O 6750   4.708   0.064  11.633 -0.1452  0.4248  0.4705
  453TMC3     H 6751   4.511   4.468  11.646 -1.7261 -0.5139 -0.8185
  453TMC3    H1 6752   0.009   0.025  11.401 -1.0691  0.3448 -2.1337
  453TMC3    H2 6753   4.338   4.617  11.287 -1.3802  0.2782  1.0302
  453TMC3    C7 6754   4.544   0.045  11.215  0.4653 -0.3647  0.5440
  453TMC3    C8 6755   4.290   4.476  11.508  0.1683 -0.2825  0.8124
  453TMC3    O1 6756   4.440   0.079  11.157  0.2372 -0.0747  0.2557
  453TMC3    O2 6757   4.196   4.545  11.475 -0.3231 -0.4663 -0.7957
  454MPD2     C 6758   3.126   4.533  15.851  0.1705 -0.6777  0.1920
  454MPD2    C1 6759   3.024   4.585  15.929 -0.4302 -0.7587  0.0236
  454MPD2    C2 6760   3.060   4.618  16.057  0.5565  0.4418  0.6876
  454MPD2    C3 6761   3.186   4.618  16.111 -0.0031 -0.1225 -0.0813
  454MPD2    C4 6762   3.287   4.573  16.023  0.5827 -0.0505  0.4446
  454MPD2    C5 6763   3.253   4.534  15.902 -0.2250 -0.3549  0.4039
  454MPD2     H 6764   2.975   4.628  16.123 -0.8827 -1.1253 -0.9360
  454MPD2    H1 6765   3.387   4.559  16.060  1.3952 -2.1564 -2.5502
  454MPD2    H2 6766   3.135   4.524  15.743  3.9071 -3.8681  0.7858
  454MPD2    H3 6767   3.331   4.500  15.836 -0.5130  0.9060 -0.5853
  454MPD2     N 6768   3.222   4.625  16.250 -0.0816  0.6246  0.5162
  454MPD2    H5 6769   3.320   4.629  16.277 -0.5488 -1.4858  2.5221
  454MPD2    N1 6770   2.887   4.600  15.886  0.2435  0.7121 -0.3499
  454MPD2    H7 6771   2.815   4.610  15.957  2.0161  1.0554  1.3902
  455TMC3    C1 6772   3.022   4.549  16.367 -0.0979  0.9752 -0.3520
  455TMC3    C2 6773   2.919   4.582  16.450  0.3818 -0.1793  0.2730
  455TMC3    C3 6774   2.795   4.523  16.431  0.0409  0.1034 -0.8190
  455TMC3    C4 6775   3.015   4.436  16.295 -0.1671  0.1951 -0.1602
  455TMC3    C5 6776   2.890   4.388  16.276  0.0028 -0.7186  0.3514
  455TMC3    C6 6777   2.776   4.423  16.339  0.0657  0.7445 -0.9144
  455TMC3     C 6778   3.139   4.640  16.359  0.5670  0.1057 -0.3296
  455TMC3     O 6779   3.160   4.684  16.473 -0.8409 -0.1020  0.1527
  455TMC3     H 6780   2.917   4.684  16.488  0.3529  0.7538 -2.2586
  455TMC3    H1 6781   3.096   4.414  16.227 -0.9572 -0.3831 -0.9250
  455TMC3    H2 6782   2.684   4.367  16.328  0.8333 -0.6856  0.0725
  455TMC3    C7 6783   2.870   4.275  16.177  0.1782 -0.1948 -0.0932
  455TMC3    C8 6784   2.671   4.600  16.451 -0.5870  0.0449 -0.3417
  455TMC3    O1 6785   2.754   4.244  16.148  0.1008  0.2220  0.0978
  455TMC3    O2 6786   2.595   4.600  16.358  0.1409 -0.6903 -0.7383
  456MPD2     C 6787   0.937   4.659  16.070 -0.2528 -0.4641  0.2904
  456MPD2    C1 6788   0.952   4.601  16.195  0.4684 -0.8738  0.4788
  456MPD2    C2 6789   0.951   4.680  16.312  0.9588  0.4482  0.4123
  456MPD2    C3 6790   0.930   0.098  16.312 -0.2412  0.5564  1.0615
  456MPD2    C4 6791   0.910   0.152  16.184 -0.1289  0.2108  0.0606
  456MPD2    C5 6792   0.922   0.078  16.067  0.4703 -0.0436 -0.2567
  456MPD2     H 6793   0.959   4.624  16.405  0.5633  0.0215  0.1865
  456MPD2    H1 6794   0.899   0.259  16.174 -1.0724  0.1413  0.3049
  456MPD2    H2 6795   0.948   4.609  15.974  0.8770 -0.4007  0.3835
  456MPD2    H3 6796   0.910   0.128  15.972  0.9608 -0.3717 -0.4912
  456MPD2     N 6797   0.920   0.167  16.433 -0.1570 -0.0389 -0.2665
  456MPD2    H5 6798   0.906   0.104  16.511 -0.9694 -0.6839 -0.9408
  456MPD2    N1 6799   0.964   4.459  16.193 -0.0082  0.2442 -0.1791
  456MPD2    H7 6800   0.948   4.424  16.099 -0.0373 -0.8583  0.2395
  457TMC3    C1 6801   0.873   0.323  16.600  0.0230  0.0739 -0.1842
  457TMC3    C2 6802   0.785   0.428  16.628 -0.8092 -0.3789 -0.0767
  457TMC3    C3 6803   0.737   0.453  16.756 -0.4037  0.4487  0.8563
  457TMC3    C4 6804   0.907   0.239  16.698  0.9938 -0.0092  0.6751
  457TMC3    C5 6805   0.841   0.251  16.818 -0.1509  0.1697 -0.0247
  457TMC3    C6 6806   0.770   0.366  16.855  0.0746  0.3404 -0.3680
  457TMC3     C 6807   0.903   0.300  16.458 -0.4793 -0.5022  0.2561
  457TMC3     O 6808   0.901   0.390  16.377 -0.0508  0.6627  0.0014
  457TMC3     H 6809   0.777   0.498  16.545  1.0566 -2.0166 -1.6505
  457TMC3    H1 6810   0.984   0.163  16.694  1.5086  0.4986  0.8812
  457TMC3    H2 6811   0.745   0.364  16.961  0.8491  1.3246 -0.1638
  457TMC3    C7 6812   0.847   0.138  16.911 -0.3282  0.4702  0.4798
  457TMC3    C8 6813   0.663   0.573  16.784 -0.0935  0.0818 -0.1587
  457TMC3    O1 6814   0.852   0.165  17.028 -1.0229 -0.0183  0.6441
  457TMC3    O2 6815   0.678   0.626  16.895  0.0821 -0.0292 -0.0956
  458MPD2     C 6816   3.086   3.978  12.281  0.2570 -0.1097  0.0116
  458MPD2    C1 6817   3.078   3.888  12.383 -0.0092  0.1111  0.8908
  458MPD2    C2 6818   2.964   3.877  12.454 -0.1563  0.1328 -0.3971
  458MPD2    C3 6819   2.861   3.962  12.435  0.2173  0.0486 -0.0730
  458MPD2    C4 6820   2.872   4.054  12.331  0.2501  0.1417  0.9862
  458MPD2    C5 6821   2.981   4.058  12.253  0.3104 -0.1162  0.6050
  458MPD2     H 6822   2.957   3.806  12.536 -1.8114  0.0797 -0.5782
  458MPD2    H1 6823   2.790   4.121  12.307 -0.0161 -0.0698  1.3088
  458MPD2    H2 6824   3.172   3.996  12.217  0.3251  0.8093  0.3547
  458MPD2    H3 6825   2.979   4.117  12.162 -1.8291 -0.5645  0.3572
  458MPD2     N 6826   2.754   3.954  12.525  0.5099 -0.2067  0.4093
  458MPD2    H5 6827   2.751   3.886  12.601  1.6761  0.9780  1.5160
  458MPD2    N1 6828   3.201   3.821  12.417  0.2616  0.3444  0.4547
  458MPD2    H7 6829   3.280   3.855  12.363  0.5099 -0.6286  0.2149
  459TMC3    C1 6830   3.357   3.735  12.578  0.7968  0.2799  0.3960
  459TMC3    C2 6831   3.456   3.820  12.514 -0.1141 -0.7517 -0.3325
  459TMC3    C3 6832   3.555   3.881  12.597  0.1646 -0.9205  0.4898
  459TMC3    C4 6833   3.371   3.720  12.715  0.3368 -0.2626 -0.4845
  459TMC3    C5 6834   3.473   3.778  12.784 -0.5437  0.2894  0.3879
  459TMC3    C6 6835   3.562   3.861  12.732 -0.0648  0.0376 -0.0974
  459TMC3     C 6836   3.221   3.745  12.528  1.0012  0.0445 -0.1176
  459TMC3     O 6837   3.134   3.684  12.582 -0.5376  0.3566 -0.3635
  459TMC3     H 6838   3.461   3.836  12.407  0.7542 -0.9286 -0.3134
  459TMC3    H1 6839   3.287   3.676  12.768 -0.1651 -0.5593 -1.5025
  459TMC3    H2 6840   3.639   3.915  12.787 -0.1604  1.2456 -1.1521
  459TMC3    C7 6841   3.472   3.735  12.923 -0.0432  0.5394  0.2815
  459TMC3    C8 6842   3.665   3.935  12.527  0.4552 -0.1301 -0.2545
  459TMC3    O1 6843   3.409   3.634  12.953 -0.4889  0.6035 -0.0958
  459TMC3    O2 6844   3.773   3.952  12.579 -0.2148 -0.6808  0.3874
  460MPD2     C 6845   2.866   1.153  10.557 -0.1446  0.0886 -0.6720
  460MPD2    C1 6846   2.759   1.233  10.598 -0.6150 -0.1343  0.5089
  460MPD2    C2 6847   2.668   1.282  10.500  0.0503 -0.0687  0.4629
  460MPD2    C3 6848   2.687   1.257  10.369 -1.0798  0.5374 -0.0160
  460MPD2    C4 6849   2.787   1.167  10.334  0.2013 -0.8310  0.0566
  460MPD2    C5 6850   2.879   1.126  10.424 -0.1131  0.3580 -0.0377
  460MPD2     H 6851   2.597   1.354  10.539 -1.8243 -0.0815 -2.9305
  460MPD2    H1 6852   2.809   1.142  10.230  1.2115 -1.6831  0.4695
  460MPD2    H2 6853   2.932   1.113  10.633 -1.4682 -1.0403 -0.1118
  460MPD2    H3 6854   2.960   1.063  10.390 -1.9478 -1.3686 -1.1817
  460MPD2     N 6855   2.604   1.324  10.269 -0.1035 -0.5223 -0.2178
  460MPD2    H5 6856   2.550   1.405  10.299  0.2443  0.5781 -2.4940
  460MPD2    N1 6857   2.748   1.246  10.740 -0.6045  0.1252  0.5853
  460MPD2    H7 6858   2.819   1.202  10.798 -0.7239  2.0472  2.2028
  461TMC3    C1 6859   2.479   1.337  10.063 -0.7855 -0.7492 -0.1463
  461TMC3    C2 6860   2.415   1.262   9.968 -0.4822  0.0783  0.8428
  461TMC3    C3 6861   2.332   1.319   9.876 -0.5885  0.1795  0.4358
  461TMC3    C4 6862   2.472   1.476  10.060 -0.1033 -0.0648 -0.3318
  461TMC3    C5 6863   2.394   1.534   9.968  0.8185 -0.4525 -0.1890
  461TMC3    C6 6864   2.327   1.457   9.880  0.3075 -0.0574 -0.1500
  461TMC3     C 6865   2.577   1.265  10.148 -0.2890  0.2857  0.1220
  461TMC3     O 6866   2.626   1.164  10.106 -0.0349 -0.0785 -0.4153
  461TMC3     H 6867   2.433   1.156   9.969  0.5943  0.2361 -1.9245
  461TMC3    H1 6868   2.538   1.540  10.116  1.3460  0.1778 -2.3175
  461TMC3    H2 6869   2.257   1.511   9.817 -0.3354  1.2534  1.6785
  461TMC3    C7 6870   2.370   1.677   9.964 -0.4115 -0.5525  0.4249
  461TMC3    C8 6871   2.270   1.245   9.769 -0.0437 -0.6647  0.6997
  461TMC3    O1 6872   2.321   1.722   9.863 -0.3416  0.3415 -0.6795
  461TMC3    O2 6873   2.240   1.322   9.677 -0.0853  0.2274  0.4819
  462TMC3    C1 6874   2.045   2.213  17.564  0.0837  0.1619 -0.5481
  462TMC3    C2 6875   2.040   2.174  17.433  0.2688 -0.0017 -0.1067
  462TMC3    C3 6876   2.014   2.049  17.397  0.6253  0.1609  0.1992
  462TMC3    C4 6877   2.016   2.122  17.668  0.3245 -0.7024  0.0275
  462TMC3    C5 6878   1.980   1.997  17.626 -0.4149 -0.5457 -0.0889
  462TMC3    C6 6879   1.989   1.956  17.494 -0.6987  0.1238  0.1430
  462TMC3     C 6880   2.085   2.345  17.602  0.1312 -0.3333  0.0502
  462TMC3     O 6881   2.118   2.359   0.035 -0.1674  0.4784  0.0626
  462TMC3     H 6882   2.048   2.241  17.348  2.5843  1.2089  1.0735
  462TMC3    H1 6883   2.000   2.156   0.084 -0.4808  0.5599 -0.5268
  462TMC3    H2 6884   1.941   1.865  17.459 -0.0725  1.4920 -4.2044
  462TMC3    C7 6885   1.916   1.906   0.030 -0.6904  0.6076  0.3680
  462TMC3    C8 6886   1.978   2.037  17.259  0.0141 -0.0510 -0.7678
  462TMC3    O1 6887   1.857   1.813  17.659  0.0098 -0.5724  0.6698
  462TMC3    O2 6888   1.906   2.126  17.213  0.2069 -0.3653  0.2562
  463MPD2     C 6889   3.571   1.445   1.812  0.0267  0.4522  0.5489
  463MPD2    C1 6890   3.460   1.446   1.734  0.0018  0.4600  0.2055
  463MPD2    C2 6891   3.417   1.563   1.669  0.2989 -0.5396  0.8942
  463MPD2    C3 6892   3.486   1.680   1.695  0.2868 -0.3326  0.0871
  463MPD2    C4 6893   3.587   1.682   1.781 -0.2444  0.6846  0.0886
  463MPD2    C5 6894   3.628   1.563   1.839 -0.0318  0.2229  0.5353
  463MPD2     H 6895   3.338   1.553   1.596  1.7811 -0.7178 -0.6893
  463MPD2    H1 6896   3.650   1.768   1.800  1.7486 -0.4918 -1.2098
  463MPD2    H2 6897   3.611   1.363   1.870  0.8969  0.5289  0.0604
  463MPD2    H3 6898   3.722   1.565   1.894  2.2125 -0.4231 -3.2101
  463MPD2     N 6899   3.442   1.802   1.644  0.3765  0.2111 -0.5795
  463MPD2    H5 6900   3.492   1.883   1.678  1.5806 -0.5805 -0.4792
  463MPD2    N1 6901   3.389   1.323   1.699 -0.8179  0.4542 -0.5820
  463MPD2    H7 6902   3.309   1.331   1.637 -3.7155 -3.2316  2.6757
  464TMC3    C1 6903   3.357   1.103   1.671 -0.5794 -0.2416  0.3340
  464TMC3    C2 6904   3.226   1.116   1.698 -0.5977  0.1949 -0.3408
  464TMC3    C3 6905   3.142   1.018   1.654 -0.6449  0.6586 -0.5526
  464TMC3    C4 6906   3.414   0.987   1.618 -0.2769 -0.8054  0.3768
  464TMC3    C5 6907   3.320   0.892   1.583 -0.5045 -0.2871  0.0264
  464TMC3    C6 6908   3.187   0.904   1.601  0.7258  1.4928  0.7401
  464TMC3     C 6909   3.445   1.201   1.717  0.8223 -0.2640  0.3466
  464TMC3     O 6910   3.533   1.160   1.789  0.0106  0.8210  0.4530
  464TMC3     H 6911   3.186   1.202   1.750  0.8554  2.2730 -2.6249
  464TMC3    H1 6912   3.521   0.974   1.609 -0.2506  0.6899 -1.3987
  464TMC3    H2 6913   3.113   0.830   1.573  0.7437  1.7244  0.0732
  464TMC3    C7 6914   3.370   0.793   1.478 -0.1763  0.3388  0.0809
  464TMC3    C8 6915   3.008   1.059   1.628  0.6596  0.5703  0.2737
  464TMC3    O1 6916   3.486   0.801   1.439 -0.3220  0.1155  0.1426
  464TMC3    O2 6917   2.969   1.143   1.706  0.0389  0.3047 -0.0144
  465MPD2     C 6918   0.293   0.211  16.916 -0.0246 -0.0650 -0.4241
  465MPD2    C1 6919   0.236   0.114  16.995 -0.6321 -0.1554  0.1910
  465MPD2    C2 6920   0.133   0.037  16.948  0.5735  0.4983 -0.6116
  465MPD2    C3 6921   0.089   0.044  16.821 -0.5299  0.0030  0.2379
  465MPD2    C4 6922   0.133   0.143  16.740 -0.1548  0.4527 -0.0254
  465MPD2    C5 6923   0.237   0.223  16.787  0.5372  0.0435  0.6923
  465MPD2     H 6924   0.092   4.690  17.023 -1.9348  2.9681  0.2437
  465MPD2    H1 6925   0.109   0.146  16.635 -0.9648 -1.2259  0.0973
  465MPD2    H2 6926   0.380   0.269  16.942 -0.7933  1.1590 -0.5592
  465MPD2    H3 6927   0.277   0.299  16.720 -0.3752  0.4011  0.5527
  465MPD2     N 6928   4.709   4.675  16.779 -0.2936 -0.1048  0.8975
  465MPD2    H5 6929   4.678   4.606  16.847 -1.4977  1.9917  2.4642
  465MPD2    N1 6930   0.281   0.091  17.124  0.5797  0.1057  0.5228
  465MPD2    H7 6931   0.230   0.024  17.180  2.6021 -2.3088 -0.5347
  466TMC3    C1 6932   4.348   4.513  16.800 -0.0751 -0.6455  0.1394
  466TMC3    C2 6933   4.245   4.567  16.727 -0.3289  0.0989  0.2883
  466TMC3    C3 6934   4.279   4.673  16.647  0.4062 -0.5397 -0.1066
  466TMC3    C4 6935   4.478   4.536  16.770  0.3998  0.0413 -0.6688
  466TMC3    C5 6936   4.506   4.623  16.665  0.5830 -0.4216  0.1285
  466TMC3    C6 6937   4.406   4.701  16.609 -0.1518  0.0804  0.0373
  466TMC3     C 6938   4.327   4.508  16.940  0.0267  0.0547 -0.1978
  466TMC3     O 6939   4.422   4.464  17.005  0.1973  0.6958  0.2840
  466TMC3     H 6940   4.140   4.538  16.735 -0.3986  0.6475  1.3610
  466TMC3    H1 6941   4.556   4.478  16.818 -0.1608 -0.5618 -0.5019
  466TMC3    H2 6942   4.430   0.064  16.545 -0.1442  1.5976  2.0062
  466TMC3    C7 6943   4.640   4.690  16.663 -0.2693 -0.2326 -0.1390
  466TMC3    C8 6944   4.191   0.071  16.668 -0.5325  0.6805  0.2438
  466TMC3    O1 6945   4.669   0.035  16.563  0.0909 -0.7888  0.1320
  466TMC3    O2 6946   4.244   0.181  16.671  0.0821  0.1602  0.2168
  467TMC3    C1 6947   0.735   3.138  13.624 -0.0329  0.6292  0.4679
  467TMC3    C2 6948   0.661   3.060  13.543  0.7105  0.0953  0.1636
  467TMC3    C3 6949   0.525   3.049  13.558 -0.0327  0.3370  0.2568
  467TMC3    C4 6950   0.680   3.208  13.728 -0.4099 -0.0757 -0.1400
  467TMC3    C5 6951   0.545   3.188  13.746  0.3448 -0.7545  0.3152
  467TMC3    C6 6952   0.465   3.110  13.660 -0.2693  0.4641 -0.5399
  467TMC3     C 6953   0.886   3.125  13.623  0.4094 -0.8548 -0.6380
  467TMC3     O 6954   0.936   3.192  13.715  0.0923  0.7083 -0.0753
  467TMC3     H 6955   0.702   3.030  13.447 -0.1879  1.1396 -0.5498
  467TMC3    H1 6956   0.733   3.275  13.795 -1.2425  0.6280 -0.1839
  467TMC3    H2 6957   0.368   3.073  13.693  0.2622  1.5455  2.3058
  467TMC3    C7 6958   0.483   3.261  13.851  0.1132  0.1045  0.8472
  467TMC3    C8 6959   0.460   3.044  13.432  0.1432 -0.1351  0.5085
  467TMC3    O1 6960   0.555   3.329  13.926 -0.1826 -0.2198  0.1585
  467TMC3    O2 6961   0.514   2.968  13.354 -0.4323 -0.7208  0.4282
  468MPD2     C 6962   4.109   1.731  10.698  0.4459 -0.9348  0.0938
  468MPD2    C1 6963   4.237   1.701  10.677 -0.0355 -0.5422  0.1235
  468MPD2    C2 6964   4.281   1.568  10.673  0.5044  0.4775 -0.3380
  468MPD2    C3 6965   4.184   1.470  10.676 -0.0300 -0.6059  0.1318
  468MPD2    C4 6966   4.049   1.503  10.696 -0.0394  0.5701 -0.1562
  468MPD2    C5 6967   4.009   1.636  10.705  0.6788  0.2263 -0.1871
  468MPD2     H 6968   4.387   1.547  10.661  1.1715  3.2253  0.7397
  468MPD2    H1 6969   3.966   1.434  10.709  0.7040 -0.2910 -0.0297
  468MPD2    H2 6970   4.077   1.835  10.703  2.7059 -0.1348 -1.6084
  468MPD2    H3 6971   3.905   1.668  10.712  0.1562 -1.3249 -1.0334
  468MPD2     N 6972   4.230   1.333  10.693  0.1374 -0.5992  0.2597
  468MPD2    H5 6973   4.156   1.264  10.704 -0.4679 -0.1200 -0.7929
  468MPD2    N1 6974   4.345   1.791  10.669  0.0494 -0.6238  0.4253
  468MPD2    H7 6975   4.435   1.751  10.647  0.6294  0.4145  0.9014
  469TMC3    C1 6976   4.463   1.980  10.768 -0.0294  0.0227  0.2363
  469TMC3    C2 6977   4.552   1.883  10.815 -0.2788  0.5783 -0.4868
  469TMC3    C3 6978   4.613   1.907  10.935 -0.0873 -0.2686 -0.6113
  469TMC3    C4 6979   4.448   2.094  10.837 -0.9266 -0.5065  0.6286
  469TMC3    C5 6980   4.513   2.109  10.950 -0.2627 -0.5194  0.0460
  469TMC3    C6 6981   4.591   2.018  11.009 -0.6603  0.1146 -0.9002
  469TMC3     C 6982   4.339   1.926  10.714 -0.5966 -0.3902 -0.0912
  469TMC3     O 6983   4.236   1.992  10.742  0.5651 -0.0170 -0.5641
  469TMC3     H 6984   4.565   1.791  10.759 -0.2057 -0.0158  0.5181
  469TMC3    H1 6985   4.372   2.170  10.826 -0.5970 -0.3937 -0.8494
  469TMC3    H2 6986   4.658   2.035  11.092 -0.2107 -0.1597 -1.2032
  469TMC3    C7 6987   4.514   2.237  11.014  0.0871 -0.1187 -0.1776
  469TMC3    C8 6988   4.685   1.787  10.998  0.4743 -0.8791  0.4469
  469TMC3    O1 6989   4.488   2.338  10.951 -0.0080 -0.2477 -0.4068
  469TMC3    O2 6990   0.038   1.722  10.930  0.1824  0.4562  0.1691
  470TMC3    C1 6991   2.357   2.328   1.144  0.5414  0.1805 -0.5026
  470TMC3    C2 6992   2.401   2.458   1.124 -0.1389  0.3960  0.4810
  470TMC3    C3 6993   2.506   2.496   1.200  0.3107  0.0147  0.9980
  470TMC3    C4 6994   2.385   2.254   1.258  0.1817  0.0558 -0.1303
  470TMC3    C5 6995   2.486   2.308   1.337  0.0043  0.6891  0.4150
  470TMC3    C6 6996   2.561   2.423   1.307 -0.6580 -0.8367 -0.0612
  470TMC3     C 6997   2.300   2.254   1.032 -0.6299 -0.1570 -0.1390
  470TMC3     O 6998   2.351   2.281   0.924 -0.2003 -0.1412  0.0586
  470TMC3     H 6999   2.376   2.513   1.035 -1.4383 -2.9088 -1.1878
  470TMC3    H1 7000   2.351   2.151   1.265  1.9509 -0.4747  0.7325
  470TMC3    H2 7001   2.631   2.474   1.372 -0.2347 -0.7454 -0.5899
  470TMC3    C7 7002   2.512   2.241   1.462  0.3407 -0.2881  0.1855
  470TMC3    C8 7003   2.518   2.639   1.201 -0.1950 -0.2262 -0.3886
  470TMC3    O1 7004   2.615   2.266   1.522  0.3043  0.7679  0.1537
  470TMC3    O2 7005   2.410   2.700   1.196  0.1340 -0.4818 -0.2253
  471MPD2     C 7006   2.750   3.561  16.214 -0.4214  0.1637 -0.7396
  471MPD2    C1 7007   2.640   3.527  16.292 -0.0136  0.1307  0.5319
  471MPD2    C2 7008   2.666   3.472  16.414  0.2596  0.2398 -0.3213
  471MPD2    C3 7009   2.793   3.442  16.457  0.3799 -0.1221  0.3693
  471MPD2    C4 7010   2.890   3.449  16.366  0.0774 -0.3334  0.2853
  471MPD2    C5 7011   2.877   3.519  16.246  0.3046  0.4513 -0.2908
  471MPD2     H 7012   2.580   3.445  16.474  0.7617  0.1725  0.3621
  471MPD2    H1 7013   2.988   3.430  16.407  0.1976  3.0866  1.6053
  471MPD2    H2 7014   2.740   3.618  16.122  0.5608 -1.8189 -2.0594
  471MPD2    H3 7015   2.960   3.559  16.188  0.6684 -0.1808 -0.2054
  471MPD2     N 7016   2.821   3.404  16.587 -0.1150 -0.0305 -0.3688
  471MPD2    H5 7017   2.916   3.383  16.617  0.1742  0.7835 -0.7169
  471MPD2    N1 7018   2.508   3.530  16.246 -0.1260  0.0812 -0.5400
  471MPD2    H7 7019   2.433   3.509  16.311  0.9593  2.0726  1.3113
  472TMC3    C1 7020   2.331   3.501  16.105  0.4780  0.0255 -0.2211
  472TMC3    C2 7021   2.259   3.547  16.002 -0.4763  0.3777 -0.3845
  472TMC3    C3 7022   2.185   3.453  15.934 -0.1950  0.5646  0.2174
  472TMC3    C4 7023   2.343   3.363  16.128 -0.2056  0.3977 -0.3739
  472TMC3    C5 7024   2.276   3.275  16.053  0.5088  0.4851 -0.3725
  472TMC3    C6 7025   2.190   3.321  15.957  0.2228  0.0223 -0.5645
  472TMC3     C 7026   2.452   3.571  16.128  0.0006  0.2718 -0.1500
  472TMC3     O 7027   2.496   3.636  16.035  0.3540 -0.8181  0.1853
  472TMC3     H 7028   2.247   3.655  15.990 -0.4298  0.6978  2.2916
  472TMC3    H1 7029   2.397   3.327  16.215 -3.4321 -2.5630  0.4104
  472TMC3    H2 7030   2.136   3.245  15.902  2.4548 -2.0151  0.0538
  472TMC3    C7 7031   2.240   3.141  16.117 -0.1819  0.0234  0.5109
  472TMC3    C8 7032   2.043   3.502  15.920 -0.2529 -0.5315  0.3556
  472TMC3    O1 7033   2.281   3.133  16.230 -0.0011  0.4053  0.0685
  472TMC3    O2 7034   2.031   3.620  15.946 -0.1698 -0.1281 -0.0102
  473MPD2     C 7035   2.147   0.467  14.078 -0.0412  0.2019  0.0636
  473MPD2    C1 7036   2.124   0.561  13.975 -0.4327  0.0381  0.2169
  473MPD2    C2 7037   2.149   0.694  14.002 -0.5536  0.4683 -0.5520
  473MPD2    C3 7038   2.215   0.729  14.120  0.8243  0.3948 -0.0774
  473MPD2    C4 7039   2.232   0.634  14.224  0.5158 -0.2091 -0.6690
  473MPD2    C5 7040   2.201   0.504  14.196  0.3991  0.7950  0.2500
  473MPD2     H 7041   2.129   0.771  13.929  1.0763 -0.3501 -1.8691
  473MPD2    H1 7042   2.284   0.653  14.317  0.8719  1.7520 -1.2619
  473MPD2    H2 7043   2.142   0.361  14.060  0.9986 -0.0898  1.4747
  473MPD2    H3 7044   2.224   0.422  14.263  3.3363  0.6109 -0.9905
  473MPD2     N 7045   2.270   0.857  14.139  0.0508 -0.5963 -0.5182
  473MPD2    H5 7046   2.302   0.878  14.233 -0.8199  2.0185 -0.8164
  473MPD2    N1 7047   2.068   0.539  13.850 -0.2814  0.7116  0.5039
  473MPD2    H7 7048   2.047   0.616  13.787 -1.3710 -0.2304 -0.2856
  474TMC3    C1 7049   2.351   1.074  14.077  0.4366  0.9476  0.2185
  474TMC3    C2 7050   2.353   1.179  13.991  0.9320 -0.6284 -0.0188
  474TMC3    C3 7051   2.416   1.293  14.031 -0.1435  0.3882 -0.4325
  474TMC3    C4 7052   2.429   1.065  14.186  0.2998 -1.0001 -0.1520
  474TMC3    C5 7053   2.491   1.179  14.221  0.0080  0.3791  0.2112
  474TMC3    C6 7054   2.481   1.293  14.155 -0.0175  0.1602 -0.5029
  474TMC3     C 7055   2.283   0.955  14.040 -0.2007 -0.1365  0.2277
  474TMC3     O 7056   2.242   0.953  13.927  0.1586 -0.6355 -0.0068
  474TMC3     H 7057   2.291   1.174  13.902  1.4993  0.3554 -0.4726
  474TMC3    H1 7058   2.447   0.978  14.248 -0.1110 -0.8415  0.1962
  474TMC3    H2 7059   2.531   1.382  14.192  1.7824 -0.8185 -0.6053
  474TMC3    C7 7060   2.557   1.175  14.348 -0.3483 -0.1995  0.3839
  474TMC3    C8 7061   2.408   1.425  13.962  0.5578 -0.4643 -1.1927
  474TMC3    O1 7062   2.639   1.083  14.357 -0.5537  0.5778 -0.7996
  474TMC3    O2 7063   2.426   1.522  14.032  0.0419 -0.2125 -0.2542
  475MPD2     C 7064   0.082   4.489  10.434 -0.2179  0.6659 -0.7322
  475MPD2    C1 7065   0.014   4.444  10.548 -0.3180  0.2068 -0.0851
  475MPD2    C2 7066   4.596   4.424  10.542  0.2782 -0.1933  0.0017
  475MPD2    C3 7067   4.530   4.430  10.422 -0.1779 -0.7978  0.0827
  475MPD2    C4 7068   4.595   4.479  10.311  0.4877  0.2272  0.5336
  475MPD2    C5 7069   0.010   4.507  10.316 -0.2546 -0.4845 -0.5355
  475MPD2     H 7070   4.545   4.403  10.635 -0.1429  2.1122  0.2828
  475MPD2    H1 7071   4.539   4.497  10.220 -1.9065 -0.5975  1.8450
  475MPD2    H2 7072   0.186   4.518  10.435 -0.6409  2.1004  0.8992
  475MPD2    H3 7073   0.061   4.553  10.232 -1.9651 -1.0132 -1.8716
  475MPD2     N 7074   4.395   4.385  10.424  0.9096  0.5498 -0.1756
  475MPD2    H5 7075   4.354   4.355  10.512  0.9120  0.4055 -0.2227
  475MPD2    N1 7076   0.077   4.406  10.671  0.2723  0.5919  0.2357
  475MPD2    H7 7077   0.028   4.365  10.750  1.1154  1.2337  1.0938
  476TMC3    C1 7078   0.261   4.348  10.802  0.3154 -0.8055 -0.0059
  476TMC3    C2 7079   0.302   4.223  10.821 -0.0617  0.7398 -0.4701
  476TMC3    C3 7080   0.301   4.180  10.951 -0.3805  0.3719 -0.1374
  476TMC3    C4 7081   0.239   4.436  10.903 -0.6481 -0.0088  0.6068
  476TMC3    C5 7082   0.250   4.392  11.032  0.1736 -0.2367  0.1933
  476TMC3    C6 7083   0.279   4.262  11.055 -0.7743 -0.5933 -0.3890
  476TMC3     C 7084   0.213   4.392  10.674  0.1699  1.1378 -0.2400
  476TMC3     O 7085   0.297   4.377  10.583 -0.7755 -0.3179  0.0324
  476TMC3     H 7086   0.329   4.158  10.738  2.0147 -1.0827  1.6320
  476TMC3    H1 7087   0.212   4.537  10.876 -0.4435  0.2321  1.2903
  476TMC3    H2 7088   0.267   4.225  11.156 -0.3857  1.1352  0.2903
  476TMC3    C7 7089   0.210   4.473  11.147  0.2428  0.5221 -0.1605
  476TMC3    C8 7090   0.354   4.050  10.988 -0.3259 -0.0803  0.5510
  476TMC3    O1 7091   0.143   4.423  11.235  0.5182 -0.2777  0.6002
  476TMC3    O2 7092   0.383   4.039  11.106 -0.2064  0.4434  0.2632
  477MPD2     C 7093   2.947   0.810  11.912 -0.8249 -0.8791 -0.4849
  477MPD2    C1 7094   2.926   0.698  11.830  0.5320 -0.4711 -0.4319
  477MPD2    C2 7095   2.973   0.570  11.856 -0.4986  0.3276 -0.1672
  477MPD2    C3 7096   3.036   0.552  11.981  0.4039 -0.1215  0.4008
  477MPD2    C4 7097   3.063   0.662  12.061  0.0007  0.0512 -0.3073
  477MPD2    C5 7098   3.024   0.781  12.019  0.9437  0.1804 -0.4581
  477MPD2     H 7099   2.947   0.486  11.792 -0.8510 -0.5090  1.0897
  477MPD2    H1 7100   3.116   0.648  12.155 -0.8003 -1.4425 -0.0950
  477MPD2    H2 7101   2.899   0.905  11.895  0.6031  0.0097  0.4759
  477MPD2    H3 7102   3.058   0.864  12.081  0.0878  1.1529 -1.2872
  477MPD2     N 7103   3.075   0.419  12.022  0.4426 -0.4490 -0.1735
  477MPD2    H5 7104   3.078   0.345  11.952 -1.6479 -0.6303 -0.0816
  477MPD2    N1 7105   2.843   0.730  11.714  0.3396  0.2386 -0.0329
  477MPD2    H7 7106   2.802   0.822  11.700 -0.2095 -0.0077 -0.0468
  478TMC3    C1 7107   2.693   0.701  11.530 -0.1877 -0.9228 -0.2779
  478TMC3    C2 7108   2.624   0.792  11.604 -0.0865 -0.7822 -0.1333
  478TMC3    C3 7109   2.589   0.919  11.552 -0.6883 -0.0453  0.2501
  478TMC3    C4 7110   2.703   0.717  11.400 -0.3362 -0.4427  0.0566
  478TMC3    C5 7111   2.628   0.814  11.340 -0.3813 -0.2642 -0.9627
  478TMC3    C6 7112   2.592   0.931  11.411 -0.4139 -0.0880 -0.3069
  478TMC3     C 7113   2.797   0.643  11.614  0.5106 -0.6279  0.3472
  478TMC3     O 7114   2.836   0.529  11.586 -0.2579  0.7677 -0.5406
  478TMC3     H 7115   2.599   0.778  11.708 -0.4449  1.1308  0.0520
  478TMC3    H1 7116   2.770   0.655  11.342  0.0547 -0.5361  0.6089
  478TMC3    H2 7117   2.593   1.026  11.359  1.5881 -0.6728 -1.3551
  478TMC3    C7 7118   2.668   0.836  11.204  0.0946 -0.0469  0.3462
  478TMC3    C8 7119   2.636   1.035  11.632 -0.1835 -0.1476 -0.0644
  478TMC3    O1 7120   2.784   0.808  11.182 -0.1071 -0.4670 -0.7477
  478TMC3    O2 7121   2.705   1.006  11.727  0.1071 -0.1865 -0.2920
  479MPD2     C 7122   1.449   2.244  14.676  0.5218  0.0071 -0.2688
  479MPD2    C1 7123   1.363   2.278  14.777 -0.2262  0.2350 -0.0594
  479MPD2    C2 7124   1.381   2.388  14.854 -1.1439  0.1442  0.3944
  479MPD2    C3 7125   1.495   2.461  14.850 -0.0361  0.3484 -0.6777
  479MPD2    C4 7126   1.587   2.424  14.750 -0.1988 -0.5621  0.2226
  479MPD2    C5 7127   1.565   2.323  14.664  0.1766 -0.3899  0.7062
  479MPD2     H 7128   1.305   2.420  14.925 -2.1438 -1.3876  0.0130
  479MPD2    H1 7129   1.681   2.473  14.729 -0.8021 -0.0123 -1.2026
  479MPD2    H2 7130   1.429   2.171  14.599 -0.4733  2.3161 -2.2243
  479MPD2    H3 7131   1.638   2.298  14.588 -0.4185 -1.4838  0.4886
  479MPD2     N 7132   1.542   2.542  14.954  0.4378 -0.1727 -0.0889
  479MPD2    H5 7133   1.634   2.582  14.943 -0.0078  0.7664 -0.3257
  479MPD2    N1 7134   1.239   2.204  14.799 -0.3784  0.1350 -0.2634
  479MPD2    H7 7135   1.176   2.242  14.869  0.1933  0.5512  0.0265
  480TMC3    C1 7136   1.667   2.546  15.403 -0.1702  0.6033  0.2677
  480TMC3    C2 7137   1.760   2.648  15.386  0.7165  0.5743 -0.2300
  480TMC3    C3 7138   1.763   2.716  15.265  0.0538 -0.2137  0.0279
  480TMC3    C4 7139   1.589   2.507  15.295  0.5080  0.2693 -1.2141
  480TMC3    C5 7140   1.593   2.583  15.182 -0.2129 -0.0253 -0.1971
  480TMC3    C6 7141   1.671   2.694  15.163 -0.0252  0.0121 -0.1532
  480TMC3     C 7142   1.646   2.478  15.528 -0.4655 -0.2977  0.4644
  480TMC3     O 7143   1.564   2.386  15.532  0.1688  0.2606  0.8523
  480TMC3     H 7144   1.828   2.675  15.466  1.0739  1.1775 -0.7366
  480TMC3    H1 7145   1.517   2.426  15.299 -0.3159  0.9986 -1.3800
  480TMC3    H2 7146   1.651   2.762  15.080 -1.0837  0.0654  0.1476
  480TMC3    C7 7147   1.484   2.553  15.082 -0.1364  0.0556  0.2652
  480TMC3    C8 7148   1.876   2.809  15.245  0.5728  0.1747 -0.3658
  480TMC3    O1 7149   1.383   2.497  15.126  0.1218 -0.4222 -0.3778
  480TMC3    O2 7150   1.949   2.838  15.339  0.3651  0.0473 -0.1221
  481MPD2     C 7151   3.527   2.329  14.191 -0.8612 -0.2551 -0.6403
  481MPD2    C1 7152   3.401   2.286  14.216  0.3311  0.4170  0.2818
  481MPD2    C2 7153   3.359   2.270  14.348  0.0962 -0.3124 -0.5052
  481MPD2    C3 7154   3.452   2.280  14.455  0.4124 -0.1569 -0.1583
  481MPD2    C4 7155   3.578   2.318  14.429  0.1413 -0.3355  0.4917
  481MPD2    C5 7156   3.616   2.340  14.293  0.7453 -0.5451  0.0350
  481MPD2     H 7157   3.257   2.243  14.372  0.6484 -2.5713 -0.6860
  481MPD2    H1 7158   3.638   2.323  14.519 -1.6097  0.3507  1.6098
  481MPD2    H2 7159   3.564   2.356  14.093 -1.4327  0.4667 -0.6523
  481MPD2    H3 7160   3.718   2.354  14.260  0.1622  2.8543 -0.3565
  481MPD2     N 7161   3.428   2.256  14.590 -0.0368 -0.7954  0.0945
  481MPD2    H5 7162   3.506   2.238  14.652  0.7533  1.4159 -0.2289
  481MPD2    N1 7163   3.316   2.289  14.099  0.4245  0.0766 -0.3629
  481MPD2    H7 7164   3.365   2.316  14.015  0.0493  1.1680 -0.2303
  482TMC3    C1 7165   3.129   2.246  13.958 -0.0491  0.8551 -0.4248
  482TMC3    C2 7166   3.023   2.169  13.923 -0.0760 -0.2231  0.2782
  482TMC3    C3 7167   2.955   2.188  13.803  0.6122 -0.0633 -0.2547
  482TMC3    C4 7168   3.195   2.323  13.863  0.0206  0.3292 -0.2114
  482TMC3    C5 7169   3.138   2.326  13.733 -0.4951  0.2146 -0.4391
  482TMC3    C6 7170   3.014   2.272  13.709 -0.2609 -0.2653  0.2845
  482TMC3     C 7171   3.186   2.242  14.093  0.9954 -0.8791 -0.3511
  482TMC3     O 7172   3.143   2.163  14.170 -0.0856 -0.0607 -0.2643
  482TMC3     H 7173   2.996   2.084  13.984  0.6314 -1.5205 -1.2051
  482TMC3    H1 7174   3.282   2.386  13.881  0.1989  0.0611 -0.1393
  482TMC3    H2 7175   2.971   2.267  13.609  1.4553  0.0414 -0.4750
  482TMC3    C7 7176   3.191   2.435  13.654 -0.3676 -0.3096 -0.3308
  482TMC3    C8 7177   2.857   2.090  13.754 -0.2880  0.6398  0.1445
  482TMC3    O1 7178   3.268   2.507  13.709 -0.1140  0.0750 -0.6017
  482TMC3    O2 7179   2.867   1.972  13.787  0.3362  0.3504  0.2157
  483TMC3    C1 7180   0.731   1.030   1.104 -0.0348  0.0908 -0.0227
  483TMC3    C2 7181   0.702   1.160   1.069  0.5663  0.4651 -0.3323
  483TMC3    C3 7182   0.800   1.255   1.104 -1.3157  0.5297 -1.1335
  483TMC3    C4 7183   0.825   0.999   1.198  0.2005  0.0921 -0.1505
  483TMC3    C5 7184   0.914   1.098   1.231  0.0591 -0.4109 -0.2082
  483TMC3    C6 7185   0.907   1.223   1.181  0.3526 -0.0069  0.1712
  483TMC3     C 7186   0.751   0.950   0.994 -0.0588  0.7208  0.0240
  483TMC3     O 7187   0.785   0.828   1.012 -0.5834  0.2836  0.2158
  483TMC3     H 7188   0.611   1.185   1.016  1.5278  1.7129 -1.3970
  483TMC3    H1 7189   0.850   0.897   1.224 -0.5976 -0.1032 -0.1552
  483TMC3    H2 7190   0.972   1.306   1.208  0.0209 -0.2333  1.6450
  483TMC3    C7 7191   1.050   1.051   1.246  0.2800  0.1621 -0.4183
  483TMC3    C8 7192   0.839   1.346   0.996 -0.1090 -0.4897 -0.2869
  483TMC3    O1 7193   1.066   0.943   1.303  0.4288  0.0886 -0.2175
  483TMC3    O2 7194   0.961   1.361   0.976  0.0247 -0.2972  0.1447
  484MPD2     C 7195   3.652   4.150  12.227 -0.0026 -0.2031  0.1735
  484MPD2    C1 7196   3.712   4.066  12.322 -0.5095  0.8183 -0.1825
  484MPD2    C2 7197   3.852   4.052  12.316  1.0249 -0.1578  0.2358
  484MPD2    C3 7198   3.930   4.122  12.228  0.5477  0.1258  0.1722
  484MPD2    C4 7199   3.873   4.198  12.134  0.4625  0.0426  0.3244
  484MPD2    C5 7200   3.732   4.204  12.126 -0.6695  0.2633  0.4916
  484MPD2     H 7201   3.900   3.989  12.390  1.9270  0.0185 -0.1859
  484MPD2    H1 7202   3.927   4.258  12.061 -0.0852  1.6626  1.2424
  484MPD2    H2 7203   3.544   4.159  12.213  0.0112 -0.1997  0.0661
  484MPD2    H3 7204   3.679   4.265  12.053  1.1322  1.9146  0.5603
  484MPD2     N 7205   4.069   4.099  12.220 -0.1400 -0.3222 -0.3635
  484MPD2    H5 7206   4.118   4.152  12.148 -1.7088  1.2778 -0.2513
  484MPD2    N1 7207   3.623   4.002  12.411  0.3127 -0.2847 -0.9993
  484MPD2    H7 7208   3.524   4.010  12.388  0.5812 -0.8085 -2.3211
  485TMC3    C1 7209   4.280   4.001  12.257  0.3428  0.0640 -1.0113
  485TMC3    C2 7210   4.366   3.922  12.339  0.1171 -0.0934  0.5571
  485TMC3    C3 7211   4.497   3.932  12.330 -0.9242 -0.1608  0.7304
  485TMC3    C4 7212   4.330   4.084  12.158  0.0828 -0.1629 -0.5718
  485TMC3    C5 7213   4.466   4.079  12.142 -0.6392 -0.1729 -0.0556
  485TMC3    C6 7214   4.548   4.018  12.232 -0.0128 -0.1825  0.2963
  485TMC3     C 7215   4.144   4.013  12.298 -0.0791  0.5768  0.3092
  485TMC3     O 7216   4.103   3.933  12.378 -0.5185 -0.2299  0.1544
  485TMC3     H 7217   4.318   3.855  12.410 -1.6792 -1.6436 -2.0876
  485TMC3    H1 7218   4.278   4.157  12.097  1.0176  0.0018 -1.1788
  485TMC3    H2 7219   4.654   4.040  12.232  0.3021 -1.7402  0.3037
  485TMC3    C7 7220   4.505   4.060  12.006  0.1246  0.4211 -0.6797
  485TMC3    C8 7221   4.566   3.807  12.311  0.0774  0.0017 -0.3074
  485TMC3    O1 7222   4.457   4.130  11.921  0.5266  0.1485 -0.3494
  485TMC3    O2 7223   4.671   3.822  12.252  0.2960 -0.5012  0.1437
  486MPD2     C 7224   1.765   3.389  12.890  0.1375 -0.2689 -0.3783
  486MPD2    C1 7225   1.658   3.309  12.874 -0.0712  0.2030  0.1487
  486MPD2    C2 7226   1.535   3.365  12.919 -0.1732 -0.2564  0.0620
  486MPD2    C3 7227   1.522   3.491  12.975  0.0387 -0.2430  0.1685
  486MPD2    C4 7228   1.630   3.570  12.990  0.4815  0.9444 -0.4011
  486MPD2    C5 7229   1.748   3.518  12.940 -0.0464  1.0403  0.4357
  486MPD2     H 7230   1.444   3.305  12.914 -1.1327  1.2531 -0.8800
  486MPD2    H1 7231   1.642   3.669  13.031 -0.8661  0.0677  2.0853
  486MPD2    H2 7232   1.861   3.353  12.856  0.1749  1.6499 -2.2216
  486MPD2    H3 7233   1.836   3.581  12.932  2.7329 -2.7813  0.9177
  486MPD2     N 7234   1.397   3.520  13.009  0.2127  0.0357 -0.5191
  486MPD2    H5 7235   1.339   3.437  13.009  0.3854 -0.0843 -0.0851
  486MPD2    N1 7236   1.662   3.185  12.802  0.3603  0.1712  0.5747
  486MPD2    H7 7237   1.753   3.149  12.777  0.4175 -0.0032  1.0328
  487TMC3    C1 7238   1.590   2.999  12.697 -0.4929  0.1266 -0.0129
  487TMC3    C2 7239   1.490   2.945  12.621 -0.2027  0.3482 -1.0205
  487TMC3    C3 7240   1.496   2.811  12.600 -0.0510  0.6210  0.5557
  487TMC3    C4 7241   1.698   2.926  12.736 -0.0107  0.1246  0.4985
  487TMC3    C5 7242   1.707   2.800  12.696 -1.4053 -0.2657  0.0182
  487TMC3    C6 7243   1.611   2.739  12.624  0.2935  0.7598  0.0894
  487TMC3     C 7244   1.550   3.116  12.773 -0.4092 -0.0098  0.3705
  487TMC3     O 7245   1.435   3.152  12.757  0.3295  0.4281  0.3967
  487TMC3     H 7246   1.402   2.999  12.588  0.2927  1.4896 -0.4534
  487TMC3    H1 7247   1.778   2.969  12.795 -0.4679  0.0342  1.1755
  487TMC3    H2 7248   1.610   2.631  12.636  0.4441  0.3782 -3.3395
  487TMC3    C7 7249   1.810   2.716  12.757  0.1649 -0.0031  0.2540
  487TMC3    C8 7250   1.375   2.742  12.624 -0.0380  0.2425 -0.2667
  487TMC3    O1 7251   1.823   2.601  12.713 -0.0929 -0.1843 -0.0898
  487TMC3    O2 7252   1.288   2.816  12.672  0.4753 -0.4625 -0.1088
  488MPD2     C 7253   1.405   4.495  16.541  0.6885 -0.4036 -0.1094
  488MPD2    C1 7254   1.455   4.616  16.590  0.2726 -0.3040 -0.3841
  488MPD2    C2 7255   1.416   4.656  16.712 -0.1582  0.7750  0.4989
  488MPD2    C3 7256   1.349   4.571  16.803  0.6525  0.4497 -0.1630
  488MPD2    C4 7257   1.302   4.457  16.760 -0.0906  0.0040  0.7169
  488MPD2    C5 7258   1.323   4.421  16.629 -0.0292 -0.6561  0.4989
  488MPD2     H 7259   1.440   0.033  16.752 -0.2541  1.0121 -0.0254
  488MPD2    H1 7260   1.244   4.388  16.820 -1.0311  0.1702  0.0076
  488MPD2    H2 7261   1.418   4.452  16.442  0.0906 -0.4778 -0.1580
  488MPD2    H3 7262   1.264   4.336  16.598 -0.2520 -0.3616  0.1249
  488MPD2     N 7263   1.336   4.624  16.935 -0.7005 -0.5211  0.0805
  488MPD2    H5 7264   1.370   4.719  16.949 -3.0478  0.4968 -1.1618
  488MPD2    N1 7265   1.530   4.707  16.509  0.5952  0.0060  0.1902
  488MPD2    H7 7266   1.546   0.080  16.546 -0.7297  0.3169 -0.0336
  489TMC3    C1 7267   1.295   4.615  17.172 -0.1747  0.4320 -0.0204
  489TMC3    C2 7268   1.244   0.019  17.173  0.8374  0.0996  0.0722
  489TMC3    C3 7269   1.243   0.087  17.295  0.0995  0.5009 -0.6907
  489TMC3    C4 7270   1.345   4.551  17.279  0.0613 -0.3088 -0.5722
  489TMC3    C5 7271   1.340   4.621  17.394 -1.0385 -0.1382  0.0751
  489TMC3    C6 7272   1.284   0.022  17.411 -0.1868  0.2713 -0.2636
  489TMC3     C 7273   1.305   4.545  17.041 -0.1046  0.4497  1.5145
  489TMC3     O 7274   1.283   4.426  17.035 -0.3086 -0.0062  0.1117
  489TMC3     H 7275   1.201   0.067  17.086  0.9838 -1.0477 -0.6213
  489TMC3    H1 7276   1.401   4.460  17.261  2.8837  0.9371  1.9357
  489TMC3    H2 7277   1.275   0.060  17.513 -0.9732 -0.8528  0.0885
  489TMC3    C7 7278   1.450   4.598  17.489  0.6492 -0.0010 -0.1573
  489TMC3    C8 7279   1.253   0.231  17.299  0.4140  0.3850 -0.2802
  489TMC3    O1 7280   1.491   4.702  17.541 -1.0449  0.4146  0.2336
  489TMC3    O2 7281   1.301   0.287  17.398  0.6274 -0.5562 -0.3719
  490MPD2     C 7282   2.838   3.916  16.859  0.2349 -0.8337  0.0449
  490MPD2    C1 7283   2.782   3.969  16.972 -0.5183 -0.5478  0.9194
  490MPD2    C2 7284   2.853   4.063  17.037 -0.2391 -0.1344 -0.1549
  490MPD2    C3 7285   2.980   4.097  16.998 -0.4683 -0.0516 -0.1782
  490MPD2    C4 7286   3.036   4.048  16.881  0.7686  0.1665 -0.0232
  490MPD2    C5 7287   2.967   3.947  16.812  0.0227 -0.0461  0.3117
  490MPD2     H 7288   2.810   4.104  17.128  1.4484  0.1453  0.5295
  490MPD2    H1 7289   3.136   4.078  16.852  1.2490  1.1592  2.6315
  490MPD2    H2 7290   2.800   3.829  16.807 -0.1989 -0.8766  0.4377
  490MPD2    H3 7291   3.013   3.902  16.726 -1.3169 -1.2387  0.2222
  490MPD2     N 7292   3.075   4.173  17.078  0.4333  0.0253  0.9899
  490MPD2    H5 7293   3.175   4.160  17.066  0.1737  0.3607 -1.5030
  490MPD2    N1 7294   2.654   3.945  17.016 -0.0767  0.3288  0.4290
  490MPD2    H7 7295   2.624   4.001  17.095 -1.1111  0.9367 -0.3875
  491TMC3    C1 7296   2.438   3.863  17.052  0.1533 -0.4669  0.0723
  491TMC3    C2 7297   2.447   3.915  17.176 -0.0003  0.5248 -0.4771
  491TMC3    C3 7298   2.371   3.852  17.267  0.6819 -0.7042 -1.3005
  491TMC3    C4 7299   2.355   3.757  17.029 -0.6801  0.1199 -0.4894
  491TMC3    C5 7300   2.290   3.687  17.130 -0.4376 -0.2866 -0.3994
  491TMC3    C6 7301   2.297   3.736  17.253  0.4109  0.4379  0.3954
  491TMC3     C 7302   2.565   3.848  16.975 -0.4161 -0.1044  0.1609
  491TMC3     O 7303   2.570   3.769  16.882 -0.0383 -0.0200 -0.3606
  491TMC3     H 7304   2.490   4.011  17.202  1.8697 -0.5453  0.4064
  491TMC3    H1 7305   2.355   3.726  16.925  1.0568 -0.7319 -0.2246
  491TMC3    H2 7306   2.248   3.692  17.339 -0.2397 -1.3758 -0.9021
  491TMC3    C7 7307   2.175   3.610  17.086 -0.2653 -0.1579 -0.3557
  491TMC3    C8 7308   2.323   3.932  17.382  0.3338 -0.4009  0.1200
  491TMC3    O1 7309   2.152   3.607  16.965 -0.6576  0.3206 -0.0581
  491TMC3    O2 7310   2.201   3.930  17.407  0.6406 -0.0697  1.0206
  492MPD2     C 7311   1.432   3.848  10.738  0.6836  0.4453 -0.1713
  492MPD2    C1 7312   1.556   3.900  10.758  0.0639  0.0163 -0.0699
  492MPD2    C2 7313   1.627   3.875  10.877  0.4330  0.3199  0.9553
  492MPD2    C3 7314   1.560   3.806  10.979 -0.1032  0.0626 -0.2887
  492MPD2    C4 7315   1.430   3.760  10.963 -0.1275  0.0095  0.6671
  492MPD2    C5 7316   1.366   3.788  10.847 -0.7296 -0.3229 -0.3427
  492MPD2     H 7317   1.723   3.922  10.891  0.5007 -0.0473  1.7279
  492MPD2    H1 7318   1.369   3.714  11.041 -0.1965 -1.6844 -0.3826
  492MPD2    H2 7319   1.382   3.877  10.647 -0.8666 -0.2426  0.4692
  492MPD2    H3 7320   1.261   3.769  10.828 -0.6730 -0.9908  0.0150
  492MPD2     N 7321   1.621   3.781  11.104 -0.3274 -0.3815  0.3003
  492MPD2    H5 7322   1.578   3.709  11.162 -1.3568 -1.2943 -1.6017
  492MPD2    N1 7323   1.613   3.976  10.651 -0.2196  0.3688 -0.2129
  492MPD2    H7 7324   1.550   4.003  10.576  0.6979  1.5958 -0.5368
  493TMC3    C1 7325   1.775   4.105  10.525 -0.3465  0.6318  0.1341
  493TMC3    C2 7326   1.907   4.120  10.503  0.0245  0.2482  0.0044
  493TMC3    C3 7327   1.945   4.230  10.433  0.8411  0.3939 -0.0163
  493TMC3    C4 7328   1.678   4.195  10.493  0.9575 -0.0904 -0.3489
  493TMC3    C5 7329   1.725   4.308  10.429  0.0413 -0.6497 -0.5825
  493TMC3    C6 7330   1.854   4.326  10.391  0.2021  0.4314  0.0188
  493TMC3     C 7331   1.749   4.010  10.640 -0.2915 -0.0555 -0.0331
  493TMC3     O 7332   1.839   3.997  10.720  0.3842 -0.2289  0.0395
  493TMC3     H 7333   1.983   4.055  10.544 -3.1302 -4.7684 -2.0083
  493TMC3    H1 7334   1.579   4.190  10.536  0.9034  1.1783 -0.3204
  493TMC3    H2 7335   1.880   4.416  10.335  0.4458  0.2127 -0.2219
  493TMC3    C7 7336   1.628   4.413  10.408  1.0375  0.3069  0.4015
  493TMC3    C8 7337   2.090   4.250  10.426  0.7244 -0.1912  0.0046
  493TMC3    O1 7338   1.515   4.399  10.448 -0.7199 -0.1430 -0.3036
  493TMC3    O2 7339   2.159   4.164  10.489 -0.0565 -0.1355  0.3051
  494TMC3    C1 7340   2.330   1.067  17.676  0.5759  0.3707 -0.1701
  494TMC3    C2 7341   2.440   0.993   0.029  0.8447 -0.7964 -0.2683
  494TMC3    C3 7342   2.523   0.951  17.606  0.3792  0.4997 -0.1205
  494TMC3    C4 7343   2.318   1.120  17.554  0.3411 -0.5740  0.4914
  494TMC3    C5 7344   2.406   1.090  17.460 -0.1943 -0.1430  0.3138
  494TMC3    C6 7345   2.501   1.001  17.480 -0.6916 -0.4632  0.0555
  494TMC3     C 7346   2.248   1.129   0.091  0.2976  0.0460 -0.0741
  494TMC3     O 7347   2.126   1.140   0.062  0.0541  0.5482 -0.1857
  494TMC3     H 7348   2.447   0.959   0.132 -1.9167 -1.4919 -0.3013
  494TMC3    H1 7349   2.239   1.187  17.523  0.4076 -1.3161 -1.3560
  494TMC3    H2 7350   2.575   0.982  17.404 -0.7074  0.5303 -0.2190
  494TMC3    C7 7351   2.437   1.186  17.351  0.3740  0.6690  0.1470
  494TMC3    C8 7352   2.648   0.898  17.646 -0.3519  0.4594  0.0057
  494TMC3    O1 7353   2.495   1.139  17.257  0.6031  0.5072  0.1521
  494TMC3    O2 7354   2.686   0.903   0.081  0.3256 -0.0276 -0.0333
  495TMC3    C1 7355   2.088   2.944  14.352 -0.5314  0.0763  0.0441
  495TMC3    C2 7356   1.991   2.985  14.262  0.3476  0.3688 -0.3217
  495TMC3    C3 7357   1.900   3.083  14.300  0.3637 -0.0043  0.3977
  495TMC3    C4 7358   2.098   3.004  14.476  0.1621 -0.1182 -0.6139
  495TMC3    C5 7359   2.002   3.099  14.519  0.0101  0.0745 -0.2483
  495TMC3    C6 7360   1.900   3.131  14.426 -0.9652 -0.6955 -0.0670
  495TMC3     C 7361   2.075   2.803  14.372 -0.1406 -0.3009 -0.3668
  495TMC3     O 7362   1.972   2.771  14.422 -0.0376  0.5026 -0.2108
  495TMC3     H 7363   1.985   2.925  14.172 -0.9240 -0.2768  0.1879
  495TMC3    H1 7364   2.150   2.944  14.549 -1.0430  1.4475  1.5212
  495TMC3    H2 7365   1.807   3.178  14.455 -0.3226  0.2691  0.4138
  495TMC3    C7 7366   1.955   3.068  14.647  0.4937 -0.1978  0.1654
  495TMC3    C8 7367   1.769   3.077  14.241 -0.7163 -0.7882 -0.0682
  495TMC3    O1 7368   1.840   3.054  14.681 -0.0759 -0.0149  0.4243
  495TMC3    O2 7369   1.669   3.107  14.302  0.3446  0.6047 -0.1089
  496MPD2     C 7370   4.246   3.095  15.533 -0.5696  0.3581  0.5784
  496MPD2    C1 7371   4.133   3.062  15.464 -0.8473  0.3643 -1.3176
  496MPD2    C2 7372   4.015   3.115  15.499 -0.5595  0.5953 -0.1387
  496MPD2    C3 7373   4.003   3.186  15.618 -0.5032 -0.0368  0.3850
  496MPD2    C4 7374   4.114   3.211  15.693 -0.9461 -0.2018 -0.6508
  496MPD2    C5 7375   4.238   3.174  15.649  0.2088  0.7305 -0.0933
  496MPD2     H 7376   3.929   3.088  15.440  2.5310  1.0939 -4.8536
  496MPD2    H1 7377   4.115   3.262  15.789  2.7911 -1.5157  0.0261
  496MPD2    H2 7378   4.343   3.052  15.508  0.9308  3.6405  0.7621
  496MPD2    H3 7379   4.325   3.208  15.703 -0.2130 -1.0457  1.6975
  496MPD2     N 7380   3.875   3.208  15.678  0.3610  0.0777 -0.4542
  496MPD2    H5 7381   3.884   3.238  15.775 -2.2818 -0.2308 -0.1123
  496MPD2    N1 7382   4.145   2.972  15.348 -0.1097  0.0926  0.3960
  496MPD2    H7 7383   4.239   2.967  15.308  0.3416  1.3060  1.3051
  497TMC3    C1 7384   3.637   3.197  15.684  1.1631 -0.0174 -1.1845
  497TMC3    C2 7385   3.536   3.133  15.616 -0.3501 -0.0643  0.0801
  497TMC3    C3 7386   3.459   3.045  15.692  0.8686 -0.3462 -0.3843
  497TMC3    C4 7387   3.654   3.177  15.818  0.7956  0.4159 -0.0718
  497TMC3    C5 7388   3.573   3.089  15.886 -0.1014 -0.2422 -0.1731
  497TMC3    C6 7389   3.475   3.025  15.825  0.6542 -0.2408  0.9634
  497TMC3     C 7390   3.756   3.213  15.613 -0.5308  0.7206  0.1389
  497TMC3     O 7391   3.739   3.217  15.492 -0.4944 -0.5187 -0.3037
  497TMC3     H 7392   3.532   3.145  15.508 -2.4156  0.2426  0.1891
  497TMC3    H1 7393   3.730   3.231  15.873  1.7526 -0.3652 -0.6062
  497TMC3    H2 7394   3.421   2.945  15.874  0.6661 -0.2849  0.9036
  497TMC3    C7 7395   3.585   3.071  16.029 -0.1342 -0.2909  0.0860
  497TMC3    C8 7396   3.370   2.952  15.625  0.0067 -0.2585  0.2402
  497TMC3    O1 7397   3.498   3.009  16.089  0.0772 -0.2236 -0.0126
  497TMC3    O2 7398   3.280   2.893  15.686  0.1511 -0.2914  0.2512
  498MPD2     C 7399   4.372   3.900   9.378 -0.2183 -0.4579 -0.3899
  498MPD2    C1 7400   4.419   3.926   9.505 -0.5085  0.5707  0.0655
  498MPD2    C2 7401   4.373   3.840   9.605  0.4201 -0.0308 -0.1041
  498MPD2    C3 7402   4.283   3.738   9.585 -0.2032 -0.2011 -0.3650
  498MPD2    C4 7403   4.245   3.708   9.459 -0.3016  0.4134  0.1833
  498MPD2    C5 7404   4.293   3.791   9.359  0.2628  0.1577  0.0142
  498MPD2     H 7405   4.403   3.855   9.708  0.0732 -0.9425  0.1354
  498MPD2    H1 7406   4.172   3.632   9.434 -0.9721  0.0918  3.1228
  498MPD2    H2 7407   4.411   3.952   9.291  1.4856  0.1542  0.7274
  498MPD2    H3 7408   4.276   3.757   9.258 -0.0140  1.4638 -0.3898
  498MPD2     N 7409   4.230   3.668   9.694  0.3226  0.2124 -0.2034
  498MPD2    H5 7410   4.275   3.694   9.781 -0.9230 -0.8278  0.7447
  498MPD2    N1 7411   4.524   4.015   9.532 -0.0000 -0.2446  0.2714
  498MPD2    H7 7412   4.542   4.032   9.630 -1.0037  1.1696  0.2122
  499TMC3    C1 7413   4.665   4.206   9.523  0.2311  0.1863  0.1437
  499TMC3    C2 7414   4.688   4.188   9.654 -0.4781 -0.6409  0.4128
  499TMC3    C3 7415   0.061   4.276   9.708  0.1025 -0.7185 -0.2739
  499TMC3    C4 7416   4.714   4.314   9.454  0.2592 -0.1023  0.4744
  499TMC3    C5 7417   0.093   4.387   9.511  0.5081  0.7009  0.1347
  499TMC3    C6 7418   0.123   4.377   9.641 -0.8932 -0.5357 -0.4037
  499TMC3     C 7419   4.584   4.106   9.453 -0.5103  0.3391 -0.3967
  499TMC3     O 7420   4.577   4.109   9.333  0.3885 -0.2803  0.1639
  499TMC3     H 7421   4.657   4.096   9.702 -1.3852 -0.7605 -0.4089
  499TMC3    H1 7422   4.685   4.324   9.350 -0.7273 -0.2050  0.7331
  499TMC3    H2 7423   0.197   4.444   9.685  0.6319 -1.2307 -1.9075
  499TMC3    C7 7424   0.156   4.493   9.440 -0.2039  0.0672  0.1099
  499TMC3    C8 7425   0.095   4.245   9.844  0.3240 -0.5332 -0.2931
  499TMC3    O1 7426   0.236   4.560   9.503 -0.1138 -0.5719 -0.1279
  499TMC3    O2 7427   0.009   4.181   9.910 -0.4812  0.3943 -0.1221
  500MPD2     C 7428   1.617   0.502  10.921  0.2741 -0.4300  0.3381
  500MPD2    C1 7429   1.647   0.521  10.794  0.8464 -0.4370 -0.0830
  500MPD2    C2 7430   1.549   0.523  10.698 -0.4413 -0.4618 -0.0672
  500MPD2    C3 7431   1.415   0.508  10.732 -0.2954  0.3268 -0.4599
  500MPD2    C4 7432   1.389   0.484  10.863 -0.2002  0.2768  0.3352
  500MPD2    C5 7433   1.485   0.484  10.958 -0.3742 -0.3748  0.7618
  500MPD2     H 7434   1.591   0.544  10.601  0.1745  0.5523  0.4192
  500MPD2    H1 7435   1.290   0.457  10.898  1.1965 -2.6804  1.9542
  500MPD2    H2 7436   1.688   0.499  11.003  2.0667  0.3173 -1.1901
  500MPD2    H3 7437   1.454   0.469  11.061  2.3111  1.3838  1.8498
  500MPD2     N 7438   1.314   0.529  10.628 -0.0714 -0.2694  0.0441
  500MPD2    H5 7439   1.218   0.545  10.654 -0.1422 -1.1099  0.3165
  500MPD2    N1 7440   1.783   0.533  10.750 -0.1594  0.1027  0.9120
  500MPD2    H7 7441   1.807   0.546  10.652  0.5409  1.4020  1.2574
  501TMC3    C1 7442   1.998   0.615  10.781 -0.4948 -0.7559  0.0634
  501TMC3    C2 7443   1.968   0.711  10.685  0.0843  0.3609  0.8232
  501TMC3    C3 7444   2.078   0.785  10.642 -0.3103 -0.2558  0.0408
  501TMC3    C4 7445   2.123   0.598  10.831 -0.4885  0.3072  0.0681
  501TMC3    C5 7446   2.226   0.676  10.786 -0.0511  0.0319 -0.5124
  501TMC3    C6 7447   2.209   0.770  10.687  0.4883  0.8901 -0.0743
  501TMC3     C 7448   1.891   0.540  10.836  0.1982  1.1103  0.7251
  501TMC3     O 7449   1.912   0.480  10.945 -0.0227  0.4233 -0.2088
  501TMC3     H 7450   1.864   0.739  10.668  0.0091  1.0589  2.4093
  501TMC3    H1 7451   2.143   0.516  10.898 -1.5308 -1.0918 -1.3202
  501TMC3    H2 7452   2.302   0.804  10.643  0.9350 -1.7920 -1.1818
  501TMC3    C7 7453   2.366   0.648  10.808 -0.2752 -0.4417 -0.4342
  501TMC3    C8 7454   2.070   0.890  10.540 -0.3850 -0.2379 -0.0146
  501TMC3    O1 7455   2.429   0.632  10.704  0.2911 -0.1929 -0.3269
  501TMC3    O2 7456   2.174   0.950  10.525  0.0327  0.1484  0.3093
  502TMC3    C1 7457   1.149   3.159  15.072 -0.1988  0.8788  0.4759
  502TMC3    C2 7458   1.095   3.205  14.952  0.0296  0.3249  0.3123
  502TMC3    C3 7459   0.960   3.229  14.945 -0.0667 -0.8422 -0.6791
  502TMC3    C4 7460   1.079   3.155  15.188 -0.4637  0.1436  0.1525
  502TMC3    C5 7461   0.944   3.182  15.176  0.0860 -0.2667  0.8362
  502TMC3    C6 7462   0.887   3.220  15.060  0.0408 -0.4597  0.1955
  502TMC3     C 7463   1.286   3.192  15.077  0.5074 -0.4872 -0.6317
  502TMC3     O 7464   1.350   3.172  14.974  0.4396  0.1483  0.3951
  502TMC3     H 7465   1.149   3.203  14.858  0.7375 -0.1687  0.7301
  502TMC3    H1 7466   1.109   3.116  15.285  0.5554  0.9734  0.1702
  502TMC3    H2 7467   0.779   3.234  15.057 -0.0134 -0.9001  0.0092
  502TMC3    C7 7468   0.858   3.190  15.290 -0.5065 -0.5530 -0.4623
  502TMC3    C8 7469   0.926   3.336  14.861 -0.0931 -0.0880 -0.4719
  502TMC3    O1 7470   0.825   3.084  15.343 -0.3042  0.1943 -0.5765
  502TMC3    O2 7471   1.020   3.383  14.797 -0.7572 -0.4577  0.4167
  503MPD2     C 7472   3.328   0.403  16.807  0.0725  0.1725  0.4317
  503MPD2    C1 7473   3.343   0.462  16.933  0.2787 -0.1885  0.2137
  503MPD2    C2 7474   3.424   0.391  17.025  0.2867 -0.0678  0.2703
  503MPD2    C3 7475   3.454   0.258  17.005  0.5975 -0.1082  0.1478
  503MPD2    C4 7476   3.416   0.199  16.888  0.6480 -0.4189  0.3743
  503MPD2    C5 7477   3.367   0.276  16.786 -0.4154  0.4127  0.0212
  503MPD2     H 7478   3.453   0.435  17.120  1.1452  0.2804 -0.1633
  503MPD2    H1 7479   3.428   0.094  16.864 -2.9036 -0.9547  0.8760
  503MPD2    H2 7480   3.294   0.459  16.721  0.3869  0.7327  0.6737
  503MPD2    H3 7481   3.365   0.238  16.684 -0.9851 -1.3034  0.6853
  503MPD2     N 7482   3.529   0.187  17.105 -0.1336 -0.3555  0.4325
  503MPD2    H5 7483   3.575   0.232  17.184 -0.5009  1.7936 -0.5947
  503MPD2    N1 7484   3.271   0.579  16.973 -0.2719 -0.0315  0.5913
  503MPD2    H7 7485   3.301   0.624  17.058  1.3684 -0.0873  0.0446
  504TMC3    C1 7486   3.667   0.015  17.186 -0.6463 -0.4340  0.3159
  504TMC3    C2 7487   3.665   0.051  17.317  0.6994 -0.4058 -0.0255
  504TMC3    C3 7488   3.740   4.706  17.411  0.3485 -0.0236  0.2784
  504TMC3    C4 7489   3.735   4.627  17.145 -0.0619 -0.0496  0.1194
  504TMC3    C5 7490   3.815   4.567  17.237  0.0377  0.8113  0.2298
  504TMC3    C6 7491   3.822   4.602  17.372  0.4038 -0.3185 -0.0316
  504TMC3     C 7492   3.562   0.054  17.094 -0.4434 -0.0344 -0.8212
  504TMC3     O 7493   3.536   4.691  17.009  0.2089  0.2431  0.1967
  504TMC3     H 7494   3.613   0.141  17.347  1.6436  0.5825 -1.3152
  504TMC3    H1 7495   3.744   4.608  17.039 -0.1445  1.5787 -0.1806
  504TMC3    H2 7496   3.909   4.582  17.432  1.3200  1.5192 -0.7545
  504TMC3    C7 7497   3.898   4.454  17.190 -0.5298  0.0068  0.5285
  504TMC3    C8 7498   3.776   0.052  17.534 -0.2809  0.3549  0.4648
  504TMC3    O1 7499   3.937   4.448  17.077 -0.1882 -0.5028 -0.2969
  504TMC3    O2 7500   3.778   0.174  17.536  0.7566 -0.1645 -0.1343
  505MPD2     C 7501   3.874   2.995  10.975  0.3870  0.0553  0.6721
  505MPD2    C1 7502   3.997   2.951  10.923 -0.8827  0.0427  0.2460
  505MPD2    C2 7503   4.108   3.033  10.928 -0.2452  0.4256  0.2404
  505MPD2    C3 7504   4.109   3.151  10.999 -0.0256  0.3014  0.6067
  505MPD2    C4 7505   3.990   3.198  11.049 -0.4533 -0.1718 -0.3414
  505MPD2    C5 7506   3.876   3.121  11.033 -0.1372  1.0308 -0.4948
  505MPD2     H 7507   4.197   3.006  10.872 -0.2976  1.5766 -0.4088
  505MPD2    H1 7508   3.986   3.289  11.107 -0.2349  0.5396 -1.4602
  505MPD2    H2 7509   3.779   2.945  10.966 -0.0859  1.1229 -0.1908
  505MPD2    H3 7510   3.780   3.153  11.070 -0.2974 -1.9101  1.6689
  505MPD2     N 7511   4.230   3.223  10.998  0.3466 -0.2231  0.3704
  505MPD2    H5 7512   4.317   3.176  10.977 -0.7567 -2.0990 -0.0129
  505MPD2    N1 7513   3.995   2.832  10.841 -0.2107 -0.3499  0.0310
  505MPD2    H7 7514   3.906   2.792  10.815  0.2690 -0.8206 -0.8558
  506TMC3    C1 7515   4.086   2.651  10.718 -0.3515 -0.3752  0.0397
  506TMC3    C2 7516   4.000   2.671  10.616 -0.0780 -0.0788 -0.1442
  506TMC3    C3 7517   4.026   2.597  10.499  0.9095 -0.5094 -0.1443
  506TMC3    C4 7518   4.201   2.578  10.702 -0.8609  0.4774  0.5651
  506TMC3    C5 7519   4.236   2.528  10.582  0.4224 -0.0818 -0.1669
  506TMC3    C6 7520   4.151   2.535  10.476  0.3298  0.4753  0.2820
  506TMC3     C 7521   4.105   2.761  10.809  0.3058 -0.8681  0.3247
  506TMC3     O 7522   4.222   2.783  10.832  0.4496 -0.2228 -0.2160
  506TMC3     H 7523   3.914   2.738  10.614 -1.6036 -2.0079 -0.0286
  506TMC3    H1 7524   4.274   2.567  10.781  0.6173  0.4597 -0.8033
  506TMC3    H2 7525   4.169   2.493  10.378  2.2533  0.0322  0.8297
  506TMC3    C7 7526   4.373   2.571  10.557 -1.0358  0.4029  0.5861
  506TMC3    C8 7527   3.965   2.638  10.374  0.2990  0.8596  0.1429
  506TMC3    O1 7528   4.428   2.516  10.462 -0.0936  0.3120  0.5452
  506TMC3    O2 7529   3.964   2.553  10.286  0.0888  0.5840  0.3316
  507TMC3    C1 7530   4.718   4.002  14.721 -0.0833  0.1957  0.7873
  507TMC3    C2 7531   4.636   3.916  14.657 -0.5294 -0.7330  0.5020
  507TMC3    C3 7532   4.612   3.931  14.522 -0.7401 -0.2397  0.6068
  507TMC3    C4 7533   0.055   4.113  14.659  0.4913 -0.0542 -0.0444
  507TMC3    C5 7534   0.019   4.128  14.529 -0.3960 -0.4168 -0.2256
  507TMC3    C6 7535   4.664   4.041  14.456 -0.3443 -0.1440  0.3500
  507TMC3     C 7536   4.667   4.041  14.847  0.1978 -0.8829 -0.2679
  507TMC3     O 7537   0.010   4.131  14.899 -0.1193  0.7184  0.1653
  507TMC3     H 7538   4.575   3.842  14.707 -0.0761  0.2585  2.5045
  507TMC3    H1 7539   0.134   4.173  14.703  0.7044 -0.5552  0.2552
  507TMC3    H2 7540   4.645   4.046  14.349  1.2342 -0.0304  0.0674
  507TMC3    C7 7541   4.706   4.262  14.493 -0.6738  0.6775 -0.3425
  507TMC3    C8 7542   4.471   3.907  14.488  0.1047  0.1389 -0.7494
  507TMC3    O1 7543   4.606   4.270  14.416  0.6404 -0.1783  0.2170
  507TMC3    O2 7544   4.415   3.810  14.539 -0.5906  0.2243  0.2494
  508MPD2     C 7545   0.485   1.703  16.327 -0.3552 -0.1889  0.1817
  508MPD2    C1 7546   0.598   1.771  16.343  0.6162 -0.4932  0.6495
  508MPD2    C2 7547   0.671   1.821  16.236  0.3886 -0.3678  0.1737
  508MPD2    C3 7548   0.611   1.794  16.109  0.9168  0.7299 -0.0732
  508MPD2    C4 7549   0.501   1.713  16.091 -0.3328  0.7284 -0.3127
  508MPD2    C5 7550   0.435   1.674  16.204 -0.3069  0.0536 -0.6242
  508MPD2     H 7551   0.758   1.884  16.249  0.6119 -0.5671 -0.3368
  508MPD2    H1 7552   0.450   1.699  15.996  1.2868  0.5694 -1.1587
  508MPD2    H2 7553   0.417   1.673  16.406 -0.3361 -0.7776 -0.0315
  508MPD2    H3 7554   0.337   1.628  16.198 -0.1099 -0.3330 -0.8902
  508MPD2     N 7555   0.662   1.869  16.002  0.4136 -0.5169  0.3088
  508MPD2    H5 7556   0.739   1.933  16.016  0.1153  0.2249 -1.5825
  508MPD2    N1 7557   0.628   1.800  16.478  0.1132  0.1545 -0.9634
  508MPD2    H7 7558   0.565   1.771  16.552 -1.4406  3.0643 -1.1624
  509TMC3    C1 7559   0.606   2.213  15.762  0.7117 -0.2547 -0.2496
  509TMC3    C2 7560   0.723   2.257  15.807  0.2408 -0.3361  0.1161
  509TMC3    C3 7561   0.813   2.169  15.845 -0.3835 -0.0204  0.0346
  509TMC3    C4 7562   0.573   2.073  15.758 -0.4415 -0.5859 -0.2229
  509TMC3    C5 7563   0.665   1.991  15.806 -0.9757 -0.4829 -0.0558
  509TMC3    C6 7564   0.788   2.036  15.850  0.3875  0.2260 -0.6114
  509TMC3     C 7565   0.501   2.297  15.708  0.2575  0.1325 -0.1395
  509TMC3     O 7566   0.442   2.237  15.620 -0.0553  0.3975 -0.0831
  509TMC3     H 7567   0.747   2.361  15.790  0.9505 -0.5813 -0.3887
  509TMC3    H1 7568   0.485   2.035  15.706  1.0620 -0.1690 -3.0973
  509TMC3    H2 7569   0.871   1.973  15.880 -0.3414 -0.9987 -1.1872
  509TMC3    C7 7570   0.608   1.884  15.879 -0.2929 -0.1953 -0.4116
  509TMC3    C8 7571   0.952   2.209  15.881  0.3782 -0.4995  0.3591
  509TMC3    O1 7572   0.509   1.833  15.826 -0.2124  0.0350 -0.2085
  509TMC3    O2 7573   1.015   2.141  15.959 -0.3987 -0.7732  0.0415
  510MPD2     C 7574   3.469   3.455  14.805 -0.4724  0.4583 -0.0095
  510MPD2    C1 7575   3.478   3.319  14.787 -0.1852 -0.3508 -0.0126
  510MPD2    C2 7576   3.576   3.271  14.703  0.3225  0.3676  0.4731
  510MPD2    C3 7577   3.670   3.355  14.663 -0.0744 -0.1422  0.1349
  510MPD2    C4 7578   3.679   3.487  14.697  0.3692  0.8507  0.2513
  510MPD2    C5 7579   3.570   3.538  14.762  0.6119  0.1464  0.5632
  510MPD2     H 7580   3.573   3.169  14.665  0.5798  0.2329  0.8164
  510MPD2    H1 7581   3.764   3.553  14.684 -1.4797  3.4797  1.4422
  510MPD2    H2 7582   3.400   3.493  14.880 -0.9184 -0.7268  0.1830
  510MPD2    H3 7583   3.561   3.639  14.801  0.4897  0.0790  0.7104
  510MPD2     N 7584   3.777   3.295  14.587  0.2985  0.2980  0.1112
  510MPD2    H5 7585   3.772   3.193  14.582 -2.3146  0.5093 -1.8024
  510MPD2    N1 7586   3.368   3.247  14.834 -0.5609  0.0033 -0.6823
  510MPD2    H7 7587   3.298   3.307  14.876  1.6355  1.3633  1.0659
  511TMC3    C1 7588   3.225   3.061  14.875  0.6009 -0.2654  0.0859
  511TMC3    C2 7589   3.194   3.113  14.997 -0.4062  0.1442 -0.4964
  511TMC3    C3 7590   3.093   3.049  15.061  0.2413 -0.4028  0.3074
  511TMC3    C4 7591   3.170   2.953  14.818 -0.6227 -0.8109  0.0724
  511TMC3    C5 7592   3.067   2.894  14.887 -0.3976  0.0942  0.2928
  511TMC3    C6 7593   3.030   2.933  15.004  0.3468  0.6309  0.7313
  511TMC3     C 7594   3.345   3.110  14.809 -0.1974 -0.8985  0.3236
  511TMC3     O 7595   3.413   3.028  14.746  0.0160 -0.2403  0.0727
  511TMC3     H 7596   3.247   3.194  15.044 -0.0256 -0.5493  0.2669
  511TMC3    H1 7597   3.198   2.937  14.714  0.7648  1.8488  0.0412
  511TMC3    H2 7598   2.933   2.897  15.038  0.3579  0.7165  0.8553
  511TMC3    C7 7599   3.032   2.764  14.828  0.7183 -0.5644 -0.4414
  511TMC3    C8 7600   3.041   3.101  15.183 -0.3929  0.4330  0.3851
  511TMC3    O1 7601   3.102   2.713  14.744  0.1490 -0.2189 -0.2295
  511TMC3    O2 7602   3.023   3.221  15.191 -0.1958 -0.4629 -0.1771
  512TMC3    C1 7603   2.261   2.671  12.711 -0.1213 -0.0325  0.8223
  512TMC3    C2 7604   2.283   2.599  12.830  0.2145  0.5236  1.2421
  512TMC3    C3 7605   2.313   2.471  12.814  0.1048  0.3031  0.3451
  512TMC3    C4 7606   2.279   2.619  12.585  0.4054 -0.3070  0.1324
  512TMC3    C5 7607   2.326   2.489  12.581 -0.0419  0.3845 -0.6430
  512TMC3    C6 7608   2.339   2.413  12.693 -0.1649  0.4318  0.4696
  512TMC3     C 7609   2.218   2.807  12.726  0.1195  0.7702  0.9838
  512TMC3     O 7610   2.245   2.862  12.830 -0.0179  0.2516 -0.1704
  512TMC3     H 7611   2.245   2.640  12.923 -0.4911  5.3563 -1.1942
  512TMC3    H1 7612   2.261   2.673  12.493  0.2162 -2.1598 -0.9226
  512TMC3    H2 7613   2.395   2.321  12.693 -0.1579  0.4268 -2.5943
  512TMC3    C7 7614   2.345   2.430  12.449 -0.4413  1.2915 -0.1607
  512TMC3    C8 7615   2.341   2.398  12.941 -0.4781  0.4395 -0.0644
  512TMC3    O1 7616   2.322   2.498  12.355  0.3639 -0.6935 -0.0923
  512TMC3    O2 7617   2.309   2.280  12.948 -0.9162  0.0372  0.7930
  513MPD2     C 7618   3.604   2.101  13.069 -0.2958 -0.2716  0.0114
  513MPD2    C1 7619   3.668   2.156  12.958  0.0566  0.4326  0.2414
  513MPD2    C2 7620   3.705   2.283  12.972 -0.5309  0.3721 -0.1203
  513MPD2    C3 7621   3.672   2.366  13.078  0.1065 -0.6684 -0.6842
  513MPD2    C4 7622   3.615   2.308  13.186  0.1566 -0.0422 -0.1018
  513MPD2    C5 7623   3.571   2.175  13.177  0.4096  0.5157  0.8121
  513MPD2     H 7624   3.766   2.328  12.894 -1.0517  1.9963  0.3956
  513MPD2    H1 7625   3.576   2.364  13.270 -1.6474  0.1529 -1.0528
  513MPD2    H2 7626   3.566   1.999  13.062 -0.1726 -0.2094 -1.5871
  513MPD2    H3 7627   3.529   2.142  13.271 -0.7670 -0.3662 -0.0177
  513MPD2     N 7628   3.703   2.500  13.069  0.4903 -0.1272 -0.1566
  513MPD2    H5 7629   3.737   2.538  12.982 -0.3793 -1.6740 -1.1615
  513MPD2    N1 7630   3.700   2.078  12.849 -0.5565 -0.0500  0.3457
  513MPD2    H7 7631   3.686   1.978  12.854 -0.5357 -0.0530  0.3460
  514TMC3    C1 7632   3.788   2.014  12.655 -0.2339  0.9241  0.1732
  514TMC3    C2 7633   3.743   2.025  12.527 -0.2771  0.4345 -0.0387
  514TMC3    C3 7634   3.829   2.004  12.423 -0.7837  0.5399  0.4301
  514TMC3    C4 7635   3.918   1.986  12.671 -0.5394  0.0007 -0.6904
  514TMC3    C5 7636   4.006   1.980  12.568 -0.0050  0.7369  0.6257
  514TMC3    C6 7637   3.966   1.992  12.441 -0.1012 -0.2543 -0.4401
  514TMC3     C 7638   3.757   2.124  12.732  0.4563  0.7080 -0.1106
  514TMC3     O 7639   3.796   2.237  12.698  0.1344  0.3505  0.3182
  514TMC3     H 7640   3.639   2.051  12.516 -0.3880 -0.0642 -0.1885
  514TMC3    H1 7641   3.964   2.001  12.768 -1.7545  1.4926 -0.3452
  514TMC3    H2 7642   4.036   1.995  12.359  0.8574  1.2105  0.4203
  514TMC3    C7 7643   4.130   2.049  12.594 -0.8457 -0.1163 -0.2251
  514TMC3    C8 7644   3.773   2.062  12.302 -1.2638  0.7647  0.3807
  514TMC3    O1 7645   4.223   2.028  12.516  0.0950  0.0221 -0.0987
  514TMC3    O2 7646   3.659   2.114  12.301 -0.1585  0.4927  0.2944
  515MPD2     C 7647   1.736   0.269  15.034  0.0941  0.7954  0.1846
  515MPD2    C1 7648   1.790   0.140  15.024 -0.6683 -0.4658 -0.1064
  515MPD2    C2 7649   1.918   0.124  15.082  0.5591 -0.0731  0.2056
  515MPD2    C3 7650   1.990   0.229  15.142 -0.1327 -0.2160 -0.7350
  515MPD2    C4 7651   1.923   0.352  15.165 -0.4239  0.2705 -0.6697
  515MPD2    C5 7652   1.800   0.376  15.108  0.0786  0.5472 -0.2856
  515MPD2     H 7653   1.962   0.025  15.075 -0.8606 -0.7096  0.2323
  515MPD2    H1 7654   1.969   0.440  15.209 -0.5430 -0.6073  1.2259
  515MPD2    H2 7655   1.631   0.285  15.010 -0.1953  0.7148  1.3775
  515MPD2    H3 7656   1.761   0.477  15.110 -0.6681  0.2782 -1.2406
  515MPD2     N 7657   2.123   0.210  15.184 -0.2406  0.3846 -0.6455
  515MPD2    H5 7658   2.152   0.282  15.249  1.1190  0.6112 -1.5151
  515MPD2    N1 7659   1.721   0.027  14.963  0.3300 -0.1541 -1.0424
  515MPD2    H7 7660   1.783   4.669  14.944  1.5879  0.8449 -1.1107
  516TMC3    C1 7661   1.579   4.636  14.816 -0.0962  0.2474 -0.6785
  516TMC3    C2 7662   1.485   4.653  14.711 -0.0582 -0.3268 -0.7105
  516TMC3    C3 7663   1.481   4.558  14.615  0.7889 -0.0147  0.4133
  516TMC3    C4 7664   1.660   4.529  14.816  0.3046  0.1980 -0.2513
  516TMC3    C5 7665   1.645   4.439  14.722  0.2038  0.1611 -0.6272
  516TMC3    C6 7666   1.565   4.456  14.612  0.2479 -0.3405 -1.0996
  516TMC3     C 7667   1.597   0.028  14.904  0.8799  0.0916  0.1406
  516TMC3     O 7668   1.508   0.113  14.905 -0.0897 -0.4512 -0.0179
  516TMC3     H 7669   1.426   0.022  14.718 -1.8384 -1.4794 -0.9785
  516TMC3    H1 7670   1.720   4.511  14.904 -1.4333  0.5310  0.9945
  516TMC3    H2 7671   1.552   4.372  14.544  2.1587 -1.6657  0.1869
  516TMC3    C7 7672   1.736   4.322  14.734  0.1587  0.4487  0.8217
  516TMC3    C8 7673   1.408   4.590  14.493  0.1202 -0.5325 -0.0436
  516TMC3    O1 7674   1.696   4.214  14.687 -0.0777 -0.3112 -0.1908
  516TMC3    O2 7675   1.440   4.531  14.394  0.2848 -0.2067 -0.6701
  517MPD2     C 7676   1.285   0.917  17.441  0.3295 -0.1348  0.2002
  517MPD2    C1 7677   1.366   0.939  17.555 -1.0983  0.2668  0.0025
  517MPD2    C2 7678   1.341   1.056  17.627  0.0583 -0.2097 -0.1332
  517MPD2    C3 7679   1.245   1.144  17.592  0.1532  0.0901 -0.0211
  517MPD2    C4 7680   1.177   1.124  17.479 -0.0377  0.6255  0.1276
  517MPD2    C5 7681   1.205   1.025  17.394 -0.1093 -0.0725  0.4269
  517MPD2     H 7682   1.404   1.066   0.029 -0.4433  0.3716  0.1558
  517MPD2    H1 7683   1.098   1.194  17.458  0.8061  0.8236 -2.2989
  517MPD2    H2 7684   1.294   0.823  17.387 -0.8434 -0.0888 -0.0667
  517MPD2    H3 7685   1.141   1.005  17.309  0.4127  0.1595 -0.0126
  517MPD2     N 7686   1.214   1.256  17.674 -0.4784  0.4748 -0.5361
  517MPD2    H5 7687   1.142   1.311  17.628  0.8446  1.2039 -1.7392
  517MPD2    N1 7688   1.459   0.845  17.600 -0.2351 -0.0190 -0.0538
  517MPD2    H7 7689   1.525   0.863  17.676 -1.2658  0.0345  0.8247
  518TMC3    C1 7690   1.571   0.639  17.605 -0.2760  0.1186 -0.0490
  518TMC3    C2 7691   1.578   0.510  17.568 -0.3019 -0.3330 -0.0340
  518TMC3    C3 7692   1.691   0.444  17.600 -0.6789  0.1918  0.1031
  518TMC3    C4 7693   1.678   0.698  17.674  0.4488  0.2606 -0.8445
  518TMC3    C5 7694   1.785   0.628   0.036 -0.5724  0.8183 -0.0355
  518TMC3    C6 7695   1.787   0.499  17.676 -0.1001 -0.6348 -0.2447
  518TMC3     C 7696   1.453   0.714  17.566  0.1924 -0.2628  0.1099
  518TMC3     O 7697   1.367   0.649  17.502  0.0759  0.2526  0.3786
  518TMC3     H 7698   1.497   0.457  17.519 -1.0576 -0.3869  1.2659
  518TMC3    H1 7699   1.683   0.800   0.024  0.9069 -0.3097  0.7387
  518TMC3    H2 7700   1.873   0.437   0.012 -0.2218  0.1751  2.4753
  518TMC3    C7 7701   1.912   0.702   0.035 -0.2968  0.3443  0.1971
  518TMC3    C8 7702   1.724   0.327  17.523 -0.6835 -0.1958  0.3458
  518TMC3    O1 7703   1.916   0.796   0.106 -0.1193  0.4094 -0.1409
  518TMC3    O2 7704   1.803   0.246  17.574 -0.2871  0.0034 -0.4519
  519MPD2     C 7705   3.544   4.141  14.235 -0.5546  0.2053 -0.1457
  519MPD2    C1 7706   3.408   4.123  14.235 -0.2689  0.5260 -0.4589
  519MPD2    C2 7707   3.347   3.996  14.234 -0.4928  0.0120 -0.2906
  519MPD2    C3 7708   3.430   3.891  14.235 -0.4775 -0.6501  0.2857
  519MPD2    C4 7709   3.566   3.907  14.232  0.8661 -0.4471  0.0682
  519MPD2    C5 7710   3.625   4.032  14.229 -0.5225 -0.3063 -0.0720
  519MPD2     H 7711   3.239   3.982  14.231 -0.2646 -2.3999  1.9752
  519MPD2    H1 7712   3.629   3.820  14.219 -1.7645 -2.4231  0.8134
  519MPD2    H2 7713   3.575   4.243  14.219  0.5388  0.3831  3.1181
  519MPD2    H3 7714   3.731   4.034  14.209 -0.3920 -1.3699  0.4926
  519MPD2     N 7715   3.380   3.762  14.233 -0.5840  0.4563 -0.1913
  519MPD2    H5 7716   3.450   3.689  14.222 -0.9853  0.4483 -2.8190
  519MPD2    N1 7717   3.338   4.239  14.228  0.0223  0.3132 -0.3834
  519MPD2    H7 7718   3.395   4.323  14.233 -1.7410  1.5493 -0.9942
  520TMC3    C1 7719   3.252   3.575  14.203  0.1510 -0.1058  0.0792
  520TMC3    C2 7720   3.199   3.562  14.075  0.5460  1.0567  0.1358
  520TMC3    C3 7721   3.272   3.501  13.985 -0.4645  0.1133 -0.5603
  520TMC3    C4 7722   3.374   3.516  14.240 -0.2034  0.0086 -0.0260
  520TMC3    C5 7723   3.439   3.451  14.140 -0.1444  0.1500  0.5774
  520TMC3    C6 7724   3.389   3.437  14.013 -0.0272 -0.2238 -0.6423
  520TMC3     C 7725   3.247   3.720  14.233 -0.7726 -0.0807 -0.5175
  520TMC3     O 7726   3.141   3.781  14.234  0.4764 -0.2142  0.2472
  520TMC3     H 7727   3.112   3.625  14.060 -0.8430 -0.3796  2.0915
  520TMC3    H1 7728   3.426   3.540  14.332 -0.1356 -0.4807  0.0618
  520TMC3    H2 7729   3.447   3.381  13.941  0.8434  0.8628 -0.8034
  520TMC3    C7 7730   3.581   3.452  14.158 -0.1727  0.2705  0.1359
  520TMC3    C8 7731   3.246   3.516  13.848  0.1102 -0.2226  0.2795
  520TMC3    O1 7732   3.633   3.385  14.245 -0.7316  0.0322 -0.1568
  520TMC3    O2 7733   3.308   3.445  13.767 -0.4574 -0.5085 -0.6013
  521MPD2     C 7734   4.060   2.958  17.167 -0.3659 -0.2364 -0.3943
  521MPD2    C1 7735   4.053   2.844  17.092  0.4179 -0.7667  0.4847
  521MPD2    C2 7736   4.163   2.808  17.015  0.2474  0.1739  0.3190
  521MPD2    C3 7737   4.272   2.887  17.007 -0.7837 -0.4363 -0.0700
  521MPD2    C4 7738   4.272   3.011  17.067  0.0195  0.5407  0.2968
  521MPD2    C5 7739   4.170   3.044  17.150 -0.3056  0.2716 -0.0634
  521MPD2     H 7740   4.166   2.706  16.978  5.2698 -0.0494  1.3267
  521MPD2    H1 7741   4.345   3.089  17.046  0.0064  0.2747 -0.7446
  521MPD2    H2 7742   3.975   2.987  17.227 -0.0654  0.8601 -0.4917
  521MPD2    H3 7743   4.166   3.144  17.191 -1.1660  0.8782 -1.6240
  521MPD2     N 7744   4.386   2.836  16.939  0.2121  0.1747 -0.2240
  521MPD2    H5 7745   4.371   2.747  16.892 -0.8532 -0.8568  2.0651
  521MPD2    N1 7746   3.935   2.765  17.104 -0.2131 -0.0603 -0.2660
  521MPD2    H7 7747   3.876   2.791  17.182  0.1742  0.1171 -0.0316
  522TMC3    C1 7748   4.599   2.768  16.905  0.4148 -0.4560  0.4852
  522TMC3    C2 7749   4.714   2.759  16.978 -0.1745 -0.5283 -0.1747
  522TMC3    C3 7750   0.082   2.661  16.930 -0.2456  0.7299 -1.1880
  522TMC3    C4 7751   4.558   2.695  16.801  0.6210  0.3534  0.3984
  522TMC3    C5 7752   4.656   2.607  16.757  0.3263  0.9382  0.1334
  522TMC3    C6 7753   0.051   2.585  16.818 -0.0127 -0.7244 -0.0378
  522TMC3     C 7754   4.517   2.874  16.955 -0.2099 -0.3346  0.3627
  522TMC3     O 7755   4.564   2.974  17.018  0.1794 -0.3742 -0.3961
  522TMC3     H 7756   0.020   2.818  17.065 -1.5307  0.2495 -0.2950
  522TMC3    H1 7757   4.474   2.718  16.735  1.8308 -0.6916 -1.4971
  522TMC3    H2 7758   0.117   2.503  16.793  4.1550  2.7172 -0.2545
  522TMC3    C7 7759   4.632   2.520  16.642  0.0210 -0.2194 -0.0644
  522TMC3    C8 7760   0.202   2.634  17.003  0.5232 -0.1128  0.2109
  522TMC3    O1 7761   0.010   2.470  16.587  0.3041  0.1924 -0.3653
  522TMC3    O2 7762   0.214   2.697  17.109 -0.4536  0.1286  0.1745
  523MPD2     C 7763   2.396   1.922  10.234  0.0454 -0.0256  0.1156
  523MPD2    C1 7764   2.355   1.872  10.115  0.3253  0.3461  0.3167
  523MPD2    C2 7765   2.250   1.934  10.046 -0.0744  0.0202 -0.3672
  523MPD2    C3 7766   2.191   2.047  10.096  0.0330  0.6380 -0.1150
  523MPD2    C4 7767   2.246   2.106  10.202  0.3014 -0.4740  0.4354
  523MPD2    C5 7768   2.335   2.039  10.272  0.4090  0.6002 -0.6733
  523MPD2     H 7769   2.218   1.890   9.952  0.6921  0.7311 -0.9522
  523MPD2    H1 7770   2.205   2.190  10.258 -1.3321 -0.5813 -0.6172
  523MPD2    H2 7771   2.468   1.870  10.295  2.2844  0.4481 -2.1468
  523MPD2    H3 7772   2.362   2.089  10.365  1.1452  0.1222 -0.6249
  523MPD2     N 7773   2.084   2.119  10.038 -0.7231 -0.0670 -0.2269
  523MPD2    H5 7774   2.064   2.211  10.077  4.1249  1.1529 -0.5739
  523MPD2    N1 7775   2.400   1.739  10.082  0.1847 -0.6936 -0.6628
  523MPD2    H7 7776   2.431   1.685  10.162 -3.4788 -0.4320  0.9253
  524TMC3    C1 7777   1.912   2.183   9.898  0.5408 -0.8119  0.6117
  524TMC3    C2 7778   1.864   2.185   9.772  0.0610  0.1608 -0.6017
  524TMC3    C3 7779   1.778   2.283   9.731  0.8449  0.1201  0.4006
  524TMC3    C4 7780   1.863   2.270   9.991  0.0859  0.0340 -0.0657
  524TMC3    C5 7781   1.771   2.365   9.946  0.6844  0.6215 -0.5206
  524TMC3    C6 7782   1.735   2.381   9.813  0.4806 -0.5548  1.0336
  524TMC3     C 7783   2.019   2.088   9.923 -0.3732 -0.0711 -0.1210
  524TMC3     O 7784   2.036   1.985   9.861 -0.4378  0.6469  0.1108
  524TMC3     H 7785   1.903   2.116   9.698 -1.7026 -0.7604 -0.6935
  524TMC3    H1 7786   1.890   2.263  10.096 -0.1500  0.7631  0.0450
  524TMC3    H2 7787   1.665   2.461   9.794  0.9109 -0.4970 -0.2949
  524TMC3    C7 7788   1.693   2.431  10.055  0.2281  0.5855 -0.2300
  524TMC3    C8 7789   1.701   2.273   9.610  0.3543  0.5214  0.1053
  524TMC3    O1 7790   1.690   2.384  10.168 -0.0934 -0.4284  0.2884
  524TMC3    O2 7791   1.613   2.355   9.593  0.1418 -0.2292 -0.6930
  525MPD2     C 7792   4.694   3.629  14.444  0.2032 -0.3348 -0.5020
  525MPD2    C1 7793   0.114   3.630  14.479  0.1615  1.5452  0.0986
  525MPD2    C2 7794   0.199   3.682  14.388 -0.1499 -0.1681 -0.3664
  525MPD2    C3 7795   0.156   3.758  14.285  0.4943 -0.3077  0.8325
  525MPD2    C4 7796   0.021   3.765  14.254  0.1969 -0.1918 -0.0126
  525MPD2    C5 7797   4.651   3.691  14.330  0.1952  0.2852 -0.7196
  525MPD2     H 7798   0.303   3.660  14.411 -0.0027  2.2727  1.2241
  525MPD2    H1 7799   4.716   3.830  14.172  2.6458  1.4352  0.5156
  525MPD2    H2 7800   4.622   3.571  14.500 -0.7160  2.0022  0.7263
  525MPD2    H3 7801   4.547   3.679  14.300  0.4269 -0.1647 -1.3438
  525MPD2     N 7802   0.240   3.836  14.196  0.0491 -0.1181  0.4673
  525MPD2    H5 7803   0.196   3.900  14.130  0.1934 -1.4857 -0.9615
  525MPD2    N1 7804   0.166   3.569  14.600  0.1617  0.1709  0.2905
  525MPD2    H7 7805   0.267   3.570  14.609  0.3212  0.8580 -1.6674
  526TMC3    C1 7806   0.167   3.431  14.793 -0.3073 -0.2942  0.5321
  526TMC3    C2 7807   0.113   3.419  14.921  0.2754 -0.0751  0.2383
  526TMC3    C3 7808   0.201   3.377  15.019 -0.6510  0.3744  0.3096
  526TMC3    C4 7809   0.295   3.396  14.767 -0.5061  0.6115  0.2334
  526TMC3    C5 7810   0.372   3.347  14.866  0.9253  0.3361  0.1232
  526TMC3    C6 7811   0.325   3.337  14.997  0.8437  0.0258 -0.6971
  526TMC3     C 7812   0.088   3.506  14.698 -0.4134 -0.8486  0.8014
  526TMC3     O 7813   4.690   3.510  14.724  0.3780  0.4631  1.2393
  526TMC3     H 7814   0.017   3.463  14.943  0.5966  0.4900  0.5171
  526TMC3    H1 7815   0.327   3.403  14.663  0.3222  0.8654  0.5034
  526TMC3    H2 7816   0.381   3.285  15.074  1.3346 -1.0478 -1.7662
  526TMC3    C7 7817   0.495   3.267  14.841  0.1222 -0.3281  0.9334
  526TMC3    C8 7818   0.158   3.351  15.158 -0.0912  0.8754  0.0376
  526TMC3    O1 7819   0.561   3.250  14.944 -0.2019 -0.3408  0.4518
  526TMC3    O2 7820   0.244   3.329  15.243 -0.1319  0.1557  0.2443
  527MPD2     C 7821   2.482   1.820   0.622 -0.5522  0.5287 -0.0109
  527MPD2    C1 7822   2.520   1.808   0.751 -0.3222  0.9435  0.0037
  527MPD2    C2 7823   2.656   1.828   0.782 -0.5342 -0.3815  0.1995
  527MPD2    C3 7824   2.753   1.850   0.677 -0.4700 -0.4250  1.0448
  527MPD2    C4 7825   2.714   1.837   0.547  0.9933  0.2842  0.1506
  527MPD2    C5 7826   2.576   1.835   0.522 -0.2041  0.2787  0.5110
  527MPD2     H 7827   2.695   1.837   0.883  0.1962  1.6872 -0.2613
  527MPD2    H1 7828   2.782   1.863   0.466  1.0936 -0.5561 -0.0329
  527MPD2    H2 7829   2.381   1.818   0.581 -0.0113  1.7798 -1.4177
  527MPD2    H3 7830   2.547   1.819   0.419  1.5079 -2.1856  0.4177
  527MPD2     N 7831   2.889   1.864   0.719 -0.5450 -0.5374 -0.5383
  527MPD2    H5 7832   2.919   1.862   0.816 -2.2640 -0.8204 -0.0196
  527MPD2    N1 7833   2.425   1.780   0.859  0.9585 -1.0630  0.8764
  527MPD2    H7 7834   2.464   1.785   0.952 -1.5964  1.2284  1.7901
  528TMC3    C1 7835   2.216   1.747   0.962 -0.6370 -0.0154  0.0254
  528TMC3    C2 7836   2.267   1.814   1.067  0.8600 -0.0160 -0.0420
  528TMC3    C3 7837   2.252   1.775   1.199 -0.4360 -0.1329 -0.3936
  528TMC3    C4 7838   2.131   1.643   0.981  0.7934  0.7693  0.6173
  528TMC3    C5 7839   2.116   1.603   1.118 -0.1143  0.0315  0.2349
  528TMC3    C6 7840   2.177   1.659   1.228  0.2240  0.3189 -0.1838
  528TMC3     C 7841   2.295   1.742   0.837  0.0278 -0.2868 -0.3036
  528TMC3     O 7842   2.240   1.704   0.738 -0.5848 -0.6681 -0.4671
  528TMC3     H 7843   2.319   1.907   1.048 -0.4748  0.3691 -1.8488
  528TMC3    H1 7844   2.095   1.586   0.896 -1.1815  0.1404  1.8819
  528TMC3    H2 7845   2.143   1.634   1.327  2.1054 -1.5024  0.0038
  528TMC3    C7 7846   2.008   1.513   1.135  0.2046 -0.4967  0.0882
  528TMC3    C8 7847   2.345   1.825   1.295 -0.2780 -0.0508 -0.2016
  528TMC3    O1 7848   1.909   1.537   1.070  0.0390 -0.1166 -0.8503
  528TMC3    O2 7849   2.406   1.926   1.272  0.2486 -0.4267  0.4380
  529MPD2     C 7850   0.883   0.530   0.790  0.8000  0.0958  0.0519
  529MPD2    C1 7851   0.968   0.468   0.703 -0.3216 -0.2481  0.2442
  529MPD2    C2 7852   0.969   0.511   0.578  0.0526  0.1761  0.3404
  529MPD2    C3 7853   0.901   0.625   0.534 -0.3070  0.1922  0.3823
  529MPD2    C4 7854   0.819   0.683   0.622  0.6132 -0.0547 -0.8550
  529MPD2    C5 7855   0.808   0.635   0.748  0.1612  0.3216  0.4869
  529MPD2     H 7856   1.045   0.472   0.512  0.3353  0.1469  0.6841
  529MPD2    H1 7857   0.757   0.769   0.600 -2.2977 -1.8705  0.2231
  529MPD2    H2 7858   0.863   0.486   0.887  1.0291 -0.2916 -0.0725
  529MPD2    H3 7859   0.739   0.678   0.821  0.0550  1.0642 -0.0464
  529MPD2     N 7860   0.905   0.682   0.405 -0.2950  0.0875  0.3124
  529MPD2    H5 7861   0.858   0.771   0.396  0.2453  0.0546 -2.5913
  529MPD2    N1 7862   1.044   0.354   0.734  0.2588  0.2817 -0.5245
  529MPD2    H7 7863   1.087   0.309   0.654  2.0883 -0.7233  1.0344
  530TMC3    C1 7864   1.127   0.186   0.882  0.4889  0.5353  0.3772
  530TMC3    C2 7865   1.194   0.163   1.001  0.0176 -0.1899  0.4160
  530TMC3    C3 7866   1.221   0.035   1.051 -0.3504 -0.1616 -1.0575
  530TMC3    C4 7867   1.065   0.078   0.825 -1.0228  0.4941  0.2922
  530TMC3    C5 7868   1.093   4.674   0.876 -0.3031  0.0784  0.2528
  530TMC3    C6 7869   1.168   4.647   0.993  0.4520 -0.0222  0.1293
  530TMC3     C 7870   1.063   0.314   0.864 -0.1918 -0.0296  0.2415
  530TMC3     O 7871   1.044   0.374   0.970 -0.1333 -0.1480  0.2771
  530TMC3     H 7872   1.243   0.241   1.058 -1.0539  0.2061  0.7827
  530TMC3    H1 7873   1.008   0.100   0.735 -0.3261  0.7593 -0.0840
  530TMC3    H2 7874   1.175   4.545   1.031 -0.8198 -0.1124  0.1250
  530TMC3    C7 7875   1.000   4.568   0.827 -0.5390  0.1264  0.2851
  530TMC3    C8 7876   1.247   0.021   1.199  0.1886 -0.7028  0.1912
  530TMC3    O1 7877   0.988   4.542   0.707 -1.0870 -0.2380  0.2871
  530TMC3    O2 7878   1.213   0.116   1.271  0.1186 -0.2490 -0.0501
  531MPD2     C 7879   4.333   2.469  12.786 -1.0502  0.0870 -0.2664
  531MPD2    C1 7880   4.197   2.479  12.794  0.1325  0.4798 -0.0490
  531MPD2    C2 7881   4.119   2.374  12.752  0.5306  0.3871  0.2271
  531MPD2    C3 7882   4.188   2.264  12.703  0.4319 -0.0539 -0.5339
  531MPD2    C4 7883   4.325   2.252  12.695  0.2575 -0.1063 -0.1421
  531MPD2    C5 7884   4.399   2.359  12.729  0.2828 -0.2322 -0.0698
  531MPD2     H 7885   4.011   2.372  12.757  0.5237 -0.6995 -0.5590
  531MPD2    H1 7886   4.380   2.169  12.651  0.6511 -0.2355  0.5968
  531MPD2    H2 7887   4.395   2.548  12.828  1.8998 -2.1624 -0.3494
  531MPD2    H3 7888   4.506   2.360  12.713  0.5021  0.2356  1.3849
  531MPD2     N 7889   4.101   2.162  12.663 -0.4203 -0.3989  0.1659
  531MPD2    H5 7890   4.005   2.194  12.669 -0.2666 -0.1830  1.5580
  531MPD2    N1 7891   4.145   2.590  12.855 -0.4349  0.2788 -0.3682
  531MPD2    H7 7892   4.207   2.658  12.898 -1.4646 -1.3263  3.6441
  532TMC3    C1 7893   3.957   2.711  12.967  0.3683 -0.2787  0.8840
  532TMC3    C2 7894   3.823   2.698  12.999 -0.2307  0.4913 -0.5011
  532TMC3    C3 7895   3.784   2.709  13.131  0.2831  0.2858  0.3002
  532TMC3    C4 7896   4.045   2.735  13.067 -0.2744 -1.2975 -0.2162
  532TMC3    C5 7897   4.002   2.762  13.192 -0.6871 -0.0766  0.5958
  532TMC3    C6 7898   3.872   2.748  13.232  0.0578 -0.0828 -0.1293
  532TMC3     C 7899   4.009   2.612  12.864  0.2956 -0.6240 -0.1056
  532TMC3     O 7900   3.917   2.547  12.819  0.4493 -0.5466 -0.1317
  532TMC3     H 7901   3.753   2.678  12.919  1.7922  1.2900 -2.4543
  532TMC3    H1 7902   4.152   2.739  13.051 -0.1545 -1.2053  0.6008
  532TMC3    H2 7903   3.856   2.747  13.339  1.9726  1.3671  0.1804
  532TMC3    C7 7904   4.102   2.765  13.295 -0.4264 -0.2174  0.2424
  532TMC3    C8 7905   3.701   2.596  13.172  0.2892 -0.2678 -0.5931
  532TMC3    O1 7906   4.089   2.838  13.394  0.5229  0.3217 -0.2947
  532TMC3    O2 7907   3.682   2.582  13.290 -0.1168  0.2501 -0.4724
  533TMC3    C1 7908   0.422   3.973  14.140 -0.2807 -0.3274  0.1401
  533TMC3    C2 7909   0.562   3.975  14.124 -0.2495  0.2188 -0.1836
  533TMC3    C3 7910   0.627   4.090  14.161  0.1186 -0.4527  0.4986
  533TMC3    C4 7911   0.354   4.080  14.191 -0.8566  0.4430  0.6550
  533TMC3    C5 7912   0.427   4.191  14.228  0.4766 -0.0103  0.5397
  533TMC3    C6 7913   0.560   4.199  14.208 -0.3090 -0.1592  0.3344
  533TMC3     C 7914   0.378   3.850  14.202 -0.0069  0.5188 -0.2426
  533TMC3     O 7915   0.457   3.772  14.263 -0.5037  0.7519  0.1461
  533TMC3     H 7916   0.618   3.883  14.114  0.1111  0.5224 -0.9089
  533TMC3    H1 7917   0.250   4.071  14.220 -0.7230 -1.0366  0.6957
  533TMC3    H2 7918   0.605   4.290  14.246 -1.9024  0.2621  1.1861
  533TMC3    C7 7919   0.369   4.234  14.356 -0.1302 -0.2502 -0.6150
  533TMC3    C8 7920   0.751   4.078  14.230 -0.4841  0.1086  0.3673
  533TMC3    O1 7921   0.289   4.167  14.416  0.4147 -0.1247 -0.0415
  533TMC3    O2 7922   0.781   3.973  14.291  0.3379  0.3363 -0.1656
  534MPD2     C 7923   3.414   0.599   1.245  0.1018 -0.0667  0.4394
  534MPD2    C1 7924   3.303   0.601   1.337  0.2585  0.5858  0.0196
  534MPD2    C2 7925   3.212   0.507   1.317  0.3398 -0.6143 -0.1429
  534MPD2    C3 7926   3.230   0.404   1.222 -0.8152  0.6615  0.1818
  534MPD2    C4 7927   3.333   0.406   1.135 -0.0106  0.0906  0.0560
  534MPD2    C5 7928   3.427   0.508   1.144 -0.0152 -0.0245 -0.1262
  534MPD2     H 7929   3.130   0.521   1.386  2.0147 -1.0205  1.9299
  534MPD2    H1 7930   3.341   0.337   1.052  2.1003  0.9668 -0.4525
  534MPD2    H2 7931   3.487   0.679   1.250  0.4655 -0.3857  0.2126
  534MPD2    H3 7932   3.507   0.511   1.070  1.4548 -0.0945  1.4557
  534MPD2     N 7933   3.128   0.306   1.212  0.4595 -0.0799  0.2603
  534MPD2    H5 7934   3.136   0.247   1.129 -0.2941 -0.5621  0.5338
  534MPD2    N1 7935   3.283   0.698   1.439 -0.5624  0.2408  0.7024
  534MPD2    H7 7936   3.198   0.684   1.493 -0.8487  1.7464  0.6247
  535TMC3    C1 7937   2.923   0.196   1.232  0.4599 -0.1197  0.1878
  535TMC3    C2 7938   2.829   0.142   1.318  0.4519 -0.3077  0.6196
  535TMC3    C3 7939   2.733   0.066   1.260  0.3118  0.6192  0.1465
  535TMC3    C4 7940   2.933   0.165   1.096 -0.1038 -0.1939 -0.2358
  535TMC3    C5 7941   2.820   0.105   1.044  0.4860 -0.3113 -0.6112
  535TMC3    C6 7942   2.731   0.045   1.122 -0.1964 -0.2904 -0.5847
  535TMC3     C 7943   3.016   0.297   1.284 -0.2195  0.7543 -0.2481
  535TMC3     O 7944   2.985   0.344   1.393  0.1595 -0.5122 -0.6816
  535TMC3     H 7945   2.816   0.177   1.419 -1.2397 -0.1473  0.3468
  535TMC3    H1 7946   2.982   0.231   1.025 -2.2225 -1.1898 -2.6222
  535TMC3    H2 7947   2.650   4.714   1.071  0.9581 -2.3868 -0.2797
  535TMC3    C7 7948   2.780   0.138   0.907  0.0474 -0.0693  0.8953
  535TMC3    C8 7949   2.616   0.010   1.327  0.0165 -0.2540  0.6302
  535TMC3    O1 7950   2.862   0.135   0.820 -0.5477  0.1944  0.3610
  535TMC3    O2 7951   2.529   4.682   1.254  0.3246  0.6689  0.3306
  536MPD2     C 7952   1.804   3.928  16.257  0.0177  0.4729  0.2231
  536MPD2    C1 7953   1.678   3.886  16.281 -0.0759 -0.7911  0.3095
  536MPD2    C2 7954   1.592   3.877  16.177  0.0419 -0.2724 -0.3000
  536MPD2    C3 7955   1.626   3.915  16.045 -0.2390  0.0237  0.1932
  536MPD2    C4 7956   1.759   3.958  16.024 -0.4261  0.1184 -0.8405
  536MPD2    C5 7957   1.846   3.958  16.128 -0.1982  0.1369 -0.0395
  536MPD2     H 7958   1.492   3.835  16.182 -0.1464  0.1670 -0.4236
  536MPD2    H1 7959   1.800   3.982  15.927  0.2584  0.2391 -0.5204
  536MPD2    H2 7960   1.879   3.916  16.334 -2.0177 -1.3036  1.9549
  536MPD2    H3 7961   1.947   3.984  16.100  0.8227 -2.2208  1.4106
  536MPD2     N 7962   1.527   3.912  15.944 -0.1514  0.0780  1.2901
  536MPD2    H5 7963   1.435   3.876  15.967 -0.1509 -2.8230 -3.1805
  536MPD2    N1 7964   1.646   3.848  16.416  0.1672 -0.1339  0.2445
  536MPD2    H7 7965   1.718   3.868  16.485 -0.5581  1.2853  0.5848
  537TMC3    C1 7966   1.504   3.786  16.604  0.2345  0.3022  0.1781
  537TMC3    C2 7967   1.611   3.736  16.672 -0.3417 -0.1360 -0.0026
  537TMC3    C3 7968   1.583   3.668  16.790  0.3376 -0.1884  1.0376
  537TMC3    C4 7969   1.375   3.756  16.639  0.7860  0.4126  0.1666
  537TMC3    C5 7970   1.348   3.685  16.754 -1.2793 -0.7434  0.5127
  537TMC3    C6 7971   1.455   3.647  16.832 -0.1977  0.7016 -0.1574
  537TMC3     C 7972   1.520   3.826  16.459  0.2497  0.2239 -0.2921
  537TMC3     O 7973   1.420   3.805  16.396  0.7377  0.2441  0.2707
  537TMC3     H 7974   1.709   3.763  16.634  0.3922 -3.5265 -0.5289
  537TMC3    H1 7975   1.295   3.784  16.572 -0.8098 -1.9733  1.0649
  537TMC3    H2 7976   1.429   3.605  16.929  0.0478  1.0550  0.0619
  537TMC3    C7 7977   1.221   3.623  16.779  0.0040  0.7165 -0.1026
  537TMC3    C8 7978   1.698   3.634  16.872  0.4346 -0.2115  0.1589
  537TMC3    O1 7979   1.141   3.675  16.704  0.1318 -0.5287  0.5505
  537TMC3    O2 7980   1.813   3.653  16.834  0.1182  0.2550  0.4800
  538TMC3    C1 7981   2.699   1.801  10.811  0.2441 -0.1555 -0.0270
  538TMC3    C2 7982   2.684   1.715  10.702 -0.2152 -0.1187 -0.3750
  538TMC3    C3 7983   2.671   1.768  10.579  0.3276 -0.8830  0.3635
  538TMC3    C4 7984   2.684   1.934  10.806  0.6826  0.7908 -0.0856
  538TMC3    C5 7985   2.649   1.982  10.679  0.3579  0.1205 -0.0630
  538TMC3    C6 7986   2.649   1.905  10.568  0.5368  0.5471 -0.0625
  538TMC3     C 7987   2.715   1.740  10.941  0.3306  0.1101 -0.1830
  538TMC3     O 7988   2.658   1.638  10.968 -0.3526  0.0276 -0.1731
  538TMC3     H 7989   2.702   1.609  10.718 -0.9817 -0.5185 -2.2741
  538TMC3    H1 7990   2.675   1.996  10.895  0.3426  0.2487  0.2643
  538TMC3    H2 7991   2.631   1.950  10.472 -0.5367  0.5089  0.1235
  538TMC3    C7 7992   2.621   2.121  10.653  0.4773  0.1617  0.1546
  538TMC3    C8 7993   2.757   1.705  10.488 -0.0902 -0.5787 -0.2276
  538TMC3    O1 7994   2.586   2.149  10.537  0.1195  0.5453 -0.4158
  538TMC3    O2 7995   2.799   1.597  10.520  0.0132 -0.2199 -0.4448
  539MPD2     C 7996   2.781   1.292  11.697 -0.1778  0.1733 -0.4102
  539MPD2    C1 7997   2.674   1.273  11.608  0.4829 -0.4853  0.5319
  539MPD2    C2 7998   2.634   1.387  11.545 -0.0846  0.8535  0.3237
  539MPD2    C3 7999   2.700   1.510  11.567  0.7933  1.0836 -0.0742
  539MPD2    C4 8000   2.798   1.523  11.656  0.2783  0.6335  0.8016
  539MPD2    C5 8001   2.838   1.410  11.712  0.0268 -0.8077 -0.1098
  539MPD2     H 8002   2.549   1.375  11.479 -0.0225 -2.8558  0.8914
  539MPD2    H1 8003   2.834   1.625  11.671  0.3383  1.1452 -2.6447
  539MPD2    H2 8004   2.834   1.207  11.741 -0.7199  0.1084  0.1173
  539MPD2    H3 8005   2.921   1.410  11.781 -0.0290 -2.6474 -0.0319
  539MPD2     N 8006   2.663   1.631  11.509 -0.7046 -0.1302  0.2872
  539MPD2    H5 8007   2.712   1.718  11.526  0.9724 -0.7755 -1.1775
  539MPD2    N1 8008   2.618   1.155  11.566 -0.0773  0.6461  0.5917
  539MPD2    H7 8009   2.541   1.162  11.500  0.0876  2.3983  0.6013
  540TMC3    C1 8010   2.552   1.787  11.369 -0.1773 -0.4722 -0.3361
  540TMC3    C2 8011   2.502   1.829  11.247  0.0782  1.1766  0.0743
  540TMC3    C3 8012   2.482   1.965  11.233  0.6768  0.3853 -0.2748
  540TMC3    C4 8013   2.567   1.876  11.468 -0.1336  0.1087 -0.2012
  540TMC3    C5 8014   2.541   2.007  11.453 -0.4406 -0.0746 -0.0903
  540TMC3    C6 8015   2.505   2.057  11.330 -0.1755 -0.6246  0.2625
  540TMC3     C 8016   2.571   1.648  11.407  0.0719  0.5822 -0.4258
  540TMC3     O 8017   2.507   1.571  11.341  0.0833 -0.5540 -0.3882
  540TMC3     H 8018   2.488   1.752  11.172  3.0399 -0.2282  0.9587
  540TMC3    H1 8019   2.593   1.850  11.570  1.3022 -1.5606 -0.9941
  540TMC3    H2 8020   2.474   2.160  11.315  0.7509 -0.4359 -0.3711
  540TMC3    C7 8021   2.485   2.078  11.572  0.1392  0.7857  0.0178
  540TMC3    C8 8022   2.430   2.016  11.106 -0.7950  0.2447 -0.5058
  540TMC3    O1 8023   2.485   2.017  11.680 -0.2345 -0.3333 -0.9115
  540TMC3    O2 8024   2.441   2.137  11.088  0.0459  0.2002  0.0943
  541MPD2     C 8025   0.833   3.108  13.175 -0.2891 -0.1226  0.7186
  541MPD2    C1 8026   0.780   3.016  13.083  0.4894 -0.2756 -0.4551
  541MPD2    C2 8027   0.715   3.063  12.968 -0.3613  0.2332 -0.5385
  541MPD2    C3 8028   0.691   3.199  12.958  0.9974  0.2546 -0.3839
  541MPD2    C4 8029   0.741   3.282  13.050  0.0588  0.6420  1.1219
  541MPD2    C5 8030   0.810   3.242  13.162  0.4197 -0.6925  0.0954
  541MPD2     H 8031   0.667   2.993  12.901 -0.4499 -0.1488 -0.0736
  541MPD2    H1 8032   0.718   3.388  13.044  0.6727  0.8165  1.8586
  541MPD2    H2 8033   0.892   3.078  13.260  1.2221  3.6610  1.0217
  541MPD2    H3 8034   0.844   3.318  13.231 -0.3595  1.5029 -1.9547
  541MPD2     N 8035   0.621   3.256  12.850  0.1142  0.5149 -0.1994
  541MPD2    H5 8036   0.601   3.356  12.854 -1.9019  0.1314 -0.3953
  541MPD2    N1 8037   0.796   2.879  13.094  0.3592 -0.6182 -0.0206
  541MPD2    H7 8038   0.761   2.828  13.014  1.1690  0.6904 -1.2123
  542TMC3    C1 8039   0.489   3.277  12.646  0.2384  0.2055 -0.3422
  542TMC3    C2 8040   0.480   3.221  12.522  0.7605  0.0415 -0.5847
  542TMC3    C3 8041   0.390   3.270  12.433 -0.0265  0.5170  0.4252
  542TMC3    C4 8042   0.398   3.369  12.688  0.5715  0.6040 -0.5121
  542TMC3    C5 8043   0.288   3.389  12.608 -0.5376 -0.3449 -0.1445
  542TMC3    C6 8044   0.287   3.348  12.475 -0.2547  0.1295 -0.3840
  542TMC3     C 8045   0.572   3.198  12.737  0.4190 -0.2373  0.7256
  542TMC3     O 8046   0.602   3.084  12.698 -0.0701  0.1758  0.3428
  542TMC3     H 8047   0.560   3.154  12.494  2.5093  1.8547  0.0591
  542TMC3    H1 8048   0.385   3.398  12.792  3.5783 -0.7344  0.2234
  542TMC3    H2 8049   0.211   3.377  12.403 -1.0914 -1.2545 -0.0486
  542TMC3    C7 8050   0.212   3.504  12.645 -0.3282  0.3361  0.5580
  542TMC3    C8 8051   0.362   3.172  12.335  0.7924  0.2267  0.3403
  542TMC3    O1 8052   0.262   3.576  12.730 -0.4242  0.3541  0.3566
  542TMC3    O2 8053   0.347   3.204  12.218 -0.4413 -0.0183 -0.5965
  543TMC3    C1 8054   0.153   4.127  17.353  0.2780 -0.1944  0.3630
  543TMC3    C2 8055   0.127   3.997  17.374 -0.0432  0.8308  0.1977
  543TMC3    C3 8056   0.194   3.924  17.461  0.4129 -0.1791 -0.1452
  543TMC3    C4 8057   0.246   4.194  17.431  0.2001  0.0549  0.2265
  543TMC3    C5 8058   0.314   4.116  17.516  0.0370  0.2781 -0.4769
  543TMC3    C6 8059   0.298   3.983  17.531  0.1983  0.2930  0.0290
  543TMC3     C 8060   0.173   4.146  17.211 -0.2502  0.2193 -0.6497
  543TMC3     O 8061   0.155   4.059  17.128  0.1499  0.7789 -0.1266
  543TMC3     H 8062   0.069   3.946  17.297  0.0465 -0.9933  1.3476
  543TMC3    H1 8063   0.246   4.301  17.441  0.2508  0.2027 -1.4637
  543TMC3    H2 8064   0.362   3.931  17.601 -2.3478  0.6139  2.6009
  543TMC3    C7 8065   0.404   4.181  17.607 -0.0255 -0.2329 -0.1618
  543TMC3    C8 8066   0.210   3.784  17.426 -0.0754 -0.3655  0.0003
  543TMC3    O1 8067   0.408   4.125   0.028 -1.1016  0.3645 -0.4488
  543TMC3    O2 8068   0.327   3.740  17.416  0.1566 -0.3326  0.3332
  544MPD2     C 8069   0.040   3.390  17.139 -1.1675 -0.0492 -0.6329
  544MPD2    C1 8070   0.165   3.439  17.153  0.4170 -0.3153 -0.4926
  544MPD2    C2 8071   0.193   3.540  17.242  0.0978  0.3367  0.2448
  544MPD2    C3 8072   0.087   3.599  17.312  0.3256  0.1422  0.3005
  544MPD2    C4 8073   4.683   3.542  17.300 -0.1603  0.3470  0.3491
  544MPD2    C5 8074   4.658   3.440  17.216 -0.8680  0.0390 -0.2610
  544MPD2     H 8075   0.289   3.591  17.239 -0.1508  0.7370 -0.7010
  544MPD2    H1 8076   4.598   3.584  17.353  0.1573  1.1932  0.1947
  544MPD2    H2 8077   0.014   3.312  17.069 -0.3284 -2.3368  1.6027
  544MPD2    H3 8078   4.563   3.388  17.221  0.2850 -2.0996 -0.4624
  544MPD2     N 8079   0.091   3.729  17.371 -0.1842 -1.0915 -0.1933
  544MPD2    H5 8080   0.003   3.772  17.398  0.4111 -0.4519  0.6960
  544MPD2    N1 8081   0.262   3.389  17.060 -0.2810  0.4777 -0.0805
  544MPD2    H7 8082   0.227   3.330  16.985 -0.5699  0.2484  0.2353
  545TMC3    C1 8083   0.459   3.347  16.952  0.4642 -0.1069 -0.3463
  545TMC3    C2 8084   0.394   3.354  16.836  0.5839  1.5689  0.0845
  545TMC3    C3 8085   0.425   3.270  16.737  0.9589  0.2290  0.4512
  545TMC3    C4 8086   0.559   3.254  16.978 -0.1093 -0.1771  0.3878
  545TMC3    C5 8087   0.585   3.166  16.882  0.1542 -0.0354 -0.8991
  545TMC3    C6 8088   0.528   3.180  16.755  0.7439 -0.1984  0.0239
  545TMC3     C 8089   0.398   3.400  17.068 -0.0026 -0.0893 -0.9331
  545TMC3     O 8090   0.467   3.441  17.160  0.0413 -0.3473 -0.0829
  545TMC3     H 8091   0.326   3.436  16.814 -2.0276 -1.1321 -2.0214
  545TMC3    H1 8092   0.591   3.256  17.082  0.0225 -2.5143  0.3863
  545TMC3    H2 8093   0.565   3.123  16.671  0.7536  0.4668 -0.4207
  545TMC3    C7 8094   0.671   3.050  16.907 -0.5435 -0.1912  0.5902
  545TMC3    C8 8095   0.316   3.228  16.648 -0.0845 -0.9338  0.1099
  545TMC3    O1 8096   0.702   2.982  16.815 -0.2100 -0.8875  0.3901
  545TMC3    O2 8097   0.228   3.310  16.626  0.5683 -0.3874 -0.6151
  546MPD2     C 8098   1.767   3.671  17.646  0.2529 -0.2284  0.7660
  546MPD2    C1 8099   1.687   3.772  17.607 -0.4290  0.7022  0.2085
  546MPD2    C2 8100   1.739   3.887  17.552 -0.0054 -0.3558  0.1397
  546MPD2    C3 8101   1.875   3.889  17.522  0.5064  0.9907 -0.3213
  546MPD2    C4 8102   1.956   3.789  17.562  0.0467  0.3730  0.5180
  546MPD2    C5 8103   1.902   3.682  17.630 -0.3167  0.2979  0.7514
  546MPD2     H 8104   1.672   3.956  17.501  0.4605 -1.4226 -1.9362
  546MPD2    H1 8105   2.061   3.790  17.535  0.2536  1.2944  1.3421
  546MPD2    H2 8106   1.735   3.580   0.009 -1.8867 -0.1507 -0.4916
  546MPD2    H3 8107   1.952   3.594  17.670  3.8705  1.9306 -0.8153
  546MPD2     N 8108   1.935   3.986  17.438  0.3312  0.1293 -0.6237
  546MPD2    H5 8109   2.036   3.978  17.426  0.0615 -2.1769 -1.3551
  546MPD2    N1 8110   1.543   3.752  17.627  0.3336 -0.3892  0.4604
  546MPD2    H7 8111   1.506   3.659  17.647 -0.1171 -0.8484 -2.4792
  547TMC3    C1 8112   1.315   3.808  17.633 -0.2917  0.0140  0.3053
  547TMC3    C2 8113   1.218   3.846  17.547  0.0319 -0.3087 -1.0839
  547TMC3    C3 8114   1.096   3.787  17.545 -0.3499 -0.0330 -0.6356
  547TMC3    C4 8115   1.293   3.713   0.040 -0.0428  0.2983  0.3808
  547TMC3    C5 8116   1.161   3.655   0.047  0.2474  0.6811  0.5723
  547TMC3    C6 8117   1.065   3.695  17.642  0.5232 -0.0850 -0.1855
  547TMC3     C 8118   1.447   3.846  17.602  0.3160 -0.6227 -0.1815
  547TMC3     O 8119   1.457   3.960  17.561 -0.1616  0.5449  0.3921
  547TMC3     H 8120   1.252   3.920  17.476  0.1050  0.6583 -0.0415
  547TMC3    H1 8121   1.367   3.697   0.118  1.2391 -1.4674 -1.1783
  547TMC3    H2 8122   0.969   3.645  17.643 -0.2586  1.4316 -0.8445
  547TMC3    C7 8123   1.145   3.548   0.141  0.2672  0.4155  0.0103
  547TMC3    C8 8124   1.030   3.785  17.416  0.0490  0.4785  0.6930
  547TMC3    O1 8125   1.224   3.544   0.235 -0.4205 -0.7005  0.1217
  547TMC3    O2 8126   1.049   3.878  17.338  0.0211 -0.1781 -0.5484
  548MPD2     C 8127   1.252   4.678  12.305 -0.2833 -0.3311 -0.3258
  548MPD2    C1 8128   1.233   4.601  12.414 -0.5634  0.0075  0.0530
  548MPD2    C2 8129   1.321   4.495  12.429 -0.4481  0.1209  0.6996
  548MPD2    C3 8130   1.420   4.467  12.337  0.2733  0.5126  0.0700
  548MPD2    C4 8131   1.436   4.547  12.229  0.4194 -0.0330 -0.2663
  548MPD2    C5 8132   1.351   4.653  12.217 -0.1930  0.1680 -0.1733
  548MPD2     H 8133   1.330   4.440  12.522  0.2045 -1.0831 -0.0797
  548MPD2    H1 8134   1.520   4.539  12.161 -0.2013 -1.4144 -0.8691
  548MPD2    H2 8135   1.187   0.043  12.286  3.0732  1.9371 -1.4839
  548MPD2    H3 8136   1.372   0.011  12.146 -0.8759  1.6939  1.2954
  548MPD2     N 8137   1.490   4.351  12.364  0.6076  0.0576 -0.2872
  548MPD2    H5 8138   1.466   4.304  12.451 -0.2341  1.0438  0.0205
  548MPD2    N1 8139   1.126   4.628  12.501  0.3012  0.2046 -0.7565
  548MPD2    H7 8140   1.057   4.699  12.481  1.8577  2.1686  0.8114
  549TMC3    C1 8141   0.988   4.625  12.694  0.0227  0.0017  0.2986
  549TMC3    C2 8142   0.933   0.025  12.665  0.7621  0.9446  0.1790
  549TMC3    C3 8143   0.812   0.062  12.727 -0.5260  0.4372  0.1573
  549TMC3    C4 8144   0.932   4.543  12.792  0.8404  0.1216 -0.4356
  549TMC3    C5 8145   0.812   4.582  12.848 -0.0045 -0.1116 -0.0210
  549TMC3    C6 8146   0.749   4.700  12.816 -0.1308  0.2742  0.4424
  549TMC3     C 8147   1.106   4.571  12.619 -0.0373 -0.0715 -0.8570
  549TMC3     O 8148   1.175   4.490  12.673  0.6957 -0.4286 -0.2732
  549TMC3     H 8149   0.965   0.095  12.589  1.0219 -1.5898 -2.0498
  549TMC3    H1 8150   0.985   4.451  12.816 -0.4219  0.6609  4.3944
  549TMC3    H2 8151   0.652   0.013  12.851 -0.4789 -1.7242  1.4299
  549TMC3    C7 8152   0.725   4.479  12.908  0.0038  0.0914 -0.4877
  549TMC3    C8 8153   0.732   0.168  12.670  0.0535  0.2108  0.0768
  549TMC3    O1 8154   0.615   4.521  12.935 -0.2869 -0.1245 -0.1002
  549TMC3    O2 8155   0.615   0.147  12.649  0.2275 -0.1129 -0.2786
  550TMC3    C1 8156   0.133   2.649  12.485 -0.2054  0.2048 -0.1643
  550TMC3    C2 8157   0.071   2.675  12.605 -0.0227  0.0334  0.4849
  550TMC3    C3 8158   4.694   2.777  12.599 -0.1432 -0.0907 -0.2479
  550TMC3    C4 8159   0.119   2.725  12.370 -0.2250  0.0471 -0.1691
  550TMC3    C5 8160   0.024   2.832  12.377 -0.8586 -0.2464  0.2816
  550TMC3    C6 8161   4.675   2.856  12.490 -0.0397  0.0039 -0.4890
  550TMC3     C 8162   0.216   2.531  12.487  0.6461  0.5889 -0.2725
  550TMC3     O 8163   0.276   2.506  12.592 -0.4334  0.3426  0.1882
  550TMC3     H 8164   0.078   2.608  12.690  0.3089  0.5251  0.8486
  550TMC3    H1 8165   0.194   2.725  12.292 -1.5924 -2.6865 -1.4990
  550TMC3    H2 8166   4.606   2.939  12.488 -1.1445 -0.9711 -2.5892
  550TMC3    C7 8167   4.707   2.895  12.254  0.6809 -0.1450  0.8456
  550TMC3    C8 8168   4.581   2.773  12.684  0.5369 -0.0407  0.5077
  550TMC3    O1 8169   4.685   3.013  12.258  0.1965  0.2374  0.1231
  550TMC3    O2 8170   4.485   2.830  12.627  0.7579  0.5051  0.2917
  551TMC3    C1 8171   2.319   0.318  13.569 -0.0698  1.0881 -0.0922
  551TMC3    C2 8172   2.381   0.379  13.463  0.1620 -0.4744 -0.0594
  551TMC3    C3 8173   2.487   0.458  13.488  0.3694  0.3108 -0.1199
  551TMC3    C4 8174   2.357   0.356  13.695 -0.3207  0.5147  0.1450
  551TMC3    C5 8175   2.466   0.439  13.716 -0.1629 -0.1213  0.4076
  551TMC3    C6 8176   2.526   0.498  13.611 -0.0953  0.4258  0.7690
  551TMC3     C 8177   2.256   0.186  13.561 -0.3207  0.4272  0.2414
  551TMC3     O 8178   2.258   0.126  13.667 -0.0965  0.1743  0.3988
  551TMC3     H 8179   2.375   0.339  13.362 -1.0224  1.9406 -0.9511
  551TMC3    H1 8180   2.309   0.311  13.781 -0.5334  1.6833  0.6449
  551TMC3    H2 8181   2.614   0.560  13.624 -1.6271  2.5124  1.1900
  551TMC3    C7 8182   2.504   0.467  13.856 -0.0367  0.4000 -0.7425
  551TMC3    C8 8183   2.569   0.483  13.375  0.1951  0.0976 -0.6913
  551TMC3    O1 8184   2.474   0.393  13.945 -0.1109  0.4280 -0.3219
  551TMC3    O2 8185   2.689   0.480  13.389  0.0614  0.1100 -0.2168
  552MPD2     C 8186   4.220   2.704  13.723  0.3334  0.0748 -0.1142
  552MPD2    C1 8187   4.219   2.567  13.728 -0.0322  0.0935 -0.1852
  552MPD2    C2 8188   4.323   2.498  13.789 -0.5705 -0.2954  0.2670
  552MPD2    C3 8189   4.430   2.576  13.830  0.3806  0.7908  0.0155
  552MPD2    C4 8190   4.437   2.712  13.802  0.0620  0.1205  0.1500
  552MPD2    C5 8191   4.325   2.776  13.761  0.1222 -0.0055  0.8469
  552MPD2     H 8192   4.327   2.390  13.790  0.9431 -0.2418  0.2715
  552MPD2    H1 8193   4.515   2.784  13.824 -1.3486  2.0993 -1.3657
  552MPD2    H2 8194   4.129   2.754  13.694  0.1322 -1.0787 -1.4829
  552MPD2    H3 8195   4.323   2.883  13.741  0.3398 -0.1058  0.2871
  552MPD2     N 8196   4.541   2.518  13.891  0.7077 -0.1569 -0.0981
  552MPD2    H5 8197   4.618   2.580  13.912  0.2070  0.0479  1.1190
  552MPD2    N1 8198   4.115   2.482  13.671  0.0771 -0.3042  0.4008
  552MPD2    H7 8199   4.142   2.384  13.673  0.2627 -0.2701 -0.3338
  553TMC3    C1 8200   3.953   2.416  13.521 -0.1201 -0.4767 -0.1755
  553TMC3    C2 8201   3.922   2.440  13.393 -0.3388 -0.7810 -0.0489
  553TMC3    C3 8202   3.888   2.335  13.306 -0.4454 -0.3956 -0.0200
  553TMC3    C4 8203   3.957   2.291  13.571  0.4552 -0.4883  0.2250
  553TMC3    C5 8204   3.921   2.188  13.492  0.1459  0.2007 -0.7674
  553TMC3    C6 8205   3.879   2.211  13.364  0.5252 -0.2171 -0.2349
  553TMC3     C 8206   4.011   2.524  13.592 -0.2421  0.0938  0.0256
  553TMC3     O 8207   3.963   2.633  13.561  0.5265  0.2385 -0.3206
  553TMC3     H 8208   3.938   2.540  13.353 -0.8159 -1.2519 -1.4502
  553TMC3    H1 8209   3.971   2.275  13.678  1.1222  2.9906  0.6651
  553TMC3    H2 8210   3.830   2.130  13.310 -0.3312 -0.9273  1.6145
  553TMC3    C7 8211   3.938   2.055  13.543  0.0982  0.3702 -0.0768
  553TMC3    C8 8212   3.987   2.338  13.195  0.2780 -0.0562 -0.4620
  553TMC3    O1 8213   3.836   1.988  13.556 -0.5559 -0.1984  0.2378
  553TMC3    O2 8214   4.082   2.417  13.191 -0.0559  0.1333  0.2572
  554TMC3    C1 8215   2.125   1.372  11.459 -0.3682  0.4233  0.0864
  554TMC3    C2 8216   2.039   1.303  11.376 -0.2484 -0.0285  0.2328
  554TMC3    C3 8217   2.043   1.351  11.249 -0.1420 -0.1845 -0.5546
  554TMC3    C4 8218   2.173   1.502  11.436 -0.6898 -0.0684 -0.1910
  554TMC3    C5 8219   2.170   1.542  11.304  0.1658  0.0007  0.2445
  554TMC3    C6 8220   2.104   1.466  11.214  0.0584  0.5283 -0.0425
  554TMC3     C 8221   2.172   1.304  11.579  0.8266  0.0559 -0.3006
  554TMC3     O 8222   2.275   1.356  11.625  0.4532 -0.8417  0.1828
  554TMC3     H 8223   2.021   1.200  11.406 -0.0573  0.4720  2.0471
  554TMC3    H1 8224   2.244   1.549  11.503 -0.3718  2.3730 -2.2631
  554TMC3    H2 8225   2.090   1.496  11.110 -2.3739  0.0739  0.1590
  554TMC3    C7 8226   2.185   1.680  11.264  0.0535  0.3953  0.4992
  554TMC3    C8 8227   1.933   1.302  11.162  0.0041 -0.5013 -0.6955
  554TMC3    O1 8228   2.209   1.713  11.145  1.0263 -0.7463 -0.1543
  554TMC3    O2 8229   1.952   1.307  11.041  0.1122  0.3382  0.1220
  555TMC3    C1 8230   0.345   1.016  15.520  0.6855 -0.7108  0.2576
  555TMC3    C2 8231   0.421   1.109  15.573  0.9302  0.3366 -1.0473
  555TMC3    C3 8232   0.530   1.062  15.645 -0.5947  0.1876  0.4603
  555TMC3    C4 8233   0.367   0.877  15.528  0.2817  0.1277 -0.1935
  555TMC3    C5 8234   0.482   0.827  15.596 -0.6034  0.5755  0.3772
  555TMC3    C6 8235   0.558   0.926  15.665 -0.3007  0.1890  0.3764
  555TMC3     C 8236   0.290   1.065  15.395  0.0873 -0.0585 -0.0611
  555TMC3     O 8237   0.225   1.169  15.409  0.4259  0.2231 -0.2706
  555TMC3     H 8238   0.402   1.215  15.557  0.3865  0.4333  0.2188
  555TMC3    H1 8239   0.300   0.808  15.479  1.1798  0.3211 -1.6900
  555TMC3    H2 8240   0.624   0.896  15.746  1.5208  0.9350 -0.8247
  555TMC3    C7 8241   0.482   0.688  15.631  0.3375  0.7813  0.0762
  555TMC3    C8 8242   0.614   1.155  15.715  0.0278  0.4874  0.0225
  555TMC3    O1 8243   0.372   0.635  15.624 -1.0926  0.0501 -1.1549
  555TMC3    O2 8244   0.668   1.106  15.814  0.2140 -0.5840 -0.0696
  556MPD2     C 8245   3.631   2.676  10.554  0.3230 -0.1003  1.0014
  556MPD2    C1 8246   3.621   2.547  10.602  0.3406  0.0731 -0.0801
  556MPD2    C2 8247   3.605   2.438  10.519  0.4456 -0.0964  0.5017
  556MPD2    C3 8248   3.596   2.463  10.381  0.0934  0.8638 -0.2714
  556MPD2    C4 8249   3.616   2.591  10.335 -0.6091 -0.2296  0.0757
  556MPD2    C5 8250   3.630   2.693  10.422  0.2162 -0.2252 -0.1419
  556MPD2     H 8251   3.589   2.338  10.556 -1.9392 -0.1144 -0.5645
  556MPD2    H1 8252   3.619   2.610  10.229 -1.1979  1.1127  0.3049
  556MPD2    H2 8253   3.619   2.762  10.619  0.1912 -1.0784  2.2778
  556MPD2    H3 8254   3.649   2.785  10.368 -1.3206 -0.6529 -1.4455
  556MPD2     N 8255   3.564   2.350  10.298 -0.3806  0.0605 -0.1763
  556MPD2    H5 8256   3.532   2.270  10.351 -0.3339 -1.1654 -1.9808
  556MPD2    N1 8257   3.621   2.524  10.738 -0.2457 -0.0673  0.3979
  556MPD2    H7 8258   3.595   2.434  10.777  1.9911 -1.0636 -0.4444
  557TMC3    C1 8259   3.488   2.230  10.100  0.5687  0.2283  0.4813
  557TMC3    C2 8260   3.520   2.194   9.973 -0.0129  0.2897  0.1233
  557TMC3    C3 8261   3.444   2.107   9.905  0.2702  0.2298 -0.2943
  557TMC3    C4 8262   3.389   2.165  10.167 -0.4171  0.0328 -0.3303
  557TMC3    C5 8263   3.325   2.071  10.091 -0.9145  1.1457  0.4738
  557TMC3    C6 8264   3.339   2.042   9.964  0.6125  0.4579  0.2867
  557TMC3     C 8265   3.559   2.355  10.157  0.1335 -0.2809  0.2747
  557TMC3     O 8266   3.616   2.432  10.080  0.1995 -0.5517 -0.2650
  557TMC3     H 8267   3.604   2.242   9.924 -0.6899  2.8567  1.4361
  557TMC3    H1 8268   3.373   2.179  10.273  0.8483  1.3585 -0.3234
  557TMC3    H2 8269   3.288   1.959   9.918  0.7568  0.9594 -0.7951
  557TMC3    C7 8270   3.240   1.989  10.174  0.2684  0.6569 -0.4257
  557TMC3    C8 8271   3.493   2.059   9.782  0.8504 -0.0824 -0.0531
  557TMC3    O1 8272   3.196   2.049  10.271 -0.7361  0.1455  0.1214
  557TMC3    O2 8273   3.608   2.075   9.753 -0.1322  0.5612 -0.2665
  558TMC3    C1 8274   1.215   0.516  10.414  0.0088 -0.2717 -0.0453
  558TMC3    C2 8275   1.113   0.595  10.462  0.5564 -0.0623 -0.3872
  558TMC3    C3 8276   1.005   0.606  10.375  0.1544  0.2487  0.1346
  558TMC3    C4 8277   1.221   0.467  10.289 -0.8090 -0.0646  0.1344
  558TMC3    C5 8278   1.112   0.475  10.218 -0.3334 -0.2220 -0.3072
  558TMC3    C6 8279   0.998   0.535  10.262  0.4349 -0.2034  0.1125
  558TMC3     C 8280   1.333   0.500  10.498  0.0743  0.3577 -0.0840
  558TMC3     O 8281   1.438   0.467  10.446 -0.2063 -0.0586  0.5426
  558TMC3     H 8282   1.116   0.655  10.552  1.1553 -1.8534  0.7996
  558TMC3    H1 8283   1.314   0.422  10.258 -2.3944 -1.2229 -2.9058
  558TMC3    H2 8284   0.909   0.522  10.202  1.3266  0.2505 -1.3274
  558TMC3    C7 8285   1.104   0.372  10.116  0.4641 -0.3420 -0.6601
  558TMC3    C8 8286   0.871   0.648  10.415 -0.4899  0.5640  0.1924
  558TMC3    O1 8287   1.194   0.290  10.116  0.2128  0.2717  0.5569
  558TMC3    O2 8288   0.799   0.677  10.322 -0.8126 -0.2312 -0.4803
  559MPD2     C 8289   1.288   0.890  10.307  0.1499 -0.6001  0.9320
  559MPD2    C1 8290   1.220   0.928  10.415 -1.0518 -0.2719 -0.2665
  559MPD2    C2 8291   1.277   0.909  10.539 -0.4198 -0.4645  0.4980
  559MPD2    C3 8292   1.412   0.880  10.556  0.5838  0.2487  0.0178
  559MPD2    C4 8293   1.485   0.858  10.448  0.2412  0.2635 -0.1748
  559MPD2    C5 8294   1.422   0.853  10.326  0.0653  0.1243 -0.3184
  559MPD2     H 8295   1.221   0.941  10.626 -0.1952  2.1505 -0.3290
  559MPD2    H1 8296   1.590   0.831  10.457 -0.0050 -1.0064 -1.1071
  559MPD2    H2 8297   1.249   0.885  10.206 -0.2181 -1.2381  1.1038
  559MPD2    H3 8298   1.469   0.815  10.236  0.6615  1.2483 -0.4771
  559MPD2     N 8299   1.450   0.885  10.694  0.4542  0.3836 -0.0429
  559MPD2    H5 8300   1.377   0.896  10.764  1.6389 -1.0949  1.4545
  559MPD2    N1 8301   1.083   0.974  10.404 -0.4359 -0.1231  0.1268
  559MPD2    H7 8302   1.039   0.999  10.492 -0.5521 -0.1169  0.0659
  560TMC3    C1 8303   1.593   0.871  10.887  0.9248  0.4716 -0.3398
  560TMC3    C2 8304   1.485   0.831  10.955  0.4766  0.0841 -0.4285
  560TMC3    C3 8305   1.498   0.798  11.084 -0.0830  0.1815 -0.2649
  560TMC3    C4 8306   1.720   0.864  10.937 -0.1982 -0.1481  0.0058
  560TMC3    C5 8307   1.728   0.819  11.064  0.0953  0.8293  0.3138
  560TMC3    C6 8308   1.617   0.790  11.149 -0.0951 -0.7939  0.1605
  560TMC3     C 8309   1.584   0.890  10.748 -0.9849 -0.3035 -0.9726
  560TMC3     O 8310   1.686   0.909  10.679  0.4207 -0.6338  0.7388
  560TMC3     H 8311   1.385   0.815  10.916  0.5404  0.1257 -0.6089
  560TMC3    H1 8312   1.816   0.881  10.890  1.2478 -4.3596  1.4737
  560TMC3    H2 8313   1.635   0.773  11.254 -3.0884 -3.0909  0.2789
  560TMC3    C7 8314   1.852   0.815  11.134 -0.4543 -0.1216 -0.0394
  560TMC3    C8 8315   1.369   0.772  11.152  0.2729 -0.7127 -0.2183
  560TMC3    O1 8316   1.858   0.730  11.220  0.1654  0.2862  0.4387
  560TMC3    O2 8317   1.274   0.828  11.100  0.3831  0.0026 -0.8493
  561TMC3    C1 8318   3.815   0.157  11.148 -0.1051  1.0409 -0.4374
  561TMC3    C2 8319   3.794   0.074  11.246  0.9527  0.7054  0.2421
  561TMC3    C3 8320   3.808   0.118  11.372 -0.0076  0.3127 -0.4803
  561TMC3    C4 8321   3.850   0.289  11.166  0.6659 -0.3613  0.2121
  561TMC3    C5 8322   3.860   0.334  11.291 -0.1709 -0.1810 -0.2078
  561TMC3    C6 8323   3.829   0.254  11.400  0.0496 -0.1879  0.8426
  561TMC3     C 8324   3.805   0.100  11.014 -0.0182 -0.4428  0.6226
  561TMC3     O 8325   3.715   0.019  11.005 -0.3904  0.2815 -0.3716
  561TMC3     H 8326   3.783   4.689  11.228  0.0836  1.0334 -1.1642
  561TMC3    H1 8327   3.827   0.354  11.082 -0.1854 -0.5686  0.2840
  561TMC3    H2 8328   3.842   0.290  11.501 -0.6220  1.1176  0.4674
  561TMC3    C7 8329   3.887   0.476  11.325  0.2519 -0.7150 -0.0690
  561TMC3    C8 8330   3.803   0.023  11.485 -0.3868 -0.0099 -0.2166
  561TMC3    O1 8331   3.879   0.515  11.440 -0.1016 -0.2268  0.0663
  561TMC3    O2 8332   3.862   4.639  11.466 -0.0335  0.1170  0.2950
  562TMC3    C1 8333   0.047   1.615  15.987  0.6095  0.1601  0.9708
  562TMC3    C2 8334   4.660   1.675  15.935 -0.3195  0.4782  0.1709
  562TMC3    C3 8335   4.602   1.617  15.829  0.5548  0.0316  0.4109
  562TMC3    C4 8336   0.098   1.499  15.942  0.2326  0.0785  0.2408
  562TMC3    C5 8337   0.031   1.440  15.842  0.5019  0.2999  0.0668
  562TMC3    C6 8338   4.645   1.496  15.780  0.0400 -0.5132 -0.2945
  562TMC3     C 8339   0.069   1.625  16.129  0.2422  0.2617  0.1522
  562TMC3     O 8340   0.085   1.516  16.181 -0.2902 -0.7914 -0.0376
  562TMC3     H 8341   4.624   1.768  15.976 -2.4335  0.0909 -0.7935
  562TMC3    H1 8342   0.187   1.470  15.997  0.2081 -2.1402 -0.9073
  562TMC3    H2 8343   4.600   1.443  15.698  0.9442 -0.4182 -0.8551
  562TMC3    C7 8344   0.075   1.306  15.795  0.5456  0.0430 -0.0792
  562TMC3    C8 8345   4.490   1.683  15.764 -0.4810 -1.0642  0.6662
  562TMC3    O1 8346   0.013   1.239  15.711 -0.2488 -0.0378  0.1254
  562TMC3    O2 8347   4.402   1.733  15.829  0.6090 -0.4359  0.1960
  563MPD2     C 8348   2.791   2.455  15.315 -1.0408 -0.6044 -0.2661
  563MPD2    C1 8349   2.738   2.514  15.427  0.2259 -0.7196  0.6441
  563MPD2    C2 8350   2.821   2.528  15.534 -0.3789 -0.0933 -0.3513
  563MPD2    C3 8351   2.951   2.479  15.545 -0.0913 -1.1711  0.3778
  563MPD2    C4 8352   2.998   2.416  15.430  0.3652  0.0403 -0.2271
  563MPD2    C5 8353   2.922   2.411  15.318  0.1259 -0.4148 -0.3670
  563MPD2     H 8354   2.789   2.595  15.613  0.0754 -0.0696 -0.1826
  563MPD2    H1 8355   3.092   2.363  15.430 -0.0562 -0.6827 -1.7564
  563MPD2    H2 8356   2.731   2.442  15.225 -1.8449 -0.3184  0.2297
  563MPD2    H3 8357   2.966   2.364  15.230  0.3426  0.5031 -0.7480
  563MPD2     N 8358   3.030   2.497  15.667  0.7681  0.2833 -0.2218
  563MPD2    H5 8359   2.977   2.540  15.742  0.8803  0.0713 -0.0203
  563MPD2    N1 8360   2.618   2.585  15.429  0.3140 -0.2469  0.1109
  563MPD2    H7 8361   2.596   2.635  15.515 -1.6195  0.4447 -0.7712
  564TMC3    C1 8362   2.428   2.693  15.359  0.4911 -0.2654 -0.0887
  564TMC3    C2 8363   2.308   2.635  15.375 -0.3678  0.1861 -0.2542
  564TMC3    C3 8364   2.229   2.677  15.483 -0.0806  0.3799 -0.0466
  564TMC3    C4 8365   2.470   2.794  15.446  0.0262  0.6186  0.1670
  564TMC3    C5 8366   2.402   2.827  15.554 -0.4006 -1.5517  0.7154
  564TMC3    C6 8367   2.278   2.774  15.570  0.6584 -0.4028 -0.1005
  564TMC3     C 8368   2.533   2.604  15.321 -0.0190  0.5306 -0.5139
  564TMC3     O 8369   2.532   2.546  15.214  0.5032 -0.0560  0.3497
  564TMC3     H 8370   2.283   2.549  15.314 -1.3687 -1.7367  2.8777
  564TMC3    H1 8371   2.560   2.842  15.411  0.7657 -0.4073  0.6553
  564TMC3    H2 8372   2.227   2.787  15.664  2.6012 -2.7369  1.2885
  564TMC3    C7 8373   2.485   2.807  15.671 -0.8123  0.3451 -0.3604
  564TMC3    C8 8374   2.126   2.585  15.533  0.0924 -0.1145 -0.2837
  564TMC3    O1 8375   2.555   2.707  15.666  0.0578 -0.1118 -0.5996
  564TMC3    O2 8376   2.100   2.599  15.650  0.3553  0.7512 -0.5250
  565TMC3    C1 8377   3.337   3.505  10.321  0.1457  0.0487  0.0338
  565TMC3    C2 8378   3.391   3.471  10.435  0.1514  0.3596 -0.8462
  565TMC3    C3 8379   3.355   3.355  10.502 -0.4302  0.1931 -0.0112
  565TMC3    C4 8380   3.234   3.433  10.277  0.2270 -0.1469 -0.1771
  565TMC3    C5 8381   3.196   3.321  10.344 -0.7902 -0.1676 -0.5470
  565TMC3    C6 8382   3.256   3.276  10.462 -0.0239  0.4020 -0.4270
  565TMC3     C 8383   3.360   3.631  10.247  0.1985  0.3261  1.1746
  565TMC3     O 8384   3.306   3.654  10.141 -0.3984  0.1984 -0.3396
  565TMC3     H 8385   3.476   3.528  10.471 -0.6281 -0.7733  2.7726
  565TMC3    H1 8386   3.187   3.469  10.187  0.9523 -1.4355 -1.0819
  565TMC3    H2 8387   3.227   3.188  10.518  1.5922 -1.0968 -1.9618
  565TMC3    C7 8388   3.096   3.249  10.278 -0.4845  0.1115  0.8073
  565TMC3    C8 8389   3.414   3.334  10.631 -0.0093  0.2850  0.1214
  565TMC3    O1 8390   3.040   3.298  10.180 -0.0738 -0.2861  0.2414
  565TMC3    O2 8391   3.444   3.431  10.692 -0.1185 -0.1669  0.1692
  566MPD2     C 8392   4.718   1.161  14.602  0.1594  0.5667  0.3610
  566MPD2    C1 8393   4.710   1.204  14.469  0.4848  0.3760 -0.2172
  566MPD2    C2 8394   4.603   1.152  14.398 -0.3837 -0.4840  0.4788
  566MPD2    C3 8395   4.514   1.063  14.450  0.2731 -0.8750 -0.4057
  566MPD2    C4 8396   4.510   1.043  14.584 -0.4414  0.2493 -0.2889
  566MPD2    C5 8397   4.618   1.090  14.659 -0.4066 -0.3997 -0.2336
  566MPD2     H 8398   4.592   1.178  14.293 -0.0754 -1.5903  0.1712
  566MPD2    H1 8399   4.432   0.977  14.620  0.3561 -0.6710 -0.2778
  566MPD2    H2 8400   0.078   1.189  14.669  0.0805  0.4256  0.5123
  566MPD2    H3 8401   4.613   1.078  14.766  2.7300 -2.0046 -0.2436
  566MPD2     N 8402   4.421   0.995  14.366 -0.1125 -0.3948 -0.0573
  566MPD2    H5 8403   4.403   1.035  14.275  0.7780  0.3406  0.0941
  566MPD2    N1 8404   0.099   1.276  14.414 -0.1798 -0.2510  0.2868
  566MPD2    H7 8405   0.173   1.314  14.473 -0.4026  1.4003 -0.4900
  567TMC3    C1 8406   0.256   1.342  14.264  0.6994 -0.6286  0.5541
  567TMC3    C2 8407   0.279   1.352  14.132  0.4387  0.2756  0.0237
  567TMC3    C3 8408   0.388   1.290  14.078 -0.1290  0.2541 -1.2827
  567TMC3    C4 8409   0.340   1.260  14.339 -0.3779  0.1453  0.1567
  567TMC3    C5 8410   0.453   1.206  14.285 -0.9991  0.0939  0.0236
  567TMC3    C6 8411   0.477   1.227  14.153 -0.5771  0.7242  0.6418
  567TMC3     C 8412   0.118   1.304  14.283 -0.6604 -0.9048 -0.3439
  567TMC3     O 8413   0.037   1.299  14.190 -0.2073 -0.0952  0.0337
  567TMC3     H 8414   0.221   1.422  14.073 -1.6497 -0.8899  0.6915
  567TMC3    H1 8415   0.326   1.271  14.446  0.0832  1.8768  0.0410
  567TMC3    H2 8416   0.562   1.174  14.113 -0.7818  0.1133  1.0171
  567TMC3    C7 8417   0.494   1.075  14.339 -0.4957 -0.9450 -0.5702
  567TMC3    C8 8418   0.422   1.315  13.941  0.1028 -0.5331 -0.4707
  567TMC3    O1 8419   0.604   1.029  14.311 -0.1226  0.1398  0.0864
  567TMC3    O2 8420   0.539   1.305  13.903 -0.8476  0.2290 -0.0734
  568MPD2     C 8421   1.681   1.719  16.695  0.4016  0.0235 -0.8108
  568MPD2    C1 8422   1.761   1.643  16.617 -0.5438  0.1824 -0.1512
  568MPD2    C2 8423   1.814   1.698  16.502  0.4644 -0.5087  0.4173
  568MPD2    C3 8424   1.792   1.828  16.465 -0.0192 -0.2391  0.4254
  568MPD2    C4 8425   1.708   1.901  16.544 -0.6981  0.1529  0.3589
  568MPD2    C5 8426   1.650   1.844  16.657 -0.4185 -0.5616  0.4156
  568MPD2     H 8427   1.879   1.638  16.438 -2.5092 -0.8876 -2.2125
  568MPD2    H1 8428   1.670   1.997  16.512 -1.0190  0.6383  2.1531
  568MPD2    H2 8429   1.638   1.679  16.786  2.5079 -0.3770  0.0053
  568MPD2    H3 8430   1.564   1.893  16.702  0.5952  0.4311  1.2607
  568MPD2     N 8431   1.861   1.889  16.359  0.3523  0.1239 -0.0684
  568MPD2    H5 8432   1.914   1.827  16.299  1.5810  1.0655  0.0505
  568MPD2    N1 8433   1.795   1.514  16.666  0.4239 -0.3057  0.1947
  568MPD2    H7 8434   1.757   1.497  16.758  3.3210  0.1993  1.4907
  569TMC3    C1 8435   1.928   2.054  16.203  0.7070 -0.2520 -0.0695
  569TMC3    C2 8436   2.017   2.157  16.212 -0.5488 -0.1710 -0.0033
  569TMC3    C3 8437   2.094   2.192  16.109 -0.2337  0.5319 -0.4891
  569TMC3    C4 8438   1.890   2.008  16.075  0.4393  0.3053  0.6223
  569TMC3    C5 8439   1.964   2.053  15.967  0.5092  0.1927 -0.6642
  569TMC3    C6 8440   2.065   2.142  15.984 -0.4012  0.2243 -0.0509
  569TMC3     C 8441   1.859   2.024  16.329  0.0083 -0.0314  0.5833
  569TMC3     O 8442   1.817   2.117  16.399  0.4333 -0.0472  0.2287
  569TMC3     H 8443   2.031   2.204  16.309  0.3976 -0.3339 -0.0556
  569TMC3    H1 8444   1.812   1.935  16.055  1.4088 -0.4606 -0.3522
  569TMC3    H2 8445   2.146   2.151  15.913 -0.1696  2.0167  0.4576
  569TMC3    C7 8446   1.908   2.057  15.830 -0.3059  0.2229 -0.7891
  569TMC3    C8 8447   2.207   2.291  16.106  0.4598 -0.1745 -0.5509
  569TMC3    O1 8448   1.813   1.980  15.801  0.1714 -0.0962 -0.2061
  569TMC3    O2 8449   2.201   2.367  16.009  0.3428  0.3712 -0.9146
  570TMC3    C1 8450   1.626   0.103  16.324  0.4404  0.0817  0.0424
  570TMC3    C2 8451   1.716   0.094  16.217 -0.1548  0.2482  0.6497
  570TMC3    C3 8452   1.757   0.218  16.163 -0.1457 -0.6996 -0.6991
  570TMC3    C4 8453   1.585   0.218  16.385 -1.0855  0.3053  0.1043
  570TMC3    C5 8454   1.640   0.335  16.337  0.2613 -0.2579 -0.3230
  570TMC3    C6 8455   1.726   0.337  16.231 -0.2705 -0.7507  0.2330
  570TMC3     C 8456   1.597   4.694  16.392 -0.7762 -0.5156  0.6239
  570TMC3     O 8457   1.638   4.592  16.343 -0.6524 -0.1255  0.2315
  570TMC3     H 8458   1.752   0.001  16.176 -0.6826  0.6983 -0.8604
  570TMC3    H1 8459   1.509   0.219  16.463 -1.6301 -2.7904 -0.3689
  570TMC3    H2 8460   1.753   0.433  16.188  1.8046 -1.2506  0.4276
  570TMC3    C7 8461   1.625   0.450  16.422 -0.0222  0.3956  0.1044
  570TMC3    C8 8462   1.836   0.236  16.040 -0.2568  0.7421 -0.0369
  570TMC3    O1 8463   1.587   0.424  16.535 -0.1747  0.2181  0.1083
  570TMC3    O2 8464   1.860   0.353  16.003 -0.4715  0.0273  0.2661
  571MPD2     C 8465   4.693   2.229  16.908  1.7385 -0.6878 -0.0417
  571MPD2    C1 8466   0.019   2.306  17.010  0.1812 -0.7759 -0.0065
  571MPD2    C2 8467   4.646   2.389  17.065 -0.5262  0.0098  0.3172
  571MPD2    C3 8468   4.513   2.391  17.025  0.5310  0.2514 -0.0706
  571MPD2    C4 8469   4.471   2.304  16.935 -0.6242  0.0833  0.3664
  571MPD2    C5 8470   4.560   2.223  16.877  0.2777 -0.8283 -0.1328
  571MPD2     H 8471   4.674   2.451  17.149  0.2719 -0.2650  0.2546
  571MPD2    H1 8472   4.366   2.295  16.911 -0.8662 -0.4305  1.6035
  571MPD2    H2 8473   0.037   2.155  16.862  0.3338 -0.6731 -2.0706
  571MPD2    H3 8474   4.533   2.141  16.810 -2.5864 -0.0763  0.0999
  571MPD2     N 8475   4.414   2.476  17.079 -0.0481  0.2719  0.8430
  571MPD2    H5 8476   4.322   2.461  17.037 -0.6217 -0.2712  2.3219
  571MPD2    N1 8477   0.148   2.292  17.057  0.2931  1.0859 -0.5442
  571MPD2    H7 8478   0.201   2.223  17.005 -0.1743  0.5450 -0.2986
  572TMC3    C1 8479   4.319   2.616  17.242  0.2198 -0.1888  0.0893
  572TMC3    C2 8480   4.218   2.536  17.267  0.3760  0.3489  0.2118
  572TMC3    C3 8481   4.134   2.561  17.381 -0.4822 -0.9615 -0.1285
  572TMC3    C4 8482   4.344   2.720  17.335  0.0274  0.5868  0.1784
  572TMC3    C5 8483   4.258   2.737  17.444 -0.6919 -0.1924 -0.1354
  572TMC3    C6 8484   4.158   2.651  17.477 -0.5414  0.4770  0.4510
  572TMC3     C 8485   4.440   2.567  17.183 -0.1928  0.1107  0.4797
  572TMC3     O 8486   4.543   2.601  17.238 -0.1779  0.2221 -0.3768
  572TMC3     H 8487   4.172   2.466  17.198  0.0435  0.8813 -0.1120
  572TMC3    H1 8488   4.394   2.809  17.299  1.3513  0.5335  1.8656
  572TMC3    H2 8489   4.097   2.672  17.564 -0.3843 -1.4614  1.0210
  572TMC3    C7 8490   4.244   2.869  17.501 -0.2141  0.2867 -0.9112
  572TMC3    C8 8491   4.002   2.501  17.375 -0.3144 -0.6365 -0.4752
  572TMC3    O1 8492   4.128   2.893  17.535 -0.3955 -0.0270 -0.1902
  572TMC3    O2 8493   3.980   2.419  17.285  0.3237 -0.1106 -0.2558
  573MPD2     C 8494   1.116   2.417   0.644 -0.8663  0.7065  0.1221
  573MPD2    C1 8495   1.151   2.551   0.657 -0.0206 -0.3003  0.1795
  573MPD2    C2 8496   1.129   2.631   0.539 -0.2628  0.2265 -0.5529
  573MPD2    C3 8497   1.100   2.573   0.416 -0.3620  0.0166  0.7001
  573MPD2    C4 8498   1.072   2.441   0.415 -0.0528 -0.4143  0.0553
  573MPD2    C5 8499   1.083   2.359   0.528  0.6095  0.2283 -0.2198
  573MPD2     H 8500   1.141   2.738   0.551 -1.8837  0.2814  0.6232
  573MPD2    H1 8501   1.047   2.399   0.318 -0.3972  1.8821 -0.8639
  573MPD2    H2 8502   1.125   2.355   0.732 -0.9001 -0.4160 -0.6598
  573MPD2    H3 8503   1.052   2.256   0.538  0.7863 -0.0293 -2.3679
  573MPD2     N 8504   1.090   2.645   0.289 -0.0082  0.0200 -0.1398
  573MPD2    H5 8505   1.058   2.595   0.206  0.0658  1.2011 -0.8822
  573MPD2    N1 8506   1.189   2.605   0.782  0.0052  0.4714 -0.4462
  573MPD2    H7 8507   1.213   2.541   0.857 -2.1962  1.1384  0.8173
  574TMC3    C1 8508   1.124   2.842   0.141 -0.4807 -0.0513  0.5803
  574TMC3    C2 8509   1.087   2.777   0.032 -0.2580  1.0888  0.7576
  574TMC3    C3 8510   1.087   2.848  17.600 -0.7020 -0.1389  0.1624
  574TMC3    C4 8511   1.173   2.971   0.132  0.4700  0.0936  0.2043
  574TMC3    C5 8512   1.173   3.029   0.009 -0.7521 -0.2224 -0.0168
  574TMC3    C6 8513   1.137   2.971  17.581  0.7898 -0.6583  0.1456
  574TMC3     C 8514   1.116   2.785   0.276 -0.1865  0.1742  0.3547
  574TMC3     O 8515   1.127   2.874   0.366 -0.2768 -0.0382  0.3935
  574TMC3     H 8516   1.053   2.674   0.031 -0.1847  1.0659  0.5969
  574TMC3    H1 8517   1.183   3.035   0.219  1.5045  1.0095 -0.6008
  574TMC3    H2 8518   1.166   3.005  17.483 -1.5766  1.6039  0.2283
  574TMC3    C7 8519   1.263   3.138  17.680  0.2587  0.5098 -0.4795
  574TMC3    C8 8520   1.023   2.786  17.483  0.5778  0.5864 -0.5294
  574TMC3    O1 8521   1.357   3.139   0.072 -0.2502 -0.1039 -0.2189
  574TMC3    O2 8522   0.998   2.665  17.487  0.3932  0.4957 -0.1044
  575TMC3    C1 8523   3.575   3.646  11.416 -0.1970 -0.1176  0.1849
  575TMC3    C2 8524   3.536   3.584  11.528  0.3318  0.3033  0.3997
  575TMC3    C3 8525   3.483   3.457  11.507 -0.3818 -0.1937  0.5548
  575TMC3    C4 8526   3.583   3.582  11.297  0.4700 -0.1506  0.4862
  575TMC3    C5 8527   3.525   3.457  11.277  0.5583  1.2738 -0.2914
  575TMC3    C6 8528   3.473   3.389  11.383 -0.6922 -0.1130 -0.5532
  575TMC3     C 8529   3.647   3.767  11.422 -0.4713  0.2432 -0.5281
  575TMC3     O 8530   3.743   3.783  11.346 -0.0143  0.1322 -0.0832
  575TMC3     H 8531   3.565   3.619  11.627 -1.1012 -1.6337  1.4952
  575TMC3    H1 8532   3.625   3.636  11.212  0.6375 -2.1273 -0.7032
  575TMC3    H2 8533   3.412   3.302  11.364 -1.2786  0.2494 -0.3350
  575TMC3    C7 8534   3.505   3.407  11.139 -0.3721  0.3082 -0.1611
  575TMC3    C8 8535   3.434   3.381  11.624  0.1496  0.8826 -0.5909
  575TMC3    O1 8536   3.480   3.496  11.059  0.1741  0.8002  0.2019
  575TMC3    O2 8537   3.429   3.260  11.625  0.7903 -0.1994 -0.0033
  576MPD2     C 8538   2.926   4.666  12.692  0.1292  1.1463 -0.7067
  576MPD2    C1 8539   2.880   0.051  12.613  0.8392  0.9008  0.4495
  576MPD2    C2 8540   2.783   0.138  12.659 -0.7052  0.9923 -0.2587
  576MPD2    C3 8541   2.725   0.121  12.782 -0.3375  0.8649  0.1797
  576MPD2    C4 8542   2.772   0.024  12.865  0.5133 -0.0184  0.0434
  576MPD2    C5 8543   2.865   4.658  12.818 -0.6717 -0.1246 -0.0641
  576MPD2     H 8544   2.738   0.210  12.592 -0.7677  2.0866  0.9638
  576MPD2    H1 8545   2.738   0.004  12.966 -0.9666  0.9541 -0.2720
  576MPD2    H2 8546   3.007   4.601  12.661 -1.7484 -0.6575 -1.8473
  576MPD2    H3 8547   2.912   4.590  12.888  0.0605  0.3083 -0.1236
  576MPD2     N 8548   2.620   0.207  12.810 -0.2356 -0.5142  0.8801
  576MPD2    H5 8549   2.601   0.269  12.732 -0.4070 -1.4158  0.2209
  576MPD2    N1 8550   2.935   0.076  12.486  0.0803 -0.0922  0.6497
  576MPD2    H7 8551   2.879   0.134  12.424  1.0476  2.6782  2.3718
  577TMC3    C1 8552   3.076   0.064  12.298  0.4584 -0.4767  0.1277
  577TMC3    C2 8553   3.152   4.698  12.218  0.1713  0.4440 -0.3609
  577TMC3    C3 8554   3.218   0.038  12.113  0.6609 -0.3974 -0.5351
  577TMC3    C4 8555   3.062   0.200  12.281 -0.8093  0.3417  0.1166
  577TMC3    C5 8556   3.134   0.246  12.172  0.3958 -0.0746 -0.5483
  577TMC3    C6 8557   3.209   0.174  12.090 -0.1122  0.5165  0.2777
  577TMC3     C 8558   3.041   0.008  12.424 -0.4306 -0.3004 -0.0753
  577TMC3     O 8559   3.099   4.622  12.454  0.3626  0.5991 -0.6460
  577TMC3     H 8560   3.168   4.594  12.241  0.3302  0.3920 -0.7008
  577TMC3    H1 8561   2.998   0.258  12.347  0.2631  2.1208 -0.3961
  577TMC3    H2 8562   3.274   0.234  12.027  0.9213  1.2390  2.0070
  577TMC3    C7 8563   3.116   0.385  12.147 -0.7383 -0.3102 -0.4111
  577TMC3    C8 8564   3.313   4.677  12.045  0.1441 -0.6568  0.1567
  577TMC3    O1 8565   3.104   0.447  12.247 -0.0824  0.3009 -0.1056
  577TMC3    O2 8566   3.347   4.588  12.119  0.7530 -0.0143 -0.2499
  578MPD2     C 8567   1.346   0.573   1.217 -0.0817 -0.5799  0.1145
  578MPD2    C1 8568   1.416   0.505   1.121 -0.0536 -0.2984 -0.1166
  578MPD2    C2 8569   1.489   0.391   1.154  0.7925  0.8795 -1.2378
  578MPD2    C3 8570   1.496   0.348   1.286  0.5079 -0.0145  0.2422
  578MPD2    C4 8571   1.424   0.411   1.383 -0.4308  0.0937 -0.7601
  578MPD2    C5 8572   1.343   0.514   1.342  0.1795 -0.2040 -0.2028
  578MPD2     H 8573   1.545   0.332   1.082  1.4876 -0.8952  0.7506
  578MPD2    H1 8574   1.420   0.376   1.486 -3.1753 -1.4335 -1.4028
  578MPD2    H2 8575   1.286   0.661   1.195  0.5272 -0.5242 -1.2709
  578MPD2    H3 8576   1.291   0.563   1.424  1.5724  1.0463 -0.0586
  578MPD2     N 8577   1.591   0.247   1.306 -0.3547 -0.2292  0.5155
  578MPD2    H5 8578   1.635   0.209   1.222 -2.0621 -0.9414 -0.0496
  578MPD2    N1 8579   1.402   0.545   0.987  0.5104 -0.1652  0.2886
  578MPD2    H7 8580   1.332   0.614   0.962  0.6432 -0.0526  0.2303
  579TMC3    C1 8581   1.712   0.087   1.428 -0.1850 -0.0625 -0.6637
  579TMC3    C2 8582   1.801   0.068   1.528 -0.2584 -0.3080  0.4998
  579TMC3    C3 8583   1.898   4.695   1.519  0.5438  0.2219 -0.2341
  579TMC3    C4 8584   1.715   0.009   1.316  0.3143  0.5756 -0.1864
  579TMC3    C5 8585   1.815   4.631   1.311  0.7477 -0.0708  0.0391
  579TMC3    C6 8586   1.898   4.604   1.414  0.2917 -0.6800 -0.2084
  579TMC3     C 8587   1.631   0.208   1.431  0.4632 -0.3857  0.1676
  579TMC3     O 8588   1.600   0.259   1.537  0.1743  0.1651 -0.0274
  579TMC3     H 8589   1.810   0.139   1.610  1.1332 -1.5273  1.4111
  579TMC3    H1 8590   1.639   0.013   1.239  0.5791  1.3188 -0.3993
  579TMC3    H2 8591   1.972   4.525   1.424  0.5055 -0.1642  2.5054
  579TMC3    C7 8592   1.828   4.533   1.202  0.1338  0.0391  0.4238
  579TMC3    C8 8593   2.019   4.696   1.608 -0.6568  0.2568  0.4912
  579TMC3    O1 8594   1.894   4.431   1.215  0.8667 -0.3189 -0.2202
  579TMC3    O2 8595   2.007   0.024   1.721 -0.2562 -0.4871 -0.3569
  580TMC3    C1 8596   0.237   3.883  12.320 -0.0568  0.2549  1.1796
  580TMC3    C2 8597   0.256   3.897  12.187  0.1193 -0.8361 -0.1321
  580TMC3    C3 8598   0.371   3.845  12.143  0.5548 -0.6647 -0.3455
  580TMC3    C4 8599   0.306   3.789  12.391 -0.1115  0.0673 -0.2440
  580TMC3    C5 8600   0.411   3.728  12.337  0.0084  0.3547 -1.0989
  580TMC3    C6 8601   0.454   3.762  12.213  0.1784  0.0176  0.5377
  580TMC3     C 8602   0.228   4.009  12.389 -0.1615  0.6379  0.2412
  580TMC3     O 8603   0.173   4.104  12.333 -0.6350 -0.3464 -0.4994
  580TMC3     H 8604   0.218   3.982  12.132  1.9866  1.1034  1.5566
  580TMC3    H1 8605   0.283   3.761  12.493  0.2630  0.3266 -0.0879
  580TMC3    H2 8606   0.542   3.716  12.170 -0.5301 -1.1224  0.2896
  580TMC3    C7 8607   0.500   3.671  12.429 -0.5790  0.1967  0.4469
  580TMC3    C8 8608   0.428   3.917  12.039 -0.2633 -0.3633  0.1652
  580TMC3    O1 8609   0.477   3.696  12.549  0.1835  0.0574 -1.1648
  580TMC3    O2 8610   0.363   3.942  11.936  0.2978 -0.4030  0.3390
  581MPD2     C 8611   3.987   3.930  14.772  0.3122  0.4227 -0.2881
  581MPD2    C1 8612   3.888   3.849  14.834 -0.0439  0.1953  0.2191
  581MPD2    C2 8613   3.753   3.884  14.826  0.1704 -0.0524  0.4253
  581MPD2    C3 8614   3.711   3.990  14.750 -0.1594 -0.1995  0.1095
  581MPD2    C4 8615   3.806   4.061  14.683 -0.9527  0.0740  0.0507
  581MPD2    C5 8616   3.938   4.039  14.704 -0.3998 -0.0046  0.0372
  581MPD2     H 8617   3.677   3.814  14.860  0.5664 -0.9327 -0.4818
  581MPD2    H1 8618   3.786   4.136  14.607 -2.3823 -0.7802 -0.4266
  581MPD2    H2 8619   4.092   3.906  14.778  0.5543  1.7232  0.7085
  581MPD2    H3 8620   4.008   4.103  14.653 -2.3328  0.7511 -1.6527
  581MPD2     N 8621   3.574   4.007  14.727 -0.0999 -0.9892  0.8014
  581MPD2    H5 8622   3.512   3.932  14.755 -1.4145 -0.0578  0.4011
  581MPD2    N1 8623   3.932   3.726  14.892 -0.4306 -0.2241 -0.7282
  581MPD2    H7 8624   4.023   3.689  14.870 -0.2768 -0.4009  0.2326
  582TMC3    C1 8625   3.933   3.534  15.017  0.0886 -0.0340 -0.4893
  582TMC3    C2 8626   3.989   3.575  15.135  0.0424  0.0219 -0.4152
  582TMC3    C3 8627   3.953   3.499  15.247  0.6890 -0.5363 -0.7382
  582TMC3    C4 8628   3.862   3.423  15.021 -0.5255  0.5357 -0.0868
  582TMC3    C5 8629   3.850   3.333  15.118  0.1776 -0.8216 -0.4722
  582TMC3    C6 8630   3.901   3.375  15.240 -0.4916  0.5277  0.5075
  582TMC3     C 8631   3.854   3.638  14.958 -0.6781 -0.0336  0.9409
  582TMC3     O 8632   3.739   3.631  14.998  0.1267 -0.3313 -0.0043
  582TMC3     H 8633   4.040   3.669  15.148 -1.4049  0.7725 -0.1006
  582TMC3    H1 8634   3.803   3.416  14.930 -2.0608 -0.9700  1.0129
  582TMC3    H2 8635   3.895   3.315  15.330  0.7185  1.1284  0.9883
  582TMC3    C7 8636   3.712   3.283  15.137  0.0105 -0.2064 -0.8072
  582TMC3    C8 8637   4.042   3.534  15.356  0.3122 -0.5584 -0.3897
  582TMC3    O1 8638   3.690   3.175  15.189  0.2459 -0.0540  0.1739
  582TMC3    O2 8639   4.104   3.449  15.417  0.3803 -0.2239 -0.4005
  583MPD2     C 8640   3.188   0.836  16.532  0.7191 -0.8906 -0.4023
  583MPD2    C1 8641   3.297   0.874  16.602  0.0804 -0.1966 -0.1151
  583MPD2    C2 8642   3.289   0.983  16.692 -0.5317  0.0426 -0.3843
  583MPD2    C3 8643   3.175   1.058  16.708 -0.2956  0.4062 -0.0529
  583MPD2    C4 8644   3.069   1.019  16.623  0.1190  0.6568  0.3079
  583MPD2    C5 8645   3.068   0.905  16.549  0.6701  0.2279 -0.3457
  583MPD2     H 8646   3.385   1.005  16.737 -1.1025 -0.7698  1.2341
  583MPD2    H1 8647   2.972   1.067  16.629 -0.7516 -1.7379  5.3263
  583MPD2    H2 8648   3.180   0.751  16.465 -3.2261  1.2201 -2.6199
  583MPD2    H3 8649   2.981   0.861  16.502  0.1002 -0.4054  1.3021
  583MPD2     N 8650   3.174   1.176  16.792 -0.2547 -0.0444  0.3342
  583MPD2    H5 8651   3.264   1.202  16.833  0.1263  0.7823 -1.0472
  583MPD2    N1 8652   3.421   0.795  16.597  0.4153 -0.1794 -0.3570
  583MPD2    H7 8653   3.494   0.817  16.664 -1.5675 -0.3115  1.8387
  584TMC3    C1 8654   3.091   1.352  16.931 -0.4193  0.1718 -0.2263
  584TMC3    C2 8655   3.211   1.424  16.926 -0.1623 -0.1633 -0.1081
  584TMC3    C3 8656   3.216   1.554  16.984  0.6583  0.2490  0.3492
  584TMC3    C4 8657   2.978   1.405  16.988 -0.1660  0.0103 -0.6464
  584TMC3    C5 8658   2.995   1.530  17.044 -0.0370  0.0783  1.3496
  584TMC3    C6 8659   3.107   1.607  17.043 -0.8201  0.0265  0.9739
  584TMC3     C 8660   3.062   1.242  16.830 -0.1191 -0.3026  0.7306
  584TMC3     O 8661   2.951   1.218  16.792  0.5679  0.1151  0.0744
  584TMC3     H 8662   3.302   1.396  16.874  0.8034  0.2360  1.3663
  584TMC3    H1 8663   2.897   1.332  16.987 -1.9824  2.0106  0.5754
  584TMC3    H2 8664   3.113   1.703  17.093  2.4484  1.6093 -2.4459
  584TMC3    C7 8665   2.880   1.590  17.103  0.3742  0.5600  0.1392
  584TMC3    C8 8666   3.349   1.599  17.020 -0.0408 -0.0755  0.7861
  584TMC3    O1 8667   2.888   1.712  17.124  0.4147 -0.3016  0.0061
  584TMC3    O2 8668   3.432   1.509  17.030 -0.4222 -0.1137  0.5943
  585MPD2     C 8669   3.115   4.629   0.402  0.1205  0.0295 -0.4058
  585MPD2    C1 8670   3.088   4.701   0.282 -0.3292  0.7079  0.1004
  585MPD2    C2 8671   3.112   4.635   0.159  0.2210  0.2670 -0.9199
  585MPD2    C3 8672   3.154   4.502   0.159  0.1744 -0.7914  0.6607
  585MPD2    C4 8673   3.183   4.440   0.277 -0.3735 -0.2210  0.3024
  585MPD2    C5 8674   3.164   4.498   0.398  0.0594  0.1004  0.2515
  585MPD2     H 8675   3.086   4.680   0.064 -0.9835  1.4939 -0.0144
  585MPD2    H1 8676   3.209   4.335   0.280 -0.7796 -0.3476 -0.6679
  585MPD2    H2 8677   3.090   4.666   0.501  1.1900 -0.2446 -0.0372
  585MPD2    H3 8678   3.172   4.436   0.487 -2.2807  0.4674  0.7264
  585MPD2     N 8679   3.185   4.431   0.042  0.2912  0.1722  0.6049
  585MPD2    H5 8680   3.232   4.343   0.060  2.4142  0.7554 -2.2101
  585MPD2    N1 8681   3.042   0.114   0.292  0.7616  0.2502 -0.3177
  585MPD2    H7 8682   3.027   0.158   0.382 -0.2353  1.4327 -1.0642
  586TMC3    C1 8683   3.175   4.361  17.499  0.3805 -0.1342  0.1331
  586TMC3    C2 8684   3.243   4.248  17.538  0.4233  0.8233 -0.1909
  586TMC3    C3 8685   3.259   4.152  17.442  0.0933  0.0423  0.5143
  586TMC3    C4 8686   3.124   4.371  17.375 -0.3706 -0.8247  0.0272
  586TMC3    C5 8687   3.150   4.279  17.275  0.1536  1.0347 -0.1917
  586TMC3    C6 8688   3.226   4.173  17.312 -0.3629 -0.0460  0.0385
  586TMC3     C 8689   3.136   4.460  17.598  0.3892 -0.1484  0.3058
  586TMC3     O 8690   3.066   4.556  17.562  0.2487 -0.4142  0.1059
  586TMC3     H 8691   3.275   4.224  17.639  2.8346  1.5184 -0.7846
  586TMC3    H1 8692   3.078   4.463  17.340  0.0086 -0.7412 -0.2515
  586TMC3    H2 8693   3.259   4.094  17.245 -0.1778 -0.8394  1.0673
  586TMC3    C7 8694   3.042   4.258  17.180  0.2185  0.5146 -0.1927
  586TMC3    C8 8695   3.262   4.015  17.501  0.0303  0.2863  0.2168
  586TMC3    O1 8696   2.934   4.293  17.226  0.4367 -0.0864  0.1929
  586TMC3    O2 8697   3.272   4.009  17.624  0.5609 -0.1544 -0.4813
  587TMC3    C1 8698   0.502   3.457  16.320 -0.2234  0.2265  0.6806
  587TMC3    C2 8699   0.502   3.477  16.459 -0.3596 -0.0674  0.0923
  587TMC3    C3 8700   0.618   3.533  16.509  0.0409  0.1343  0.2693
  587TMC3    C4 8701   0.615   3.488  16.247 -0.8957  0.1352  0.1252
  587TMC3    C5 8702   0.723   3.549  16.301  0.0434  0.4404  0.0745
  587TMC3    C6 8703   0.726   3.574  16.435  0.1782  0.2757 -0.1513
  587TMC3     C 8704   0.379   3.405  16.254 -0.9734  0.6558  0.2169
  587TMC3     O 8705   0.401   3.370  16.140 -0.0838 -0.4162 -0.4231
  587TMC3     H 8706   0.416   3.446  16.517 -0.3025 -1.0994 -0.3702
  587TMC3    H1 8707   0.614   3.465  16.141  0.7545 -0.5189  0.2541
  587TMC3    H2 8708   0.810   3.620  16.486  1.4163 -1.1730 -0.8766
  587TMC3    C7 8709   0.854   3.563  16.229 -0.3354 -0.3408  0.2324
  587TMC3    C8 8710   0.604   3.595  16.641 -0.1249  0.2771  0.1829
  587TMC3    O1 8711   0.953   3.571  16.299  0.5773  0.2288 -0.3309
  587TMC3    O2 8712   0.710   3.595  16.709 -0.1418  0.2209  0.4767
  588TMC3    C1 8713   2.338   1.243   9.369 -0.1370 -0.2700 -1.1546
  588TMC3    C2 8714   2.309   1.115   9.328 -0.6111  0.0078  0.6920
  588TMC3    C3 8715   2.397   1.018   9.371  0.2912  0.3775 -0.5134
  588TMC3    C4 8716   2.438   1.276   9.457 -0.0972  0.1433 -1.0704
  588TMC3    C5 8717   2.512   1.169   9.506  0.9395  0.8935 -0.6852
  588TMC3    C6 8718   2.487   1.042   9.469  0.6276 -0.4304 -0.0363
  588TMC3     C 8719   2.237   1.348   9.340  0.1171  0.3600 -0.0733
  588TMC3     O 8720   2.193   1.354   9.221 -0.6030  0.7462 -0.2329
  588TMC3     H 8721   2.234   1.093   9.253  0.0861  0.0137 -0.0131
  588TMC3    H1 8722   2.444   1.374   9.503 -0.1696 -0.3864  0.0628
  588TMC3    H2 8723   2.554   0.959   9.492  1.4531 -0.0175 -0.9569
  588TMC3    C7 8724   2.622   1.191   9.597  0.0829  0.1179 -0.1952
  588TMC3    C8 8725   2.339   0.886   9.360 -0.6794  1.0753 -0.2140
  588TMC3    O1 8726   2.653   1.095   9.662 -0.3117  0.5428 -0.2145
  588TMC3    O2 8727   2.278   0.859   9.257 -0.0386 -0.3957 -0.5226
  589TMC3    C1 8728   2.231   3.428   1.146 -0.1876 -0.2632  0.2276
  589TMC3    C2 8729   2.261   3.495   1.264  0.0518 -0.2457  0.1506
  589TMC3    C3 8730   2.379   3.476   1.325  0.9077  0.1603  0.1926
  589TMC3    C4 8731   2.323   3.347   1.089  0.4773 -0.4752 -0.3929
  589TMC3    C5 8732   2.440   3.319   1.157  0.1862  0.4567 -0.2443
  589TMC3    C6 8733   2.460   3.375   1.280 -0.0089  0.5499  0.6770
  589TMC3     C 8734   2.096   3.443   1.090 -0.3083  0.3343 -0.0007
  589TMC3     O 8735   2.061   3.360   1.011 -0.0911  0.4282  0.1140
  589TMC3     H 8736   2.205   3.580   1.303  2.2720  2.3457 -2.3084
  589TMC3    H1 8737   2.312   3.309   0.988  3.8514 -0.1524 -0.8980
  589TMC3    H2 8738   2.547   3.353   1.340 -1.3745 -0.2217  2.3989
  589TMC3    C7 8739   2.496   3.184   1.142 -0.3184  0.1905 -0.1165
  589TMC3    C8 8740   2.424   3.580   1.423  0.6709 -0.4913  1.1481
  589TMC3    O1 8741   2.434   3.105   1.071  0.2679 -0.3252  0.1154
  589TMC3    O2 8742   2.338   3.641   1.484  0.2447 -0.7396 -0.0522
  590MPD2     C 8743   1.268   1.681  16.764 -0.3205  0.1225  0.4371
  590MPD2    C1 8744   1.236   1.803  16.724  0.5680  0.0858  0.3496
  590MPD2    C2 8745   1.287   1.848  16.602 -0.6456  0.2074 -0.1410
  590MPD2    C3 8746   1.357   1.764  16.520 -0.8700  0.0067 -0.6494
  590MPD2    C4 8747   1.392   1.632  16.561 -0.3593 -0.1099  0.0914
  590MPD2    C5 8748   1.338   1.588  16.680 -0.4570  0.5529  0.5336
  590MPD2     H 8749   1.252   1.942  16.560  1.1734  1.4383  1.0943
  590MPD2    H1 8750   1.461   1.569  16.506  2.0297  0.7919  2.0955
  590MPD2    H2 8751   1.235   1.650  16.862 -1.4835  4.0206  1.2672
  590MPD2    H3 8752   1.356   1.491  16.725 -2.6587 -0.1092 -0.0512
  590MPD2     N 8753   1.394   1.813  16.391 -0.3295 -0.0245  0.5782
  590MPD2    H5 8754   1.367   1.907  16.363  0.1170 -0.0539  0.0555
  590MPD2    N1 8755   1.148   1.877  16.809 -0.7601 -0.5872 -0.3232
  590MPD2    H7 8756   1.097   1.815  16.870  1.4141 -1.6462  0.4333
  591TMC3    C1 8757   1.498   1.821  16.187 -0.0068 -0.6299  0.0323
  591TMC3    C2 8758   1.514   1.748  16.072 -0.0302  0.3689  0.1015
  591TMC3    C3 8759   1.542   1.813  15.958  0.2021 -0.1249  0.2651
  591TMC3    C4 8760   1.511   1.955  16.194  0.5927 -0.0866 -0.7701
  591TMC3    C5 8761   1.533   2.020  16.073  0.1191  0.0721 -0.3700
  591TMC3    C6 8762   1.556   1.953  15.954  0.6263 -0.3587 -0.2709
  591TMC3     C 8763   1.472   1.742  16.305  0.3183  0.1045 -0.3327
  591TMC3     O 8764   1.470   1.619  16.291 -0.4330  0.0743  0.2066
  591TMC3     H 8765   1.511   1.640  16.070 -0.6189  0.4119 -1.4116
  591TMC3    H1 8766   1.500   2.007  16.288  0.3076 -2.7388  0.6662
  591TMC3    H2 8767   1.606   1.998  15.869  0.1617 -1.0332 -0.8968
  591TMC3    C7 8768   1.584   2.154  16.090  0.1454  0.1984 -0.1105
  591TMC3    C8 8769   1.570   1.741  15.831 -0.2234  0.1663  0.9541
  591TMC3    O1 8770   1.576   2.210  16.202 -0.1437  0.2135 -0.1398
  591TMC3    O2 8771   1.605   1.626  15.831 -0.0769  0.0680 -0.2518
  592MPD2     C 8772   1.475   3.947  11.431  0.1039 -0.2059 -0.1898
  592MPD2    C1 8773   1.508   3.931  11.565  0.3940 -0.2347  0.6951
  592MPD2    C2 8774   1.470   3.812  11.630  0.6394  0.2826  0.3492
  592MPD2    C3 8775   1.393   3.719  11.568  0.0372 -0.2742  0.1964
  592MPD2    C4 8776   1.348   3.740  11.436 -0.2288 -0.3607  0.4448
  592MPD2    C5 8777   1.392   3.850  11.370  0.3919 -0.2452 -0.3116
  592MPD2     H 8778   1.505   3.799  11.732 -0.6484 -1.3768  0.5768
  592MPD2    H1 8779   1.281   3.674  11.382 -0.7104  0.7848 -0.3472
  592MPD2    H2 8780   1.490   4.038  11.374  1.0563 -0.7901 -0.8594
  592MPD2    H3 8781   1.369   3.857  11.264 -0.0473 -0.2859 -0.2178
  592MPD2     N 8782   1.368   3.601  11.651  0.1125  0.3750  0.2867
  592MPD2    H5 8783   1.390   3.610  11.749  0.4959  0.2251  0.2138
  592MPD2    N1 8784   1.576   4.034  11.635  0.7434 -0.2145  0.3332
  592MPD2    H7 8785   1.592   4.113  11.573 -0.2469 -1.2228 -1.1899
  593TMC3    C1 8786   1.730   4.127  11.792  0.6148  0.2415 -0.0173
  593TMC3    C2 8787   1.770   4.136  11.921  0.5293 -0.1913 -0.5497
  593TMC3    C3 8788   1.903   4.170  11.935  0.4294 -0.4538  0.3714
  593TMC3    C4 8789   1.799   4.181  11.685 -0.0926  0.5757 -0.3587
  593TMC3    C5 8790   1.924   4.226  11.712 -0.5323 -0.6554 -1.1343
  593TMC3    C6 8791   1.987   4.205  11.833 -0.2432 -0.1542 -0.5803
  593TMC3     C 8792   1.623   4.040  11.760  0.3997  0.2503  0.2770
  593TMC3     O 8793   1.595   3.969  11.853 -0.0653  0.0584  0.2382
  593TMC3     H 8794   1.725   4.081  12.002  0.8756  1.5136  0.8097
  593TMC3    H1 8795   1.772   4.186  11.580 -1.2625  0.4699 -0.0571
  593TMC3    H2 8796   2.094   4.217  11.844 -0.6248  4.0917 -1.5279
  593TMC3    C7 8797   1.985   4.332  11.631  0.0906 -0.5612  0.1197
  593TMC3    C8 8798   1.964   4.139  12.068  0.0547  0.1606 -0.2438
  593TMC3    O1 8799   2.091   4.368  11.687  0.3274  0.0176  0.4126
  593TMC3    O2 8800   1.904   4.060  12.142  0.1238  0.2996 -0.7228
  594MPD2     C 8801   0.421   2.669  13.658 -0.1316 -0.1829  0.7999
  594MPD2    C1 8802   0.410   2.645  13.792  0.0212  0.6520 -0.2207
  594MPD2    C2 8803   0.499   2.711  13.880  0.2859  0.2035  0.1232
  594MPD2    C3 8804   0.610   2.775  13.826  0.3158 -0.0169  0.8200
  594MPD2    C4 8805   0.630   2.785  13.686 -0.2279  0.4665 -0.5537
  594MPD2    C5 8806   0.526   2.738  13.606 -0.2162  0.2028 -0.7835
  594MPD2     H 8807   0.503   2.696  13.987  0.3430  0.2204  0.1232
  594MPD2    H1 8808   0.713   2.832  13.634  0.3306 -1.8056 -1.7192
  594MPD2    H2 8809   0.366   2.615  13.582 -0.0967 -1.0328  1.3716
  594MPD2    H3 8810   0.532   2.769  13.502 -4.1684  1.6397 -0.5823
  594MPD2     N 8811   0.701   2.848  13.917 -0.7372  0.3382  0.0569
  594MPD2    H5 8812   0.659   2.880  14.004  0.6522 -0.0314  0.8746
  594MPD2    N1 8813   0.317   2.549  13.836 -0.5163  0.3517 -0.2566
  594MPD2    H7 8814   0.258   2.509  13.764 -1.8565  0.9249  0.5010
  595TMC3    C1 8815   1.086   3.061  14.087  0.5403  0.5577  0.4173
  595TMC3    C2 8816   1.020   2.993  13.983 -0.4103  0.1619  0.3399
  595TMC3    C3 8817   0.887   2.977  13.984  0.2579 -0.8060 -0.0837
  595TMC3    C4 8818   1.015   3.123  14.185  0.1830 -0.3685  0.3161
  595TMC3    C5 8819   0.882   3.129  14.167  0.7389 -0.2582  0.5394
  595TMC3    C6 8820   0.815   3.046  14.078 -0.2586  0.2399 -0.7124
  595TMC3     C 8821   1.233   3.067  14.094 -0.4103  0.1441  0.1667
  595TMC3     O 8822   1.279   3.115  14.200 -0.5535  0.2776  0.0057
  595TMC3     H 8823   1.081   2.951  13.904  0.5210 -0.7698  1.5598
  595TMC3    H1 8824   1.064   3.171  14.269  0.5663  0.9518 -0.6713
  595TMC3    H2 8825   0.707   3.042  14.079 -0.2410 -0.2567 -0.5024
  595TMC3    C7 8826   0.802   3.146  14.283  0.1157 -0.4717  0.2443
  595TMC3    C8 8827   0.825   2.905  13.878 -0.2123  0.3881 -0.0881
  595TMC3    O1 8828   0.725   3.238  14.291 -0.1426 -0.5352 -0.0786
  595TMC3    O2 8829   0.894   2.868  13.785  0.1871 -0.2185  0.2084
  596MPD2     C 8830   4.338   0.618  17.008 -0.1791  0.3839  0.0418
  596MPD2    C1 8831   4.265   0.685  16.914 -0.4345  0.5561  0.0740
  596MPD2    C2 8832   4.230   0.640  16.793 -0.3165  0.3859 -0.0603
  596MPD2    C3 8833   4.277   0.517  16.758  0.1716  0.4253 -0.2052
  596MPD2    C4 8834   4.332   0.436  16.855 -0.2435 -0.3269  0.2275
  596MPD2    C5 8835   4.358   0.486  16.979  0.0813  0.4872 -0.1541
  596MPD2     H 8836   4.168   0.693  16.722 -1.2731  1.1304  1.3280
  596MPD2    H1 8837   4.365   0.335  16.834  0.2672 -0.3273  1.0580
  596MPD2    H2 8838   4.362   0.656  17.106  0.8818  3.9966 -1.6152
  596MPD2    H3 8839   4.398   0.417  17.052  1.0695  1.6252  0.3766
  596MPD2     N 8840   4.259   0.465  16.621  0.2787 -0.1864  0.0181
  596MPD2    H5 8841   4.288   0.370  16.600  0.6570 -0.0043 -0.2848
  596MPD2    N1 8842   4.251   0.826  16.924  0.4872 -0.2682  0.0379
  596MPD2    H7 8843   4.226   0.882  16.843  2.0956 -0.9459 -0.9254
  597TMC3    C1 8844   4.269   1.038  16.993  0.3519 -0.0619 -0.1552
  597TMC3    C2 8845   4.318   1.086  16.872 -0.5526  0.0541 -0.0092
  597TMC3    C3 8846   4.293   1.213  16.826  1.0848 -0.1173 -0.0872
  597TMC3    C4 8847   4.198   1.123  17.070  0.0988 -0.4730  0.3671
  597TMC3    C5 8848   4.183   1.255  17.037  0.8421  0.2863  0.2806
  597TMC3    C6 8849   4.222   1.298  16.913 -1.0595  0.2318 -0.6064
  597TMC3     C 8850   4.263   0.901  17.034  0.0373  0.1569  0.9443
  597TMC3     O 8851   4.270   0.870  17.155 -0.4248 -0.3438 -0.2364
  597TMC3     H 8852   4.383   1.020  16.815 -0.4134 -0.9708  1.3278
  597TMC3    H1 8853   4.172   1.090  17.170 -0.5468 -0.2756  0.2693
  597TMC3    H2 8854   4.206   1.400  16.882  2.2188  0.3572 -1.8761
  597TMC3    C7 8855   4.113   1.345  17.127 -0.0195 -0.6126 -0.3445
  597TMC3    C8 8856   4.346   1.272  16.703 -0.6104  0.2174  0.1664
  597TMC3    O1 8857   4.058   1.292  17.221  0.5717  0.3539  0.8610
  597TMC3    O2 8858   4.332   1.393  16.685 -0.1122  0.1697 -0.4181
  598TMC3    C1 8859   2.325   2.209  15.294 -0.6691 -0.2510  0.3516
  598TMC3    C2 8860   2.200   2.169  15.252 -0.7109  0.0459  0.4796
  598TMC3    C3 8861   2.192   2.145  15.119  0.3190 -0.0094 -0.4418
  598TMC3    C4 8862   2.427   2.244  15.211 -0.5074 -0.0387  0.1487
  598TMC3    C5 8863   2.404   2.234  15.079  0.8286  0.5267  0.5235
  598TMC3    C6 8864   2.290   2.186  15.030 -0.8634 -0.2781 -0.1000
  598TMC3     C 8865   2.360   2.218  15.436 -0.3105 -0.2404 -0.1955
  598TMC3     O 8866   2.463   2.278  15.463 -0.7250 -0.2778 -0.1858
  598TMC3     H 8867   2.121   2.141  15.321  1.3109 -1.4021  2.2027
  598TMC3    H1 8868   2.523   2.268  15.255 -0.1194  1.2747 -1.4588
  598TMC3    H2 8869   2.297   2.164  14.924 -4.6729  1.2729 -0.6579
  598TMC3    C7 8870   2.506   2.264  14.975  0.2003  0.0590  0.1068
  598TMC3    C8 8871   2.116   2.030  15.068  0.5070 -0.3328  0.1278
  598TMC3    O1 8872   2.509   2.189  14.879 -0.3157 -0.1120 -0.2056
  598TMC3    O2 8873   2.147   2.003  14.952 -0.3190 -0.2995  0.3739
  599MPD2     C 8874   2.334   0.186  16.067 -0.9112 -0.1215 -0.7684
  599MPD2    C1 8875   2.363   0.057  16.099  0.5652  0.0484  0.2547
  599MPD2    C2 8876   2.314   0.000  16.217  0.4801  0.4888  0.0570
  599MPD2    C3 8877   2.211   0.061  16.291 -0.0298  0.5144  0.2960
  599MPD2    C4 8878   2.167   0.191  16.251  0.1933  0.2000  0.1150
  599MPD2    C5 8879   2.238   0.250  16.148  0.3644  0.1399 -0.2269
  599MPD2     H 8880   2.341   4.620  16.245 -2.9258 -0.2794  0.6634
  599MPD2    H1 8881   2.096   0.252  16.307  0.0854  1.3110 -1.2397
  599MPD2    H2 8882   2.377   0.234  15.980  0.9157 -0.8236 -0.2374
  599MPD2    H3 8883   2.217   0.353  16.124  2.0691  0.3684 -0.7740
  599MPD2     N 8884   2.151   0.012  16.402 -0.0207 -0.3200 -0.1179
  599MPD2    H5 8885   2.079   0.064  16.451 -1.0247 -1.1592 -0.6935
  599MPD2    N1 8886   2.433   4.709  15.998 -0.1666 -0.4604 -0.1454
  599MPD2    H7 8887   2.470   0.043  15.921  0.8369  0.2749  0.8566
  600TMC3    C1 8888   2.108   4.597  16.590  0.1467 -0.6132  0.3602
  600TMC3    C2 8889   2.080   4.472  16.638  0.4545  0.8147 -0.3242
  600TMC3    C3 8890   2.060   4.450  16.768 -0.0290  0.3265  0.4569
  600TMC3    C4 8891   2.111   4.705  16.674 -0.0438 -0.1980  0.0089
  600TMC3    C5 8892   2.102   4.681  16.810  0.0353  0.3712  0.2215
  600TMC3    C6 8893   2.063   4.559  16.860 -0.1056 -0.0586  0.2952
  600TMC3     C 8894   2.179   4.610  16.462 -0.4975 -0.1176  0.1658
  600TMC3     O 8895   2.224   4.504  16.416  0.1244  0.6392 -0.0433
  600TMC3     H 8896   2.089   4.389  16.569  0.1867  1.0845 -0.6845
  600TMC3    H1 8897   2.117   0.087  16.639  2.1548 -0.2158  0.3855
  600TMC3    H2 8898   2.018   4.545  16.958  0.8207 -0.1807  0.7027
  600TMC3    C7 8899   2.054   0.073  16.890 -0.3826  0.6447 -0.0084
  600TMC3    C8 8900   1.975   4.336  16.798 -0.6934 -0.2942 -0.3983
  600TMC3    O1 8901   2.018   0.175  16.832  0.0369  0.0585  0.0680
  600TMC3    O2 8902   1.981   4.298  16.913  0.1218  0.0595  0.2489
  601MPD2     C 8903   4.388   3.348  17.453  0.3146 -0.1448 -0.0789
  601MPD2    C1 8904   4.260   3.287  17.456  0.3408 -0.8478  0.1837
  601MPD2    C2 8905   4.256   3.152  17.467  0.1136 -0.3357  0.0248
  601MPD2    C3 8906   4.374   3.077  17.481  0.3622  0.4218  0.5232
  601MPD2    C4 8907   4.498   3.137  17.499 -0.5391  0.3875  0.3272
  601MPD2    C5 8908   4.501   3.278  17.491 -0.3693  0.7985 -0.3963
  601MPD2     H 8909   4.157   3.108  17.463 -0.5748  1.1680  0.4961
  601MPD2    H1 8910   4.587   3.080  17.522 -0.5828 -0.7544 -2.3645
  601MPD2    H2 8911   4.398   3.456  17.442 -2.0853  0.1951  1.0500
  601MPD2    H3 8912   4.599   3.325  17.492  1.0264 -2.1983  0.9733
  601MPD2     N 8913   4.362   2.939  17.496 -0.0577  0.3885 -0.2301
  601MPD2    H5 8914   4.451   2.890  17.487 -1.1950 -1.5012 -1.2367
  601MPD2    N1 8915   4.135   3.358  17.432  1.2217 -0.0158  0.0308
  601MPD2    H7 8916   4.049   3.305  17.425  0.9173  0.4638  0.1870
  602TMC3    C1 8917   3.998   3.527  17.339  0.1746  0.2778 -0.3505
  602TMC3    C2 8918   3.978   3.663  17.330  0.0864 -0.1808  0.4158
  602TMC3    C3 8919   3.865   3.704  17.267  0.3049 -0.8801  0.6392
  602TMC3    C4 8920   3.916   3.435  17.273  0.5419  0.1306  0.5670
  602TMC3    C5 8921   3.801   3.479  17.213  0.5834 -0.5897  0.3433
  602TMC3    C6 8922   3.778   3.618  17.207  0.5309 -0.7219 -0.1618
  602TMC3     C 8923   4.129   3.487  17.398  0.0410 -0.0722 -0.1704
  602TMC3     O 8924   4.214   3.580  17.412 -0.1760  0.2452 -0.2205
  602TMC3     H 8925   4.028   3.731  17.398 -1.4501  0.5935  0.7696
  602TMC3    H1 8926   3.957   3.336  17.259  1.6309  0.5808  0.5767
  602TMC3    H2 8927   3.684   3.657  17.168  0.8895 -0.7513 -1.0499
  602TMC3    C7 8928   3.726   3.387  17.132  0.1521  0.0284 -0.3085
  602TMC3    C8 8929   3.857   3.841  17.216 -0.3718 -0.6465  0.2629
  602TMC3    O1 8930   3.743   3.267  17.153  0.3386 -0.2223 -0.1396
  602TMC3    O2 8931   3.871   3.942  17.282 -0.0955  0.0269 -0.4909
  603TMC3    C1 8932   3.078   3.201  10.820  0.1595  0.8925 -0.6278
  603TMC3    C2 8933   3.129   3.208  10.949 -0.2617  0.9263 -1.0137
  603TMC3    C3 8934   3.165   3.331  10.996  0.3520 -0.0384  0.1299
  603TMC3    C4 8935   3.062   3.312  10.738  0.0467 -0.4609  0.6822
  603TMC3    C5 8936   3.087   3.434  10.793 -1.0390 -0.0464 -0.4807
  603TMC3    C6 8937   3.146   3.443  10.923 -0.0244 -0.8351  0.0497
  603TMC3     C 8938   3.029   3.077  10.771  0.3456  0.4724 -0.9599
  603TMC3     O 8939   3.014   3.060  10.651  0.4520  0.2461  0.3307
  603TMC3     H 8940   3.157   3.124  11.012 -0.0610  1.5273 -0.3100
  603TMC3    H1 8941   3.007   3.303  10.645  0.1079  1.9046  0.4160
  603TMC3    H2 8942   3.209   3.528  10.948  1.6373 -1.8540 -0.6137
  603TMC3    C7 8943   3.092   3.560  10.709 -0.2838  0.4978 -0.7060
  603TMC3    C8 8944   3.154   3.338  11.143  0.4351  1.2647  0.2112
  603TMC3    O1 8945   3.181   3.639  10.735 -0.0989 -0.4471 -0.0042
  603TMC3    O2 8946   3.158   3.230  11.206  0.1525 -0.4006 -0.0911
  604MPD2     C 8947   3.008   1.862  16.259 -0.8561  0.4679  0.2502
  604MPD2    C1 8948   3.020   1.938  16.151  0.4445 -0.1859  0.0619
  604MPD2    C2 8949   3.101   1.896  16.042  0.4119  0.2888  0.5812
  604MPD2    C3 8950   3.161   1.770  16.037 -0.4391  0.3517  0.5508
  604MPD2    C4 8951   3.164   1.702  16.158  0.2692 -0.1354 -0.5339
  604MPD2    C5 8952   3.078   1.740  16.259  0.3829 -0.6911  0.0647
  604MPD2     H 8953   3.107   1.965  15.959  0.6355 -0.5285 -0.0891
  604MPD2    H1 8954   3.211   1.608  16.185  0.8047  1.1883  3.1827
  604MPD2    H2 8955   2.943   1.879  16.343  0.6871  3.1378  0.9101
  604MPD2    H3 8956   3.075   1.683  16.351  2.1125 -2.7110 -1.1309
  604MPD2     N 8957   3.225   1.732  15.917  0.3847  0.9133 -0.2123
  604MPD2    H5 8958   3.202   1.783  15.832  0.9654  0.4475 -0.6525
  604MPD2    N1 8959   2.952   2.061  16.152 -0.0431 -0.6033  0.1245
  604MPD2    H7 8960   2.885   2.076  16.227 -1.4813  1.4803 -1.5866
  605TMC3    C1 8961   2.934   2.284  16.119 -0.0926  0.2077 -0.2174
  605TMC3    C2 8962   2.990   2.311  16.239 -0.0844 -0.0808 -0.0501
  605TMC3    C3 8963   3.020   2.443  16.277 -0.0422  0.6603  0.0721
  605TMC3    C4 8964   2.907   2.389  16.036 -1.0778  0.0536 -0.0525
  605TMC3    C5 8965   2.928   2.516  16.082  0.6188  0.5641 -0.3077
  605TMC3    C6 8966   2.984   2.537  16.202 -0.9386  0.7616  0.3566
  605TMC3     C 8967   2.964   2.163  16.058 -0.0934  0.5811 -0.0811
  605TMC3     O 8968   3.026   2.173  15.950  0.1044 -0.0774 -0.0408
  605TMC3     H 8969   3.043   2.233  16.291 -1.3408 -0.1172  1.1649
  605TMC3    H1 8970   2.871   2.382  15.934 -1.3738  1.2013 -0.0251
  605TMC3    H2 8971   3.014   2.638  16.229 -1.5658  0.8894  0.5824
  605TMC3    C7 8972   2.869   2.629  16.005  0.2995 -0.2952 -0.5765
  605TMC3    C8 8973   3.111   2.469  16.381 -0.2798 -0.7399  0.3506
  605TMC3    O1 8974   2.873   2.617  15.882 -0.1719 -0.5116  0.5050
  605TMC3    O2 8975   3.127   2.371  16.456  0.2182 -0.6434 -0.0559
  606TMC3    C1 8976   0.285   0.817  17.008  0.5768  0.5742  0.9313
  606TMC3    C2 8977   0.405   0.777  17.062  0.1063 -0.6349  0.1509
  606TMC3    C3 8978   0.435   0.646  17.070 -0.0251  0.1328 -0.4813
  606TMC3    C4 8979   0.187   0.730  16.989  0.2479  0.7757 -0.1107
  606TMC3    C5 8980   0.212   0.603  17.028  0.9038  0.0244  0.3847
  606TMC3    C6 8981   0.338   0.550  17.045  0.0880  0.0949 -0.1376
  606TMC3     C 8982   0.238   0.947  17.036 -0.2065 -0.6462  0.3092
  606TMC3     O 8983   0.138   0.980  16.968  0.2508  0.8681  0.3221
  606TMC3     H 8984   0.492   0.841  17.064  0.2255 -0.7482 -1.0163
  606TMC3    H1 8985   0.087   0.754  16.955  0.1043  0.1744 -0.1041
  606TMC3    H2 8986   0.349   0.445  17.069 -0.9786  0.1082  0.3751
  606TMC3    C7 8987   0.099   0.509  17.005 -0.3571 -0.5104 -0.8967
  606TMC3    C8 8988   0.548   0.625  17.163 -0.8626 -0.4435 -0.0318
  606TMC3    O1 8989   0.014   0.539  16.928  0.5801  0.4250 -0.3610
  606TMC3    O2 8990   0.592   0.725  17.216  0.2664  0.0732  0.1458
  607MPD2     C 8991   1.721   3.275  11.669 -0.2351  0.2798 -0.6521
  607MPD2    C1 8992   1.729   3.404  11.724  0.1582  0.2803 -0.3936
  607MPD2    C2 8993   1.764   3.417  11.858 -0.1584  0.6029 -0.0297
  607MPD2    C3 8994   1.804   3.310  11.933 -0.4354  0.2335 -0.3011
  607MPD2    C4 8995   1.797   3.183  11.885  0.1555  0.1960 -0.6299
  607MPD2    C5 8996   1.751   3.168  11.755 -0.1555 -0.0313 -0.4491
  607MPD2     H 8997   1.792   3.516  11.892 -0.4321  0.7011 -0.0979
  607MPD2    H1 8998   1.829   3.091  11.933  0.5469  0.6824  0.0340
  607MPD2    H2 8999   1.699   3.245  11.567  1.0413  0.2757 -0.9202
  607MPD2    H3 9000   1.748   3.069  11.711 -0.1403 -0.6314  0.8903
  607MPD2     N 9001   1.879   3.338  12.052 -0.7312  0.9839  0.2516
  607MPD2    H5 9002   1.886   3.437  12.074 -0.2987  0.5621  2.0215
  607MPD2    N1 9003   1.711   3.527  11.650 -0.5923 -0.4979  0.3421
  607MPD2    H7 9004   1.723   3.610  11.706  1.1483 -0.3800 -0.2337
  608TMC3    C1 9005   1.724   3.677  11.475  0.0008  0.7952 -0.2820
  608TMC3    C2 9006   1.793   3.759  11.562 -0.3243 -0.7735 -0.3935
  608TMC3    C3 9007   1.867   3.856  11.501 -0.0338  0.2056  0.3750
  608TMC3    C4 9008   1.716   3.695  11.342 -0.0977 -0.3014 -0.1108
  608TMC3    C5 9009   1.779   3.803  11.285 -0.1913 -0.2447 -0.2711
  608TMC3    C6 9010   1.861   3.881  11.363  0.7551 -0.2108 -0.7171
  608TMC3     C 9011   1.690   3.544  11.515  0.0281  0.3110 -0.0436
  608TMC3     O 9012   1.641   3.469  11.430  0.3664  0.1544 -0.3753
  608TMC3     H 9013   1.772   3.752  11.668 -0.2143  0.1744 -0.3097
  608TMC3    H1 9014   1.660   3.628  11.277 -0.5212 -1.7182  1.7152
  608TMC3    H2 9015   1.912   3.966  11.318  0.8981  1.7830  3.1650
  608TMC3    C7 9016   1.729   3.855  11.161 -0.5175 -0.9969 -0.3612
  608TMC3    C8 9017   1.976   3.917  11.566 -0.1846  1.1172 -0.7461
  608TMC3    O1 9018   1.787   3.952  11.111  0.3678 -0.1627 -0.3775
  608TMC3    O2 9019   2.038   4.002  11.510  0.5447 -0.1078  0.4544
  609TMC3    C1 9020   0.526   2.102   9.382  0.0948 -0.4266  0.1606
  609TMC3    C2 9021   0.492   2.128   9.255 -0.1702 -0.2445 -0.1237
  609TMC3    C3 9022   0.530   2.038   9.165 -0.6066  0.2954 -0.5588
  609TMC3    C4 9023   0.609   1.993   9.422  0.7376  0.6976 -0.3772
  609TMC3    C5 9024   0.638   1.903   9.324 -0.5445 -0.3151  0.1365
  609TMC3    C6 9025   0.606   1.930   9.194 -0.7277 -0.7149  0.7028
  609TMC3     C 9026   0.462   2.172   9.486  0.0286 -0.5208  0.2985
  609TMC3     O 9027   0.445   2.110   9.592  0.3947  0.1184  0.5051
  609TMC3     H 9028   0.410   2.197   9.239  0.5548  0.4643 -0.7590
  609TMC3    H1 9029   0.621   1.975   9.528  0.0669  0.3434 -0.3614
  609TMC3    H2 9030   0.640   1.863   9.116 -2.7742 -1.2407  0.2579
  609TMC3    C7 9031   0.745   1.813   9.355  0.1332  0.2463 -0.8976
  609TMC3    C8 9032   0.503   2.054   9.026  0.2460  0.5350  0.6281
  609TMC3    O1 9033   0.802   1.829   9.463 -0.0213  0.0732  0.2632
  609TMC3    O2 9034   0.573   1.987   8.952 -0.0677 -0.0051 -0.1767
  610TMC3    C1 9035   2.504   3.431  12.626  0.7153 -0.1619 -0.6055
  610TMC3    C2 9036   2.519   3.523  12.527 -0.6805  0.3573  0.2701
  610TMC3    C3 9037   2.638   3.523  12.455 -1.0267  1.1591  1.1536
  610TMC3    C4 9038   2.599   3.337  12.640 -0.2983  0.2462 -0.1462
  610TMC3    C5 9039   2.695   3.317  12.543 -0.1773 -0.0175 -0.4891
  610TMC3    C6 9040   2.723   3.417  12.454 -0.7883  0.1244 -0.2552
  610TMC3     C 9041   2.406   3.456  12.731  0.5782  0.0975 -0.9570
  610TMC3     O 9042   2.357   3.567  12.736 -1.1533  0.3303 -0.2491
  610TMC3     H 9043   2.443   3.601  12.524 -0.8970  0.0064 -2.8723
  610TMC3    H1 9044   2.587   3.271  12.725 -0.3352  1.4688  0.7910
  610TMC3    H2 9045   2.809   3.409  12.388 -0.4713  4.2162 -0.3711
  610TMC3    C7 9046   2.785   3.200  12.570  0.3248  0.1608  1.4340
  610TMC3    C8 9047   2.638   3.628  12.357  0.5402 -0.6688 -0.1124
  610TMC3    O1 9048   2.761   3.129  12.667 -0.8415 -0.0875 -0.1106
  610TMC3    O2 9049   2.561   3.722  12.373  0.4614 -0.2950 -0.8092
  611MPD2     C 9050   2.102   3.059   9.800  1.0204 -0.0718 -0.0224
  611MPD2    C1 9051   2.094   3.170   9.880  0.1136 -0.0696 -0.0767
  611MPD2    C2 9052   2.206   3.247   9.890 -0.7337 -0.2624 -0.1215
  611MPD2    C3 9053   2.322   3.216   9.819  0.2573  0.1576  0.2253
  611MPD2    C4 9054   2.320   3.106   9.736  0.2461 -0.2813  0.7301
  611MPD2    C5 9055   2.211   3.026   9.729  0.7907  0.3440  0.2775
  611MPD2     H 9056   2.207   3.344   9.939 -3.3778 -0.8005  1.0032
  611MPD2    H1 9057   2.410   3.073   9.685  0.1739  0.6668 -0.0204
  611MPD2    H2 9058   2.016   2.992   9.809 -0.7737  1.8078 -3.4429
  611MPD2    H3 9059   2.218   2.934   9.672  0.5978  1.8920 -2.2671
  611MPD2     N 9060   2.443   3.289   9.816  0.7004 -0.3067 -0.9287
  611MPD2    H5 9061   2.516   3.265   9.750  0.3361 -0.4711 -1.2744
  611MPD2    N1 9062   1.978   3.191   9.955  0.1364 -0.2247  0.4971
  611MPD2    H7 9063   1.913   3.114   9.944 -0.3860 -0.2250  3.7352
  612TMC3    C1 9064   2.578   3.475   9.868  0.7418  0.2326 -0.2461
  612TMC3    C2 9065   2.643   3.544   9.969 -0.4215  0.4575 -0.2713
  612TMC3    C3 9066   2.768   3.598   9.948  0.2059 -0.5628 -1.0582
  612TMC3    C4 9067   2.634   3.471   9.742  0.1344 -0.0389 -0.2693
  612TMC3    C5 9068   2.757   3.530   9.720 -0.0334 -0.4074 -0.3249
  612TMC3    C6 9069   2.824   3.597   9.823  0.0129 -0.4874  0.1956
  612TMC3     C 9070   2.458   3.394   9.897 -0.2566 -0.4618  0.0709
  612TMC3     O 9071   2.397   3.436   9.993 -0.8154  0.7488  0.1586
  612TMC3     H 9072   2.594   3.551  10.065 -0.6922  2.3069 -0.5482
  612TMC3    H1 9073   2.587   3.412   9.664  0.5151 -1.6010  0.6826
  612TMC3    H2 9074   2.922   3.640   9.805  0.0509 -1.3080 -1.4869
  612TMC3    C7 9075   2.818   3.463   9.614 -0.2601  0.1108  0.4608
  612TMC3    C8 9076   2.837   3.681  10.042  0.1791 -0.6263  0.4090
  612TMC3    O1 9077   2.748   3.439   9.515  0.5838 -0.4329  0.0825
  612TMC3    O2 9078   2.908   3.767   9.985 -0.3637 -0.0588 -0.1754
  613MPD2     C 9079   0.939   1.450  16.805 -0.3158 -0.5440  0.0454
  613MPD2    C1 9080   0.915   1.443  16.669 -0.3500  0.1103  0.2874
  613MPD2    C2 9081   0.854   1.335  16.614 -0.7830  0.0189 -0.0067
  613MPD2    C3 9082   0.819   1.226  16.691 -0.3468  0.6464 -0.2970
  613MPD2    C4 9083   0.839   1.236  16.828 -0.9599  0.4987 -0.2025
  613MPD2    C5 9084   0.900   1.342  16.889  0.5970 -0.0205 -0.6030
  613MPD2     H 9085   0.875   1.312  16.510 -0.1866  2.1613 -0.3672
  613MPD2    H1 9086   0.801   1.156  16.892 -0.1051  2.6235  2.9483
  613MPD2    H2 9087   0.995   1.534  16.844 -0.3131 -0.4618 -0.1326
  613MPD2    H3 9088   0.907   1.350  16.997 -0.8424  0.8296 -0.5768
  613MPD2     N 9089   0.761   1.109  16.642  0.5557  0.1689 -0.0256
  613MPD2    H5 9090   0.759   1.022  16.693 -0.4880 -1.0074 -2.0864
  613MPD2    N1 9091   0.977   1.540  16.586 -0.1394 -0.5382  0.1329
  613MPD2    H7 9092   1.062   1.584  16.620 -0.7361  0.9725 -0.3182
  614TMC3    C1 9093   1.067   1.592  16.369 -0.4705  0.2378  0.5859
  614TMC3    C2 9094   1.145   1.478  16.367  0.0364  0.4365 -0.4096
  614TMC3    C3 9095   1.170   1.417  16.249 -0.1076 -0.0594 -0.9148
  614TMC3    C4 9096   1.037   1.656  16.252  0.0738 -0.2391  0.0562
  614TMC3    C5 9097   1.061   1.587  16.136  0.2145  0.0311 -0.6833
  614TMC3    C6 9098   1.121   1.464  16.133  0.6668 -0.1520 -0.3171
  614TMC3     C 9099   0.953   1.559  16.452  0.5861  0.0611 -0.1208
  614TMC3     O 9100   0.852   1.516  16.397  0.1620  0.2817  0.3227
  614TMC3     H 9101   1.163   1.439  16.466 -0.3261 -0.9215 -0.8821
  614TMC3    H1 9102   0.956   1.728  16.252  1.7897  1.6892  0.4638
  614TMC3    H2 9103   1.135   1.408  16.041 -0.5959 -2.0945  0.6805
  614TMC3    C7 9104   0.972   1.621  16.027 -0.1674  0.0510 -0.4093
  614TMC3    C8 9105   1.151   1.277  16.268 -0.2325  0.6663 -0.0092
  614TMC3    O1 9106   0.980   1.741  15.995 -0.4387 -0.1602  0.0464
  614TMC3    O2 9107   1.068   1.249  16.357 -0.0086 -0.1380 -0.4859
  615MPD2     C 9108   0.412   2.260  16.202 -0.3526  0.3237  0.5385
  615MPD2    C1 9109   0.358   2.346  16.115  0.7026 -0.4806  1.1910
  615MPD2    C2 9110   0.298   2.289  16.005  0.0030  0.6898 -0.3674
  615MPD2    C3 9111   0.300   2.153  15.986  0.0054 -0.1935  0.4777
  615MPD2    C4 9112   0.340   2.061  16.084 -0.1311 -0.0881 -0.3671
  615MPD2    C5 9113   0.395   2.122  16.192 -0.0242  0.3556  0.0905
  615MPD2     H 9114   0.264   2.352  15.924 -1.3715  1.6956  0.9786
  615MPD2    H1 9115   0.323   1.955  16.066  0.2899  0.3966 -3.6867
  615MPD2    H2 9116   0.465   2.289  16.291  2.9865 -0.4452 -1.1894
  615MPD2    H3 9117   0.431   2.054  16.269  0.1197 -1.1005 -1.2460
  615MPD2     N 9118   0.241   2.109  15.863 -0.4893  0.9604 -0.2062
  615MPD2    H5 9119   0.215   2.184  15.799  0.6004  1.8656  0.4205
  615MPD2    N1 9120   0.370   2.484  16.122  0.0555 -0.3757  0.0661
  615MPD2    H7 9121   0.319   2.537  16.052  2.8883  0.5142 -1.3415
  616TMC3    C1 9122   0.398   2.701  16.221 -0.0453  0.0264  0.1864
  616TMC3    C2 9123   0.468   2.782  16.301 -0.0487 -0.8798  0.4432
  616TMC3    C3 9124   0.434   2.914  16.310 -0.2831  0.1632  1.3625
  616TMC3    C4 9125   0.292   2.755  16.152 -0.4197 -0.1943 -0.2208
  616TMC3    C5 9126   0.257   2.888  16.158  0.3244  1.1117  0.2145
  616TMC3    C6 9127   0.329   2.969  16.241 -0.1945  0.3048 -0.0119
  616TMC3     C 9128   0.443   2.566  16.215 -0.1427 -0.4386 -0.1998
  616TMC3     O 9129   0.530   2.521  16.292 -0.2555  0.2293 -0.4177
  616TMC3     H 9130   0.552   2.747  16.360 -0.2748 -0.6998  0.8722
  616TMC3    H1 9131   0.245   2.693  16.076  0.1052 -0.8922  0.0285
  616TMC3    H2 9132   0.305   3.075  16.250 -1.2751  0.0564  0.0237
  616TMC3    C7 9133   0.175   2.954  16.051 -0.4321 -0.3068 -0.1394
  616TMC3    C8 9134   0.534   3.012  16.352 -0.1915  0.2518 -0.8253
  616TMC3    O1 9135   0.227   3.038  15.981 -0.4786 -0.1539  0.4715
  616TMC3    O2 9136   0.495   3.118  16.404 -0.2733 -0.5675 -0.1394
  617MPD2     C 9137   3.186   0.761  14.127 -0.4354 -0.5853  0.3577
  617MPD2    C1 9138   3.214   0.687  14.239 -0.1478 -0.2015 -0.7425
  617MPD2    C2 9139   3.135   0.578  14.263 -0.4428 -0.0884  0.0046
  617MPD2    C3 9140   3.025   0.554  14.184 -0.2314  0.8239  0.0098
  617MPD2    C4 9141   2.997   0.637  14.076  0.2511 -0.2342 -0.0270
  617MPD2    C5 9142   3.086   0.730  14.041 -0.2196  0.3547  0.4361
  617MPD2     H 9143   3.157   0.517  14.351 -3.0391  1.1450  1.5352
  617MPD2    H1 9144   2.904   0.634  14.022 -0.0872  1.4433  0.4421
  617MPD2    H2 9145   3.248   0.847  14.100 -1.4520 -0.1123 -0.4763
  617MPD2    H3 9146   3.078   0.787  13.949  0.9700  1.2501  0.8864
  617MPD2     N 9147   2.924   0.456  14.203 -0.1095 -0.4453  0.6081
  617MPD2    H5 9148   2.868   0.442  14.119  0.4408  1.8081 -0.1377
  617MPD2    N1 9149   3.336   0.717  14.302  0.0582 -0.2073  0.8667
  617MPD2    H7 9150   3.385   0.795  14.258 -1.3246  0.2449  0.1050
  618TMC3    C1 9151   3.517   0.685  14.454 -1.1894  0.4815  0.3068
  618TMC3    C2 9152   3.555   0.643  14.579 -0.2405  0.1411  0.1283
  618TMC3    C3 9153   3.686   0.606  14.594 -0.4559 -0.7992 -1.2415
  618TMC3    C4 9154   3.612   0.703  14.362 -0.0664  0.6990 -0.5768
  618TMC3    C5 9155   3.742   0.693  14.384  0.6435 -0.5635 -0.5234
  618TMC3    C6 9156   3.781   0.643  14.504 -0.1285 -0.1462  0.3885
  618TMC3     C 9157   3.381   0.662  14.422 -0.1080  0.1326 -0.2440
  618TMC3     O 9158   3.320   0.581  14.491  0.4937 -0.2544  0.4818
  618TMC3     H 9159   3.482   0.617  14.655  0.9016 -1.5605  0.6292
  618TMC3    H1 9160   3.582   0.714  14.258 -0.6804 -0.4406 -0.5253
  618TMC3    H2 9161   3.880   0.607  14.529  0.5971  1.5349 -0.1130
  618TMC3    C7 9162   3.827   0.655  14.271 -0.4950  0.4172 -0.8507
  618TMC3    C8 9163   3.690   0.464  14.625 -0.0020  0.0784  0.7773
  618TMC3    O1 9164   3.888   0.553  14.290 -0.2034  0.8153 -0.0228
  618TMC3    O2 9165   3.607   0.415  14.706  0.1059 -0.6333 -0.5511
  619MPD2     C 9166   4.555   1.782  13.521 -0.4067  0.1172  0.3853
  619MPD2    C1 9167   4.497   1.842  13.415  0.4350  0.5651 -0.0557
  619MPD2    C2 9168   4.363   1.811  13.388 -0.2578 -0.7847  0.4995
  619MPD2    C3 9169   4.292   1.718  13.461 -0.9903 -0.3763  0.3577
  619MPD2    C4 9170   4.347   1.660  13.574 -0.1020  0.4288  0.2293
  619MPD2    C5 9171   4.476   1.699  13.608 -0.4419  0.8509 -0.3214
  619MPD2     H 9172   4.320   1.857  13.300  0.2245  1.6674  1.5416
  619MPD2    H1 9173   4.299   1.580  13.629 -1.3166  0.2160 -1.1320
  619MPD2    H2 9174   4.657   1.808  13.546  0.0862 -0.6144 -0.8474
  619MPD2    H3 9175   4.535   1.660  13.689 -1.4718  1.2364  0.6175
  619MPD2     N 9176   4.160   1.683  13.436 -0.1382  0.3904 -0.6439
  619MPD2    H5 9177   4.116   1.631  13.510  1.6460  1.2722  1.0328
  619MPD2    N1 9178   4.569   1.928  13.332 -0.2796  0.5891  0.3985
  619MPD2    H7 9179   4.517   1.969  13.256 -1.8521 -0.3099  0.9882
  620TMC3    C1 9180   0.017   2.062  13.232  0.1489  0.2437  0.3895
  620TMC3    C2 9181   4.647   2.065  13.131 -0.0901 -0.1505 -0.3918
  620TMC3    C3 9182   4.642   2.175  13.050  0.2451 -0.7429  0.3090
  620TMC3    C4 9183   0.079   2.175  13.277 -0.0744  0.5892  0.0308
  620TMC3    C5 9184   0.061   2.294  13.209  0.7655 -0.3696 -0.8236
  620TMC3    C6 9185   4.700   2.291  13.099 -0.1114 -0.2490  0.3383
  620TMC3     C 9186   4.702   1.969  13.339  0.5253 -0.3117  0.3562
  620TMC3     O 9187   0.062   1.952  13.428 -0.3488  0.0643  0.6779
  620TMC3     H 9188   4.611   1.972  13.088 -0.7807  0.4124 -1.0498
  620TMC3    H1 9189   0.126   2.177  13.375 -1.3427  1.1401  0.6235
  620TMC3    H2 9190   4.695   2.385  13.045 -0.8424 -0.5146 -0.0644
  620TMC3    C7 9191   0.033   2.409  13.282 -0.1854  0.4122 -0.3640
  620TMC3    C8 9192   4.507   2.216  13.010  0.0003 -0.0676  0.5626
  620TMC3    O1 9193   0.122   2.468  13.346  0.2941  0.2880  0.4923
  620TMC3    O2 9194   4.483   2.321  13.067  0.2478 -0.6127 -0.3408
  621MPD2     C 9195   0.779   1.251  10.034  0.0314  0.3113 -0.3116
  621MPD2    C1 9196   0.674   1.338  10.064 -0.2913 -1.0730 -0.0750
  621MPD2    C2 9197   0.702   1.467  10.099 -0.5117  0.3339  0.1142
  621MPD2    C3 9198   0.834   1.514  10.075 -0.4723 -0.1236 -0.7022
  621MPD2    C4 9199   0.937   1.426  10.038  0.0247  0.2415 -0.7701
  621MPD2    C5 9200   0.909   1.299  10.014 -0.0234 -0.0373 -0.2928
  621MPD2     H 9201   0.618   1.531  10.122  1.1210  2.5441  0.0303
  621MPD2    H1 9202   1.041   1.456  10.028  0.4708 -0.1789  2.7595
  621MPD2    H2 9203   0.750   1.151  10.003  1.0910 -0.6734  1.9214
  621MPD2    H3 9204   0.987   1.232   9.981 -0.4274 -2.0065  2.7787
  621MPD2     N 9205   0.874   1.648  10.109 -0.1878  0.5941 -0.0373
  621MPD2    H5 9206   0.974   1.662  10.094 -0.1392 -0.6045 -0.8930
  621MPD2    N1 9207   0.544   1.274  10.058 -0.4177 -0.1802  0.3620
  621MPD2    H7 9208   0.534   1.182  10.017 -2.1599  0.6903 -1.1970
  622TMC3    C1 9209   0.313   1.235  10.109 -0.0692  0.0003 -0.8449
  622TMC3    C2 9210   0.191   1.279  10.150 -1.0388  0.1569  0.1884
  622TMC3    C3 9211   0.075   1.199  10.140 -0.7207 -0.5775  0.1175
  622TMC3    C4 9212   0.318   1.111  10.041 -0.3476  0.3173 -0.4802
  622TMC3    C5 9213   0.204   1.041  10.016 -0.3014 -0.2384 -0.2962
  622TMC3    C6 9214   0.083   1.079  10.072 -0.0340 -0.9287  0.4922
  622TMC3     C 9215   0.429   1.328  10.105 -0.1706  0.5225 -1.2753
  622TMC3     O 9216   0.416   1.432  10.166 -0.1574  0.0529 -0.8888
  622TMC3     H 9217   0.182   1.379  10.192 -0.0199  0.2238  0.2558
  622TMC3    H1 9218   0.407   1.077   9.989 -1.7003 -1.8442 -1.3480
  622TMC3    H2 9219   4.710   1.027  10.058  0.3247 -1.6300  0.6928
  622TMC3    C7 9220   0.226   0.905   9.959  0.1547  0.5287 -0.0749
  622TMC3    C8 9221   4.679   1.230  10.226  0.0448  0.4372  0.1361
  622TMC3    O1 9222   0.334   0.857   9.960  0.1797  0.1611  0.1493
  622TMC3    O2 9223   4.662   1.346  10.264 -0.0642 -0.7148 -0.4915
  623MPD2     C 9224   3.398   2.007  16.092 -0.2323  0.1814 -0.3886
  623MPD2    C1 9225   3.397   2.130  16.155  0.1433 -0.6270 -0.5013
  623MPD2    C2 9226   3.455   2.140  16.281 -0.5276 -0.4751  0.9985
  623MPD2    C3 9227   3.516   2.029  16.337 -0.3486  0.4614  0.2588
  623MPD2    C4 9228   3.517   1.906  16.275  0.5212  0.7260  0.5336
  623MPD2    C5 9229   3.463   1.897  16.150  0.1580 -0.3319  0.1155
  623MPD2     H 9230   3.464   2.231  16.340 -1.6284 -0.5392  1.2617
  623MPD2    H1 9231   3.543   1.813  16.325 -2.5948  0.7026  2.1034
  623MPD2    H2 9232   3.350   1.996  15.995 -1.1793  2.3595 -0.1725
  623MPD2    H3 9233   3.465   1.801  16.099  2.5799 -0.7864  1.0687
  623MPD2     N 9234   3.568   2.049  16.465 -0.2609  0.0449 -1.0321
  623MPD2    H5 9235   3.547   2.139  16.506  1.1079  0.6525 -1.6672
  623MPD2    N1 9236   3.325   2.238  16.091  0.3225 -0.1745  0.4631
  623MPD2    H7 9237   3.283   2.217  16.001 -0.3407  0.7651  0.5596
  624TMC3    C1 9238   3.896   2.211  16.624  0.1348  1.1655 -0.0804
  624TMC3    C2 9239   3.805   2.305  16.676 -0.3306 -0.2374 -0.3230
  624TMC3    C3 9240   3.679   2.260  16.708  0.1269 -0.5729  0.4078
  624TMC3    C4 9241   3.852   2.084  16.593  0.1093  0.4888  0.5777
  624TMC3    C5 9242   3.725   2.040  16.630  0.3370  0.6855  0.2330
  624TMC3    C6 9243   3.642   2.130  16.691 -0.0494  0.1287  0.3119
  624TMC3     C 9244   4.040   2.247  16.639  0.3840 -0.4598 -0.0746
  624TMC3     O 9245   4.072   2.327  16.727  0.8885 -0.0604  0.3195
  624TMC3     H 9246   3.844   2.404  16.697 -1.5292 -0.2486  1.9312
  624TMC3    H1 9247   3.922   2.012  16.554 -0.9439  1.0009 -2.2561
  624TMC3    H2 9248   3.548   2.094  16.731 -0.8949  0.6551 -1.2166
  624TMC3    C7 9249   3.657   1.970  16.527  0.1825  0.4460  1.2660
  624TMC3    C8 9250   3.566   2.344  16.675 -0.2262 -0.0968  0.3860
  624TMC3    O1 9251   3.714   1.868  16.486 -0.1830 -0.5331 -0.2846
  624TMC3    O2 9252   3.455   2.295  16.669  0.0409  0.0358 -0.4790
  625MPD2     C 9253   4.077   3.649   0.455  0.7118  0.5671 -0.0095
  625MPD2    C1 9254   4.053   3.715   0.579 -0.5240 -0.5923  0.2422
  625MPD2    C2 9255   4.065   3.634   0.696  0.6259 -0.4145 -0.2604
  625MPD2    C3 9256   4.078   3.499   0.686  0.1988  0.5631 -0.2463
  625MPD2    C4 9257   4.087   3.432   0.562 -0.1673  0.3536  0.9685
  625MPD2    C5 9258   4.091   3.511   0.453  0.2329 -0.4944 -0.5390
  625MPD2     H 9259   4.056   3.683   0.792 -0.9648  0.8593 -1.0517
  625MPD2    H1 9260   4.089   3.324   0.554 -0.8003  0.4728 -0.7805
  625MPD2    H2 9261   4.101   3.705   0.365  0.2089 -1.6532 -1.5182
  625MPD2    H3 9262   4.100   3.453   0.362 -0.5292  0.7632 -1.4069
  625MPD2     N 9263   4.084   3.436   0.811  0.7987  0.2347  0.5270
  625MPD2    H5 9264   4.049   3.489   0.890 -2.1225  0.3159 -0.8251
  625MPD2    N1 9265   4.054   3.858   0.583 -0.0955  0.0545 -0.0288
  625MPD2    H7 9266   4.047   3.905   0.672  0.9595  0.2359 -0.0403
  626TMC3    C1 9267   4.090   4.081   0.508 -0.1779 -0.2830 -0.2709
  626TMC3    C2 9268   4.053   4.168   0.411  0.0954 -0.0922  0.4240
  626TMC3    C3 9269   4.062   4.305   0.432 -0.8425 -0.4079 -0.0999
  626TMC3    C4 9270   4.151   4.122   0.623  0.5008 -0.8791  0.2838
  626TMC3    C5 9271   4.172   4.258   0.639  0.3082  0.2524 -0.0279
  626TMC3    C6 9272   4.118   4.350   0.548  0.1270  0.5517  0.1192
  626TMC3     C 9273   4.063   3.943   0.474  0.3881 -0.6230 -0.3641
  626TMC3     O 9274   4.026   3.918   0.362  0.1521 -0.2065  0.0120
  626TMC3     H 9275   4.010   4.134   0.318  3.1102  0.0149 -1.0032
  626TMC3    H1 9276   4.180   4.048   0.696 -1.8373 -1.1658  0.9169
  626TMC3    H2 9277   4.103   4.454   0.574 -0.5289  0.7229 -0.9602
  626TMC3    C7 9278   4.196   4.309   0.771  0.1834  0.6550 -0.6624
  626TMC3    C8 9279   4.002   4.398   0.337  0.6354  0.0320  1.1652
  626TMC3    O1 9280   4.265   4.242   0.847  0.6544 -0.2954 -0.6283
  626TMC3    O2 9281   3.939   4.344   0.253  0.5873 -0.4359  0.1295
  627MPD2     C 9282   3.150   3.474  14.570  0.2987  0.0683  0.1005
  627MPD2    C1 9283   3.058   3.571  14.543 -0.8468  0.5665 -0.9587
  627MPD2    C2 9284   2.933   3.534  14.494  0.1323  0.5492 -0.1915
  627MPD2    C3 9285   2.905   3.403  14.461 -0.2188  0.5658 -0.1378
  627MPD2    C4 9286   2.998   3.305  14.492  0.3938 -0.2619 -0.7877
  627MPD2    C5 9287   3.116   3.346  14.544 -0.0187 -0.6303  0.1081
  627MPD2     H 9288   2.858   3.609  14.470  0.1977  0.4410 -0.7362
  627MPD2    H1 9289   2.980   3.199  14.478 -0.3487 -0.5382  2.3747
  627MPD2    H2 9290   3.251   3.489  14.605 -0.0096 -1.6397  1.6888
  627MPD2    H3 9291   3.202   3.279  14.551  0.3747  0.0125  1.5167
  627MPD2     N 9292   2.775   3.369  14.419 -0.2390 -0.1662 -0.1738
  627MPD2    H5 9293   2.705   3.443  14.425  0.3069  0.5009 -1.7785
  627MPD2    N1 9294   3.093   3.710  14.550 -0.3971 -0.6719  0.1793
  627MPD2    H7 9295   3.035   3.774  14.497  1.2699 -1.1559 -2.2405
  628TMC3    C1 9296   3.239   3.896  14.576 -0.0471 -0.5434 -0.2767
  628TMC3    C2 9297   3.369   3.937  14.591 -0.8872  0.3764  0.1867
  628TMC3    C3 9298   3.395   4.072  14.602  0.2040 -0.3589  0.3089
  628TMC3    C4 9299   3.132   3.977  14.577  0.1478  0.7639  0.1706
  628TMC3    C5 9300   3.167   4.112  14.580  0.6753 -0.0728 -0.5769
  628TMC3    C6 9301   3.291   4.158  14.586 -0.1518 -0.2630 -0.3334
  628TMC3     C 9302   3.218   3.754  14.583  0.1796 -0.2735 -0.6314
  628TMC3     O 9303   3.314   3.698  14.628 -0.3198 -0.3941 -0.3420
  628TMC3     H 9304   3.453   3.872  14.573 -1.6440 -0.1028 -1.6912
  628TMC3    H1 9305   3.030   3.943  14.591  0.8817 -1.3848  0.2216
  628TMC3    H2 9306   3.323   4.262  14.589  1.1106 -0.5713 -3.3116
  628TMC3    C7 9307   3.067   4.211  14.562  0.4962  0.1281 -0.0149
  628TMC3    C8 9308   3.523   4.109  14.651  0.1555  0.7210  0.0577
  628TMC3    O1 9309   3.105   4.327  14.547  0.5017  0.6503  0.3805
  628TMC3    O2 9310   3.567   4.221  14.619 -0.2709  0.0764 -0.6174
  629MPD2     C 9311   1.008   3.203  16.279 -0.1092 -0.0494 -0.1526
  629MPD2    C1 9312   1.002   3.082  16.205 -0.1386 -0.0675  0.4341
  629MPD2    C2 9313   0.888   3.000  16.222  0.7046 -0.0697 -0.1662
  629MPD2    C3 9314   0.781   3.045  16.301 -0.4263  0.3659  0.2308
  629MPD2    C4 9315   0.794   3.159  16.372 -0.7519  1.0426  0.0425
  629MPD2    C5 9316   0.903   3.233  16.361 -0.0725  0.2674  0.1007
  629MPD2     H 9317   0.870   2.909  16.167 -1.8952  0.7334 -0.6432
  629MPD2    H1 9318   0.706   3.198  16.422 -0.4195  0.9551  0.6968
  629MPD2    H2 9319   1.090   3.275  16.274 -1.0608  1.2506  2.8503
  629MPD2    H3 9320   0.912   3.325  16.417  1.0403 -0.1038  0.5347
  629MPD2     N 9321   0.657   2.971  16.308 -0.3240  0.0939 -0.1609
  629MPD2    H5 9322   0.661   2.880  16.263  1.7209 -0.0934  0.4232
  629MPD2    N1 9323   1.111   3.053  16.120 -0.9670  0.1218  0.1340
  629MPD2    H7 9324   1.194   3.112  16.124 -0.8482 -0.0223 -0.1924
  630TMC3    C1 9325   1.265   2.922  16.023  0.2237  0.4601 -0.2885
  630TMC3    C2 9326   1.337   3.021  15.966 -0.9039  0.5311 -0.7842
  630TMC3    C3 9327   1.468   2.996  15.951 -0.3183  0.2939  0.5894
  630TMC3    C4 9328   1.317   2.804  16.060 -0.1180 -0.3559 -0.2622
  630TMC3    C5 9329   1.452   2.790  16.050 -0.9511 -0.6934  0.3603
  630TMC3    C6 9330   1.531   2.885  15.993  0.3370  1.1840  0.3315
  630TMC3     C 9331   1.128   2.931  16.053  0.1075  1.2009  0.1170
  630TMC3     O 9332   1.059   2.837  16.052 -0.4636  0.1800 -0.4331
  630TMC3     H 9333   1.285   3.102  15.916 -0.4843  0.5975 -1.1200
  630TMC3    H1 9334   1.257   2.751  16.133  1.7353 -1.1100  0.7337
  630TMC3    H2 9335   1.635   2.865  15.975  0.3582  2.2977 -0.8565
  630TMC3    C7 9336   1.514   2.729  16.171 -0.7054  0.2224  0.2129
  630TMC3    C8 9337   1.553   3.109  15.915 -0.2128 -0.2642  0.0552
  630TMC3    O1 9338   1.443   2.650  16.228 -0.3731 -0.5298 -0.0309
  630TMC3    O2 9339   1.634   3.084  15.827 -0.2456  0.3567 -0.0893
  631MPD2     C 9340   4.069   2.331  15.536 -0.7672  0.2441  0.0109
  631MPD2    C1 9341   4.149   2.334  15.427 -0.5002 -0.1273  0.5822
  631MPD2    C2 9342   4.276   2.269  15.424  0.3674  0.5111 -0.8550
  631MPD2    C3 9343   4.312   2.189  15.532  0.3723 -1.0066 -0.5520
  631MPD2    C4 9344   4.218   2.180  15.639  0.0763  0.2731 -0.4073
  631MPD2    C5 9345   4.102   2.251  15.639  0.3437  0.0577  0.0248
  631MPD2     H 9346   4.353   2.294  15.351  1.3828 -1.8522 -0.5945
  631MPD2    H1 9347   4.239   2.117  15.725 -2.5551  0.2976  0.2420
  631MPD2    H2 9348   3.976   2.386  15.545 -0.8136 -0.3805  3.4635
  631MPD2    H3 9349   4.027   2.238  15.717  0.7088 -3.3926 -0.2306
  631MPD2     N 9350   4.436   2.119  15.519 -0.7652  0.2384  0.4650
  631MPD2    H5 9351   4.487   2.135  15.432 -0.2095  1.2212  0.9797
  631MPD2    N1 9352   4.117   2.432  15.328  0.3709 -0.4849  0.4601
  631MPD2    H7 9353   4.032   2.484  15.349 -0.3356 -0.7693 -1.6700
  632TMC3    C1 9354   4.160   2.581  15.158 -0.7995 -0.0943  0.1907
  632TMC3    C2 9355   4.069   2.662  15.223 -0.2021  0.7726 -0.2607
  632TMC3    C3 9356   4.087   2.800  15.199  0.6331  0.8814 -0.4008
  632TMC3    C4 9357   4.269   2.625  15.096 -0.3128 -0.0975  0.0058
  632TMC3    C5 9358   4.281   2.756  15.075 -0.2739  0.1158 -0.3060
  632TMC3    C6 9359   4.192   2.843  15.121  0.8654 -0.6651 -0.4412
  632TMC3     C 9360   4.180   2.447  15.209 -0.2650 -0.5995 -0.9050
  632TMC3     O 9361   4.266   2.382  15.154  0.6155  0.0609  0.6866
  632TMC3     H 9362   3.985   2.628  15.282 -2.2009 -0.7313 -3.9582
  632TMC3    H1 9363   4.346   2.554  15.068  0.1869  0.3762  0.1741
  632TMC3    H2 9364   4.189   2.945  15.086 -0.7941 -0.0847  1.3874
  632TMC3    C7 9365   4.367   2.800  14.972  0.2134  0.4354  0.7585
  632TMC3    C8 9366   4.048   2.888  15.307  0.1617 -0.8120 -0.3373
  632TMC3    O1 9367   4.344   2.913  14.921 -0.7986  0.2088  0.0393
  632TMC3    O2 9368   3.942   2.855  15.362 -0.6423 -0.3130 -0.0773
  633MPD2     C 9369   4.226   0.734  17.579 -0.1634 -0.3849 -0.3204
  633MPD2    C1 9370   4.191   0.621  17.513  0.1298  0.4436  0.0783
  633MPD2    C2 9371   4.228   0.499  17.567  0.6942  0.7997  0.3930
  633MPD2    C3 9372   4.288   0.487   0.007  0.3732  0.5346  0.0734
  633MPD2    C4 9373   4.328   0.604   0.080 -0.1710  0.2912 -0.1560
  633MPD2    C5 9374   4.292   0.727   0.023  0.0725 -0.0053  0.3012
  633MPD2     H 9375   4.212   0.414  17.501 -1.3300  1.7532 -0.3281
  633MPD2    H1 9376   4.367   0.599   0.181  0.3631  1.5430 -0.3016
  633MPD2    H2 9377   4.198   0.835  17.552 -1.1170 -0.2773  1.0661
  633MPD2    H3 9378   4.327   0.818   0.070 -1.1469 -0.2447  1.6577
  633MPD2     N 9379   4.327   0.361   0.062  0.1032  0.6941 -0.0941
  633MPD2    H5 9380   4.395   0.362   0.138  0.0508  0.7569 -0.0479
  633MPD2    N1 9381   4.122   0.628  17.390  0.2275  0.1801  0.4736
  633MPD2    H7 9382   4.116   0.539  17.341 -0.9126  1.9715 -2.6781
  634TMC3    C1 9383   3.983   0.709  17.212  0.6933  0.5052  0.3512
  634TMC3    C2 9384   3.973   0.584  17.161 -0.0589 -0.2476  0.1697
  634TMC3    C3 9385   3.929   0.566  17.038  0.0897 -0.1223 -0.1791
  634TMC3    C4 9386   3.942   0.815  17.144  0.9531  0.1258  0.0423
  634TMC3    C5 9387   3.890   0.793  17.023  0.3475 -0.2001 -0.4412
  634TMC3    C6 9388   3.884   0.674  16.962  0.1829  1.0821 -0.0722
  634TMC3     C 9389   4.052   0.734  17.343 -0.1191  0.4096  0.4965
  634TMC3     O 9390   4.021   0.837  17.401 -0.1902 -0.4580  0.3477
  634TMC3     H 9391   3.994   0.499  17.224  1.2803 -0.0885 -0.0758
  634TMC3    H1 9392   3.959   0.909  17.194  1.3287  0.1939 -0.2175
  634TMC3    H2 9393   3.857   0.669  16.857 -4.0868  0.9110  1.0350
  634TMC3    C7 9394   3.856   0.908  16.943  0.3636  0.6508  0.4796
  634TMC3    C8 9395   3.930   0.431  16.984 -0.0626  0.1691 -0.4123
  634TMC3    O1 9396   3.838   0.898  16.825  0.2062  0.3059  0.6504
  634TMC3    O2 9397   4.002   0.350  17.039  0.2640  0.9913  0.1913
  635TMC3    C1 9398   0.328   2.298  17.210 -0.2400  0.0925 -0.7289
  635TMC3    C2 9399   0.401   2.370  17.310 -0.0948 -0.3298 -0.9053
  635TMC3    C3 9400   0.520   2.327  17.360 -0.1178 -0.5848  0.5865
  635TMC3    C4 9401   0.376   2.182  17.162  0.1824 -0.2493 -0.1731
  635TMC3    C5 9402   0.495   2.143  17.213 -0.2756 -0.1384 -0.1391
  635TMC3    C6 9403   0.569   2.212  17.310  0.8652 -0.0254  0.0502
  635TMC3     C 9404   0.197   2.340  17.174  0.2582  0.1305 -0.7283
  635TMC3     O 9405   0.141   2.400  17.265 -0.0491 -0.0970 -0.0199
  635TMC3     H 9406   0.372   2.474  17.328  3.2043  0.4210  0.0114
  635TMC3    H1 9407   0.309   2.119  17.106  1.5299 -1.4969 -0.3718
  635TMC3    H2 9408   0.667   2.187  17.348  0.9389 -0.9206 -0.7130
  635TMC3    C7 9409   0.544   2.009  17.176  0.7640 -0.6249  0.0139
  635TMC3    C8 9410   0.605   2.408  17.457 -0.2382  1.0603  0.0912
  635TMC3    O1 9411   0.654   1.985  17.230  0.4302  0.5422 -0.4061
  635TMC3    O2 9412   0.703   2.356  17.499 -0.2816  0.0460  0.7484
  636MPD2     C 9413   0.159   1.019  15.817  0.4727 -0.6309 -0.1245
  636MPD2    C1 9414   0.211   1.124  15.888  0.6917  0.2219 -0.4686
  636MPD2    C2 9415   0.314   1.105  15.972 -0.3913  0.0459  0.1216
  636MPD2    C3 9416   0.365   0.980  16.003  0.3349 -0.5105 -0.3682
  636MPD2    C4 9417   0.309   0.869  15.932  0.1892  0.2247  0.9567
  636MPD2    C5 9418   0.201   0.892  15.849  0.0996 -0.0944 -0.2571
  636MPD2     H 9419   0.363   1.198  15.999  0.3548 -0.4201  0.3585
  636MPD2    H1 9420   0.344   0.769  15.952 -0.0422 -0.5495 -2.4618
  636MPD2    H2 9421   0.077   1.030  15.748 -0.0916  3.2435  1.1699
  636MPD2    H3 9422   0.159   0.812  15.788 -0.5563  0.5984 -0.7177
  636MPD2     N 9423   0.457   0.975  16.112 -0.1151  0.2384 -0.0826
  636MPD2    H5 9424   0.486   1.062  16.155 -1.2464  1.4742 -1.8026
  636MPD2    N1 9425   0.179   1.259  15.870 -0.9081  0.3941  0.1148
  636MPD2    H7 9426   0.231   1.323  15.929  0.5103  0.9381 -1.7340
  637TMC3    C1 9427   0.608   0.874  16.265  0.1741  0.3330 -1.2555
  637TMC3    C2 9428   0.607   0.977  16.347 -0.4884 -0.0266 -0.3639
  637TMC3    C3 9429   0.681   0.974  16.462 -0.0344  0.2618  0.1206
  637TMC3    C4 9430   0.708   0.780  16.293  0.0686  0.3662  0.1428
  637TMC3    C5 9431   0.797   0.785  16.396  0.6113 -0.1404  0.1476
  637TMC3    C6 9432   0.771   0.880  16.495  0.0657  0.0458 -0.1700
  637TMC3     C 9433   0.516   0.858  16.152  0.3504 -0.8856  0.3354
  637TMC3     O 9434   0.512   0.745  16.107 -0.3594  0.9443 -0.4083
  637TMC3     H 9435   0.512   1.030  16.349  0.7031  1.9947  2.1850
  637TMC3    H1 9436   0.727   0.696  16.227  3.4175  1.1822  0.0553
  637TMC3    H2 9437   0.836   0.890  16.582  1.4924  0.2528 -1.2728
  637TMC3    C7 9438   0.934   0.769  16.357  0.3304 -0.6484 -0.0866
  637TMC3    C8 9439   0.708   1.102  16.513  0.4143  0.1197 -0.4272
  637TMC3    O1 9440   1.008   0.813  16.446 -0.0114 -0.3053 -0.0365
  637TMC3    O2 9441   0.676   1.191  16.440 -0.6698 -0.7281  0.0319
  638MPD2     C 9442   0.525   4.473  14.596 -0.0334 -0.1291  0.2884
  638MPD2    C1 9443   0.466   4.358  14.550  0.2241  0.5684  1.2233
  638MPD2    C2 9444   0.436   4.257  14.640 -0.9344 -0.0901  0.3685
  638MPD2    C3 9445   0.467   4.266  14.776 -0.0206 -0.1297  0.1536
  638MPD2    C4 9446   0.532   4.382  14.816 -0.3338  0.3085 -0.0786
  638MPD2    C5 9447   0.557   4.489  14.732  0.3462  0.5862  0.4178
  638MPD2     H 9448   0.388   4.165  14.608 -0.1929 -0.1575 -0.5499
  638MPD2    H1 9449   0.562   4.403  14.918  2.0482 -2.2307 -0.2487
  638MPD2    H2 9450   0.553   4.552  14.527 -1.2872  1.4100  1.5377
  638MPD2    H3 9451   0.595   4.584  14.766 -0.6198  0.2034  2.5269
  638MPD2     N 9452   0.435   4.155  14.861 -0.0376  0.6193 -0.0980
  638MPD2    H5 9453   0.382   4.081  14.816  1.3051 -0.1948 -0.3424
  638MPD2    N1 9454   0.445   4.336  14.410 -0.3392  0.5361 -0.6329
  638MPD2    H7 9455   0.495   4.400  14.350 -1.8831  0.8044 -1.6294
  639TMC3    C1 9456   0.411   4.034  15.069  0.0922 -0.0625 -0.3653
  639TMC3    C2 9457   0.286   4.006  15.039  0.2402  0.4612 -0.4813
  639TMC3    C3 9458   0.228   3.899  15.102  0.1420 -0.1391  0.5209
  639TMC3    C4 9459   0.489   3.965  15.154 -0.0251 -0.4605  0.8224
  639TMC3    C5 9460   0.430   3.854  15.215 -0.4733  0.0476 -0.1549
  639TMC3    C6 9461   0.300   3.814  15.189  0.1403 -0.1854  0.0283
  639TMC3     C 9462   0.473   4.140  14.991  0.4533 -0.7405  0.1742
  639TMC3     O 9463   0.562   4.209  15.042 -0.4762 -0.1565  0.1933
  639TMC3     H 9464   0.240   4.077  14.972  1.7516 -0.3019 -2.3119
  639TMC3    H1 9465   0.594   3.990  15.166  0.0642  0.3144 -1.6465
  639TMC3    H2 9466   0.265   3.716  15.219 -1.7907 -0.0036 -1.5894
  639TMC3    C7 9467   0.521   3.759  15.280  0.7655  0.3006 -0.4435
  639TMC3    C8 9468   0.117   3.837  15.034  0.3470 -0.5251  0.2384
  639TMC3    O1 9469   0.637   3.781  15.255 -0.4880 -0.4514  0.1889
  639TMC3    O2 9470   0.141   3.796  14.922  0.2545 -0.2916 -0.6454
  640MPD2     C 9471   0.925   2.619  10.473 -0.0030  0.6875 -0.1784
  640MPD2    C1 9472   0.932   2.699  10.360  0.2245 -0.0157  0.5569
  640MPD2    C2 9473   0.868   2.824  10.368 -0.3883  0.1782 -0.0389
  640MPD2    C3 9474   0.801   2.867  10.477 -1.2794 -0.4042 -0.2453
  640MPD2    C4 9475   0.800   2.791  10.592  0.5077  1.2786  0.5609
  640MPD2    C5 9476   0.862   2.668  10.584  0.2663  0.4331 -0.1981
  640MPD2     H 9477   0.854   2.886  10.280 -0.9787  0.1266  0.0147
  640MPD2    H1 9478   0.750   2.819  10.684 -1.5344 -2.5614  0.5909
  640MPD2    H2 9479   0.957   2.516  10.465  0.9942  0.9664  0.2092
  640MPD2    H3 9480   0.841   2.598  10.664  0.3192  1.5846  0.8221
  640MPD2     N 9481   0.725   2.987  10.484  0.0813 -0.2433 -0.0700
  640MPD2    H5 9482   0.662   2.999  10.563 -0.6843 -2.5479 -0.3209
  640MPD2    N1 9483   1.008   2.643  10.245 -0.1241  0.2208  1.1669
  640MPD2    H7 9484   1.052   2.552  10.258 -1.6816 -0.7384 -0.2689
  641TMC3    C1 9485   1.102   2.642  10.026  0.3907  0.0457 -0.0523
  641TMC3    C2 9486   1.153   2.521  10.050 -0.2353 -0.2097  0.0884
  641TMC3    C3 9487   1.252   2.476   9.966  0.1442  0.1910  0.2449
  641TMC3    C4 9488   1.149   2.732   9.928 -0.0875 -0.3040 -0.0171
  641TMC3    C5 9489   1.250   2.677   9.849  0.3189 -0.7445  0.3742
  641TMC3    C6 9490   1.296   2.551   9.860 -0.5290  0.7871 -0.0078
  641TMC3     C 9491   1.034   2.714  10.132  0.1591 -0.2711 -0.6689
  641TMC3     O 9492   0.991   2.831  10.112 -0.0833 -0.6339  0.0681
  641TMC3     H 9493   1.106   2.450  10.117  0.3919  0.2230  0.9847
  641TMC3    H1 9494   1.143   2.840   9.933  2.8770 -0.1194 -0.0700
  641TMC3    H2 9495   1.394   2.536   9.817 -0.3780  1.7493 -0.0084
  641TMC3    C7 9496   1.275   2.734   9.718 -0.8038  0.5722  0.1209
  641TMC3    C8 9497   1.312   2.353  10.003 -0.2644  0.4177 -0.1403
  641TMC3    O1 9498   1.385   2.705   9.665  0.0601  0.3564 -0.1840
  641TMC3    O2 9499   1.279   2.308  10.113 -0.4352 -0.0583  0.0334
  642TMC3    C1 9500   1.639   4.169  12.353  0.8287 -0.0408 -0.6058
  642TMC3    C2 9501   1.699   4.174  12.480  0.8345 -0.0634 -0.0490
  642TMC3    C3 9502   1.766   4.062  12.530 -0.1445  0.1526 -0.9643
  642TMC3    C4 9503   1.633   4.054  12.283  0.7016  0.0979 -0.1208
  642TMC3    C5 9504   1.691   3.942  12.338  0.1041 -0.5136 -0.4723
  642TMC3    C6 9505   1.762   3.943  12.457  0.1820  0.7354  0.0085
  642TMC3     C 9506   1.590   4.290  12.292  0.2955  0.3634 -0.4778
  642TMC3     O 9507   1.625   4.309  12.177  0.2119  0.5612  0.0295
  642TMC3     H 9508   1.714   4.272  12.523 -0.8052  0.2869 -0.3023
  642TMC3    H1 9509   1.577   4.045  12.190 -1.2826  2.5342  0.8298
  642TMC3    H2 9510   1.834   3.871  12.493  0.4399  0.1886 -1.5954
  642TMC3    C7 9511   1.679   3.816  12.271 -0.1666  0.9459 -0.2997
  642TMC3    C8 9512   1.818   4.061  12.663 -0.1230  0.0828  0.3012
  642TMC3    O1 9513   1.665   3.818  12.149  0.1889  0.1748 -0.5408
  642TMC3    O2 9514   1.837   3.954  12.713  0.1286 -0.1696 -0.7045
  643TMC3    C1 9515   1.170   3.640   0.551 -0.2805 -0.1007  0.4317
  643TMC3    C2 9516   1.053   3.682   0.500  0.3438 -0.0307  0.3828
  643TMC3    C3 9517   0.951   3.586   0.500 -0.7528  0.0667  0.0068
  643TMC3    C4 9518   1.196   3.510   0.571  0.0424 -0.3355  0.0528
  643TMC3    C5 9519   1.090   3.423   0.571  0.6031 -0.3081 -0.9664
  643TMC3    C6 9520   0.961   3.462   0.546 -0.1678  0.2192  0.2591
  643TMC3     C 9521   1.278   3.733   0.562 -0.0291 -0.5178  0.1309
  643TMC3     O 9522   1.245   3.849   0.524 -0.1832  0.3420  0.1266
  643TMC3     H 9523   1.026   3.787   0.501 -0.3795 -0.2034 -1.1141
  643TMC3    H1 9524   1.296   3.471   0.582 -0.5065 -1.2667  1.6396
  643TMC3    H2 9525   0.875   3.399   0.528  0.2402  0.2412 -1.8529
  643TMC3    C7 9526   1.112   3.277   0.605  0.1770  0.3784  0.4333
  643TMC3    C8 9527   0.863   3.605   0.389 -0.5475 -0.0088  0.2855
  643TMC3    O1 9528   1.168   3.251   0.713  0.1758  0.1147 -0.6312
  643TMC3    O2 9529   0.755   3.546   0.394  0.2763 -0.0182 -0.0552
  644MPD2     C 9530   1.052   3.654  10.154  0.2063 -0.2334  1.0325
  644MPD2    C1 9531   1.164   3.683  10.077  0.3527 -0.5407  0.0516
  644MPD2    C2 9532   1.201   3.815  10.048 -0.0122 -0.4665 -0.1196
  644MPD2    C3 9533   1.120   3.920  10.089 -0.2434 -0.0501 -0.3165
  644MPD2    C4 9534   1.011   3.895  10.163  0.1976  0.3210  0.3455
  644MPD2    C5 9535   0.976   3.761  10.198 -0.3539  0.2350 -0.3777
  644MPD2     H 9536   1.297   3.835  10.003  0.0133 -1.5097 -0.5224
  644MPD2    H1 9537   0.954   3.978  10.203  1.0449  0.9297  0.2975
  644MPD2    H2 9538   1.016   3.554  10.176 -2.6442  0.1786 -1.7039
  644MPD2    H3 9539   0.890   3.727  10.256  0.4998 -2.3525 -0.6515
  644MPD2     N 9540   1.168   4.051  10.061  0.5014  0.3337 -0.4847
  644MPD2    H5 9541   1.255   4.051  10.008  0.4702  1.7626 -0.5421
  644MPD2    N1 9542   1.231   3.570  10.030  0.2297 -0.3314 -0.2774
  644MPD2    H7 9543   1.178   3.484  10.039 -0.0391 -0.4440 -2.8953
  645TMC3    C1 9544   1.201   4.275  10.049  0.0605 -0.2233 -0.5882
  645TMC3    C2 9545   1.335   4.260  10.087 -1.0109  0.6048  0.1851
  645TMC3    C3 9546   1.426   4.335  10.023  0.7792  0.2621  0.5007
  645TMC3    C4 9547   1.167   4.367   9.958 -0.6528 -0.1550  0.4680
  645TMC3    C5 9548   1.265   4.442   9.898 -0.2235  0.5320 -0.8896
  645TMC3    C6 9549   1.399   4.427   9.933 -0.1954  0.7507  0.5531
  645TMC3     C 9550   1.109   4.168  10.083 -0.4063 -0.2590 -0.5130
  645TMC3     O 9551   0.989   4.190  10.107  0.5650  0.1733  0.1280
  645TMC3     H 9552   1.362   4.187  10.162  2.5189  2.5019  0.7583
  645TMC3    H1 9553   1.061   4.379   9.936 -0.3802  0.7899 -0.3467
  645TMC3    H2 9554   1.476   4.474   9.873  0.4292 -0.2866  0.5543
  645TMC3    C7 9555   1.227   4.518   9.782  0.3382 -0.1164 -0.7247
  645TMC3    C8 9556   1.568   4.302  10.057 -0.1908  0.3438  0.1993
  645TMC3    O1 9557   1.110   4.520   9.751  0.2503  0.4464 -0.5008
  645TMC3    O2 9558   1.587   4.196  10.121 -0.2732 -0.4353  0.8083
  646MPD2     C 9559   0.227   3.067  14.597 -0.3585  0.2678 -0.2092
  646MPD2    C1 9560   0.138   3.048  14.700 -0.2762  0.0391  0.6219
  646MPD2    C2 9561   0.010   3.089  14.684  0.0033  0.0587  0.6670
  646MPD2    C3 9562   4.699   3.174  14.578 -0.7878 -0.5839 -0.1883
  646MPD2    C4 9563   0.072   3.196  14.480  0.3052  0.3726  1.1949
  646MPD2    C5 9564   0.195   3.143  14.492  0.4742 -0.2353 -0.8290
  646MPD2     H 9565   4.648   3.071  14.752 -2.1015  0.3848 -1.7865
  646MPD2    H1 9566   0.061   3.266  14.397 -0.8524  0.2700  1.2616
  646MPD2    H2 9567   0.330   3.037  14.613 -0.7451  0.0707  1.9632
  646MPD2    H3 9568   0.266   3.162  14.412  2.3416 -2.9128  0.1999
  646MPD2     N 9569   4.570   3.233  14.576 -0.1272  0.5670 -0.3352
  646MPD2    H5 9570   4.505   3.209  14.651  1.0832  0.7545  0.7699
  646MPD2    N1 9571   0.171   2.962  14.805 -0.2198 -0.2069  0.2486
  646MPD2    H7 9572   0.256   2.908  14.791  0.2586  0.7717 -0.5759
  647TMC3    C1 9573   0.154   2.821  14.988  0.2864  0.1655 -0.3328
  647TMC3    C2 9574   0.127   2.804  15.119 -0.0371 -0.7091  0.3859
  647TMC3    C3 9575   0.161   2.692  15.188 -0.0762 -0.1965 -0.5749
  647TMC3    C4 9576   0.214   2.717  14.925  0.3096  0.9346  0.0443
  647TMC3    C5 9577   0.260   2.609  14.996 -0.0469  0.2214  0.4610
  647TMC3    C6 9578   0.230   2.588  15.130 -0.4080 -0.3015 -0.0142
  647TMC3     C 9579   0.093   2.935  14.918 -0.4304  0.0862 -0.6930
  647TMC3     O 9580   0.010   3.005  14.971 -0.0326  0.0078 -0.5876
  647TMC3     H 9581   0.082   2.883  15.179 -0.3627  0.7118 -1.7185
  647TMC3    H1 9582   0.229   2.718  14.818  0.0190  1.8248  0.0142
  647TMC3    H2 9583   0.258   2.496  15.180 -0.5797 -0.3747 -0.0535
  647TMC3    C7 9584   0.348   2.509  14.942 -0.6603 -0.4620 -0.2879
  647TMC3    C8 9585   0.140   2.694  15.338 -0.1051 -0.2025  0.3921
  647TMC3    O1 9586   0.382   2.409  15.006 -0.1160  0.0691  0.2479
  647TMC3    O2 9587   0.076   2.788  15.389 -0.0656  0.2235 -0.5013
  648TMC3    C1 9588   4.216   0.474  16.392 -0.1175  0.2454 -0.3114
  648TMC3    C2 9589   4.239   0.341  16.391 -0.2173 -0.5425  0.2336
  648TMC3    C3 9590   4.211   0.272  16.274 -0.7475  1.1811 -0.5244
  648TMC3    C4 9591   4.182   0.548  16.284 -0.4805 -0.4563  0.3006
  648TMC3    C5 9592   4.149   0.475  16.172 -0.5673  0.4429 -0.0142
  648TMC3    C6 9593   4.165   0.338  16.158  0.2901 -0.6369  0.4422
  648TMC3     C 9594   4.241   0.546  16.511 -0.2374 -0.5404  0.6066
  648TMC3     O 9595   4.233   0.671  16.501 -0.4231  0.1947 -0.0089
  648TMC3     H 9596   4.274   0.285  16.478  0.4078 -0.7693 -0.1658
  648TMC3    H1 9597   4.162   0.655  16.290  0.9222 -0.2169  0.6932
  648TMC3    H2 9598   4.138   0.284  16.068  2.1167 -0.8681  0.0378
  648TMC3    C7 9599   4.080   0.546  16.068  0.3370  0.0173  0.1840
  648TMC3    C8 9600   4.275   0.139  16.259  0.4869  0.8332  0.1158
  648TMC3    O1 9601   4.106   0.510  15.954 -0.2443 -0.3009  0.4318
  648TMC3    O2 9602   4.256   0.067  16.353 -0.2996  0.2735 -0.0694
  649TMC3    C1 9603   3.104   1.652  12.548  0.0733 -0.0942 -0.3521
  649TMC3    C2 9604   3.201   1.740  12.567  0.2741 -0.2086  0.9510
  649TMC3    C3 9605   3.292   1.713  12.667 -0.2445 -0.4994  0.3067
  649TMC3    C4 9606   3.087   1.535  12.611  0.5052  0.0932  0.1343
  649TMC3    C5 9607   3.172   1.513  12.707 -0.8883 -0.1293  0.1495
  649TMC3    C6 9608   3.281   1.592  12.734 -0.2087  0.2555 -0.2728
  649TMC3     C 9609   3.008   1.695  12.450 -0.0831 -0.2294 -0.0761
  649TMC3     O 9610   3.052   1.767  12.362  0.4284  0.3458  0.0103
  649TMC3     H 9611   3.191   1.841  12.528  1.3583  0.2699  1.8906
  649TMC3    H1 9612   2.996   1.477  12.605  0.3144  0.4284 -0.1814
  649TMC3    H2 9613   3.340   1.565  12.820  0.0031  2.8520  0.3878
  649TMC3    C7 9614   3.129   1.419  12.808  0.6053 -0.1095 -0.9920
  649TMC3    C8 9615   3.335   1.828  12.742 -1.0387 -0.3439 -0.1261
  649TMC3    O1 9616   3.157   1.453  12.921  0.0853 -0.1778  0.2849
  649TMC3    O2 9617   3.336   1.816  12.865 -0.0786  0.1824  0.2823
  650TMC3    C1 9618   1.205   3.630  13.062  0.8538 -0.6704  0.8027
  650TMC3    C2 9619   1.140   3.743  13.083  0.3644 -0.2380  0.1000
  650TMC3    C3 9620   1.007   3.759  13.049  0.1495  0.3502  0.1939
  650TMC3    C4 9621   1.141   3.519  12.998 -0.0515 -0.1778 -0.2006
  650TMC3    C5 9622   1.014   3.538  12.953 -0.2864  0.1617  0.7073
  650TMC3    C6 9623   0.944   3.653  12.988  0.0132  0.3256 -0.2002
  650TMC3     C 9624   1.347   3.646  13.029 -0.3534 -0.0648 -0.0599
  650TMC3     O 9625   1.408   3.753  13.030 -0.3055 -0.4493 -0.0619
  650TMC3     H 9626   1.191   3.833  13.117  0.2676 -0.0785 -0.1767
  650TMC3    H1 9627   1.178   3.421  12.972 -2.6826 -1.2244  0.0285
  650TMC3    H2 9628   0.840   3.671  12.963 -0.2219  0.6952  1.0117
  650TMC3    C7 9629   0.975   3.465  12.833 -0.1683  0.5983 -0.6946
  650TMC3    C8 9630   0.950   3.898  13.054 -0.9307  0.4002  0.4371
  650TMC3    O1 9631   1.038   3.364  12.801  0.2075  0.3495  0.1351
  650TMC3    O2 9632   1.035   3.985  13.048 -0.2407 -0.0900 -0.3682
  651MPD2     C 9633   0.068   0.818  10.380 -0.1171  0.1034 -0.8137
  651MPD2    C1 9634   0.099   0.920  10.473 -0.6441  0.3695  0.0067
  651MPD2    C2 9635   0.216   0.990  10.474 -0.3812  0.6080  0.0497
  651MPD2    C3 9636   0.310   0.961  10.379 -0.3961  0.1705  0.5055
  651MPD2    C4 9637   0.286   0.858  10.293 -0.1180  0.2580  0.4344
  651MPD2    C5 9638   0.168   0.789  10.291 -0.1641  0.1825  0.3303
  651MPD2     H 9639   0.239   1.068  10.545 -0.3823  1.0748 -0.4560
  651MPD2    H1 9640   0.356   0.819  10.220  1.1439 -1.8708  2.7714
  651MPD2    H2 9641   4.695   0.767  10.362  0.1759 -0.1430 -1.6355
  651MPD2    H3 9642   0.156   0.706  10.222  2.6056  0.1731 -0.1263
  651MPD2     N 9643   0.434   1.031  10.379  0.6305 -0.2316 -0.7714
  651MPD2    H5 9644   0.457   1.096  10.453 -0.3990 -0.9702  0.1881
  651MPD2    N1 9645   4.718   0.961  10.569 -0.6048 -0.1266  0.0207
  651MPD2    H7 9646   0.017   1.044  10.625 -1.4491  0.0031  0.1301
  652TMC3    C1 9647   0.883   1.049  10.317  0.3599  0.2556  0.6971
  652TMC3    C2 9648   0.765   1.003  10.275  0.1060  0.1518 -0.1398
  652TMC3    C3 9649   0.653   1.067  10.322  0.4110  0.3289  0.1028
  652TMC3    C4 9650   0.891   1.155  10.401 -0.3828  0.1033 -0.2105
  652TMC3    C5 9651   0.777   1.225  10.436 -0.8324  0.3456  0.3920
  652TMC3    C6 9652   0.656   1.183  10.392  0.3459  0.2516  0.4690
  652TMC3     C 9653   1.012   0.985  10.286 -0.8527  0.1690 -0.3478
  652TMC3     O 9654   1.036   0.947  10.171  0.2888 -0.4952 -0.1751
  652TMC3     H 9655   0.757   0.914  10.214 -0.1838  0.4255 -0.4960
  652TMC3    H1 9656   0.990   1.193  10.423 -0.0149 -0.3309 -1.1043
  652TMC3    H2 9657   0.567   1.245  10.398 -0.2415 -0.6113  0.7447
  652TMC3    C7 9658   0.779   1.306  10.558 -0.0358  0.1960  0.5970
  652TMC3    C8 9659   0.531   0.999  10.289  0.5405 -0.6259  0.2358
  652TMC3    O1 9660   0.672   1.316  10.619  1.0618 -0.3152 -0.8359
  652TMC3    O2 9661   0.534   0.916  10.202  0.0337  0.5814  0.1996
  653MPD2     C 9662   3.029   1.454  17.421  0.2657  0.4098  0.0196
  653MPD2    C1 9663   3.148   1.418  17.357 -0.0853  0.4053 -0.1349
  653MPD2    C2 9664   3.155   1.296  17.288 -0.2191  0.9252 -0.1199
  653MPD2    C3 9665   3.043   1.219  17.280 -0.9789 -0.0548 -0.2792
  653MPD2    C4 9666   2.920   1.257  17.335  0.6119 -0.5996 -0.0412
  653MPD2    C5 9667   2.919   1.375  17.412  0.1933 -0.0989  0.7767
  653MPD2     H 9668   3.242   1.274  17.228  0.5530 -2.5422  2.3006
  653MPD2    H1 9669   2.830   1.201  17.313  0.1604  0.0712  0.1054
  653MPD2    H2 9670   3.024   1.542  17.485 -1.4991 -1.7806  2.9239
  653MPD2    H3 9671   2.821   1.411  17.442 -0.4029  0.3820 -1.7516
  653MPD2     N 9672   3.028   1.105  17.200  0.2845  0.1541 -1.1423
  653MPD2    H5 9673   2.932   1.074  17.182  0.3892 -0.6912 -0.2035
  653MPD2    N1 9674   3.262   1.508  17.352  0.1815  0.6236 -0.1194
  653MPD2    H7 9675   3.346   1.475  17.306 -0.0505  3.4760 -2.5622
  654TMC3    C1 9676   3.077   0.936  17.052 -0.4779  0.2611  0.0690
  654TMC3    C2 9677   2.954   0.964  17.001 -0.2512  0.1781  0.0951
  654TMC3    C3 9678   2.909   0.863  16.926  0.2078  0.5683  0.6392
  654TMC3    C4 9679   3.149   0.822  17.026 -0.5803  0.7156  0.4634
  654TMC3    C5 9680   3.085   0.727  16.957 -0.2324  0.0212 -0.1552
  654TMC3    C6 9681   2.968   0.743  16.896 -0.0015  0.4977 -0.6245
  654TMC3     C 9682   3.130   1.035  17.143 -0.5421 -0.1585 -0.8748
  654TMC3     O 9683   3.249   1.034  17.169 -0.5972 -0.1537 -0.2108
  654TMC3     H 9684   2.901   1.059  16.999  0.5321  0.6616  1.5432
  654TMC3    H1 9685   3.242   0.802  17.078 -0.5693 -3.2469 -1.0263
  654TMC3    H2 9686   2.918   0.660  16.848  0.4797 -0.1393 -0.0329
  654TMC3    C7 9687   3.169   0.621  16.895  0.2177 -0.5633 -0.2553
  654TMC3    C8 9688   2.769   0.890  16.883 -0.2320  0.4792  0.3565
  654TMC3    O1 9689   3.134   0.583  16.787 -0.1462  0.4809 -0.7193
  654TMC3    O2 9690   2.700   0.961  16.952  0.7374  0.2133 -0.6610
  655MPD2     C 9691   0.003   0.716  15.601  0.0069  0.0323 -0.6602
  655MPD2    C1 9692   4.646   0.823  15.561  0.1732  0.4190  0.2462
  655MPD2    C2 9693   4.638   0.854  15.430  0.5189 -0.2215 -0.2778
  655MPD2    C3 9694   4.707   0.785  15.336  0.4637 -0.6987 -0.1345
  655MPD2    C4 9695   0.061   0.678  15.376  0.0980  0.8885 -0.0186
  655MPD2    C5 9696   0.073   0.645  15.510  0.6301 -0.1245  1.1536
  655MPD2     H 9697   4.560   0.922  15.396 -0.5660 -0.8694  0.9155
  655MPD2    H1 9698   0.107   0.617  15.300 -0.5638 -0.1278  0.3987
  655MPD2    H2 9699   0.004   0.673  15.700  0.1459  1.5662  0.0013
  655MPD2    H3 9700   0.135   0.561  15.540 -0.2533 -1.6563 -1.3249
  655MPD2     N 9701   4.693   0.801  15.198  0.2921 -0.1545 -0.1007
  655MPD2    H5 9702   0.015   0.728  15.141  0.4156  0.1648 -0.4188
  655MPD2    N1 9703   4.572   0.904  15.652 -1.4477 -0.0318 -0.2968
  655MPD2    H7 9704   4.521   0.978  15.605  0.7421  1.0476 -0.9575
  656TMC3    C1 9705   4.491   0.995  15.859 -0.5699 -0.1999  0.0230
  656TMC3    C2 9706   4.428   0.957  15.977 -0.0441 -0.5868  0.1278
  656TMC3    C3 9707   4.310   1.014  16.007  0.6484 -0.4673  0.1386
  656TMC3    C4 9708   4.444   1.100  15.788  0.0522  0.0444 -0.1329
  656TMC3    C5 9709   4.333   1.171  15.841  0.1544  0.5183  0.6014
  656TMC3    C6 9710   4.250   1.115  15.937  0.2974  0.3005  0.5079
  656TMC3     C 9711   4.558   0.884  15.790  0.4943 -0.6036  0.1751
  656TMC3     O 9712   4.593   0.785  15.855 -0.4435  0.2307  0.6567
  656TMC3     H 9713   4.473   0.884  16.043 -1.8528 -3.0066 -1.3253
  656TMC3    H1 9714   4.485   1.149  15.701  2.2344 -1.5741 -0.0072
  656TMC3    H2 9715   4.148   1.144  15.963  0.1691 -0.3416  0.7338
  656TMC3    C7 9716   4.292   1.292  15.776 -0.9462 -0.5290  0.4633
  656TMC3    C8 9717   4.243   0.967  16.129  0.4994  0.3861  0.1547
  656TMC3    O1 9718   4.381   1.340  15.709  0.2229  0.6456 -0.0306
  656TMC3    O2 9719   4.258   0.849  16.157 -0.1202 -0.3456 -0.0536
  657TMC3    C1 9720   3.878   4.542  15.098 -0.2076  0.8258  0.0727
  657TMC3    C2 9721   3.953   4.599  15.202  1.0045  0.0806 -0.0037
  657TMC3    C3 9722   3.885   4.655  15.319 -0.5108 -0.4752  0.8355
  657TMC3    C4 9723   3.748   4.507  15.118  0.5755  0.0401  0.0395
  657TMC3    C5 9724   3.689   4.552  15.232 -0.1594 -0.0369  0.0922
  657TMC3    C6 9725   3.754   4.632  15.330 -0.5538 -0.2000 -0.2513
  657TMC3     C 9726   3.950   4.455  15.006 -0.0508 -0.1269 -0.1158
  657TMC3     O 9727   3.910   4.342  14.986  0.0400 -0.7752  0.3392
  657TMC3     H 9728   4.056   4.627  15.187  1.7841 -2.3612  0.8230
  657TMC3    H1 9729   3.687   4.462  15.040 -3.0133  2.7004  1.2827
  657TMC3    H2 9730   3.692   4.676  15.408 -1.5258 -1.1079 -0.5093
  657TMC3    C7 9731   3.545   4.534  15.228  0.5817  0.0045 -0.0161
  657TMC3    C8 9732   3.957   4.697  15.441 -0.6127 -0.4114  0.3999
  657TMC3    O1 9733   3.493   4.435  15.188 -0.1652 -0.9119  0.3087
  657TMC3    O2 9734   3.904   0.041  15.528 -0.4007  0.4792  0.0081
  658MPD2     C 9735   0.406   0.701  14.687  0.1770  0.1559  0.0277
  658MPD2    C1 9736   0.289   0.757  14.651 -0.2868  0.2544  0.1631
  658MPD2    C2 9737   0.292   0.858  14.556  0.0940  0.3898  0.2626
  658MPD2    C3 9738   0.402   0.901  14.490 -0.1823  0.8179  0.8325
  658MPD2    C4 9739   0.514   0.829  14.515  0.0955  0.2020 -0.0864
  658MPD2    C5 9740   0.515   0.736  14.615 -0.2330  0.5667  0.1697
  658MPD2     H 9741   0.202   0.909  14.523 -1.2870 -2.2293 -0.0590
  658MPD2    H1 9742   0.611   0.858  14.476  0.0149  1.5381  0.7215
  658MPD2    H2 9743   0.413   0.619  14.757  0.0601  0.5806  0.5397
  658MPD2    H3 9744   0.608   0.680  14.623  0.3372  1.6489  1.0772
  658MPD2     N 9745   0.391   1.018  14.414  0.5478  0.2687 -0.2802
  658MPD2    H5 9746   0.307   1.074  14.410  0.6866  0.4198 -1.0196
  658MPD2    N1 9747   0.174   0.727  14.728  0.5936 -0.1182 -0.0865
  658MPD2    H7 9748   0.196   0.680  14.816  3.7137  0.6748 -0.4195
  659TMC3    C1 9749   4.680   0.758  14.794  0.2723 -0.0785  0.0846
  659TMC3    C2 9750   4.717   0.816  14.916 -0.3162  0.1690 -0.1928
  659TMC3    C3 9751   4.618   0.868  14.992 -0.2427  0.0249 -0.4944
  659TMC3    C4 9752   4.547   0.752  14.758 -0.1003  0.0558  0.1032
  659TMC3    C5 9753   4.454   0.802  14.839  0.6921 -0.9375  0.4548
  659TMC3    C6 9754   4.486   0.866  14.958 -0.2093  0.1607  0.4038
  659TMC3     C 9755   0.049   0.766  14.689  0.4689  0.3298 -0.1250
  659TMC3     O 9756   0.007   0.795  14.577 -0.2722 -0.0571  0.3912
  659TMC3     H 9757   0.098   0.815  14.952 -0.3274  0.5804 -0.1518
  659TMC3    H1 9758   4.523   0.711  14.661 -2.8764  0.6646  0.5473
  659TMC3    H2 9759   4.414   0.911  15.026 -0.4121  0.0439  0.2672
  659TMC3    C7 9760   4.312   0.753  14.838 -0.1379  0.3636  0.3139
  659TMC3    C8 9761   4.635   0.902  15.129 -0.6695  0.4242 -0.5217
  659TMC3    O1 9762   4.260   0.751  14.952  0.6540  0.3070 -0.5415
  659TMC3    O2 9763   4.575   1.005  15.166  0.3426 -0.0949  0.3782
  660MPD2     C 9764   3.198   4.138  12.729 -0.4324  0.5229  0.1229
  660MPD2    C1 9765   3.065   4.162  12.735  0.5165  0.5732 -0.2172
  660MPD2    C2 9766   2.988   4.084  12.820 -0.2871 -0.3405 -0.5923
  660MPD2    C3 9767   3.045   4.002  12.913 -0.2091  0.3849 -0.5343
  660MPD2    C4 9768   3.183   3.979  12.909  0.3350 -0.3798 -0.2880
  660MPD2    C5 9769   3.257   4.039  12.811 -0.0387  0.2182  0.0705
  660MPD2     H 9770   2.880   4.090  12.809 -0.4846 -2.4190  0.2470
  660MPD2    H1 9771   3.232   3.907  12.974  0.1290 -1.6255 -1.5019
  660MPD2    H2 9772   3.255   4.188  12.651 -1.6339 -0.6464 -1.5272
  660MPD2    H3 9773   3.363   4.024  12.798 -0.0832 -0.5734  0.6859
  660MPD2     N 9774   2.971   3.928  13.009  0.0282 -0.9118  0.3221
  660MPD2    H5 9775   3.019   3.872  13.079 -0.0473 -1.5190 -0.1119
  660MPD2    N1 9776   3.002   4.265  12.661 -0.5288  0.3525 -0.1565
  660MPD2    H7 9777   3.066   4.319  12.603 -0.3203  0.1251 -0.1387
  661TMC3    C1 9778   2.825   4.387  12.549  0.0571 -0.6112 -0.1749
  661TMC3    C2 9779   2.882   4.387  12.427  0.4484  0.3087 -0.5208
  661TMC3    C3 9780   2.826   4.424  12.311  0.2382  0.0364  0.1411
  661TMC3    C4 9781   2.696   4.433  12.568 -0.5024  0.2352 -1.0931
  661TMC3    C5 9782   2.637   4.451  12.447  1.1899  0.1071  0.0117
  661TMC3    C6 9783   2.695   4.472  12.321 -0.2831 -0.1297 -0.3475
  661TMC3     C 9784   2.873   4.306  12.663  0.6477  1.4535 -0.3991
  661TMC3     O 9785   2.782   4.261  12.735 -0.1760 -0.7170  0.3390
  661TMC3     H 9786   2.964   4.316  12.423 -0.9412 -1.2097 -1.8540
  661TMC3    H1 9787   2.635   4.420  12.656  0.2905  0.1847 -0.5597
  661TMC3    H2 9788   2.643   4.511  12.234 -1.2466 -2.7175 -0.9372
  661TMC3    C7 9789   2.499   4.444  12.465 -0.3092  0.0959 -0.1625
  661TMC3    C8 9790   2.908   4.446  12.192 -0.1694  0.1032 -0.3356
  661TMC3    O1 9791   2.433   4.467  12.571  0.0784 -0.2122 -0.3463
  661TMC3    O2 9792   3.012   4.383  12.175 -0.1069  0.0254  0.1338
  662MPD2     C 9793   3.115   3.509  17.486  0.2257 -0.3111  0.7168
  662MPD2    C1 9794   3.156   3.596  17.587 -0.1233 -1.0286  0.1708
  662MPD2    C2 9795   3.194   3.725  17.556  0.2345  0.2756 -0.0463
  662MPD2    C3 9796   3.194   3.781  17.428 -0.5413 -0.3795  0.3583
  662MPD2    C4 9797   3.135   3.699  17.340 -0.0067 -0.3208 -0.1163
  662MPD2    C5 9798   3.101   3.563  17.362 -0.5114  0.7888 -0.1584
  662MPD2     H 9799   3.228   3.782  17.642  1.7927 -4.1187  2.2422
  662MPD2    H1 9800   3.108   3.730  17.239  2.1682  1.5472 -0.1225
  662MPD2    H2 9801   3.085   3.407  17.507 -0.7723  0.3825  2.6134
  662MPD2    H3 9802   3.052   3.510  17.281  1.0036  0.6734 -1.0067
  662MPD2     N 9803   3.227   3.917  17.410 -0.7051  0.0118 -0.3859
  662MPD2    H5 9804   3.212   3.944  17.313  1.0647  2.4487  0.0226
  662MPD2    N1 9805   3.142   3.571   0.042  0.6961 -0.1901  0.4439
  662MPD2    H7 9806   3.192   3.629   0.109 -1.3110  2.5316 -0.4364
  663TMC3    C1 9807   3.082   3.439   0.237  0.4442  0.1742 -0.7827
  663TMC3    C2 9808   3.172   3.504   0.322 -0.1830  0.0891  0.2356
  663TMC3    C3 9809   3.183   3.478   0.454  0.3062 -0.0036 -0.0863
  663TMC3    C4 9810   3.011   3.336   0.288 -0.4070  0.5249  0.0495
  663TMC3    C5 9811   3.025   3.309   0.424  0.4754 -0.5040  0.4035
  663TMC3    C6 9812   3.129   3.360   0.495 -0.2965  0.3755  0.0087
  663TMC3     C 9813   3.079   3.459   0.096  0.5618  0.2063 -0.2405
  663TMC3     O 9814   3.005   3.376   0.036  0.4551  0.3354 -0.0334
  663TMC3     H 9815   3.231   3.588   0.287  1.3509 -1.4019 -0.7500
  663TMC3    H1 9816   2.924   3.301   0.235 -0.6212 -0.5136  1.0853
  663TMC3    H2 9817   3.151   3.329   0.597  1.5007  0.1452 -0.4347
  663TMC3    C7 9818   2.942   3.201   0.483 -0.0393 -0.2294  0.2737
  663TMC3    C8 9819   3.326   3.506   0.489  0.7209  0.0014 -0.1013
  663TMC3    O1 9820   2.957   3.180   0.604 -0.5178  0.3330 -0.2037
  663TMC3    O2 9821   3.390   3.400   0.493  0.2318 -0.1363  0.2299
  664MPD2     C 9822   1.308   2.462  17.368  0.1141 -0.3788  0.3648
  664MPD2    C1 9823   1.362   2.590  17.385 -0.0943 -0.7730 -0.2134
  664MPD2    C2 9824   1.403   2.624  17.516  0.5153 -0.2586  0.4111
  664MPD2    C3 9825   1.388   2.541  17.625  0.3323  0.1421 -0.0174
  664MPD2    C4 9826   1.342   2.413  17.603  0.2754 -0.1421 -0.2061
  664MPD2    C5 9827   1.306   2.375  17.472  0.8162  0.6310 -0.6468
  664MPD2     H 9828   1.439   2.724  17.539 -0.5060  0.4835 -1.2449
  664MPD2    H1 9829   1.342   2.336  17.679 -2.7781  0.6735  0.6441
  664MPD2    H2 9830   1.268   2.421  17.277  0.3800  1.5304 -0.6027
  664MPD2    H3 9831   1.282   2.272  17.449  0.3146  0.6496 -0.2294
  664MPD2     N 9832   1.434   2.588   0.066  0.2776  0.0746 -0.3747
  664MPD2    H5 9833   1.483   2.677   0.066 -0.2866  0.3839 -0.1053
  664MPD2    N1 9834   1.394   2.678  17.280 -0.3025  0.1458  0.2880
  664MPD2    H7 9835   1.428   2.768  17.310 -0.5923  0.0290  0.9685
  665TMC3    C1 9836   1.479   2.586   0.292  0.1474 -0.0321  0.4188
  665TMC3    C2 9837   1.443   2.537   0.409 -0.0532  0.4821 -0.1541
  665TMC3    C3 9838   1.493   2.585   0.521 -0.1867 -0.2412 -0.0948
  665TMC3    C4 9839   1.562   2.698   0.287  0.9847 -0.3933  0.2959
  665TMC3    C5 9840   1.608   2.746   0.402 -0.6827 -0.1682  0.1128
  665TMC3    C6 9841   1.579   2.695   0.523  0.1716 -0.4280  1.1687
  665TMC3     C 9842   1.411   2.518   0.184  0.8556 -0.3996  0.0243
  665TMC3     O 9843   1.338   2.424   0.204  0.3704 -0.4795  0.8216
  665TMC3     H 9844   1.364   2.463   0.415 -1.3658  1.9281  0.4473
  665TMC3    H1 9845   1.616   2.722   0.196  1.7644  0.1634  0.9057
  665TMC3    H2 9846   1.613   2.733   0.619 -0.1517  0.4627  0.9292
  665TMC3    C7 9847   1.692   2.868   0.399 -0.7796 -0.0123  0.6314
  665TMC3    C8 9848   1.471   2.513   0.642 -0.2904  0.2868 -0.6834
  665TMC3    O1 9849   1.770   2.888   0.307  0.3876  0.1195  0.2352
  665TMC3    O2 9850   1.485   2.570   0.751  0.5182  0.7707  0.1212
  666TMC3    C1 9851   0.885   1.879  10.127  0.0661 -0.2194  0.8463
  666TMC3    C2 9852   0.997   1.884  10.200 -0.0091  1.1341 -0.1127
  666TMC3    C3 9853   1.066   1.999  10.215 -0.4696 -0.5281  0.5035
  666TMC3    C4 9854   0.822   1.996  10.095 -0.0925 -0.1741  0.0612
  666TMC3    C5 9855   0.895   2.109  10.092  0.3941 -0.1933 -0.1908
  666TMC3    C6 9856   1.018   2.114  10.162  0.3705  0.6931  0.1970
  666TMC3     C 9857   0.801   1.758  10.135 -0.1736 -0.4647  0.1235
  666TMC3     O 9858   0.681   1.771  10.132 -0.4733 -0.5625  0.5878
  666TMC3     H 9859   1.027   1.806  10.268 -0.4226  0.3885 -0.7872
  666TMC3    H1 9860   0.730   1.993  10.038 -0.3102  0.6422  0.3782
  666TMC3    H2 9861   1.081   2.198  10.140  0.9336 -0.0018 -0.8363
  666TMC3    C7 9862   0.838   2.218  10.019  0.1402  0.4551  0.6238
  666TMC3    C8 9863   1.202   1.985  10.272  0.0920  0.3988 -0.5164
  666TMC3    O1 9864   0.717   2.238  10.024 -0.6926  0.4800 -0.0994
  666TMC3    O2 9865   1.243   1.870  10.303  0.3138 -0.1966  0.1808
  667MPD2     C 9866   1.862   1.783  14.391 -0.5584  0.2411  0.4779
  667MPD2    C1 9867   1.758   1.828  14.469 -0.4410 -0.4854 -0.2428
  667MPD2    C2 9868   1.626   1.792  14.427  0.0794 -0.4168  0.2773
  667MPD2    C3 9869   1.599   1.725  14.307  0.5479  0.4797 -1.0153
  667MPD2    C4 9870   1.715   1.689  14.239  0.0854 -0.3249  0.0365
  667MPD2    C5 9871   1.842   1.724  14.273 -0.4431 -0.9168 -0.0371
  667MPD2     H 9872   1.550   1.828  14.496  2.9541  0.2073  3.1394
  667MPD2    H1 9873   1.702   1.642  14.143 -0.4823  4.2428 -2.1448
  667MPD2    H2 9874   1.967   1.790  14.416 -0.1034 -0.2804 -1.3002
  667MPD2    H3 9875   1.921   1.668  14.224 -0.4286 -0.7392 -0.2144
  667MPD2     N 9876   1.470   1.700  14.246 -0.0062  0.1187 -0.1930
  667MPD2    H5 9877   1.470   1.665  14.151 -0.4249 -0.5332  0.0472
  667MPD2    N1 9878   1.778   1.910  14.583  0.0377 -0.1614  0.0965
  667MPD2    H7 9879   1.693   1.924  14.638 -1.2655 -0.1490 -1.9285
  668TMC3    C1 9880   1.876   2.052  14.742 -0.2699  0.1532  0.4088
  668TMC3    C2 9881   1.969   2.156  14.747 -0.2739  0.1555  0.1178
  668TMC3    C3 9882   1.954   2.248  14.846 -0.5182  0.1809  0.3948
  668TMC3    C4 9883   1.768   2.054  14.822 -0.1382 -0.3481  0.0158
  668TMC3    C5 9884   1.760   2.147  14.926  0.4623 -0.3950 -0.5223
  668TMC3    C6 9885   1.847   2.251  14.933  0.3996 -0.0811  0.3642
  668TMC3     C 9886   1.893   1.977  14.619 -0.2439 -0.3823  0.0098
  668TMC3     O 9887   1.996   1.982  14.545  0.3282 -0.2654 -0.0886
  668TMC3     H 9888   2.047   2.161  14.672 -1.0662 -0.4455 -0.7531
  668TMC3    H1 9889   1.700   1.970  14.819 -1.8323  0.9271  2.4064
  668TMC3    H2 9890   1.841   2.329  15.007  2.9637  1.6424 -1.2078
  668TMC3    C7 9891   1.651   2.148  15.022  0.1854  0.1409 -0.6047
  668TMC3    C8 9892   2.016   2.375  14.836 -0.2777  0.2035  0.2909
  668TMC3    O1 9893   1.644   2.244  15.097 -0.2043 -0.3106 -0.4361
  668TMC3    O2 9894   1.960   2.465  14.895 -0.0643  0.0140 -0.0641
  669TMC3    C1 9895   0.115   2.231  14.102  0.2442 -0.0670 -0.3440
  669TMC3    C2 9896   4.714   2.255  14.044  0.5414 -0.3278  1.3205
  669TMC3    C3 9897   4.695   2.361  13.965 -0.4329 -0.2612  0.4343
  669TMC3    C4 9898   0.216   2.320  14.082  0.0354 -0.2809 -0.5696
  669TMC3    C5 9899   0.203   2.406  13.983  0.1471 -0.0920 -0.6096
  669TMC3    C6 9900   0.081   2.441  13.929  0.1907 -0.2464  0.5721
  669TMC3     C 9901   0.110   2.157  14.224 -0.6287  0.8877 -0.6822
  669TMC3     O 9902   4.719   2.109  14.251  0.5316 -0.1093  0.4496
  669TMC3     H 9903   4.626   2.202  14.078 -0.9457  1.5337  0.4039
  669TMC3    H1 9904   0.313   2.293  14.122 -1.3190 -2.5479  1.1990
  669TMC3    H2 9905   0.062   2.524  13.862 -0.4392 -0.8215  0.0410
  669TMC3    C7 9906   0.312   2.488  13.959  0.5552 -0.6966  0.0707
  669TMC3    C8 9907   4.571   2.389  13.903 -0.4327  0.2288 -0.3328
  669TMC3    O1 9908   0.404   2.482  14.044  0.0103 -0.3598 -0.2136
  669TMC3    O2 9909   4.497   2.291  13.904  0.2610 -0.2599  0.4790
  670MPD2     C 9910   3.494   4.696  13.511 -0.6399 -0.4087 -0.0448
  670MPD2    C1 9911   3.556   4.716  13.633  0.0512  0.2388  0.1419
  670MPD2    C2 9912   3.498   4.680  13.753 -0.1599  0.2430  0.0931
  670MPD2    C3 9913   3.369   4.622  13.746  0.0649  0.2830 -0.0091
  670MPD2    C4 9914   3.312   4.598  13.623  0.0414 -0.0864  0.0938
  670MPD2    C5 9915   3.375   4.629  13.506  0.5350  0.1894  0.6415
  670MPD2     H 9916   3.543   4.704  13.848 -1.3562  0.0620  0.7032
  670MPD2    H1 9917   3.214   4.553  13.613  0.3444 -1.1830  2.1228
  670MPD2    H2 9918   3.534   0.002  13.414 -1.1304 -0.6099 -0.3013
  670MPD2    H3 9919   3.324   4.613  13.412 -1.3220  2.1742  1.3263
  670MPD2     N 9920   3.298   4.590  13.862 -0.0560  0.0258 -0.0856
  670MPD2    H5 9921   3.342   4.620  13.948  0.1869  2.0054 -0.9000
  670MPD2    N1 9922   3.676   0.059  13.647 -0.2269 -0.0309  0.0112
  670MPD2    H7 9923   3.706   0.087  13.740  3.3040 -2.0541 -0.4891
  671TMC3    C1 9924   3.134   4.530  14.011 -0.0098 -0.2871  0.6906
  671TMC3    C2 9925   3.220   4.447  14.075  0.1593 -0.5801  0.8760
  671TMC3    C3 9926   3.164   4.383  14.181  0.5061 -0.2821  1.3044
  671TMC3    C4 9927   3.010   4.543  14.045  0.0774  0.5303 -0.4958
  671TMC3    C5 9928   2.959   4.480  14.154  0.2872 -0.3068  0.2690
  671TMC3    C6 9929   3.039   4.407  14.230  0.5364 -0.2359  0.6065
  671TMC3     C 9930   3.169   4.552  13.870  0.2946  0.5661  0.7996
  671TMC3     O 9931   3.078   4.554  13.788 -0.2725 -0.3182 -0.4027
  671TMC3     H 9932   3.309   4.407  14.029 -0.4713 -0.2939 -0.6130
  671TMC3    H1 9933   2.957   4.607  13.975 -0.9771  0.8765  0.6144
  671TMC3    H2 9934   3.011   4.368  14.328  0.5797  1.2855  1.2327
  671TMC3    C7 9935   2.823   4.426  14.135 -0.3371 -0.4447 -0.0200
  671TMC3    C8 9936   3.201   4.243  14.204  0.0426  0.3396 -0.1913
  671TMC3    O1 9937   2.760   4.476  14.041 -0.1433  0.1123 -0.4105
  671TMC3    O2 9938   3.107   4.166  14.212 -0.0923 -0.0718  0.0357
  672MPD2     C 9939   3.086   0.686   0.857  0.0877  0.0306 -0.1819
  672MPD2    C1 9940   3.215   0.697   0.811  0.3437  0.1388 -0.3554
  672MPD2    C2 9941   3.310   0.756   0.895  0.4507  0.6651 -0.0045
  672MPD2    C3 9942   3.269   0.812   1.009 -0.6387 -0.2650  0.2931
  672MPD2    C4 9943   3.137   0.794   1.054  0.5968  0.7027  0.8234
  672MPD2    C5 9944   3.043   0.736   0.975 -0.3003 -0.5063 -0.2207
  672MPD2     H 9945   3.414   0.762   0.864  1.0195 -0.3698  1.7060
  672MPD2    H1 9946   3.106   0.837   1.149  1.8600 -2.2847  2.6012
  672MPD2    H2 9947   2.999   0.638   0.814 -1.1760  0.2716  2.1105
  672MPD2    H3 9948   2.939   0.723   1.001 -0.1811 -0.7971  0.1126
  672MPD2     N 9949   3.357   0.896   1.080 -0.3076  0.0779  0.1320
  672MPD2    H5 9950   3.314   0.948   1.156  0.0539  1.0104 -0.3028
  672MPD2    N1 9951   3.262   0.642   0.694 -0.2092  0.9104  0.0650
  672MPD2    H7 9952   3.357   0.662   0.666 -0.0134 -1.0031 -0.6647
  673TMC3    C1 9953   3.264   0.589   0.467  0.9217  0.5751 -1.1018
  673TMC3    C2 9954   3.398   0.564   0.476  0.1085  0.4090  0.0777
  673TMC3    C3 9955   3.477   0.553   0.362 -0.4626  0.6098 -0.2563
  673TMC3    C4 9956   3.208   0.625   0.349 -0.4965  0.4857  0.2298
  673TMC3    C5 9957   3.292   0.633   0.237  0.0088 -0.1678 -0.6770
  673TMC3    C6 9958   3.419   0.586   0.240 -0.3159  0.3456 -0.5522
  673TMC3     C 9959   3.187   0.609   0.582 -0.0112 -0.0578  0.4103
  673TMC3     O 9960   3.066   0.603   0.566 -0.3039  0.3916  0.3209
  673TMC3     H 9961   3.446   0.523   0.564 -0.9808 -1.9405 -0.4095
  673TMC3    H1 9962   3.102   0.646   0.343 -0.3172  1.6153  1.1900
  673TMC3    H2 9963   3.488   0.576   0.157  1.0121  0.6956  0.5054
  673TMC3    C7 9964   3.243   0.656   0.105 -0.4160  0.0416 -0.9420
  673TMC3    C8 9965   3.554   0.436   0.352 -0.2447  0.3187 -0.3745
  673TMC3    O1 9966   3.327   0.638   0.018  0.3216 -0.0506 -0.0062
  673TMC3    O2 9967   3.530   0.357   0.260  0.5604 -0.0862 -0.4781
  674MPD2     C 9968   3.027   0.360  17.152 -0.6670 -0.2556  0.2170
  674MPD2    C1 9969   3.067   0.272  17.251  0.1078 -0.5913 -1.3864
  674MPD2    C2 9970   3.009   0.264  17.377 -0.0250  0.4861 -0.1814
  674MPD2    C3 9971   2.908   0.349  17.411  0.7851  0.3216  0.0515
  674MPD2    C4 9972   2.857   0.437  17.317  0.3330  0.6864 -0.2134
  674MPD2    C5 9973   2.911   0.436  17.185 -0.2793 -0.8769  0.1762
  674MPD2     H 9974   3.044   0.191  17.449 -0.1445 -0.0400 -0.6566
  674MPD2    H1 9975   2.783   0.516  17.327  0.0517  0.5888 -1.5464
  674MPD2    H2 9976   3.070   0.368  17.053  0.0756  1.8690  0.6965
  674MPD2    H3 9977   2.865   0.503  17.114 -0.3101 -0.2515  0.7914
  674MPD2     N 9978   2.870   0.349  17.546  0.1431 -0.0871  0.4606
  674MPD2    H5 9979   2.926   0.295  17.612 -0.6019  0.6357  1.6817
  674MPD2    N1 9980   3.171   0.189  17.214 -0.4868  0.4291  0.3938
  674MPD2    H7 9981   3.177   0.180  17.113 -1.2174  2.2677  0.1857
  675TMC3    C1 9982   3.289   0.175  17.424 -0.4275 -0.1349 -0.1839
  675TMC3    C2 9983   3.308   0.085  17.523  0.3001 -0.1993 -0.2238
  675TMC3    C3 9984   3.339   0.134  17.649  0.0403 -0.2888  0.4778
  675TMC3    C4 9985   3.331   0.301  17.435 -0.0938 -0.3236 -0.2900
  675TMC3    C5 9986   3.376   0.344  17.559  0.5100  0.6843 -0.1932
  675TMC3    C6 9987   3.379   0.264  17.665  0.2767  0.3170 -0.8080
  675TMC3     C 9988   3.244   0.113  17.299 -0.2254  0.3117 -0.2977
  675TMC3     O 9989   3.298   0.006  17.272 -0.5210 -0.0727 -0.2845
  675TMC3     H 9990   3.291   4.701  17.501  1.0357 -0.8194  2.1461
  675TMC3    H1 9991   3.328   0.363  17.346  0.3744 -1.0888 -0.8348
  675TMC3    H2 9992   3.396   0.292   0.083 -1.4091 -0.9592 -0.1928
  675TMC3    C7 9993   3.475   0.442  17.547 -0.0853 -0.0274 -0.1330
  675TMC3    C8 9994   3.399   0.035   0.052  0.0299  0.2525 -0.0972
  675TMC3    O1 9995   3.478   0.502  17.437  0.0548 -0.4681  0.2183
  675TMC3    O2 9996   3.444   4.654  17.681 -0.9534 -0.3537 -0.0066
  676MPD2     C 9997   1.057   3.442  11.256 -0.1316  0.5955 -0.3010
  676MPD2    C1 9998   1.007   3.330  11.314 -0.1723 -0.0967 -0.4900
  676MPD2    C2 9999   0.998   3.211  11.250  0.0920 -0.1865 -0.4703
  676MPD2    C310000   1.053   3.199  11.120  0.0659  0.5690 -0.0335
  676MPD2    C410001   1.114   3.308  11.065  0.3749  0.2635 -0.3996
  676MPD2    C510002   1.102   3.431  11.126  0.1774  0.5524 -0.3408
  676MPD2     H10003   0.959   3.128  11.308  2.6016 -1.6388 -0.8673
  676MPD2    H110004   1.151   3.304  10.964  1.6490 -0.6557  0.1009
  676MPD2    H210005   1.045   3.543  11.295 -1.0651 -0.1917  1.4687
  676MPD2    H310006   1.127   3.526  11.078 -0.0503  0.1390 -1.2740
  676MPD2     N10007   1.050   3.075  11.050 -0.5892 -0.2577  0.6084
  676MPD2    H510008   1.099   3.080  10.961 -1.1810  1.7920  0.4057
  676MPD2    N110009   0.961   3.328  11.451 -0.0952 -0.1443 -0.1682
  676MPD2    H710010   0.920   3.239  11.479  0.8142 -0.1796  1.0274
  677TMC3    C110011   0.901   3.397  11.665  0.4918  0.7161 -0.1128
  677TMC3    C210012   0.788   3.324  11.660 -0.1502 -0.6030  0.7771
  677TMC3    C310013   0.742   3.279  11.779 -0.2781 -0.5036  0.2603
  677TMC3    C410014   0.964   3.425  11.785  0.0393 -0.0382 -0.1929
  677TMC3    C510015   0.913   3.382  11.901  0.2574  0.4149 -0.1779
  677TMC3    C610016   0.802   3.301  11.897 -0.7069 -0.0846  0.9344
  677TMC3     C10017   0.971   3.432  11.543 -0.5119 -0.2025 -0.1770
  677TMC3     O10018   1.031   3.539  11.541 -0.0760 -0.7441  0.0610
  677TMC3     H10019   0.740   3.305  11.564 -2.0084 -0.8914  1.7775
  677TMC3    H110020   1.057   3.479  11.774  0.2122 -0.7139 -2.0117
  677TMC3    H210021   0.758   3.259  11.987  0.1409 -1.6670  0.6056
  677TMC3    C710022   0.995   3.379  12.020 -0.6162 -0.2733  0.6798
  677TMC3    C810023   0.642   3.173  11.772 -0.0604 -0.9591 -0.2167
  677TMC3    O110024   0.960   3.311  12.113 -0.7354  0.5186 -0.2219
  677TMC3    O210025   0.544   3.204  11.709 -0.2595  0.3769  0.1028
  678MPD2     C10026   2.795   3.899   1.588  0.1228 -0.4990  0.4669
  678MPD2    C110027   2.857   3.794   1.520 -0.2689  0.2493 -0.1078
  678MPD2    C210028   2.785   3.686   1.467 -0.1219  0.1791 -0.6421
  678MPD2    C310029   2.646   3.696   1.471  0.5556 -0.1984  0.1181
  678MPD2    C410030   2.587   3.798   1.548  0.7294 -0.2497  0.4215
  678MPD2    C510031   2.656   3.912   1.588  0.5488  0.1612  0.7051
  678MPD2     H10032   2.838   3.600   1.428 -1.2482 -0.6000 -0.4812
  678MPD2    H110033   2.480   3.811   1.558  1.1015  0.1563  4.0925
  678MPD2    H210034   2.848   3.982   1.634  1.6153 -1.9604  1.4045
  678MPD2    H310035   2.612   4.000   1.632  1.0153  0.4956  0.5026
  678MPD2     N10036   2.561   3.595   1.419 -0.3828 -0.4774  0.3599
  678MPD2    H510037   2.600   3.536   1.347 -1.3066 -0.1908 -0.3761
  678MPD2    N110038   2.996   3.807   1.494 -0.4379  0.1305 -0.6736
  678MPD2    H710039   3.031   3.737   1.430 -1.2488  0.5034 -1.5195
  679TMC3    C110040   3.360   3.681   1.432  0.1427 -0.0510 -0.4769
  679TMC3    C210041   3.239   3.717   1.467 -0.1836 -0.1120  0.2339
  679TMC3    C310042   3.220   3.834   1.518  0.3545  0.2688  0.4940
  679TMC3    C410043   3.473   3.764   1.441  0.1905 -0.4939  0.4603
  679TMC3    C510044   3.447   3.883   1.506 -0.3442 -0.2842  0.4569
  679TMC3    C610045   3.329   3.917   1.546  0.1762  0.1676  0.6786
  679TMC3     C10046   3.358   3.582   1.335 -0.0001  0.0937 -0.0115
  679TMC3     O10047   3.269   3.495   1.339  0.3928  0.3395 -0.6713
  679TMC3     H10048   3.158   3.644   1.463  0.7397 -1.1380  0.3103
  679TMC3    H110049   3.565   3.736   1.390  0.8514  1.2164  0.7032
  679TMC3    H210050   3.315   4.016   1.589 -1.6009 -0.0669  0.6264
  679TMC3    C710051   3.531   3.989   1.460 -0.7673 -0.2138 -0.6956
  679TMC3    C810052   3.088   3.887   1.555 -0.0238  0.4570  0.2062
  679TMC3    O110053   3.487   4.104   1.469 -0.2968 -0.6561  0.5350
  679TMC3    O210054   3.087   3.991   1.623  0.2129  0.3676 -0.0699
  680MPD2     C10055   2.532   1.918  13.391  0.5775 -0.2803 -0.4280
  680MPD2    C110056   2.611   1.847  13.477  0.2052  0.3788  0.4236
  680MPD2    C210057   2.696   1.920  13.561 -0.2959 -0.4169  0.2974
  680MPD2    C310058   2.687   2.057  13.577  0.0713 -0.5725 -0.7659
  680MPD2    C410059   2.612   2.128  13.480 -0.1048  0.5630  0.3276
  680MPD2    C510060   2.537   2.057  13.390  0.3374 -0.2173 -0.3576
  680MPD2     H10061   2.770   1.873  13.625  0.8715 -1.8191 -2.0954
  680MPD2    H110062   2.603   2.236  13.486 -2.9247  0.2554  1.4897
  680MPD2    H210063   2.462   1.877  13.319  0.7862 -0.2153 -0.6624
  680MPD2    H310064   2.457   2.101  13.332  1.0458  2.0214  0.3411
  680MPD2     N10065   2.773   2.141  13.660  0.1711  0.2157 -0.3739
  680MPD2    H510066   2.753   2.240  13.659 -0.7231  0.0363 -0.7424
  680MPD2    N110067   2.632   1.706  13.463 -0.1884 -0.1963 -0.4217
  680MPD2    H710068   2.692   1.671  13.536  0.2471  0.7025 -0.3602
  681TMC3    C110069   2.580   1.477  13.405  0.5037  0.1482 -0.2225
  681TMC3    C210070   2.592   1.428  13.529 -0.9101  0.0953  0.1701
  681TMC3    C310071   2.638   1.294  13.544 -0.2840 -0.0567  0.5463
  681TMC3    C410072   2.596   1.401  13.292  0.2111 -0.2921  0.2664
  681TMC3    C510073   2.630   1.270  13.317  0.6012  0.0371 -0.8304
  681TMC3    C610074   2.667   1.219  13.434 -0.7977  0.3224 -0.0892
  681TMC3     C10075   2.556   1.616  13.379  0.1883  0.4704 -0.2623
  681TMC3     O10076   2.487   1.637  13.279  0.0484 -0.5710  0.1634
  681TMC3     H10077   2.564   1.495  13.610  0.7605  1.8330 -0.6996
  681TMC3    H110078   2.577   1.437  13.192 -0.0577 -0.9585  0.0788
  681TMC3    H210079   2.712   1.121  13.441  0.1483  0.7026 -0.8356
  681TMC3    C710080   2.677   1.187  13.205  0.4694 -0.7077 -0.0515
  681TMC3    C810081   2.683   1.248  13.674 -0.0179  0.2007  0.1394
  681TMC3    O110082   2.637   1.068  13.212 -0.1660 -0.2844 -0.4852
  681TMC3    O210083   2.727   1.133  13.682  0.5503 -0.8374 -0.2421
  682MPD2     C10084   0.299   3.269  10.190  0.2165  0.7535 -0.3004
  682MPD2    C110085   0.324   3.136  10.206 -1.0391  0.3146  0.1205
  682MPD2    C210086   0.315   3.082  10.342 -0.8048  0.1066 -0.5484
  682MPD2    C310087   0.276   3.151  10.447 -0.0457 -0.7883  0.3606
  682MPD2    C410088   0.237   3.281  10.419  0.2804  0.2149 -0.1267
  682MPD2    C510089   0.257   3.344  10.300 -0.1218  0.5271  0.3514
  682MPD2     H10090   0.334   2.977  10.358 -0.7925 -0.1039 -2.0121
  682MPD2    H110091   0.192   3.348  10.491 -1.4650 -1.4194  0.3258
  682MPD2    H210092   0.312   3.319  10.095  0.5027  0.5531 -0.3667
  682MPD2    H310093   0.235   3.450  10.288  0.0424  0.4741 -0.4205
  682MPD2     N10094   0.270   3.095  10.572 -0.0942  0.4072  0.3396
  682MPD2    H510095   0.221   3.150  10.642  0.4203 -1.4687  2.1763
  682MPD2    N110096   0.366   3.042  10.115  0.0119 -0.4685 -0.0422
  682MPD2    H710097   0.383   2.945  10.141  2.6188 -0.5288 -1.8726
  683TMC3    C110098   0.156   2.932  10.927 -0.6645  0.4159  0.0238
  683TMC3    C210099   0.123   2.791  10.925  0.2881 -1.0633 -0.2154
  683TMC3    C310100   0.156   2.714  10.817  0.0824 -0.2465 -0.2884
  683TMC3    C410101   0.229   2.994  10.828 -0.7334  0.3033  0.5240
  683TMC3    C510102   0.255   2.910  10.726  0.0209 -0.1761  0.2672
  683TMC3    C610103   0.213   2.778  10.712 -0.9607 -0.3552 -0.2090
  683TMC3     C10104   0.157   2.995  11.057 -0.5552 -0.2652 -0.7377
  683TMC3     O10105   0.225   3.093  11.085  0.0305 -0.1011  0.2468
  683TMC3     H10106   0.056   2.741  10.993 -0.1307  1.4520  1.2267
  683TMC3    H110107   0.265   3.096  10.829  0.8987 -0.2365 -2.3546
  683TMC3    H210108   0.244   2.717  10.628 -2.6636 -2.4609  0.7044
  683TMC3    C710109   0.318   2.973  10.610 -0.3325  1.0741  0.4019
  683TMC3    C810110   0.170   2.575  10.834  0.4047 -0.4629  0.2148
  683TMC3    O110111   0.396   2.899  10.553  0.2406 -0.2474  0.1419
  683TMC3    O210112   0.189   2.507  10.735 -0.4379 -0.7002  0.3084
  684MPD2     C10113   3.034   3.068  16.069  0.0631  0.3257 -0.3984
  684MPD2    C110114   3.105   3.023  15.953  0.5149 -0.3763  0.8436
  684MPD2    C210115   3.138   3.122  15.856  0.1627  0.2480 -0.0148
  684MPD2    C310116   3.078   3.248  15.864  0.2700  0.7014 -0.1951
  684MPD2    C410117   3.004   3.285  15.976  0.8065 -0.0381  0.1687
  684MPD2    C510118   2.978   3.197  16.080  0.6234  0.9004 -0.2234
  684MPD2     H10119   3.189   3.084  15.769  0.2162 -2.2750  1.1139
  684MPD2    H110120   2.959   3.383  15.976  1.4997  0.2733 -0.4587
  684MPD2    H210121   3.003   2.990  16.138 -1.8264  1.1328 -0.3400
  684MPD2    H310122   2.925   3.236  16.166  1.7759 -1.1366  1.3845
  684MPD2     N10123   3.112   3.360  15.782  0.4440  0.2723  0.3625
  684MPD2    H510124   3.061   3.444  15.807 -0.9873 -0.5354  0.1788
  684MPD2    N110125   3.144   2.889  15.930  0.7182 -0.3011  0.4064
  684MPD2    H710126   3.174   2.864  15.836  0.2900  0.5064  0.0590
  685TMC3    C110127   3.222   2.670  15.968 -0.0577  0.2442  0.2163
  685TMC3    C210128   3.182   2.634  15.843  0.2766 -0.5716 -0.4644
  685TMC3    C310129   3.209   2.504  15.813 -0.3687  0.2721 -0.0230
  685TMC3    C410130   3.265   2.582  16.065 -0.1446  0.4395  0.2886
  685TMC3    C510131   3.283   2.456  16.027  0.7557  0.2715 -0.2117
  685TMC3    C610132   3.256   2.410  15.898  0.1203  0.0849  0.3457
  685TMC3     C10133   3.171   2.791  16.023  0.2603 -0.5413  0.6829
  685TMC3     O10134   3.186   2.810  16.142 -0.1888 -0.3222 -0.3189
  685TMC3     H10135   3.134   2.698  15.769  0.9621 -0.0858 -0.4867
  685TMC3    H110136   3.289   2.612  16.167 -0.5208 -1.1136  0.8330
  685TMC3    H210137   3.265   2.309  15.860 -3.1447 -0.0686 -0.0182
  685TMC3    C710138   3.327   2.367  16.134  0.4909 -0.1043  0.1816
  685TMC3    C810139   3.160   2.460  15.687 -0.8366 -0.7529 -0.4563
  685TMC3    O110140   3.384   2.408  16.232 -0.3838 -0.0533  0.1329
  685TMC3    O210141   3.234   2.389  15.620  0.0056 -0.3465  0.4196
  686MPD2     C10142   4.574   2.478  15.423  0.1693  0.3423 -0.6184
  686MPD2    C110143   4.651   2.419  15.519 -0.2087 -0.7040 -0.3043
  686MPD2    C210144   0.027   2.331  15.476  0.1567 -1.1998 -0.0502
  686MPD2    C310145   0.047   2.292  15.343 -0.2160  0.1164  0.3659
  686MPD2    C410146   4.692   2.356  15.246 -0.5900  0.2941 -0.1305
  686MPD2    C510147   4.601   2.452  15.287  0.1462  0.2553 -0.3438
  686MPD2     H10148   0.096   2.283  15.545  0.3176 -0.8716  0.0154
  686MPD2    H110149   4.714   2.334  15.142 -2.0052  0.6460 -0.5096
  686MPD2    H210150   4.507   2.555  15.461 -0.4063 -1.1962  1.4484
  686MPD2    H310151   4.535   2.497  15.213  0.6618 -3.8215 -3.2899
  686MPD2     N10152   0.130   2.188  15.302  0.1916  0.2264  0.1050
  686MPD2    H510153   0.156   2.186  15.204 -1.2179  1.8529 -0.2975
  686MPD2    N110154   4.609   2.419  15.649  0.8148 -0.8197 -0.3225
  686MPD2    H710155   4.523   2.469  15.669  0.2613 -1.4671 -1.1198
  687TMC3    C110156   0.111   2.045  15.498  0.4172  0.1939 -0.2833
  687TMC3    C210157   4.694   2.027  15.486 -0.5396 -1.0281  0.1573
  687TMC3    C310158   4.632   1.994  15.603 -0.3284  0.4017 -0.3395
  687TMC3    C410159   0.177   2.029  15.611 -0.2134  0.1729 -0.2666
  687TMC3    C510160   0.115   1.975  15.718  0.8107 -0.3721 -0.3835
  687TMC3    C610161   4.699   1.968  15.714 -0.1606 -0.2340 -0.0029
  687TMC3     C10162   0.191   2.096  15.383 -0.1148  0.0567 -0.0728
  687TMC3     O10163   0.306   2.061  15.360  0.9787  0.2606  0.0757
  687TMC3     H10164   4.648   2.031  15.388 -0.2273  1.6356  0.1309
  687TMC3    H110165   0.285   2.033  15.608 -0.2095  0.3939  0.0805
  687TMC3    H210166   4.652   1.950  15.810  0.3139 -0.3332  0.2066
  687TMC3    C710167   0.182   1.983  15.848 -0.3889 -0.1719  0.3830
  687TMC3    C810168   4.494   2.043  15.623 -0.1250  0.0447 -0.8905
  687TMC3    O110169   0.150   1.899  15.932 -0.4542  0.1472 -0.3013
  687TMC3    O210170   4.447   2.037  15.735  0.3947 -0.1011  0.2045
  688MPD2     C10171   4.041   1.811  17.312 -0.3796  0.0140 -0.4518
  688MPD2    C110172   3.958   1.703  17.322  0.4077  0.6319 -0.3562
  688MPD2    C210173   3.995   1.594  17.254  0.9024 -0.0019 -0.2272
  688MPD2    C310174   4.110   1.590  17.177  0.0415  0.2320 -0.3255
  688MPD2    C410175   4.188   1.706  17.166 -0.3410  0.3103 -0.0559
  688MPD2    C510176   4.149   1.822  17.227 -0.3380 -0.4056 -0.6149
  688MPD2     H10177   3.932   1.507  17.265 -0.4357  1.1415  1.1830
  688MPD2    H110178   4.275   1.715  17.102 -1.3964  0.7130 -1.4461
  688MPD2    H210179   4.025   1.908  17.358 -0.9143 -1.3296  2.2167
  688MPD2    H310180   4.219   1.905  17.238 -0.9232 -0.1301  1.0292
  688MPD2     N10181   4.153   1.473  17.105  0.2836 -0.5161  0.0687
  688MPD2    H510182   4.230   1.492  17.041 -2.0316  1.0976 -2.2286
  688MPD2    N110183   3.842   1.720  17.394 -0.0739 -0.0465  0.1624
  688MPD2    H710184   3.833   1.805  17.448 -1.1826 -0.8450  1.2478
  689TMC3    C110185   3.616   1.694  17.442  0.9226 -0.2585  0.4105
  689TMC3    C210186   3.612   1.793  17.538  0.4737  0.1884 -0.1945
  689TMC3    C310187   3.492   1.843  17.582  1.1318  0.6007  0.4175
  689TMC3    C410188   3.502   1.649  17.386  0.8940 -0.5160  0.5359
  689TMC3    C510189   3.385   1.699  17.429 -0.1233 -0.7207  0.3849
  689TMC3    C610190   3.379   1.796  17.526  0.0568 -0.4954  0.0189
  689TMC3     C10191   3.737   1.633  17.395  0.0643 -1.0185 -0.1831
  689TMC3     O10192   3.718   1.522  17.345  0.4997 -0.0162 -0.0354
  689TMC3     H10193   3.707   1.821  17.581 -1.2781  0.6897  3.3912
  689TMC3    H110194   3.495   1.585  17.299 -1.6259  0.5093  0.0004
  689TMC3    H210195   3.288   1.849  17.550  0.7071  0.2953  0.7602
  689TMC3    C710196   3.258   1.640  17.395  0.3884 -0.2308  0.4891
  689TMC3    C810197   3.468   1.901   0.029  0.4014  0.1270  0.0133
  689TMC3    O110198   3.161   1.710  17.418 -0.2188  0.0172  0.5286
  689TMC3    O210199   3.363   1.870   0.086  0.5917  0.0456 -0.1216
  690MPD2     C10200   1.581   3.441  15.610 -0.0318  0.4851  0.4929
  690MPD2    C110201   1.563   3.348  15.512  0.3409 -0.0733 -0.5113
  690MPD2    C210202   1.635   3.369  15.394 -0.1015 -0.1724 -0.2060
  690MPD2    C310203   1.724   3.476  15.381 -0.1388 -0.1515  0.4022
  690MPD2    C410204   1.738   3.562  15.485  0.6512 -0.1524 -0.8139
  690MPD2    C510205   1.667   3.544  15.602 -0.4667 -0.1606 -0.3719
  690MPD2     H10206   1.634   3.306  15.307 -1.1235  0.1578 -0.4315
  690MPD2    H110207   1.808   3.645  15.488  2.5900 -1.8098  0.4278
  690MPD2    H210208   1.525   3.434  15.703  1.7881  0.4716  1.5901
  690MPD2    H310209   1.691   3.610  15.684 -2.0804  2.6842 -2.1659
  690MPD2     N10210   1.808   3.493  15.269 -0.3611  0.5704  0.5847
  690MPD2    H510211   1.816   3.417  15.203  0.0654  1.5655 -0.5167
  690MPD2    N110212   1.467   3.247  15.513 -0.4577  0.1252  0.4390
  690MPD2    H710213   1.474   3.177  15.441  0.3136 -0.1246  0.7596
  691TMC3    C110214   1.300   3.102  15.591  0.1277 -0.4517  0.2341
  691TMC3    C210215   1.164   3.096  15.628  0.2367  0.3736  0.2005
  691TMC3    C310216   1.095   2.982  15.605  0.1992 -0.5692 -0.5087
  691TMC3    C410217   1.366   2.988  15.560 -0.2615 -0.5264  1.0599
  691TMC3    C510218   1.291   2.879  15.537 -0.0747  0.1340 -0.1712
  691TMC3    C610219   1.150   2.875  15.537 -0.0393 -0.1754  0.3037
  691TMC3     C10220   1.374   3.227  15.613  0.0744 -0.9578 -0.0586
  691TMC3     O10221   1.327   3.323  15.674 -0.1897  0.3804 -0.0447
  691TMC3     H10222   1.108   3.183  15.661  1.9205  0.6563  2.3284
  691TMC3    H110223   1.475   2.986  15.561 -0.2409  0.5478  1.5603
  691TMC3    H210224   1.095   2.790  15.500  0.5932  0.0013 -1.0535
  691TMC3    C710225   1.334   2.769  15.627 -0.5940  1.1486 -0.1274
  691TMC3    C810226   0.978   2.947  15.678 -0.2365  0.1372 -0.0886
  691TMC3    O110227   1.446   2.757  15.670  0.0674 -0.3878 -0.4226
  691TMC3    O210228   0.953   2.827  15.676  0.1707 -0.1802 -0.0782
  692TMC3    C110229   2.528   4.539  15.880 -0.1108 -0.4433  0.3155
  692TMC3    C210230   2.628   4.622  15.838 -0.2541  0.5628 -0.0686
  692TMC3    C310231   2.705   4.586  15.733  0.1264  0.8206 -0.9551
  692TMC3    C410232   2.523   4.414  15.841 -0.5685 -0.3980  0.7254
  692TMC3    C510233   2.610   4.372  15.746 -0.0026 -0.0813 -0.8442
  692TMC3    C610234   2.700   4.458  15.688  0.7275  0.4065  0.0027
  692TMC3     C10235   2.454   4.576  15.999  0.2461 -0.0064  0.1788
  692TMC3     O10236   2.407   4.489  16.066  0.1636  0.1705  0.3293
  692TMC3     H10237   2.656   4.708  15.898  0.6762  0.7250 -0.7447
  692TMC3    H110238   2.441   4.354  15.878 -0.5962  0.2612  1.7278
  692TMC3    H210239   2.778   4.430  15.618 -2.7768 -1.6499 -3.0771
  692TMC3    C710240   2.582   4.255  15.669  0.5211 -0.2641 -0.0781
  692TMC3    C810241   2.850   4.606  15.752 -0.1320  1.1377 -0.1925
  692TMC3    O110242   2.465   4.214  15.661 -0.0329 -0.6997  0.5331
  692TMC3    O210243   2.918   4.600  15.650  0.0851 -0.4462  0.1145
  693MPD2     C10244   2.433   2.523  10.902  0.8491  0.1750  0.3180
  693MPD2    C110245   2.392   2.451  10.791  0.2193 -0.1021  0.0285
  693MPD2    C210246   2.464   2.349  10.733  0.6483  0.1334 -0.1034
  693MPD2    C310247   2.580   2.317  10.796 -0.6699  1.1783  0.1890
  693MPD2    C410248   2.630   2.390  10.897  0.1704 -0.1746  0.0195
  693MPD2    C510249   2.561   2.496  10.945 -0.6528 -0.1560  0.0934
  693MPD2     H10250   2.431   2.292  10.647  0.8979  1.1688 -0.8727
  693MPD2    H110251   2.719   2.368  10.954  0.9380  0.9051 -0.7736
  693MPD2    H210252   2.380   2.614  10.930 -2.4882 -2.1214  1.4724
  693MPD2    H310253   2.597   2.547  11.033 -2.9308  0.3495  0.7306
  693MPD2     N10254   2.646   2.203  10.762 -0.5741  0.5861  0.6658
  693MPD2    H510255   2.709   2.171  10.835  2.0140  2.4671 -0.7432
  693MPD2    N110256   2.254   2.470  10.763  0.0135  0.6532  0.4733
  693MPD2    H710257   2.202   2.542  10.812  0.3052  2.2520 -1.5486
  694TMC3    C110258   2.048   2.370  10.698  0.3415  0.2247  0.7073
  694TMC3    C210259   2.018   2.248  10.624 -0.5604  0.0631  0.1508
  694TMC3    C310260   1.954   2.150  10.695 -0.7963 -0.5460 -0.4746
  694TMC3    C410261   2.039   2.374  10.838 -0.5931 -0.3480  0.0068
  694TMC3    C510262   1.980   2.271  10.899 -0.0797  0.3794  0.3050
  694TMC3    C610263   1.943   2.160  10.828  0.3692  0.2352 -0.3077
  694TMC3     C10264   2.183   2.410  10.661  0.1115 -0.1289 -0.7868
  694TMC3     O10265   2.226   2.366  10.554  0.1535 -0.7735 -0.4503
  694TMC3     H10266   2.026   2.237  10.516  0.2346 -1.6607  0.3882
  694TMC3    H110267   2.047   2.467  10.893  2.4195 -0.4368 -0.2677
  694TMC3    H210268   1.888   2.085  10.884  1.1458  0.4133  0.7005
  694TMC3    C710269   2.000   2.257  11.044  0.0657  0.4996 -0.1425
  694TMC3    C810270   1.913   2.030  10.629 -0.3560 -0.0436  0.0631
  694TMC3    O110271   2.035   2.362  11.098  0.1653 -0.0156  0.3267
  694TMC3    O210272   1.898   1.933  10.703  0.0369  0.2185  0.5475
  695MPD2     C10273   3.180   3.634  13.580 -0.1708 -0.0398 -0.1542
  695MPD2    C110274   3.110   3.664  13.697 -0.5747 -0.4341 -0.2131
  695MPD2    C210275   3.017   3.766  13.698  0.0808 -0.0689 -0.1795
  695MPD2    C310276   2.993   3.841  13.583  0.9123  0.2952  0.8182
  695MPD2    C410277   3.064   3.809  13.469 -0.3838 -0.1486 -0.4044
  695MPD2    C510278   3.161   3.709  13.468 -0.9581  0.4178  0.5684
  695MPD2     H10279   2.960   3.800  13.784 -0.3999 -0.3812 -0.3732
  695MPD2    H110280   3.043   3.858  13.374  0.5780 -1.8811 -1.5007
  695MPD2    H210281   3.261   3.562  13.578  0.4376  0.6058  1.1622
  695MPD2    H310282   3.213   3.678  13.378 -0.6551  3.5760 -0.3419
  695MPD2     N10283   2.899   3.949  13.593  0.4358  0.2702  0.2422
  695MPD2    H510284   2.852   3.961  13.682 -0.2999  1.1530 -0.2619
  695MPD2    N110285   3.148   3.611  13.825 -0.3440 -0.3759  0.7890
  695MPD2    H710286   3.091   3.641  13.904 -1.8947  0.0813 -0.5082
  696TMC3    C110287   2.746   4.127  13.533  0.1965 -0.1583  0.4429
  696TMC3    C210288   2.656   4.097  13.635  0.0272 -0.2758  0.0676
  696TMC3    C310289   2.552   4.186  13.653 -0.1195  0.2869  0.2909
  696TMC3    C410290   2.738   4.248  13.468  0.9389  0.6488 -0.5835
  696TMC3    C510291   2.637   4.335  13.506 -0.2548  0.0968  1.0161
  696TMC3    C610292   2.536   4.298  13.590 -0.3409  0.5817 -0.4236
  696TMC3     C10293   2.853   4.040  13.495  0.3811 -0.4790  0.7600
  696TMC3     O10294   2.902   4.058  13.383  0.1106  0.6004 -0.3067
  696TMC3     H10295   2.659   4.005  13.693 -0.3872 -0.4224 -0.1498
  696TMC3    H110296   2.815   4.277  13.398  1.4899 -1.2210 -0.7386
  696TMC3    H210297   2.449   4.360  13.611 -1.7723 -2.2024  1.9071
  696TMC3    C710298   2.670   4.476  13.494  0.1824  0.0227 -0.3927
  696TMC3    C810299   2.500   4.207  13.787 -0.0525  0.4491 -0.3285
  696TMC3    O110300   2.740   4.510  13.402  0.3297 -0.4316  0.0099
  696TMC3    O210301   2.489   4.322  13.825 -0.3370  0.5795 -0.5760
  697MPD2     C10302   2.032   1.199  15.635  0.6295 -0.6686  0.5777
  697MPD2    C110303   2.091   1.146  15.529  0.4235 -0.0821  0.7544
  697MPD2    C210304   2.112   1.223  15.420  0.2703 -0.5778  0.9553
  697MPD2    C310305   2.063   1.355  15.403 -0.0713 -0.1530  0.8117
  697MPD2    C410306   1.988   1.406  15.504 -0.1156 -0.0212 -0.5523
  697MPD2    C510307   1.971   1.322  15.614  0.2917 -0.5265  0.8550
  697MPD2     H10308   2.174   1.174  15.346  0.9988 -0.7807  1.7073
  697MPD2    H110309   1.933   1.500  15.497 -1.6891 -0.9126 -0.1439
  697MPD2    H210310   1.997   1.141  15.719 -1.9018 -1.8714 -1.2925
  697MPD2    H310311   1.907   1.346  15.698  0.1323  1.4625  0.1531
  697MPD2     N10312   2.097   1.423  15.283  0.8826  0.6136  0.2268
  697MPD2    H510313   2.142   1.372  15.208 -1.6948 -1.1201 -0.1516
  697MPD2    N110314   2.148   1.016  15.534 -0.0869 -0.7188  0.6442
  697MPD2    H710315   2.186   0.979  15.448  0.6021  1.0881  0.1735
  698TMC3    C110316   2.161   1.617  15.161 -0.2086 -0.0323  0.2035
  698TMC3    C210317   2.235   1.727  15.209  0.6329 -0.3823  0.3621
  698TMC3    C310318   2.355   1.754  15.147  0.7556  0.0742 -0.5196
  698TMC3    C410319   2.196   1.553  15.049  0.5335  0.0536  0.4310
  698TMC3    C510320   2.309   1.598  14.983 -0.9589  0.2601 -0.5036
  698TMC3    C610321   2.396   1.687  15.034 -0.3088 -0.0142  0.8358
  698TMC3     C10322   2.064   1.558  15.258  0.2002 -0.7322 -0.4275
  698TMC3     O10323   2.012   1.643  15.328 -0.0016 -0.1816  0.2620
  698TMC3     H10324   2.204   1.776  15.301  0.6720 -1.6130  1.0180
  698TMC3    H110325   2.131   1.479  15.004 -0.5747 -0.4952  2.8812
  698TMC3    H210326   2.483   1.721  14.980 -1.6412  0.6927 -0.8819
  698TMC3    C710327   2.344   1.516  14.869 -0.2962 -0.3182  0.1780
  698TMC3    C810328   2.443   1.849  15.218  0.8357  0.3309 -0.0465
  698TMC3    O110329   2.258   1.453  14.816 -0.0692 -0.0294 -0.2923
  698TMC3    O210330   2.400   1.893  15.325 -0.2475 -0.7531 -0.0036
  699TMC3    C110331   2.784   3.877  13.150  0.4068  0.3299  0.5019
  699TMC3    C210332   2.840   3.755  13.185 -0.0341  0.3359  0.3766
  699TMC3    C310333   2.781   3.691  13.292 -0.3222 -0.5033 -0.6544
  699TMC3    C410334   2.676   3.932  13.215 -0.0874 -0.7616  0.8857
  699TMC3    C510335   2.611   3.853  13.307 -0.3550 -0.3063 -0.0895
  699TMC3    C610336   2.672   3.744  13.353 -0.2559  0.8632  0.0065
  699TMC3     C10337   2.842   3.955  13.040  0.8309  0.1782 -0.0681
  699TMC3     O10338   2.765   4.042  13.002 -0.3465 -0.3052 -0.2010
  699TMC3     H10339   2.914   3.704  13.125  0.4963  0.9404  0.5199
  699TMC3    H110340   2.628   4.022  13.178  0.2228 -1.6506 -1.6428
  699TMC3    H210341   2.616   3.696  13.433  0.8199 -0.4097 -0.0026
  699TMC3    C710342   2.484   3.893  13.370 -0.3352  0.4454 -0.3056
  699TMC3    C810343   2.837   3.569  13.355  0.1153  0.0138  0.1734
  699TMC3    O110344   2.434   3.824  13.458 -0.4596  0.1268 -0.1984
  699TMC3    O210345   2.790   3.548  13.465  0.0708  0.1724 -0.5595
  700TMC3    C110346   1.466   2.000  17.250  0.3132  0.4377  0.5477
  700TMC3    C210347   1.467   1.869  17.278 -0.4309  0.4144  0.9482
  700TMC3    C310348   1.543   1.830  17.385  0.2295  0.2486  0.7034
  700TMC3    C410349   1.530   2.101  17.325 -0.5193 -0.1298  0.1785
  700TMC3    C510350   1.590   2.048  17.437 -0.1436 -0.7100 -0.0508
  700TMC3    C610351   1.609   1.916  17.468 -0.3397 -0.3310  0.3670
  700TMC3     C10352   1.443   2.026  17.107 -0.0084  0.3061  0.5623
  700TMC3     O10353   1.393   1.938  17.043  0.1687 -0.2681  0.0050
  700TMC3     H10354   1.399   1.804  17.224  1.5512 -0.5225 -0.4023
  700TMC3    H110355   1.526   2.207  17.303 -0.3360  0.0697  1.0937
  700TMC3    H210356   1.649   1.881  17.563  1.4493 -0.3057 -0.3872
  700TMC3    C710357   1.623   2.142  17.543  0.1215  0.3939 -0.1600
  700TMC3    C810358   1.615   1.702  17.353  0.1451 -0.1647  0.2722
  700TMC3    O110359   1.648   2.093  17.654 -0.1307 -0.4343  0.0226
  700TMC3    O210360   1.576   1.642  17.254  0.3237  0.2162 -0.1795
  701TMC3    C110361   1.627   0.125  15.706 -0.1857 -0.0416 -0.1031
  701TMC3    C210362   1.626   0.034  15.597 -0.3436  0.3742  0.0437
  701TMC3    C310363   1.724   0.056  15.503  0.1913  0.0896  0.5736
  701TMC3    C410364   1.712   0.229  15.715 -0.3471  0.5191  0.4017
  701TMC3    C510365   1.805   0.249  15.612 -0.4944 -0.1492 -0.0998
  701TMC3    C610366   1.815   0.162  15.503 -0.1792 -0.1157 -0.7917
  701TMC3     C10367   1.505   0.145  15.786 -0.6772  0.0308 -0.4410
  701TMC3     O10368   1.469   0.263  15.782  0.2038  0.3716  0.0910
  701TMC3     H10369   1.559   4.670  15.604 -0.6998  0.6908  0.4994
  701TMC3    H110370   1.681   0.308  15.782 -4.4824 -0.8818  0.1212
  701TMC3    H210371   1.877   0.184  15.416 -1.5997  1.1879 -1.4713
  701TMC3    C710372   1.864   0.376  15.594 -0.2896 -0.1223 -0.3296
  701TMC3    C810373   1.771   4.672  15.411 -1.5908  0.1948  0.6067
  701TMC3    O110374   1.908   0.415  15.486 -0.2042  0.2170  0.3820
  701TMC3    O210375   1.890   4.662  15.402  0.0128 -0.4006 -0.1380
  702MPD2     C10376   1.515   2.662  10.662  0.4006  0.2495 -0.4850
  702MPD2    C110377   1.436   2.773  10.654  0.1649 -0.5741  0.2981
  702MPD2    C210378   1.466   2.880  10.570 -0.6500  0.8707  0.2616
  702MPD2    C310379   1.580   2.872  10.491 -0.1630 -0.9006  0.2426
  702MPD2    C410380   1.663   2.763  10.509 -0.2293  0.4447 -0.8155
  702MPD2    C510381   1.633   2.661  10.589 -0.5419 -0.3661  0.8025
  702MPD2     H10382   1.396   2.962  10.568 -0.1092  1.3587  1.4136
  702MPD2    H110383   1.757   2.763  10.455 -0.3552  2.1402 -1.0164
  702MPD2    H210384   1.499   2.589  10.740  0.4774  0.5191 -0.2194
  702MPD2    H310385   1.707   2.584  10.610  0.7126  1.0922  1.7157
  702MPD2     N10386   1.609   2.973  10.406 -0.2285 -0.0388  0.3243
  702MPD2    H510387   1.546   3.049  10.383 -0.3820 -0.1621  0.3379
  702MPD2    N110388   1.324   2.797  10.732 -0.1882 -0.2814  0.0719
  702MPD2    H710389   1.281   2.888  10.727  1.1351  0.1700 -3.2118
  703TMC3    C110390   1.721   3.116  10.258  0.7534  0.0772  0.1574
  703TMC3    C210391   1.635   3.214  10.295  0.1874  0.4949  0.0013
  703TMC3    C310392   1.645   3.341  10.243 -0.2874 -0.7069  0.1204
  703TMC3    C410393   1.829   3.149  10.174 -0.2880 -0.0126  0.7902
  703TMC3    C510394   1.835   3.267  10.117 -0.3228  0.3401  0.2116
  703TMC3    C610395   1.745   3.365  10.150  0.1689  0.3773  0.0810
  703TMC3     C10396   1.727   2.998  10.337 -0.8424 -0.1892  0.4578
  703TMC3     O10397   1.827   2.930  10.326  0.3185 -0.0681 -0.1428
  703TMC3     H10398   1.579   3.208  10.387 -1.5921  3.2041 -0.8934
  703TMC3    H110399   1.900   3.071  10.149  2.8682  3.3554 -0.6893
  703TMC3    H210400   1.761   3.467  10.116 -1.5555  1.2693  1.9361
  703TMC3    C710401   1.935   3.303  10.026  0.0769 -0.7041  0.1060
  703TMC3    C810402   1.540   3.444  10.269  0.4185  0.1746  0.1363
  703TMC3    O110403   1.979   3.413  10.045  0.3394 -0.0329  0.2790
  703TMC3    O210404   1.559   3.552  10.214 -0.3242 -0.2200  0.5999
  704TMC3    C110405   3.323   0.896  12.376 -0.8121 -0.4963  0.1252
  704TMC3    C210406   3.458   0.909  12.393  0.2713  0.5809  0.0488
  704TMC3    C310407   3.521   0.824  12.478 -0.6030  0.0298 -0.4662
  704TMC3    C410408   3.249   0.807  12.444  0.6385 -0.1541 -0.5740
  704TMC3    C510409   3.312   0.729  12.540  0.2540  0.0171 -0.0011
  704TMC3    C610410   3.450   0.740  12.553  0.3545  0.4317 -0.5464
  704TMC3     C10411   3.254   1.001  12.307 -0.1065  0.1586  0.2587
  704TMC3     O10412   3.136   1.005  12.336 -0.0024  0.4081  0.2036
  704TMC3     H10413   3.516   0.996  12.365 -0.1964  0.5453 -1.0442
  704TMC3    H110414   3.141   0.808  12.433  0.6416  0.7504 -0.4881
  704TMC3    H210415   3.499   0.670  12.619  0.3313 -1.3682 -2.4491
  704TMC3    C710416   3.242   0.601  12.574 -0.0958 -0.3280 -0.9414
  704TMC3    C810417   3.662   0.798  12.440 -0.2201 -0.4554  0.3507
  704TMC3    O110418   3.133   0.603  12.621  0.2128 -0.3854  0.2151
  704TMC3    O210419   3.696   0.832  12.322  0.1362  0.3900 -0.0039
  705MPD2     C10420   3.314   3.744  16.287  0.3793 -0.6800 -0.5309
  705MPD2    C110421   3.301   3.875  16.268 -0.3885 -0.8762  0.9613
  705MPD2    C210422   3.189   3.946  16.317  0.1557  0.3821  1.0124
  705MPD2    C310423   3.084   3.879  16.378 -0.3230 -0.2742  0.2743
  705MPD2    C410424   3.093   3.744  16.394  0.0446 -0.8357 -0.2096
  705MPD2    C510425   3.210   3.685  16.348  0.2269 -0.1146 -0.1552
  705MPD2     H10426   3.193   4.053  16.300  1.3624  0.3675  1.2006
  705MPD2    H110427   3.016   3.678  16.432 -0.5664 -1.8075 -3.1326
  705MPD2    H210428   3.383   3.674  16.241  0.6776 -1.8117  1.6319
  705MPD2    H310429   3.206   3.577  16.348  0.3746 -0.1206 -0.0896
  705MPD2     N10430   2.969   3.936  16.424 -0.6361 -0.4142  0.7949
  705MPD2    H510431   2.892   3.876  16.454 -1.3614 -0.6312 -1.5323
  705MPD2    N110432   3.399   3.960  16.208 -0.8908  0.0723 -0.4742
  705MPD2    H710433   3.376   4.059  16.208 -0.3617  0.1975 -0.1002
  706TMC3    C110434   3.796   4.055  15.965  0.3166 -0.1442  0.6656
  706TMC3    C210435   3.824   4.146  16.066  0.5479 -0.1269 -0.2590
  706TMC3    C310436   3.734   4.187  16.157  0.2949 -0.6125 -0.5665
  706TMC3    C410437   3.682   3.986  15.992  0.2622  0.5868  0.8896
  706TMC3    C510438   3.587   4.025  16.084 -0.2881  0.0234  0.0268
  706TMC3    C610439   3.617   4.118  16.172  0.2349 -1.1907 -0.4263
  706TMC3     C10440   3.917   3.998  15.900 -0.5748 -0.6291  0.4270
  706TMC3     O10441   4.020   4.028  15.959 -0.5522 -0.1323  0.4089
  706TMC3     H10442   3.923   4.187  16.079  0.3547 -0.2896  1.6094
  706TMC3    H110443   3.663   3.888  15.949  0.0301  1.3761 -0.8060
  706TMC3    H210444   3.549   4.137  16.254  0.0136  3.4985 -1.6978
  706TMC3    C710445   3.504   3.915  16.131 -0.2493 -0.0579 -0.6418
  706TMC3    C810446   3.751   4.321  16.206  0.1726 -0.3090 -0.1539
  706TMC3    O110447   3.531   3.800  16.100 -0.1571 -0.2640  0.0769
  706TMC3    O210448   3.818   4.397  16.139  0.0819 -0.2972  0.3632
  707TMC3    C110449   0.605   3.138   1.585 -0.6432 -0.5668 -0.7083
  707TMC3    C210450   0.569   3.008   1.582 -0.9128  1.1468  0.2822
  707TMC3    C310451   0.438   2.971   1.600  0.8060 -0.8867 -0.1032
  707TMC3    C410452   0.517   3.246   1.592  0.3193  0.4185 -0.1977
  707TMC3    C510453   0.388   3.205   1.591  0.0404  0.8364  0.4144
  707TMC3    C610454   0.349   3.074   1.611 -0.2113  0.0271  0.5165
  707TMC3     C10455   0.740   3.152   1.539 -0.5344  0.1430 -0.0675
  707TMC3     O10456   0.808   3.051   1.549  0.5451 -0.0254  0.1078
  707TMC3     H10457   0.646   2.932   1.580 -1.8487  0.1870  1.1181
  707TMC3    H110458   0.553   3.348   1.590 -2.4138  1.4643  3.3709
  707TMC3    H210459   0.243   3.054   1.615 -0.3441  0.7591  0.6595
  707TMC3    C710460   0.302   3.306   1.541 -0.4145  0.2197  0.6517
  707TMC3    C810461   0.384   2.828   1.592  0.2851  0.6828  0.0596
  707TMC3    O110462   0.351   3.404   1.486  0.0820 -0.0796  0.5801
  707TMC3    O210463   0.269   2.832   1.633  0.4435  0.0497 -0.1857
  708MPD2     C10464   1.957   1.789  13.696  0.2266 -0.3213  0.0354
  708MPD2    C110465   1.850   1.880  13.689  0.2937  0.4775 -0.0690
  708MPD2    C210466   1.793   1.916  13.810  0.0830 -0.1195 -0.7291
  708MPD2    C310467   1.854   1.904  13.930  0.1166  0.0743 -0.9762
  708MPD2    C410468   1.973   1.837  13.932  0.3857  0.1616 -0.0837
  708MPD2    C510469   2.013   1.770  13.820  0.4613 -0.0832  0.2648
  708MPD2     H10470   1.700   1.971  13.801 -0.8575 -1.8162 -1.3913
  708MPD2    H110471   2.031   1.823  14.023  1.0261 -1.7864 -0.7773
  708MPD2    H210472   2.009   1.763  13.605  0.3150 -1.1567  0.3273
  708MPD2    H310473   2.101   1.706  13.823 -0.2410 -1.0419  0.3300
  708MPD2     N10474   1.793   1.941  14.052 -0.1971  0.3728  0.9520
  708MPD2    H510475   1.841   1.916  14.137 -0.0270 -1.6816  0.2409
  708MPD2    N110476   1.806   1.919  13.560 -0.3129 -0.0990  0.0112
  708MPD2    H710477   1.865   1.896  13.481 -0.9919  0.1392 -0.5736
  709TMC3    C110478   1.679   2.044  13.401  0.5482  0.0112 -0.1497
  709TMC3    C210479   1.790   2.107  13.347  0.0386  0.4855  0.5695
  709TMC3    C310480   1.758   2.215  13.271  1.5708 -0.1007 -0.4590
  709TMC3    C410481   1.554   2.103  13.399  0.0733 -0.8523  0.0262
  709TMC3    C510482   1.529   2.219  13.333 -0.3850 -0.1340  0.2081
  709TMC3    C610483   1.635   2.271  13.263 -0.5106 -0.1419 -0.8029
  709TMC3     C10484   1.695   1.997  13.537 -0.7201  0.0380 -0.4836
  709TMC3     O10485   1.603   2.029  13.613  0.2566  0.4373 -0.3106
  709TMC3     H10486   1.892   2.081  13.373 -0.3530 -1.6158  0.0466
  709TMC3    H110487   1.467   2.054  13.441  0.9353 -0.5326  2.1888
  709TMC3    H210488   1.635   2.376  13.235  2.2196  0.7789  2.5771
  709TMC3    C710489   1.466   2.318  13.424  0.3024  0.1708 -0.5509
  709TMC3    C810490   1.869   2.309  13.270 -0.6308  0.1711 -0.1564
  709TMC3    O110491   1.453   2.435  13.389  0.1346  0.4852  0.6289
  709TMC3    O210492   1.960   2.303  13.353 -0.1011  0.0450  0.1694
  710TMC3    C110493   3.491   4.356   0.838 -0.1828 -0.3201 -0.0781
  710TMC3    C210494   3.552   4.282   0.744  0.3613 -0.1184 -0.7153
  710TMC3    C310495   3.677   4.236   0.775  0.4995 -0.3758  0.1650
  710TMC3    C410496   3.543   4.378   0.963 -0.0812  0.2742 -0.8623
  710TMC3    C510497   3.668   4.332   0.988 -0.0144  0.5350  0.2041
  710TMC3    C610498   3.739   4.270   0.886  0.1257 -0.3369 -0.9396
  710TMC3     C10499   3.360   4.403   0.805  0.6735 -0.4047  0.4799
  710TMC3     O10500   3.329   4.383   0.691  0.2822 -0.6289  0.2189
  710TMC3     H10501   3.514   4.279   0.642 -0.2419 -0.7611 -0.4696
  710TMC3    H110502   3.485   4.436   1.034 -1.8366 -1.7619 -0.5924
  710TMC3    H210503   3.833   4.224   0.913 -0.7455 -0.5552  1.7555
  710TMC3    C710504   3.716   4.346   1.122  0.2853 -0.6582  1.0192
  710TMC3    C810505   3.712   4.103   0.716 -0.2859 -0.0833 -0.6622
  710TMC3    O110506   3.642   4.398   1.206  0.1346 -0.7113 -0.1300
  710TMC3    O210507   3.828   4.073   0.735  0.0049 -0.0026  0.0944
  711TMC3    C110508   2.353   0.115  15.194 -0.5988  0.2814  0.5282
  711TMC3    C210509   2.389   0.201  15.293  0.3528 -0.2312  0.0516
  711TMC3    C310510   2.510   0.187  15.355 -0.2735  0.2562  0.3248
  711TMC3    C410511   2.441   0.028  15.140 -0.6419 -0.1517 -0.1114
  711TMC3    C510512   2.560   0.009  15.208  0.1943 -0.4481 -0.3206
  711TMC3    C610513   2.598   0.092  15.311 -0.3730  0.0482  0.5032
  711TMC3     C10514   2.217   0.121  15.130 -0.4183  0.5013 -0.1312
  711TMC3     O10515   2.200   0.035  15.043  0.7873 -0.6920 -0.3710
  711TMC3     H10516   2.312   0.262  15.339  0.0063 -0.7905  0.2137
  711TMC3    H110517   2.423   4.691  15.050 -2.3708  2.2538 -1.2974
  711TMC3    H210518   2.694   0.070  15.355 -0.4192 -0.5851  0.2972
  711TMC3    C710519   2.623   4.599  15.199  1.0022  0.6019 -0.2922
  711TMC3    C810520   2.527   0.235  15.493 -0.5436  0.5200  0.1765
  711TMC3    O110521   2.744   4.607  15.229 -0.7491 -0.4238 -0.0539
  711TMC3    O210522   2.423   0.260  15.552  0.0493  0.0176  0.0372
  712MPD2     C10523   3.843   0.844  13.385  0.5889 -0.4963 -0.3639
  712MPD2    C110524   3.720   0.913  13.373  0.2549  0.7925  0.1221
  712MPD2    C210525   3.727   1.054  13.366  0.0164 -0.4517  0.3782
  712MPD2    C310526   3.855   1.117  13.358 -0.1916  0.0180 -0.0089
  712MPD2    C410527   3.971   1.039  13.360  0.3109  0.4578 -0.5785
  712MPD2    C510528   3.962   0.907  13.382 -0.0831  0.3128 -0.2107
  712MPD2     H10529   3.634   1.109  13.363  0.3141  0.1094  1.3165
  712MPD2    H110530   4.070   1.083  13.368 -0.1512  0.9360  2.4592
  712MPD2    H210531   3.832   0.736  13.387  0.7992 -0.5090  0.0029
  712MPD2    H310532   4.053   0.849  13.395  0.7230  1.8880  1.2752
  712MPD2     N10533   3.877   1.255  13.348 -0.3691  0.3865  0.0053
  712MPD2    H510534   3.973   1.289  13.340  0.3315 -1.3069  1.2271
  712MPD2    N110535   3.591   0.849  13.367  0.5079 -0.1767 -0.4813
  712MPD2    H710536   3.508   0.904  13.387  1.0206  0.5352 -0.3216
  713TMC3    C110537   3.822   1.479  13.309  0.3456  0.1303  0.0643
  713TMC3    C210538   3.927   1.542  13.362 -0.3863 -0.6050  0.6746
  713TMC3    C310539   3.939   1.679  13.342  0.0334  0.1792 -0.4050
  713TMC3    C410540   3.718   1.550  13.256  0.5730  0.4846 -0.6311
  713TMC3    C510541   3.725   1.688  13.261 -0.3513 -0.0270 -0.5020
  713TMC3    C610542   3.833   1.751  13.298 -0.5067 -0.4306 -0.0391
  713TMC3     C10543   3.776   1.344  13.353  0.2690  0.2249  0.0743
  713TMC3     O10544   3.654   1.333  13.383 -0.4845  0.3232 -0.0320
  713TMC3     H10545   4.002   1.493  13.423  0.3262 -0.4709 -0.1037
  713TMC3    H110546   3.627   1.504  13.220 -0.3293  0.7167  1.3365
  713TMC3    H210547   3.843   1.859  13.288 -2.4881 -0.2339  0.1958
  713TMC3    C710548   3.599   1.749  13.266 -0.5354  0.4627 -0.9245
  713TMC3    C810549   4.068   1.747  13.356  0.0083 -0.3424 -0.3035
  713TMC3    O110550   3.528   1.736  13.166  0.1968 -0.0778  0.0316
  713TMC3    O210551   4.078   1.854  13.300 -0.2163  0.2871  0.2289
  714MPD2     C10552   1.483   4.539   1.610 -0.2744 -0.1216 -0.2061
  714MPD2    C110553   1.519   4.465   1.499  0.3165 -0.5002  0.2685
  714MPD2    C210554   1.457   4.490   1.378  0.4557 -0.1862 -0.2037
  714MPD2    C310555   1.372   4.599   1.362 -0.4765  0.3244 -0.5105
  714MPD2    C410556   1.340   4.675   1.472  0.7841  0.2963  0.1203
  714MPD2    C510557   1.394   4.643   1.593 -0.6944 -0.3588 -0.8078
  714MPD2     H10558   1.487   4.440   1.286  0.9913 -2.7351  1.3623
  714MPD2    H110559   1.275   0.040   1.461 -0.4986 -0.3745  2.5955
  714MPD2    H210560   1.520   4.519   1.710  1.0588  0.6905 -0.5398
  714MPD2    H310561   1.368   4.710   1.674 -3.0113 -0.3710 -1.5475
  714MPD2     N10562   1.325   4.636   1.227 -1.2388 -0.1840  0.4157
  714MPD2    H510563   1.344   4.571   1.151 -1.6845  0.3886 -0.1872
  714MPD2    N110564   1.622   4.368   1.512 -0.0249  0.0641  0.1299
  714MPD2    H710565   1.664   4.361   1.604  1.2593  2.9775 -0.2310
  715TMC3    C110566   1.766   4.181   1.472 -0.0526  0.8037  0.0303
  715TMC3    C210567   1.842   4.112   1.376 -0.1916 -0.1161  0.6457
  715TMC3    C310568   1.960   4.059   1.417 -0.1339  0.3700  0.8541
  715TMC3    C410569   1.804   4.181   1.601 -0.2545  0.2384 -0.0710
  715TMC3    C510570   1.917   4.110   1.637 -0.5161 -0.9006 -0.2876
  715TMC3    C610571   2.003   4.060   1.543  0.7767  0.0931  0.0832
  715TMC3     C10572   1.665   4.270   1.421 -1.4033 -0.2716 -0.6447
  715TMC3     O10573   1.614   4.236   1.316  0.0832  0.3755  0.6670
  715TMC3     H10574   1.818   4.119   1.271  2.1198  2.8161  0.3388
  715TMC3    H110575   1.741   4.227   1.677  0.0478 -0.2218  0.4613
  715TMC3    H210576   2.092   4.004   1.569 -0.0980 -0.9379  0.8758
  715TMC3    C710577   1.950   4.089   1.775  0.5991  0.5168  0.6531
  715TMC3    C810578   2.025   3.987   1.318 -0.3389 -0.2244  1.0084
  715TMC3    O110579   2.063   4.067   1.817 -0.1110 -0.4085  0.1208
  715TMC3    O210580   1.963   3.968   1.211  0.4500 -0.1635  0.5164
  716MPD2     C10581   1.505   2.145  10.059  0.5165 -0.2385  0.5488
  716MPD2    C110582   1.462   2.183   9.934  0.2715 -0.3465 -0.3750
  716MPD2    C210583   1.494   2.093   9.829 -0.3998  0.3536  0.1842
  716MPD2    C310584   1.545   1.968   9.849 -0.0887 -0.6680 -0.2379
  716MPD2    C410585   1.572   1.933   9.984  0.2710  0.3409  0.5010
  716MPD2    C510586   1.559   2.023  10.086  0.2827 -0.2726  0.9126
  716MPD2     H10587   1.454   2.113   9.730  0.2426 -0.2235 -0.1897
  716MPD2    H110588   1.613   1.838  10.018 -1.6009 -0.0308  1.7637
  716MPD2    H210589   1.494   2.205  10.149  1.9200 -0.5374  0.9205
  716MPD2    H310590   1.577   1.995  10.189  0.9554 -0.9404  0.6121
  716MPD2     N10591   1.562   1.877   9.741 -0.2612  0.5813  0.0961
  716MPD2    H510592   1.516   1.896   9.653  0.4766 -1.3559 -0.6955
  716MPD2    N110593   1.394   2.302   9.906  0.7665  0.7945  0.2036
  716MPD2    H710594   1.389   2.343   9.814  3.0402  1.0780  0.2027
  717TMC3    C110595   1.563   1.653   9.656 -0.1974 -0.2490 -0.0773
  717TMC3    C210596   1.444   1.685   9.590 -0.2376 -0.2410 -1.0053
  717TMC3    C310597   1.397   1.600   9.499  0.0044 -0.4126 -0.5661
  717TMC3    C410598   1.619   1.532   9.650 -0.2268  0.0830  0.8736
  717TMC3    C510599   1.552   1.446   9.566 -0.5741 -0.5204 -0.1568
  717TMC3    C610600   1.448   1.476   9.485  0.0386  0.7655 -0.0901
  717TMC3     C10601   1.618   1.751   9.753 -0.1205 -0.1613 -0.7526
  717TMC3     O10602   1.685   1.705   9.844 -0.6385  0.3407 -0.1380
  717TMC3     H10603   1.406   1.786   9.588  3.2036  1.1070  0.3376
  717TMC3    H110604   1.714   1.510   9.698 -0.8718  1.2412  2.6760
  717TMC3    H210605   1.407   1.405   9.415 -0.8709 -0.0128  1.2509
  717TMC3    C710606   1.605   1.308   9.549 -0.0036  0.6580  0.0469
  717TMC3    C810607   1.265   1.638   9.446  0.8359 -0.5194  0.0108
  717TMC3    O110608   1.719   1.287   9.596 -0.0373 -0.0715  0.3867
  717TMC3    O210609   1.196   1.712   9.510 -0.0395 -0.3141  0.4346
  718MPD2     C10610   0.835   1.445  12.998  0.3522 -0.3748  0.2119
  718MPD2    C110611   0.791   1.442  12.874  0.4144  0.1093 -0.2672
  718MPD2    C210612   0.649   1.441  12.862  0.3637  0.4876 -0.5303
  718MPD2    C310613   0.564   1.443  12.966 -0.0440 -0.5015  0.0502
  718MPD2    C410614   0.612   1.443  13.091  0.0139  0.6336 -0.1549
  718MPD2    C510615   0.753   1.436  13.106  0.3015  0.1181 -0.3191
  718MPD2     H10616   0.616   1.456  12.760  1.8119 -1.2381 -1.2534
  718MPD2    H110617   0.550   1.428  13.178  1.9227 -1.9854  0.7594
  718MPD2    H210618   0.943   1.444  13.012  0.5663  1.2625 -1.3191
  718MPD2    H310619   0.789   1.407  13.204  0.8661  1.7710 -0.0420
  718MPD2     N10620   0.428   1.462  12.934 -0.2302  0.0264 -0.2000
  718MPD2    H510621   0.411   1.456  12.834 -2.0303 -0.5230  0.1356
  718MPD2    N110622   0.873   1.442  12.763 -0.2017  0.3918  0.8461
  718MPD2    H710623   0.820   1.458  12.678  0.9949  1.7815  0.3487
  719TMC3    C110624   1.045   1.479  12.624  0.2709  0.0007  0.4707
  719TMC3    C210625   0.944   1.459  12.541  0.3698 -0.1075 -0.3208
  719TMC3    C310626   0.912   1.557  12.446 -0.1367  0.8231 -0.3580
  719TMC3    C410627   1.119   1.591  12.612 -0.0917  0.4044 -0.3948
  719TMC3    C510628   1.084   1.687  12.521  0.3599 -0.1153 -0.5326
  719TMC3    C610629   0.978   1.677  12.442 -0.3271  0.9743  0.5502
  719TMC3     C10630   1.012   1.457  12.759 -0.5389 -0.5666  0.8599
  719TMC3     O10631   1.094   1.476  12.850  0.0280  0.1109 -0.3311
  719TMC3     H10632   0.899   1.362  12.527  1.5608 -0.8773  1.2620
  719TMC3    H110633   1.199   1.605  12.684 -1.9853  0.6579  1.6845
  719TMC3    H210634   0.952   1.746  12.362  0.5560  0.0715 -0.5025
  719TMC3    C710635   1.190   1.787  12.494  0.0770  0.1653  0.3962
  719TMC3    C810636   0.766   1.557  12.434  0.2253  0.1764 -0.3288
  719TMC3    O110637   1.297   1.771  12.553 -0.2149  0.2183 -0.1205
  719TMC3    O210638   0.712   1.488  12.519 -0.4202  0.0925 -0.4036
  720MPD2     C10639   3.797   3.065  14.073 -0.4403 -0.2926 -0.2366
  720MPD2    C110640   3.865   3.054  13.949  0.4381  0.0749  0.0008
  720MPD2    C210641   3.988   2.992  13.939 -0.6624  0.3219  0.2251
  720MPD2    C310642   4.042   2.935  14.052  0.2784  0.1843 -0.1803
  720MPD2    C410643   3.979   2.940  14.170  0.4516 -0.8519  0.0825
  720MPD2    C510644   3.857   3.011  14.184 -0.2647 -0.1330 -0.6310
  720MPD2     H10645   4.030   2.987  13.840  1.3871  0.0075  1.1030
  720MPD2    H110646   4.023   2.914  14.266  0.4868  1.7242  0.7851
  720MPD2    H210647   3.694   3.099  14.082 -0.2841 -0.4861  2.3194
  720MPD2    H310648   3.808   3.019  14.280  1.2065 -0.6193  0.1684
  720MPD2     N10649   4.174   2.882  14.041  0.4289  0.1327 -0.2945
  720MPD2    H510650   4.235   2.905  13.964 -1.3796  1.5272 -1.3133
  720MPD2    N110651   3.812   3.110  13.829 -0.0778  0.0456 -0.1222
  720MPD2    H710652   3.856   3.084  13.741 -0.2608 -1.1763  0.1508
  721TMC3    C110653   4.388   2.873  14.148 -0.6547  0.0315 -0.2078
  721TMC3    C210654   4.453   2.845  14.266 -0.0666 -0.6294  0.3330
  721TMC3    C310655   4.571   2.918  14.289  0.8816 -0.1875 -0.1811
  721TMC3    C410656   4.428   2.971  14.061 -0.0405  0.3794 -0.5729
  721TMC3    C510657   4.544   3.033  14.096  0.4780 -0.3356  0.3234
  721TMC3    C610658   4.625   3.005  14.204  0.1293 -0.0224 -0.2756
  721TMC3     C10659   4.246   2.840  14.151 -0.1215  0.0264  0.3481
  721TMC3     O10660   4.204   2.779  14.249 -0.1391 -0.3225 -0.0705
  721TMC3     H10661   4.426   2.766  14.335  0.9208  0.7466  2.2953
  721TMC3    H110662   4.369   3.007  13.977 -0.8148 -2.0475 -1.0495
  721TMC3    H210663   0.000   3.048  14.230  0.2336 -0.4618  0.0703
  721TMC3    C710664   4.580   3.145  14.015  0.4612 -0.0311  0.4724
  721TMC3    C810665   4.654   2.878  14.395  0.1711  0.2092 -0.7025
  721TMC3    O110666   4.554   3.149  13.893 -0.0461  0.1383  0.4871
  721TMC3    O210667   0.046   2.828  14.367  0.3697 -0.2219 -0.4695
  722MPD2     C10668   2.630   1.543  12.928 -0.1202  1.0508 -0.4358
  722MPD2    C110669   2.561   1.666  12.929 -0.2667  0.8404  0.2445
  722MPD2    C210670   2.442   1.681  12.858  0.5883  0.5124 -1.0596
  722MPD2    C310671   2.389   1.575  12.791 -0.1862  0.1218  0.5036
  722MPD2    C410672   2.454   1.455  12.794 -0.7248 -0.6511 -0.0256
  722MPD2    C510673   2.575   1.440  12.858 -0.0812  0.3366 -0.6194
  722MPD2     H10674   2.396   1.779  12.847  0.4505  0.3416 -2.0309
  722MPD2    H110675   2.413   1.368  12.745  0.7104 -1.5681  0.4168
  722MPD2    H210676   2.721   1.523  12.983 -0.8319  0.8828  0.6932
  722MPD2    H310677   2.616   1.340  12.853  0.2559  0.4304  0.1167
  722MPD2     N10678   2.277   1.586  12.699 -0.1346  0.1210  0.5691
  722MPD2    H510679   2.243   1.679  12.677  0.7067  0.2578 -0.1862
  722MPD2    N110680   2.607   1.776  13.003 -0.3613  0.1522  0.4728
  722MPD2    H710681   2.554   1.862  12.999  3.1928  2.2601 -1.3530
  723TMC3    C110682   2.113   1.517  12.542  0.2721  0.3921 -0.6088
  723TMC3    C210683   2.026   1.427  12.498  0.0803 -0.1623  0.6684
  723TMC3    C310684   1.962   1.451  12.379 -0.0618 -0.7280 -0.2681
  723TMC3    C410685   2.125   1.641  12.488 -0.1198 -0.6209  0.1164
  723TMC3    C510686   2.057   1.660  12.367 -0.2588  0.4461 -0.4482
  723TMC3    C610687   1.982   1.569  12.311  0.1331  0.1372  0.2671
  723TMC3     C10688   2.204   1.479  12.648 -0.3034  0.0978  0.8083
  723TMC3     O10689   2.214   1.356  12.673 -0.3188 -0.2348  0.1887
  723TMC3     H10690   2.004   1.338  12.556 -1.4301  0.4270  1.0244
  723TMC3    H110691   2.201   1.711  12.522 -1.7403  1.8131 -1.3019
  723TMC3    H210692   1.928   1.589  12.219 -0.5912  0.6152  0.7884
  723TMC3    C710693   2.111   1.762  12.283  0.2414  0.1831  0.4755
  723TMC3    C810694   1.838   1.383  12.350 -0.3405 -0.3937  0.2198
  723TMC3    O110695   2.117   1.727  12.165 -0.3134  0.4652  0.3909
  723TMC3    O210696   1.745   1.453  12.305 -0.1381  0.2260  0.0459
  724TMC3    C110697   3.109   0.051  10.406  0.1260  0.9915  0.9433
  724TMC3    C210698   3.005   0.008  10.328 -0.0201  0.0921 -0.6437
  724TMC3    C310699   2.996   0.045  10.197  0.7818 -0.5676  0.1042
  724TMC3    C410700   3.211   0.116  10.338 -1.1874  0.4616  0.0611
  724TMC3    C510701   3.209   0.134  10.199  0.6592 -0.7254 -0.4656
  724TMC3    C610702   3.096   0.106  10.126 -0.1834  0.2090  0.4758
  724TMC3     C10703   3.126   0.007  10.541  0.2231 -0.0221  0.1838
  724TMC3     O10704   3.242   0.015  10.577  0.5426 -0.2100 -0.1511
  724TMC3     H10705   2.917   4.698  10.382 -1.0122  0.7697 -1.8855
  724TMC3    H110706   3.296   0.149  10.396  1.1069 -1.0559 -2.4013
  724TMC3    H210707   3.098   0.129  10.020 -1.1893  6.0746  1.7762
  724TMC3    C710708   3.329   0.182  10.145 -0.0857  0.0543  0.1051
  724TMC3    C810709   2.870   0.003  10.133 -0.2818  0.0268 -0.4523
  724TMC3    O110710   3.360   0.144  10.029 -0.0606  0.1137 -0.3641
  724TMC3    O210711   2.797   4.646  10.192 -0.1365 -0.4037 -0.4346
  725TMC3    C110712   4.056   3.329  12.871  0.0794  0.1410  0.1551
  725TMC3    C210713   3.979   3.328  12.760  0.2009 -0.8227  0.1740
  725TMC3    C310714   3.927   3.205  12.723 -0.4668  0.4106  0.4739
  725TMC3    C410715   4.121   3.216  12.923 -0.0984 -0.3703 -0.0343
  725TMC3    C510716   4.077   3.099  12.872 -0.4345  0.5893 -0.5318
  725TMC3    C610717   3.984   3.093  12.770 -0.0645  0.1875 -0.0809
  725TMC3     C10718   4.119   3.451  12.911 -0.1870  0.2903  0.0238
  725TMC3     O10719   4.180   3.514  12.828 -0.6226 -0.0549  0.5398
  725TMC3     H10720   3.918   3.415  12.741 -0.8041 -1.5217  0.1558
  725TMC3    H110721   4.200   3.229  12.996  1.8847 -1.2044 -2.0341
  725TMC3    H210722   3.955   2.996  12.731  0.1490 -0.5031  1.4758
  725TMC3    C710723   4.171   2.992  12.876  0.3055  0.3169  0.1251
  725TMC3    C810724   3.872   3.195  12.589 -0.0236 -0.7406 -0.3161
  725TMC3    O110725   4.160   2.907  12.793  0.1451  0.1833  0.2297
  725TMC3    O210726   3.799   3.099  12.573 -0.3842  0.0654 -0.1081
  726MPD2     C10727   1.689   0.180  10.588  0.6619  0.3100  0.6907
  726MPD2    C110728   1.773   0.183  10.699  0.6809 -0.0254 -0.2704
  726MPD2    C210729   1.721   0.178  10.825  0.8138 -0.1295 -0.0402
  726MPD2    C310730   1.583   0.148  10.846 -0.0287 -0.2806 -0.3904
  726MPD2    C410731   1.499   0.156  10.741  0.1565 -0.7196 -0.4750
  726MPD2    C510732   1.553   0.170  10.612 -0.8564 -0.7600 -0.1364
  726MPD2     H10733   1.792   0.209  10.901  0.0544 -1.1158  1.0768
  726MPD2    H110734   1.392   0.147  10.753  0.0964  3.2799  1.9898
  726MPD2    H210735   1.726   0.173  10.486  0.1662  0.1045  0.5257
  726MPD2    H310736   1.488   0.175  10.525  0.3997  0.0555 -1.0208
  726MPD2     N10737   1.525   0.140  10.978  0.7802  0.2423 -0.2045
  726MPD2    H510738   1.427   0.117  10.992  1.1351 -0.3336  1.4207
  726MPD2    N110739   1.910   0.212  10.685 -0.0517 -0.1702 -0.5119
  726MPD2    H710740   1.964   0.215  10.772 -0.2385 -3.1966 -0.2852
  727TMC3    C110741   2.121   0.264  10.589 -0.2505  0.0602  0.1449
  727TMC3    C210742   2.180   0.252  10.710  0.9995  0.5116  0.6347
  727TMC3    C310743   2.312   0.283  10.719  0.7576  0.4031 -0.3596
  727TMC3    C410744   2.186   0.311  10.481  0.4824  0.5226  0.3197
  727TMC3    C510745   2.314   0.361  10.500  0.3955  0.0357 -0.2486
  727TMC3    C610746   2.383   0.337  10.614 -0.5170  0.0293 -0.5286
  727TMC3     C10747   1.985   0.216  10.569  0.0974  0.1306 -0.4932
  727TMC3     O10748   1.957   0.186  10.452  0.3355  0.2854  0.5781
  727TMC3     H10749   2.124   0.208  10.792 -2.4997  1.3521 -1.2613
  727TMC3    H110750   2.131   0.315  10.388  0.1425  1.6758  0.5734
  727TMC3    H210751   2.480   0.377  10.642 -0.9105 -0.0404  0.9820
  727TMC3    C710752   2.353   0.451  10.390  0.6791  0.4705  0.3269
  727TMC3    C810753   2.377   0.242  10.839 -0.4163 -0.1892  0.7916
  727TMC3    O110754   2.292   0.435  10.287 -0.2033  0.2111  0.3383
  727TMC3    O210755   2.311   0.209  10.936 -0.0087  0.9504 -0.0886
  728TMC3    C110756   1.956   3.574  15.123  0.3508 -0.8708 -0.0917
  728TMC3    C210757   2.049   3.472  15.121 -0.2951  0.2974 -1.0289
  728TMC3    C310758   2.141   3.473  15.027 -0.3994 -0.7071 -0.5633
  728TMC3    C410759   1.957   3.677  15.037 -0.1464 -0.7757 -0.7075
  728TMC3    C510760   2.058   3.677  14.942 -0.4319  0.2833 -0.7280
  728TMC3    C610761   2.149   3.577  14.938  0.2911  0.0950  0.4592
  728TMC3     C10762   1.885   3.606  15.244 -0.1432 -0.3067 -0.1355
  728TMC3     O10763   1.862   3.722  15.271 -0.4872  0.0872  0.3180
  728TMC3     H10764   2.048   3.388  15.190 -2.4785  0.5807 -0.7058
  728TMC3    H110765   1.893   3.764  15.048 -0.4490 -1.2243  1.1552
  728TMC3    H210766   2.232   3.574  14.868  0.1814  0.0907  0.3278
  728TMC3    C710767   2.108   3.804  14.907 -0.8346 -0.3984  0.7550
  728TMC3    C810768   2.266   3.403  15.045 -0.1090 -0.6657  0.5539
  728TMC3    O110769   2.230   3.816  14.899  0.4951  0.1652 -0.3827
  728TMC3    O210770   2.350   3.406  14.955  0.2904  0.4271 -0.2813
  729MPD2     C10771   4.094   0.024  17.093 -0.1438 -1.0433 -0.1690
  729MPD2    C110772   4.193   4.648  17.092  0.3176  0.2965  0.8371
  729MPD2    C210773   4.262   4.626  17.206  0.1923  1.1055  0.8770
  729MPD2    C310774   4.212   4.684  17.323  0.0925  0.1677  0.3591
  729MPD2    C410775   4.099   0.045  17.322 -0.5904  0.4982  0.6471
  729MPD2    C510776   4.045   0.088  17.203  0.5991  1.0320  0.1554
  729MPD2     H10777   4.340   4.551  17.212 -0.1722  0.7876  1.5834
  729MPD2    H110778   4.050   0.072  17.415  0.7081  1.8334  0.9497
  729MPD2    H210779   4.043   0.040  16.999  0.4151 -3.4812 -0.9019
  729MPD2    H310780   3.959   0.154  17.200 -0.3015 -0.1170  0.7950
  729MPD2     N10781   4.270   4.660  17.460  0.0703  0.4704  0.0836
  729MPD2    H510782   4.230   0.004  17.527  2.0150  0.0350  1.6565
  729MPD2    N110783   4.218   4.579  16.974  0.3706 -0.0843  0.6378
  729MPD2    H710784   4.144   4.578  16.905  0.9273  1.1979  0.0062
  730TMC3    C110785   4.432   4.645  17.622 -0.0024  0.0677 -0.5096
  730TMC3    C210786   4.567   4.668  17.612  0.0282 -0.1554 -0.6270
  730TMC3    C310787   4.609   0.073  17.630  0.3533  0.4816 -0.0399
  730TMC3    C410788   4.342   0.014  17.679 -0.0799 -0.7405 -0.8852
  730TMC3    C510789   4.391   0.138   0.029  0.0186 -0.5756  0.1940
  730TMC3    C610790   4.523   0.167  17.683 -0.2809 -0.3321 -0.0349
  730TMC3     C10791   4.381   4.592  17.498  0.0137 -0.8052 -0.1361
  730TMC3     O10792   4.462   4.533  17.431 -0.5174  0.1486 -0.1845
  730TMC3     H10793   4.635   4.605  17.556 -0.6105  0.2180 -1.8241
  730TMC3    H110794   4.239   4.713   0.018  0.2867  0.5264  1.8187
  730TMC3    H210795   4.566   0.265   0.013  0.2613 -1.0965  3.3957
  730TMC3    C710796   4.297   0.242   0.000 -0.1328 -0.2136 -0.2408
  730TMC3    C810797   4.684   0.131  17.522 -0.1710  0.1002  0.5826
  730TMC3    O110798   4.205   0.212  17.605 -0.0036 -0.6239  0.3161
  730TMC3    O210799   0.030   0.230  17.548  0.2380 -0.0941 -0.5927
  731MPD2     C10800   3.851   2.265  11.842 -0.1020 -0.5598  0.1273
  731MPD2    C110801   3.963   2.191  11.869  0.6239  0.0955 -0.0641
  731MPD2    C210802   3.972   2.125  11.989  0.5842  0.5501  0.0223
  731MPD2    C310803   3.868   2.135  12.082 -0.5697  0.0415  0.0485
  731MPD2    C410804   3.763   2.226  12.059  0.4899  0.1184 -0.3576
  731MPD2    C510805   3.759   2.289  11.939 -0.4081 -0.0058 -0.1833
  731MPD2     H10806   4.059   2.062  12.007  0.8481  0.3815 -1.8273
  731MPD2    H110807   3.694   2.263  12.134  2.7290  3.1630  0.2262
  731MPD2    H210808   3.848   2.323  11.750 -0.4975 -1.0795 -0.1894
  731MPD2    H310809   3.695   2.376  11.925 -0.9588 -0.2524  0.8208
  731MPD2     N10810   3.868   2.056  12.202 -0.3506  0.7991  0.8939
  731MPD2    H510811   3.948   1.998  12.224 -1.1910  0.1991  2.3608
  731MPD2    N110812   4.070   2.198  11.776 -0.3267  0.4115 -0.4461
  731MPD2    H710813   4.046   2.246  11.690  0.2891  2.2808  0.4123
  732TMC3    C110814   4.286   2.239  11.701  0.1956  0.7263 -0.0978
  732TMC3    C210815   4.241   2.213  11.569  0.8126 -0.0927 -0.0072
  732TMC3    C310816   4.235   2.320  11.482  0.6228 -0.4422  0.2006
  732TMC3    C410817   4.318   2.365  11.738 -0.2016 -0.2363 -0.5209
  732TMC3    C510818   4.316   2.472  11.646  1.1238 -0.4577  0.4963
  732TMC3    C610819   4.264   2.450  11.522 -0.3243  0.6464  0.5231
  732TMC3     C10820   4.206   2.183  11.807  0.1264 -0.8187 -0.2829
  732TMC3     O10821   4.262   2.156  11.909 -0.2480  1.1022 -0.3871
  732TMC3     H10822   4.195   2.119  11.542 -1.4092  1.0055  0.0060
  732TMC3    H110823   4.332   2.389  11.842  0.0161 -0.4834 -0.4911
  732TMC3    H210824   4.263   2.538  11.458  2.4975 -0.8044 -1.5012
  732TMC3    C710825   4.351   2.610  11.676 -0.7945  0.0544  0.2842
  732TMC3    C810826   4.128   2.307  11.390 -0.8370  1.2173  0.1787
  732TMC3    O110827   4.347   2.689  11.583  0.7039  0.1403 -0.5468
  732TMC3    O210828   4.152   2.217  11.313  0.0029  0.0364  0.1554
  733TMC3    C110829   4.711   1.490  12.876 -0.2492 -0.0670  0.3742
  733TMC3    C210830   0.080   1.481  12.973 -0.6969 -0.7994  0.3184
  733TMC3    C310831   0.208   1.525  12.941 -0.1531  0.1838  0.4883
  733TMC3    C410832   0.009   1.558  12.758 -0.1366  0.7066  0.5669
  733TMC3    C510833   0.124   1.622  12.746  0.4586  0.4867  0.3683
  733TMC3    C610834   0.228   1.600  12.834  0.1926 -0.4762  0.1987
  733TMC3     C10835   4.580   1.440  12.899  0.1164 -0.4912  0.1737
  733TMC3     O10836   4.491   1.499  12.840  0.4921  0.0102  0.4833
  733TMC3     H10837   0.071   1.437  13.072 -0.3671 -0.3651  0.5437
  733TMC3    H110838   4.657   1.557  12.678  0.6752  0.6198 -0.1773
  733TMC3    H210839   0.326   1.645  12.821  0.4052 -1.5033 -1.8369
  733TMC3    C710840   0.149   1.666  12.609 -0.5466 -0.6394 -0.0372
  733TMC3    C810841   0.320   1.484  13.013 -0.4218  0.4503 -0.3562
  733TMC3    O110842   0.066   1.729  12.551  0.0221  0.4164 -0.5051
  733TMC3    O210843   0.311   1.443  13.129 -0.6605  0.8802  0.0271
  734MPD2     C10844   2.277   3.912  11.983 -0.0567 -0.4406 -0.0682
  734MPD2    C110845   2.180   3.809  11.994  0.3634 -0.1282 -0.1485
  734MPD2    C210846   2.095   3.784  11.885 -0.0731 -0.1602 -0.2045
  734MPD2    C310847   2.093   3.869  11.772  0.1006 -0.5858  0.2035
  734MPD2    C410848   2.197   3.957  11.760 -0.1809 -0.1362 -0.2453
  734MPD2    C510849   2.286   3.981  11.867  0.1899  0.0122  0.2946
  734MPD2     H10850   2.032   3.696  11.878 -1.1465  0.7079 -1.2578
  734MPD2    H110851   2.215   4.008  11.666 -0.3688 -0.5162 -0.4894
  734MPD2    H210852   2.340   3.943  12.066 -1.5240  0.3059  0.7573
  734MPD2    H310853   2.354   4.064  11.849 -0.8736  0.4890 -1.5651
  734MPD2     N10854   2.004   3.839  11.672  0.1843  0.2469  0.0444
  734MPD2    H510855   1.948   3.756  11.689  0.5341 -0.1847 -0.9090
  734MPD2    N110856   2.170   3.723  12.109  0.3004 -0.1983  0.1607
  734MPD2    H710857   2.246   3.731  12.176 -1.4871 -1.3302  2.3314
  735TMC3    C110858   2.102   3.542  12.235  0.7139  0.4031  0.0129
  735TMC3    C210859   1.992   3.461  12.242 -0.6950  0.6915 -0.2452
  735TMC3    C310860   2.005   3.323  12.246 -0.1450  0.2349  0.2544
  735TMC3    C410861   2.227   3.492  12.254 -0.6635  0.4063  0.0988
  735TMC3    C510862   2.239   3.357  12.263  0.5141 -0.4458 -0.1847
  735TMC3    C610863   2.128   3.273  12.257 -0.3349 -0.1108 -0.2800
  735TMC3     C10864   2.068   3.635  12.129  0.7835  0.9343 -0.2849
  735TMC3     O10865   1.965   3.611  12.068 -0.3409 -0.2383  0.1924
  735TMC3     H10866   1.895   3.509  12.231 -0.4798  1.4448  1.1307
  735TMC3    H110867   2.316   3.554  12.254 -0.8798  0.7209  0.0796
  735TMC3    H210868   2.133   3.165  12.259  2.3328 -0.0248 -2.3759
  735TMC3    C710869   2.365   3.307  12.309  0.2421  0.6342 -0.1507
  735TMC3    C810870   1.927   3.250  12.145  0.2252 -0.0158 -0.2563
  735TMC3    O110871   2.460   3.376  12.274 -0.3678 -0.6484 -0.3978
  735TMC3    O210872   1.937   3.127  12.143 -0.1975 -0.1214 -0.2733
  736MPD2     C10873   2.440   2.971  12.458 -0.0866  0.2380 -0.7474
  736MPD2    C110874   2.460   3.090  12.384  0.1385 -0.6793  0.7558
  736MPD2    C210875   2.580   3.105  12.316 -0.6671  0.8398 -0.3545
  736MPD2    C310876   2.670   3.000  12.297 -0.4777  0.1275 -0.0475
  736MPD2    C410877   2.645   2.885  12.365  0.0752 -0.4135 -0.3056
  736MPD2    C510878   2.538   2.876  12.449 -0.3968  0.6345  0.0426
  736MPD2     H10879   2.595   3.189  12.249 -2.6270  1.4599  0.0085
  736MPD2    H110880   2.707   2.797  12.353  1.7377  1.0004 -2.1298
  736MPD2    H210881   2.348   2.945  12.509 -1.3563  2.0985 -2.1169
  736MPD2    H310882   2.514   2.783  12.499 -0.8468 -0.1754 -1.6696
  736MPD2     N10883   2.773   3.004  12.197 -0.6631 -0.2276  0.5340
  736MPD2    H510884   2.807   2.915  12.162  0.1101  0.9380 -1.6708
  736MPD2    N110885   2.351   3.186  12.374 -0.0214 -0.3604 -0.6189
  736MPD2    H710886   2.261   3.168  12.417  0.7100 -0.7501  0.7723
  737TMC3    C110887   2.912   3.095  12.025 -0.5602  0.2170 -0.3953
  737TMC3    C210888   2.956   3.213  11.970 -0.3160  0.5023  0.1969
  737TMC3    C310889   2.993   3.212  11.839 -0.1046 -0.2755 -0.1399
  737TMC3    C410890   2.905   2.979  11.952 -0.0019  0.3396  0.3244
  737TMC3    C510891   2.952   2.978  11.821 -0.4556  0.7561  0.0881
  737TMC3    C610892   2.999   3.093  11.758  0.4171 -0.0807 -0.1441
  737TMC3     C10893   2.817   3.119  12.138 -0.3180  1.0401 -0.5157
  737TMC3     O10894   2.791   3.235  12.166 -0.2152  0.2123 -0.4999
  737TMC3     H10895   2.961   3.306  12.027  0.6980  0.0545  0.8286
  737TMC3    H110896   2.866   2.885  11.991  0.3915 -0.7076 -1.7909
  737TMC3    H210897   3.015   3.091  11.651  1.3996  0.3698 -0.0059
  737TMC3    C710898   2.960   2.851  11.752 -0.3175 -0.0702  0.2931
  737TMC3    C810899   2.998   3.345  11.778  0.4043  0.4318 -0.4683
  737TMC3    O110900   2.890   2.761  11.802 -0.3062  0.3323  0.5371
  737TMC3    O210901   2.951   3.433  11.846 -0.2615 -0.1886  0.3720
  738MPD2     C10902   2.670   2.001  15.342 -0.0628 -0.2338 -0.4039
  738MPD2    C110903   2.666   1.951  15.210 -0.3993 -0.4996 -0.3300
  738MPD2    C210904   2.782   1.957  15.128 -0.5214 -0.4835 -0.7568
  738MPD2    C310905   2.891   2.019  15.177 -0.4321 -0.2396 -0.1843
  738MPD2    C410906   2.889   2.082  15.297 -0.1031  0.1721 -0.0344
  738MPD2    C510907   2.779   2.073  15.380 -0.1444 -0.1253 -0.4703
  738MPD2     H10908   2.781   1.913  15.029  1.1908  0.4894 -1.2000
  738MPD2    H110909   2.977   2.133  15.333 -0.1081 -2.0653  3.1946
  738MPD2    H210910   2.591   1.990  15.416 -0.5300  3.4217 -0.3804
  738MPD2    H310911   2.787   2.125  15.474 -2.4387  0.5220 -0.6265
  738MPD2     N10912   3.013   2.042  15.112  0.4216  0.1712 -0.6015
  738MPD2    H510913   3.087   2.074  15.173  0.9036 -0.7292 -0.7210
  738MPD2    N110914   2.555   1.882  15.148  0.3223  0.6939  0.1285
  738MPD2    H710915   2.558   1.854  15.051  2.6743 -4.0085  1.5125
  739TMC3    C110916   3.164   2.071  14.940  0.4216  0.2963 -0.8308
  739TMC3    C210917   3.175   2.117  14.816 -0.0546 -0.6792 -0.1609
  739TMC3    C310918   3.298   2.155  14.768 -0.1924 -0.2104 -0.4483
  739TMC3    C410919   3.270   2.056  15.022  0.3363 -0.2340 -0.0912
  739TMC3    C510920   3.390   2.106  14.980 -0.2941  0.1543 -0.3829
  739TMC3    C610921   3.403   2.160  14.854  0.5755 -0.8646  0.2524
  739TMC3     C10922   3.036   2.021  14.976  0.7088  0.3542 -0.2200
  739TMC3     O10923   2.962   1.989  14.883  0.4145  0.1905 -0.7945
  739TMC3     H10924   3.091   2.136  14.751 -1.6236  2.3715  2.8033
  739TMC3    H110925   3.260   2.005  15.117 -1.6542  0.0510 -0.1312
  739TMC3    H210926   3.488   2.219  14.820 -0.1350 -1.5720 -2.8201
  739TMC3    C710927   3.507   2.105  15.072 -0.4894 -0.6578  0.6396
  739TMC3    C810928   3.301   2.226  14.636  0.3022 -0.5417 -0.5630
  739TMC3    O110929   3.478   2.100  15.190 -0.0793 -0.3220  0.0504
  739TMC3    O210930   3.199   2.273  14.590  0.6774  0.1811  0.0883
  740TMC3    C110931   3.949   3.262  14.445  0.2744  0.0345 -0.1473
  740TMC3    C210932   4.031   3.192  14.523  0.0862  0.1002  0.4283
  740TMC3    C310933   4.149   3.143  14.472 -0.2271 -0.2076  0.2109
  740TMC3    C410934   3.983   3.286  14.316  0.2861  0.5509  0.0737
  740TMC3    C510935   4.102   3.244  14.267 -0.6378  0.4446  0.4644
  740TMC3    C610936   4.193   3.174  14.345 -0.0739  0.3344 -0.3682
  740TMC3     C10937   3.872   3.358  14.516 -0.7822  0.4725 -0.1386
  740TMC3     O10938   3.907   3.473  14.504 -0.1822  1.2207  0.1524
  740TMC3     H10939   4.014   3.192  14.630  0.2306 -1.1128  0.4526
  740TMC3    H110940   3.921   3.357  14.263  0.8659  1.1998  0.2620
  740TMC3    H210941   4.294   3.149  14.312 -0.8406 -2.0918 -0.9037
  740TMC3    C710942   4.144   3.260  14.130 -0.2573 -0.2850 -0.8440
  740TMC3    C810943   4.206   3.022  14.527 -0.8720 -0.5032  1.3189
  740TMC3    O110944   4.257   3.216  14.100 -0.1981 -0.0841 -0.4964
  740TMC3    O210945   4.327   3.005  14.510 -0.2801  0.1414 -0.1229
  741TMC3    C110946   3.353   2.693  14.244 -0.3660  0.4923  0.4880
  741TMC3    C210947   3.226   2.633  14.234 -0.0143  0.4383  0.2104
  741TMC3    C310948   3.173   2.583  14.345 -0.0089 -0.2863 -0.8843
  741TMC3    C410949   3.418   2.701  14.369 -0.2891  0.6603  0.5168
  741TMC3    C510950   3.353   2.647  14.474  0.1875 -0.3044 -0.3304
  741TMC3    C610951   3.230   2.584  14.468 -0.2209 -0.0724  0.0339
  741TMC3     C10952   3.430   2.680  14.122 -0.4516 -0.2840 -0.1078
  741TMC3     O10953   3.377   2.649  14.017  0.2312  0.4208 -0.1904
  741TMC3     H10954   3.179   2.619  14.137  0.2014 -0.6639  0.2612
  741TMC3    H110955   3.510   2.755  14.387  1.3692 -2.1384  0.5583
  741TMC3    H210956   3.179   2.535  14.551 -1.7326  1.8963  0.2813
  741TMC3    C710957   3.442   2.621  14.587  0.0777  0.0753  0.2718
  741TMC3    C810958   3.039   2.532  14.337  0.2819 -0.3990  0.1338
  741TMC3    O110959   3.562   2.616  14.560  0.1443 -0.4231  0.4697
  741TMC3    O210960   2.982   2.587  14.243 -0.3166 -0.3186 -0.0551
  742TMC3    C110961   3.111   0.989  15.659  0.4526 -0.0767  0.2333
  742TMC3    C210962   3.035   0.986  15.549  0.0328  0.2505  0.6294
  742TMC3    C310963   3.088   0.924  15.441 -0.5861  0.5290  0.2465
  742TMC3    C410964   3.237   0.934  15.667  0.4399 -0.3450  0.0255
  742TMC3    C510965   3.283   0.862  15.556 -0.5445  0.7822  0.3168
  742TMC3    C610966   3.210   0.861  15.439 -0.7087  0.2578 -0.1221
  742TMC3     C10967   3.039   1.014  15.782 -0.8207  0.0866  0.1790
  742TMC3     O10968   3.074   0.953  15.883 -0.1599 -0.5848  0.1238
  742TMC3     H10969   2.928   1.007  15.557 -0.1103  0.6655 -2.2630
  742TMC3    H110970   3.303   0.948  15.752 -1.5019  1.2107  1.2415
  742TMC3    H210971   3.236   0.789  15.362 -3.4645  1.2793 -1.9648
  742TMC3    C710972   3.406   0.780  15.557  0.0555  0.2772  0.3612
  742TMC3    C810973   3.007   0.894  15.325 -1.0322 -0.1618  0.0452
  742TMC3    O110974   3.451   0.761  15.446  0.6060  0.0782 -0.4060
  742TMC3    O210975   3.041   0.811  15.244 -0.4367 -0.0634 -0.3774
  743MPD2     C10976   1.155   1.794   1.592  0.3323  1.0131  0.2792
  743MPD2    C110977   1.221   1.845   1.491  0.8893  0.0872  0.4571
  743MPD2    C210978   1.355   1.804   1.470  0.4169 -0.3403  0.2835
  743MPD2    C310979   1.421   1.713   1.545 -0.0218 -0.4372  0.3669
  743MPD2    C410980   1.347   1.665   1.650 -0.0141 -0.5335  0.5784
  743MPD2    C510981   1.217   1.706   1.675 -0.2475 -0.4569 -0.1246
  743MPD2     H10982   1.406   1.840   1.381  1.3013 -1.6893  0.2378
  743MPD2    H110983   1.390   1.594   1.720 -0.4340 -1.8410 -0.4808
  743MPD2    H210984   1.053   1.820   1.617  0.3509  0.7504  0.6225
  743MPD2    H310985   1.164   1.656   1.756  0.8333 -1.4850 -0.0550
  743MPD2     N10986   1.552   1.675   1.516  0.2000  0.3036  0.5215
  743MPD2    H510987   1.606   1.723   1.445 -1.1162  2.3688  0.9243
  743MPD2    N110988   1.174   1.943   1.405  0.2302 -0.0963 -0.1243
  743MPD2    H710989   1.231   1.962   1.323 -3.2054  2.5349 -1.9043
  744TMC3    C110990   1.041   2.134   1.346  0.2492  0.4970  0.3027
  744TMC3    C210991   0.920   2.200   1.369  0.1938  0.3982  0.5305
  744TMC3    C310992   0.894   2.300   1.278  0.0259 -0.5613 -0.2258
  744TMC3    C410993   1.132   2.164   1.248 -0.4154  0.5960 -0.4049
  744TMC3    C510994   1.102   2.277   1.171  0.1427 -0.2777  0.6136
  744TMC3    C610995   0.979   2.345   1.178 -0.0694 -0.4862  0.7112
  744TMC3     C10996   1.071   2.027   1.439  0.5235  0.5116  0.2082
  744TMC3     O10997   1.003   2.023   1.540  0.0151  0.1609  0.0850
  744TMC3     H10998   0.852   2.173   1.449 -1.5245 -1.2554 -1.4742
  744TMC3    H110999   1.234   2.127   1.250 -0.5279  0.2719 -0.5912
  744TMC3    H211000   0.952   2.417   1.102  1.5484  0.2552  0.8577
  744TMC3    C711001   1.169   2.298   1.038 -0.4893 -0.5207 -0.1601
  744TMC3    C811002   0.789   2.397   1.314  0.2531  0.5121  0.0032
  744TMC3    O111003   1.144   2.400   0.981  0.3301 -0.0671  0.2863
  744TMC3    O211004   0.797   2.509   1.265  0.3478  0.5890  0.4777
  745TMC3    C111005   3.448   0.668  13.351 -0.0878 -0.0022  0.5817
  745TMC3    C211006   3.390   0.712  13.469  0.7986 -0.4870  0.2755
  745TMC3    C311007   3.251   0.689  13.483  0.0403 -0.2346 -0.6095
  745TMC3    C411008   3.378   0.616  13.245 -0.1489  0.2068  0.0402
  745TMC3    C511009   3.243   0.604  13.256  0.0241  0.0518  0.4793
  745TMC3    C611010   3.179   0.650  13.370 -0.3471  0.1496  0.3364
  745TMC3     C11011   3.575   0.719  13.318  0.5071 -0.7697 -0.1889
  745TMC3     O11012   3.651   0.649  13.256  0.2225  0.4640  0.4967
  745TMC3     H11013   3.459   0.744  13.546 -1.1585  0.6069  1.5950
  745TMC3    H111014   3.426   0.582  13.154 -1.3870 -3.4999  0.7842
  745TMC3    H211015   3.072   0.637  13.384 -0.5687  0.7443 -0.7924
  745TMC3    C711016   3.207   0.674  13.136 -0.2647  0.5048  0.3248
  745TMC3    C811017   3.187   0.760  13.588  0.3569  0.3976  0.5465
  745TMC3    O111018   3.110   0.636  13.068  0.5469  0.1451 -0.6593
  745TMC3    O211019   3.067   0.778  13.577  0.4928  0.3645  0.2354
  746TMC3    C111020   1.014   2.855  11.017 -0.0615  0.2718  0.8265
  746TMC3    C211021   1.131   2.847  10.940  0.4278  0.2370 -0.2848
  746TMC3    C311022   1.141   2.734  10.864  0.0869 -0.4519  0.0054
  746TMC3    C411023   0.917   2.758  11.021  0.4712 -0.5949  0.0913
  746TMC3    C511024   0.939   2.650  10.942  0.4089 -0.6623 -0.8777
  746TMC3    C611025   1.047   2.634  10.859  0.6033 -0.5252  0.5808
  746TMC3     C11026   0.986   2.966  11.099 -0.4048  0.0334 -0.2900
  746TMC3     O11027   0.881   2.970  11.159  0.3458  0.0359 -0.3796
  746TMC3     H11028   1.213   2.917  10.953  0.6668 -0.0971 -0.0055
  746TMC3    H111029   0.840   2.754  11.097 -1.2597 -0.6837 -1.6506
  746TMC3    H211030   1.060   2.554  10.787  1.2711 -0.2040  0.3417
  746TMC3    C711031   0.847   2.538  10.939  0.0130  0.8777  0.1306
  746TMC3    C811032   1.273   2.699  10.812 -0.1998  0.3719  0.3228
  746TMC3    O111033   0.853   2.460  10.846  0.2593  0.1953 -0.1371
  746TMC3    O211034   1.297   2.578  10.802  0.7000  0.1499 -0.3016
  747TMC3    C111035   3.647   2.575  10.972 -0.0194 -0.6637 -0.1278
  747TMC3    C211036   3.519   2.542  11.015  0.1682  0.1667  0.4447
  747TMC3    C311037   3.477   2.596  11.136  0.9195 -0.3282  0.0071
  747TMC3    C411038   3.735   2.643  11.052 -0.3134  1.2111  0.5977
  747TMC3    C511039   3.696   2.694  11.172  0.2427  0.3041 -0.0984
  747TMC3    C611040   3.565   2.675  11.211  0.2186  0.1012  0.0955
  747TMC3     C11041   3.668   2.613  10.832 -0.0791  0.1089  0.6863
  747TMC3     O11042   3.743   2.710  10.824 -0.0581 -0.5677  0.1291
  747TMC3     H11043   3.457   2.475  10.957 -0.8993  1.8303 -0.3556
  747TMC3    H111044   3.836   2.658  11.015 -0.7252  1.4420 -0.4373
  747TMC3    H211045   3.550   2.696  11.317 -1.2042 -2.4649  0.4030
  747TMC3    C711046   3.787   2.767  11.260 -0.6004  0.3249  0.3386
  747TMC3    C811047   3.340   2.574  11.186  0.2818 -0.6036 -0.1092
  747TMC3    O111048   3.735   2.847  11.333 -0.1423 -0.0286 -0.4272
  747TMC3    O211049   3.272   2.490  11.134  0.2672 -0.5050  0.3701
  748MPD2     C11050   0.018   3.885   1.443 -0.2497  0.1133  0.2685
  748MPD2    C111051   0.108   3.798   1.507 -0.2355 -0.0170 -0.1454
  748MPD2    C211052   0.241   3.799   1.460 -0.0298  0.3525 -0.0657
  748MPD2    C311053   0.284   3.867   1.348  1.1447  0.3782 -0.2665
  748MPD2    C411054   0.187   3.941   1.284  0.3423  0.8953  0.5699
  748MPD2    C511055   0.062   3.954   1.337  0.0480 -0.3559 -0.0534
  748MPD2     H11056   0.317   3.739   1.509 -1.4316 -0.9256  0.5420
  748MPD2    H111057   0.208   3.993   1.191 -1.6259  1.0320  0.2102
  748MPD2    H211058   4.637   3.906   1.476 -0.5910 -0.5329 -0.3839
  748MPD2    H311059   4.714   4.021   1.287  0.4930 -0.1408 -0.3746
  748MPD2     N11060   0.415   3.849   1.296  0.9140  0.1185  0.2093
  748MPD2    H511061   0.476   3.801   1.362  1.4006  1.5321  0.8079
  748MPD2    N111062   0.049   3.720   1.606  0.2069  0.6819  0.5997
  748MPD2    H711063   4.673   3.742   1.624 -0.4737  0.4227 -2.7959
  749TMC3    C111064   0.604   3.878   1.155 -0.2431 -0.3636 -0.2005
  749TMC3    C211065   0.685   3.853   1.268  0.0259  0.2883 -0.3252
  749TMC3    C311066   0.819   3.866   1.250  0.0931 -0.0425 -0.4779
  749TMC3    C411067   0.659   3.926   1.037  0.0353 -0.3128 -1.1519
  749TMC3    C511068   0.797   3.933   1.028  0.1963  0.2112 -0.2437
  749TMC3    C611069   0.873   3.899   1.134  0.2368  0.7528  0.1549
  749TMC3     C11070   0.467   3.906   1.180  0.0355  0.2576  0.7560
  749TMC3     O11071   0.411   3.963   1.088 -0.2430  0.0581  0.0804
  749TMC3     H11072   0.645   3.812   1.361 -1.6238 -0.6037 -1.4389
  749TMC3    H111073   0.604   3.972   0.955 -0.9313 -0.6158 -0.6778
  749TMC3    H211074   0.980   3.908   1.122  0.1844  0.9564 -0.1672
  749TMC3    C711075   0.852   4.001   0.913 -0.1958  0.0012  0.4860
  749TMC3    C811076   0.898   3.816   1.362 -0.0989 -0.5510  0.0779
  749TMC3    O111077   0.958   4.058   0.934 -0.2559 -0.0495 -0.1683
  749TMC3    O211078   0.845   3.811   1.471 -0.2778 -0.8025 -0.6375
  750MPD2     C11079   0.177   4.323  11.927 -0.0750  0.3093 -0.1441
  750MPD2    C111080   0.276   4.407  11.885  0.3382  0.3759  0.2136
  750MPD2    C211081   0.338   4.390  11.756 -0.0216  0.5667  0.5234
  750MPD2    C311082   0.314   4.280  11.680  0.9408  1.1196  0.0643
  750MPD2    C411083   0.217   4.195  11.724 -0.7584 -0.5362 -0.2533
  750MPD2    C511084   0.156   4.215  11.849  0.2679  0.2430 -0.5477
  750MPD2     H11085   0.418   4.461  11.736  0.9437 -0.0824  2.0542
  750MPD2    H111086   0.186   4.104  11.672  0.4921 -1.6803  1.0329
  750MPD2    H211087   0.142   4.324  12.029 -2.2223  0.7067 -0.9007
  750MPD2    H311088   0.105   4.127  11.886 -0.8110  1.4712  0.8898
  750MPD2     N11089   0.386   4.255  11.563 -0.6763  0.3605  0.2698
  750MPD2    H511090   0.380   4.163  11.519  2.1890  0.3185  0.0166
  750MPD2    N111091   0.312   4.504  11.981 -0.3159 -0.1087 -0.2056
  750MPD2    H711092   0.274   4.508  12.075 -0.3880  0.6245 -0.2655
  751TMC3    C111093   0.543   4.282  11.388 -0.1045 -0.4956  0.7648
  751TMC3    C211094   0.588   4.151  11.404 -0.3458  0.2533  0.1868
  751TMC3    C311095   0.687   4.102  11.312  0.4834  0.1546  0.5018
  751TMC3    C411096   0.582   4.357  11.285 -0.4946 -0.2416 -0.0959
  751TMC3    C511097   0.672   4.299  11.196  0.1739  0.2404  0.7285
  751TMC3    C611098   0.734   4.174  11.213 -0.2713  0.0744 -0.2552
  751TMC3     C11099   0.478   4.344  11.507 -0.1292 -0.0810 -0.5195
  751TMC3     O11100   0.515   4.460  11.541 -0.3085 -0.1092 -0.3134
  751TMC3     H11101   0.580   4.093  11.495  0.4397 -0.6353 -0.3130
  751TMC3    H111102   0.536   4.454  11.272 -1.4554 -0.7665 -0.6123
  751TMC3    H211103   0.819   4.143  11.154 -0.2428 -0.8073  0.2500
  751TMC3    C711104   0.672   4.360  11.066 -0.9995  1.1395  0.0037
  751TMC3    C811105   0.706   3.960  11.294  0.2613  0.1756  0.2282
  751TMC3    O111106   0.656   4.479  11.056  0.0489  0.0863 -0.8875
  751TMC3    O211107   0.783   3.937  11.202  0.3173  1.0675 -0.5596
  752TMC3    C111108   0.396   0.119  17.328 -0.6275 -0.0368 -0.3240
  752TMC3    C211109   0.345   0.008  17.373 -0.9756  0.2367  0.7481
  752TMC3    C311110   0.346   4.706  17.503 -0.1983  0.2443 -0.1666
  752TMC3    C411111   0.448   0.210  17.419 -0.3062  0.1153  0.6395
  752TMC3    C511112   0.456   0.178  17.552 -0.2544 -0.1205 -0.4798
  752TMC3    C611113   0.396   0.064  17.597  0.1249 -0.5334 -0.0345
  752TMC3     C11114   0.382   0.159  17.190  0.0007  0.0937 -0.4627
  752TMC3     O11115   0.457   0.251  17.151  0.5069 -0.3563 -0.1719
  752TMC3     H11116   0.296   4.647  17.319 -0.6017 -1.2770  2.7050
  752TMC3    H111117   0.493   0.298  17.373 -0.3668 -0.4856 -0.5768
  752TMC3    H211118   0.389   0.035   0.016 -0.8472 -1.6357 -0.4156
  752TMC3    C711119   0.501   0.280  17.641 -1.0958 -0.6154 -0.0674
  752TMC3    C811120   0.238   4.614  17.543  0.3932  0.2879 -0.0177
  752TMC3    O111121   0.509   0.244   0.072  0.0984  0.4366 -0.0976
  752TMC3    O211122   0.138   4.623  17.474  0.5203  0.6305  0.4405
  753TMC3    C111123   1.842   0.534  13.507  0.1363 -0.2380 -0.4783
  753TMC3    C211124   1.933   0.541  13.609  0.0911  0.2460 -0.2092
  753TMC3    C311125   1.964   0.422  13.672  0.9737 -0.5564 -0.1076
  753TMC3    C411126   1.790   0.418  13.458 -0.6164 -0.2225  0.6165
  753TMC3    C511127   1.831   0.305  13.515  0.1904  0.0153  0.1691
  753TMC3    C611128   1.917   0.303  13.616  0.5368  0.6259 -0.3512
  753TMC3     C11129   1.785   0.655  13.451  0.4085  0.3011 -0.1650
  753TMC3     O11130   1.721   0.635  13.353 -0.0336 -0.6103  0.5327
  753TMC3     H11131   1.975   0.640  13.627  2.1614 -0.4026 -1.4595
  753TMC3    H111132   1.716   0.424  13.379  2.3005 -3.0980 -2.2941
  753TMC3    H211133   1.953   0.211  13.662  1.1387  1.8788  1.6839
  753TMC3    C711134   1.735   0.200  13.526 -0.5206 -0.1291  0.6146
  753TMC3    C811135   2.022   0.418  13.811 -0.6787 -0.1027 -0.2296
  753TMC3    O111136   1.728   0.145  13.636 -0.1393  0.2532  0.2009
  753TMC3    O211137   2.026   0.310  13.867 -0.2036  0.1320 -0.6565
  754MPD2     C11138   0.314   4.282  13.421  0.2130 -0.5728 -0.1216
  754MPD2    C111139   0.291   4.171  13.346  0.8115 -0.3926  0.0594
  754MPD2    C211140   0.191   4.177  13.249 -0.1949  0.5882  0.4852
  754MPD2    C311141   0.119   4.295  13.239 -0.0575 -0.5499  0.3246
  754MPD2    C411142   0.148   4.411  13.315 -0.3706 -0.6138  0.4725
  754MPD2    C511143   0.251   4.401  13.405 -0.4910  0.3486  0.3710
  754MPD2     H11144   0.161   4.082  13.207 -1.3964  1.5659 -0.8575
  754MPD2    H111145   0.083   4.498  13.317  0.9054  0.3729 -0.7642
  754MPD2    H211146   0.383   4.279  13.504  0.8866  0.4452 -0.6380
  754MPD2    H311147   0.271   4.484  13.471 -0.2922 -0.5294  1.4084
  754MPD2     N11148   0.004   4.305  13.158  0.9092 -0.5759 -0.5066
  754MPD2    H511149   4.675   4.393  13.145  2.7189  0.4680 -0.3977
  754MPD2    N111150   0.367   4.055  13.367  0.3334 -0.6154  0.2275
  754MPD2    H711151   0.453   4.074  13.417  0.9434  0.3791 -1.1990
  755MPD2     C11152   3.877   4.367  13.584  0.5958 -0.5139  0.4463
  755MPD2    C111153   4.005   4.420  13.585  0.2007  0.1969  0.7812
  755MPD2    C211154   4.092   4.393  13.484  0.0367  0.4457 -0.3278
  755MPD2    C311155   4.055   4.321  13.371  0.7506  0.1720 -0.1674
  755MPD2    C411156   3.927   4.278  13.368 -0.3498 -0.0499 -0.4198
  755MPD2    C511157   3.836   4.296  13.472  0.2043  0.6495 -0.0505
  755MPD2     H11158   4.193   4.434  13.481  0.8026 -1.2594  1.9240
  755MPD2    H111159   3.889   4.221  13.284  1.1085  0.8258 -1.6722
  755MPD2    H211160   3.810   4.376  13.668 -0.7542 -1.4196 -0.5424
  755MPD2    H311161   3.739   4.248  13.464  0.6600 -0.0028 -1.6489
  755MPD2     N11162   4.136   4.304  13.258 -0.6276 -0.5727 -0.1386
  755MPD2    H511163   4.097   4.250  13.182 -2.2815 -1.3229  1.2385
  755MPD2    N111164   4.047   4.489  13.698 -0.1267 -0.0184 -0.4401
  755MPD2    H711165   4.145   4.515  13.698  0.3924 -2.0201  0.2244
  756MPD2     C11166   1.031   0.180   9.908  0.1327  0.6247 -0.0074
  756MPD2    C111167   0.982   0.312   9.911 -0.2775 -0.6066  0.0520
  756MPD2    C211168   0.912   0.353   9.804 -0.0020 -0.0917  0.2138
  756MPD2    C311169   0.886   0.270   9.694 -0.6670 -0.1564 -0.2202
  756MPD2    C411170   0.940   0.144   9.698 -0.5232 -0.6793 -0.8869
  756MPD2    C511171   1.001   0.098   9.804 -0.0883  0.8535  0.6017
  756MPD2     H11172   0.882   0.458   9.803 -2.3343 -0.7714 -1.5306
  756MPD2    H111173   0.937   0.082   9.609 -0.4772 -0.8316 -0.7811
  756MPD2    H211174   1.082   0.130   9.989  2.1380 -1.0218 -2.2992
  756MPD2    H311175   1.027   4.714   9.817  1.3945  1.3541  1.8065
  756MPD2     N11176   0.818   0.312   9.574 -0.2823 -0.0476  0.1733
  756MPD2    H511177   0.779   0.405   9.583  1.6171  0.7993 -0.1928
  756MPD2    N111178   0.999   0.396  10.022 -0.1796 -0.4421  0.4930
  756MPD2    H711179   0.943   0.480  10.017 -0.7868 -0.8104  1.1312
  757MPD2     C11180   0.069   4.597   9.102  0.4222 -0.1768 -0.3907
  757MPD2    C111181   0.149   4.593   9.219  0.1126  0.2457 -0.3643
  757MPD2    C211182   0.254   4.682   9.244  0.3682 -0.1061 -0.0907
  757MPD2    C311183   0.284   0.061   9.153  0.0943 -0.7037  0.0455
  757MPD2    C411184   0.205   0.067   9.036  0.3790  0.2888  0.6606
  757MPD2    C511185   0.112   4.690   9.017  0.3284 -0.1092  0.4069
  757MPD2     H11186   0.315   4.682   9.334  0.2947  0.5630 -0.0441
  757MPD2    H111187   0.215   0.141   8.958  2.9826  0.4441  1.1403
  757MPD2    H211188   4.713   4.530   9.066 -1.1732  1.6334 -0.3581
  757MPD2    H311189   0.066   4.691   8.918  0.1172 -0.4630  0.5000
  757MPD2     N11190   0.376   0.152   9.191 -0.1581  0.0990 -0.8288
  757MPD2    H511191   0.424   0.131   9.278 -1.3764 -0.0829 -0.2045
  757MPD2    N111192   0.099   4.507   9.316 -0.6368 -0.3376  0.0140
  757MPD2    H711193   0.024   4.447   9.285 -0.0907 -0.9447 -0.1360
  758MPD2     C11194   0.822   3.988  15.897  0.7386 -0.2109  0.0258
  758MPD2    C111195   0.938   3.966  15.966  0.8136 -0.7202  0.3032
  758MPD2    C211196   0.935   3.958  16.106 -0.0411  0.8691 -0.1543
  758MPD2    C311197   0.819   3.981  16.173 -0.5168 -0.6815 -0.4476
  758MPD2    C411198   0.707   4.009  16.103 -0.6854  0.5222 -0.3544
  758MPD2    C511199   0.709   4.014  15.970 -0.1495  0.0344 -0.8013
  758MPD2     H11200   1.022   3.934  16.167 -0.5994  2.3528  1.2183
  758MPD2    H111201   0.612   4.028  16.152 -0.0878 -0.9318  1.3743
  758MPD2    H211202   0.813   3.987  15.788 -1.4837  1.8142  0.1763
  758MPD2    H311203   0.621   4.024  15.906 -2.4577 -1.5367  2.1617
  758MPD2     N11204   0.791   3.978  16.314 -0.5294  0.1892  0.1344
  758MPD2    H511205   0.694   3.974  16.343 -0.7536  0.8157 -0.5414
  758MPD2    N111206   1.063   3.955  15.899  0.2197  0.3154  0.0637
  758MPD2    H711207   1.145   3.926  15.951  0.1871  0.7894  0.3778
  759MPD2     C11208   3.914   2.097  10.324  0.4938  0.0196  0.3450
  759MPD2    C111209   4.013   2.002  10.325 -0.4208 -0.4326 -0.2130
  759MPD2    C211210   4.145   2.026  10.292 -0.4851  0.7694  0.1465
  759MPD2    C311211   4.175   2.155  10.255 -0.4256 -0.7118  0.5612
  759MPD2    C411212   4.078   2.254  10.251  0.0868  0.2199  0.1716
  759MPD2    C511213   3.946   2.228  10.288  0.1383  0.5412  0.4796
  759MPD2     H11214   4.223   1.952  10.298  0.3908  1.5759 -1.2751
  759MPD2    H111215   4.112   2.350  10.214 -0.2880  0.1581 -0.3289
  759MPD2    H211216   3.809   2.072  10.334  0.7410 -1.9258 -1.9532
  759MPD2    H311217   3.868   2.303  10.280  2.2750  2.6969  0.0695
  759MPD2     N11218   4.310   2.187  10.235  0.6902 -0.0552  0.4399
  759MPD2    H511219   4.377   2.111  10.240  1.4045  0.5542  0.0975
  759MPD2    N111220   3.987   1.869  10.360 -0.0174  0.2685  0.4985
  759MPD2    H711221   4.075   1.819  10.349  1.3462  2.3715  1.8095
  760MPD2     C11222   4.085   4.349  11.668  0.2352 -0.3297 -0.0816
  760MPD2    C111223   4.203   4.293  11.638  0.5386  0.1161 -0.3339
  760MPD2    C211224   4.242   4.173  11.688  0.2312  0.4299 -0.1157
  760MPD2    C311225   4.163   4.109  11.780  0.3901 -0.7569 -0.6653
  760MPD2    C411226   4.049   4.167  11.831 -1.0929  0.1987 -0.6262
  760MPD2    C511227   4.004   4.283  11.767 -0.1953  0.4028 -1.0804
  760MPD2     H11228   4.335   4.129  11.653 -0.4835 -1.8896  0.8916
  760MPD2    H111229   3.983   4.116  11.900  0.4012 -0.5195  0.2800
  760MPD2    H211230   4.053   4.445  11.630 -2.7291 -0.8535  1.0996
  760MPD2    H311231   3.905   4.319  11.790 -0.8596 -0.9656 -1.7958
  760MPD2     N11232   4.201   3.989  11.842  0.1380  0.1089 -0.4760
  760MPD2    H511233   4.157   3.968  11.931  0.8738  0.3271 -0.0630
  760MPD2    N111234   4.298   4.354  11.561 -0.0681 -0.2156 -0.4699
  760MPD2    H711235   4.390   4.311  11.556  0.2892  0.3670  1.3115
  761MPD2     C11236   0.662   3.453  11.371  0.6659  0.1214  0.2487
  761MPD2    C111237   0.703   3.528  11.259  0.1410  0.8594 -0.7493
  761MPD2    C211238   0.719   3.668  11.268  0.1265 -0.9086  0.0028
  761MPD2    C311239   0.672   3.734  11.381 -0.0562 -0.0234 -0.2940
  761MPD2    C411240   0.619   3.658  11.480 -0.6257 -0.1815  0.7947
  761MPD2    C511241   0.618   3.523  11.480  0.2305  0.2143  0.4365
  761MPD2     H11242   0.754   3.725  11.183  2.0559 -0.6438  0.9620
  761MPD2    H111243   0.577   3.705  11.568  1.0573  1.5418  0.6815
  761MPD2    H211244   0.648   3.347  11.357 -3.7281  0.4714  1.9148
  761MPD2    H311245   0.575   3.467  11.562 -2.8336  0.4905 -0.9947
  761MPD2     N11246   0.662   3.875  11.392  0.3404 -0.6417 -0.2521
  761MPD2    H511247   0.601   3.920  11.460 -1.0188 -2.4060 -0.2910
  761MPD2    N111248   0.719   3.452  11.139 -0.2910  0.4671 -0.9052
  761MPD2    H711249   0.708   3.352  11.144  0.6785  0.2726 -2.4228
  762MPD2     C11250   1.132   3.650  10.491  0.7551 -0.0684 -0.2149
  762MPD2    C111251   1.124   3.516  10.522 -0.0786  0.2327 -0.1475
  762MPD2    C211252   1.225   3.427  10.469 -0.1165  0.4922 -0.6770
  762MPD2    C311253   1.326   3.486  10.397  0.4583 -0.1215 -0.1874
  762MPD2    C411254   1.331   3.626  10.375 -0.1273  0.0870  0.4125
  762MPD2    C511255   1.233   3.701  10.415  0.3903 -0.1642 -0.4538
  762MPD2     H11256   1.222   3.320  10.486  0.8588  0.5744  0.0600
  762MPD2    H111257   1.412   3.682  10.329  0.1859 -1.5683 -1.0687
  762MPD2    H211258   1.051   3.711  10.530  0.7845  1.1572 -2.0690
  762MPD2    H311259   1.226   3.802  10.376 -1.9469 -0.0004  0.3673
  762MPD2     N11260   1.428   3.397  10.340  1.0260 -0.8012  0.0711
  762MPD2    H511261   1.419   3.298  10.360 -3.0743 -0.8419 -2.0006
  762MPD2    N111262   1.013   3.467  10.602 -0.7791 -0.1206  0.1486
  762MPD2    H711263   0.944   3.539  10.623  1.5364  1.4825  2.2123
  763MPD2     C11264   3.076   3.877  15.911  0.5862 -0.0936  0.1755
  763MPD2    C111265   2.944   3.894  15.939 -0.5990  0.8328  0.4636
  763MPD2    C211266   2.911   4.007  16.015  0.3595 -0.7008 -0.0621
  763MPD2    C311267   3.001   4.108  16.045 -0.7871 -0.0833  0.1426
  763MPD2    C411268   3.129   4.094  15.997  0.4823 -0.0094  0.3407
  763MPD2    C511269   3.170   3.978  15.938 -0.4321  0.2075  0.0777
  763MPD2     H11270   2.804   4.022  16.030  0.4789  1.2538 -1.1741
  763MPD2    H111271   3.190   4.184  16.007  2.1738 -0.8086 -2.8066
  763MPD2    H211272   3.108   3.796  15.847 -0.9880  0.6973 -1.6200
  763MPD2    H311273   3.271   3.971  15.897 -0.4549 -1.7764  0.3308
  763MPD2     N11274   2.985   4.222  16.126  0.2688 -0.2980 -0.1446
  763MPD2    H511275   3.073   4.252  16.166  0.5599 -0.6754 -0.4944
  763MPD2    N111276   2.845   3.811  15.892 -0.0675  0.6221  0.1016
  763MPD2    H711277   2.752   3.847  15.912 -1.5767 -2.1885 -2.0290
  764MPD2     C11278   0.724   1.441  17.493 -0.1001  0.3203 -0.2063
  764MPD2    C111279   0.743   1.328  17.415  0.0125  0.1416 -0.5425
  764MPD2    C211280   0.796   1.214  17.467  0.0794 -0.1952  0.6387
  764MPD2    C311281   0.828   1.213  17.599 -0.4033  0.0350 -0.6341
  764MPD2    C411282   0.806   1.318  17.682 -0.0659 -0.2588 -0.0423
  764MPD2    C511283   0.765   1.435  17.623  0.4883  0.2425 -0.6768
  764MPD2     H11284   0.825   1.128  17.407  2.0729  0.7605  0.2477
  764MPD2    H111285   0.839   1.330   0.099 -1.1804 -1.2815  0.4274
  764MPD2    H211286   0.690   1.539  17.462 -3.6097 -0.2253  1.8950
  764MPD2    H311287   0.748   1.513   0.010  1.4999 -2.0884  2.1013
  764MPD2     N11288   0.890   1.093  17.641 -0.0288 -0.3456  0.8132
  764MPD2    H511289   0.915   1.026  17.569  0.9979  0.7001  0.1831
  764MPD2    N111290   0.705   1.323  17.279  0.2884  0.3939  0.7229
  764MPD2    H711291   0.716   1.233  17.232  0.5752  0.8805 -0.1376
  765MPD2     C11292   0.576   3.036  15.977  0.0411 -0.7685  1.4057
  765MPD2    C111293   0.612   3.157  15.917 -0.7980  0.5375  0.3222
  765MPD2    C211294   0.734   3.165  15.855 -0.5377  0.0312  0.0079
  765MPD2    C311295   0.807   3.046  15.835 -0.2415 -0.7660  0.7507
  765MPD2    C411296   0.771   2.928  15.906  0.3887  0.5840  0.2882
  765MPD2    C511297   0.661   2.922  15.974 -0.0073 -0.7609  0.1557
  765MPD2     H11298   0.781   3.256  15.820  0.6166  0.3605  2.3760
  765MPD2    H111299   0.836   2.841  15.893 -1.2398 -0.5546 -0.2446
  765MPD2    H211300   0.478   3.019  16.021 -1.0852 -0.7120 -1.1054
  765MPD2    H311301   0.625   2.830  16.018 -1.0198  1.4811  4.1104
  765MPD2     N11302   0.912   3.053  15.740  0.7552 -0.0416 -0.2908
  765MPD2    H511303   0.947   3.141  15.703  0.3492  1.0668  2.0047
  765MPD2    N111304   0.525   3.272  15.912  0.3542 -0.5273  0.2632
  765MPD2    H711305   0.443   3.267  15.971 -0.3496 -2.8296 -0.8651
  766MPD2     C11306   4.539   3.460  15.522  0.2627 -0.1202  0.7768
  766MPD2    C111307   4.669   3.429  15.536  0.0225 -0.5122 -0.2220
  766MPD2    C211308   0.021   3.385  15.425 -0.8863  0.6005 -0.5635
  766MPD2    C311309   4.678   3.382  15.301 -0.3302  0.3220 -0.3622
  766MPD2    C411310   4.540   3.393  15.297  0.6468  0.4136 -0.6080
  766MPD2    C511311   4.468   3.424  15.409 -0.3206 -0.4494 -0.1047
  766MPD2     H11312   0.128   3.371  15.423 -0.9356 -0.4270  2.9268
  766MPD2    H111313   4.494   3.400  15.199 -2.3925  0.7646  0.8227
  766MPD2    H211314   4.475   3.504  15.597  1.0862 -0.8350  1.8851
  766MPD2    H311315   4.364   3.456  15.408  0.2607  1.4971  1.8398
  766MPD2     N11316   0.023   3.371  15.177 -0.2714  0.2588  0.2301
  766MPD2    H511317   4.687   3.355  15.094  1.4146 -2.2818 -0.4497
  766MPD2    N111318   0.022   3.475  15.645  0.5140  0.3984  0.5003
  766MPD2    H711319   4.697   3.526  15.719 -1.9980  0.8750 -1.3629
  767MPD2     C11320   4.534   3.725  15.216  0.2235 -0.2696  0.3400
  767MPD2    C111321   4.622   3.737  15.108 -0.2095  0.0456 -0.1857
  767MPD2    C211322   4.581   3.681  14.987 -0.1586  0.9563  0.0937
  767MPD2    C311323   4.455   3.633  14.971 -0.5565  1.2975  0.1241
  767MPD2    C411324   4.361   3.649  15.073  0.3724 -0.3593 -0.3884
  767MPD2    C511325   4.404   3.684  15.201  0.1264 -0.3416 -0.2460
  767MPD2     H11326   4.651   3.682  14.905  1.3084 -0.3126  1.3217
  767MPD2    H111327   4.257   3.622  15.063  0.4629 -0.5914 -0.7350
  767MPD2    H211328   4.571   3.752  15.314  0.1915 -0.3886  0.3844
  767MPD2    H311329   4.343   3.672  15.290 -1.7280 -0.5796 -1.5678
  767MPD2     N11330   4.420   3.579  14.850 -0.4558  0.0046 -0.5361
  767MPD2    H511331   4.492   3.552  14.784  0.0357 -0.5023  0.2181
  767MPD2    N111332   0.021   3.806  15.125 -0.5902 -0.5989  0.0691
  767MPD2    H711333   0.024   3.858  15.213  1.6046 -0.7128  0.0501
  768MPD2     C11334   1.092   1.986  10.641 -0.2230  0.5516  0.4989
  768MPD2    C111335   1.001   1.908  10.708 -0.0895  1.0705 -0.3844
  768MPD2    C211336   1.037   1.870  10.837  0.0231 -0.1067 -0.0575
  768MPD2    C311337   1.155   1.904  10.903  0.2517 -0.2290  0.4560
  768MPD2    C411338   1.250   1.970  10.830  0.8202 -0.6354 -0.3549
  768MPD2    C511339   1.212   2.010  10.707  0.8202 -0.3075  0.6866
  768MPD2     H11340   0.955   1.821  10.888  0.8274 -1.9325 -0.5314
  768MPD2    H111341   1.351   1.997  10.859  0.1449 -0.3359  1.7761
  768MPD2    H211342   1.066   2.017  10.540  0.6766  0.8063  0.3482
  768MPD2    H311343   1.279   2.069  10.646  0.4300 -0.3222  0.2449
  768MPD2     N11344   1.181   1.883  11.043 -0.2320 -0.0498  0.0704
  768MPD2    H511345   1.264   1.922  11.086 -0.1270 -0.0986 -0.0881
  768MPD2    N111346   0.873   1.872  10.658  0.0266  0.3688 -0.1468
  768MPD2    H711347   0.810   1.809  10.706  1.6323 -0.4238  0.9309
  769MPD2     C11348   1.733   4.284  15.091  0.5050  0.1417  0.0033
  769MPD2    C111349   1.608   4.337  15.099 -0.5411  0.2122 -0.0001
  769MPD2    C211350   1.586   4.447  15.181 -0.2125  0.3426  0.4329
  769MPD2    C311351   1.696   4.500  15.244  0.3036 -0.1700  0.4271
  769MPD2    C411352   1.826   4.457  15.217  0.0254 -0.3665  0.3057
  769MPD2    C511353   1.839   4.343  15.141 -0.6355 -0.0406 -0.1086
  769MPD2     H11354   1.484   4.484  15.188 -0.3566  0.8477 -4.2278
  769MPD2    H111355   1.913   4.512  15.250  0.6883 -1.7579  0.8734
  769MPD2    H211356   1.753   4.195  15.031 -0.6339  0.7674 -1.3013
  769MPD2    H311357   1.931   4.288  15.129  0.2580  1.7099 -1.2149
  769MPD2     N11358   1.670   4.601  15.351  0.4356  0.5491  0.5826
  769MPD2    H511359   1.574   4.623  15.375  0.1160 -1.2765  0.9401
  769MPD2    N111360   1.498   4.267  15.040  0.4091 -0.4308  0.2254
  769MPD2    H711361   1.524   4.182  14.990 -2.7513  0.3700 -2.7959
  770MPD2     C11362   0.654   3.579  14.924  0.4005  0.5410  0.2406
  770MPD2    C111363   0.782   3.538  14.905  0.2732  0.1751  0.4822
  770MPD2    C211364   0.893   3.628  14.906 -0.1313  0.3124  0.0958
  770MPD2    C311365   0.872   3.760  14.933 -0.0766 -0.3528  0.0914
  770MPD2    C411366   0.740   3.804  14.939 -0.5271 -0.5704 -0.2084
  770MPD2    C511367   0.638   3.712  14.932  0.1218 -0.4432  0.1701
  770MPD2     H11368   0.996   3.594  14.893 -0.2756 -0.0897 -0.0062
  770MPD2    H111369   0.719   3.910  14.946 -0.0387 -0.3595 -2.0325
  770MPD2    H211370   0.566   3.516  14.926  3.5428 -3.7435  0.7707
  770MPD2    H311371   0.540   3.759  14.935 -0.3877 -1.6286  2.2077
  770MPD2     N11372   0.987   3.847  14.924 -0.0755  0.2550 -1.3163
  770MPD2    H511373   1.065   3.796  14.883  0.8084  0.4712  0.0772
  770MPD2    N111374   0.805   3.398  14.896  0.5536 -0.1643  0.4580
  770MPD2    H711375   0.732   3.336  14.928  0.8080 -0.5418  0.3169
  771MPD2     C11376   2.372   2.460  13.454 -0.6791 -0.4153  0.4928
  771MPD2    C111377   2.437   2.565  13.392 -0.2551  0.0267  0.0301
  771MPD2    C211378   2.445   2.563  13.260 -0.0717 -0.1357  0.2767
  771MPD2    C311379   2.388   2.465  13.178 -0.2560  0.3333 -0.1304
  771MPD2    C411380   2.324   2.364  13.240  0.4649  0.9739 -0.1128
  771MPD2    C511381   2.327   2.362  13.375 -0.3820 -0.4526  0.1987
  771MPD2     H11382   2.496   2.644  13.211  0.8510  0.2258  1.8377
  771MPD2    H111383   2.273   2.283  13.190  1.2901  0.4388 -0.0983
  771MPD2    H211384   2.359   2.454  13.561 -2.4233  0.1584  0.3054
  771MPD2    H311385   2.276   2.276  13.417 -0.1082  0.0902  1.6671
  771MPD2     N11386   2.383   2.486  13.039  0.1190  0.0931 -0.7451
  771MPD2    H511387   2.426   2.575  13.013 -2.3802  1.0731 -1.5203
  771MPD2    N111388   2.493   2.676  13.466 -0.4704  0.2892 -0.2991
  771MPD2    H711389   2.539   2.750  13.413  1.2641 -0.1599  0.5976
  772MPD2     C11390   2.397   3.367  13.948 -0.5755  0.4186  0.2136
  772MPD2    C111391   2.355   3.267  13.865  1.0816  0.3268  0.4424
  772MPD2    C211392   2.227   3.281  13.818 -0.2038 -0.3402 -0.0523
  772MPD2    C311393   2.146   3.394  13.834  0.2312  0.8630 -0.6929
  772MPD2    C411394   2.205   3.500  13.904  0.4334 -0.0563  0.0928
  772MPD2    C511395   2.324   3.480  13.969  0.4745 -0.3145  0.1356
  772MPD2     H11396   2.200   3.194  13.759  2.1239 -1.0019 -0.1514
  772MPD2    H111397   2.148   3.592  13.920 -1.2120 -0.5802 -2.7329
  772MPD2    H211398   2.497   3.367  13.989 -0.7956  0.4636  0.7396
  772MPD2    H311399   2.365   3.563  14.027 -0.9552 -0.8891  1.9539
  772MPD2     N11400   2.010   3.403  13.794  0.1666  0.2830  0.1232
  772MPD2    H511401   1.952   3.484  13.811 -2.0638 -1.3012  0.0135
  772MPD2    N111402   2.418   3.149  13.829  0.4049  0.3429  0.6537
  772MPD2    H711403   2.367   3.078  13.777 -0.1286  2.1724 -1.3746
  773MPD2     C11404   1.379   4.555   0.242  0.1133 -0.1285  0.8176
  773MPD2    C111405   1.351   4.431   0.186 -0.0942 -0.1247  0.1400
  773MPD2    C211406   1.423   4.329   0.230 -0.0075  0.6948 -0.3337
  773MPD2    C311407   1.535   4.345   0.315 -0.4458  0.6336  0.3746
  773MPD2    C411408   1.561   4.463   0.373  0.3157 -0.6616  0.1370
  773MPD2    C511409   1.484   4.568   0.329  0.5314 -0.2366  0.0542
  773MPD2     H11410   1.401   4.224   0.212  1.6453  0.2112  0.4457
  773MPD2    H111411   1.647   4.482   0.437  0.8128 -0.2262 -0.6556
  773MPD2    H211412   1.326   4.645   0.214  2.9816  1.4294  0.4531
  773MPD2    H311413   1.506   4.667   0.367 -3.2953  0.4809  0.4805
  773MPD2     N11414   1.624   4.229   0.332 -0.0481 -0.0942  0.4341
  773MPD2    H511415   1.604   4.148   0.275 -4.7917  0.1389  1.7234
  773MPD2    N111416   1.246   4.409   0.099  0.0248  0.4478  0.0759
  773MPD2    H711417   1.232   4.309   0.085  1.0019  0.2502  0.4546
  774MPD2     C11418   0.380   3.160  13.167  0.2817  0.4708 -0.6041
  774MPD2    C111419   0.322   3.187  13.295  0.6313 -0.2312  0.0862
  774MPD2    C211420   0.237   3.296  13.294 -0.6573  0.7081  0.3547
  774MPD2    C311421   0.206   3.370  13.180  0.1334  0.6757 -0.3286
  774MPD2    C411422   0.257   3.338  13.061  0.0298  0.4095 -0.8176
  774MPD2    C511423   0.349   3.240  13.054  0.4382 -0.4305 -0.0463
  774MPD2     H11424   0.203   3.329  13.392  0.2922 -0.2899  1.0317
  774MPD2    H111425   0.226   3.397  12.976 -0.5494  1.3443  0.0312
  774MPD2    H211426   0.457   3.084  13.155 -0.2698 -0.1818  0.0147
  774MPD2    H311427   0.400   3.214  12.962  1.5364 -1.5574  0.8874
  774MPD2     N11428   0.161   3.507  13.196 -0.1499  0.7378  0.0316
  774MPD2    H511429   0.171   3.572  13.119  0.7930 -2.3430 -2.4279
  774MPD2    N111430   0.373   3.145  13.420  0.5260  0.6408 -0.2949
  774MPD2    H711431   0.329   3.187  13.501  2.9496 -1.3882  2.0328
  775MPD2     C11432   2.007   0.019  15.804 -0.0875 -0.7020 -0.3310
  775MPD2    C111433   1.989   0.128  15.889 -0.3317 -0.3390  0.1326
  775MPD2    C211434   2.070   0.244  15.870  0.4556 -0.1360 -0.0814
  775MPD2    C311435   2.152   0.249  15.760  0.0733 -0.5500 -0.1817
  775MPD2    C411436   2.171   0.143  15.670  0.6200 -0.5288 -0.1908
  775MPD2    C511437   2.085   0.033  15.695  0.4148  0.6116  0.0466
  775MPD2     H11438   2.055   0.330  15.934  1.2859  0.8436 -1.2056
  775MPD2    H111439   2.225   0.150  15.576 -1.2086  1.7816 -1.0936
  775MPD2    H211440   1.952   4.648  15.819  0.0596 -0.5322  1.2316
  775MPD2    H311441   2.086   4.677  15.619  1.9563 -0.1479  0.8267
  775MPD2     N11442   2.215   0.370  15.720  0.0040  0.4702  0.2469
  775MPD2    H511443   2.268   0.358  15.634 -0.1192 -3.2475  0.7181
  775MPD2    N111444   1.889   0.122  15.989  0.5176  0.1718 -0.1253
  775MPD2    H711445   1.876   0.029  16.028  0.6351  0.3703  0.3945
  776MPD2     C11446   0.920   0.375  12.285  1.0219  0.0321 -0.5359
  776MPD2    C111447   0.804   0.379  12.215 -0.5861 -0.8809  0.6048
  776MPD2    C211448   0.771   0.503  12.149  0.3083  0.4806 -0.2963
  776MPD2    C311449   0.861   0.606  12.140  0.2161  0.1536  1.2049
  776MPD2    C411450   0.977   0.592  12.212  0.0325  0.3095 -0.4411
  776MPD2    C511451   1.003   0.484  12.291  0.0121  0.9597  0.4325
  776MPD2     H11452   0.678   0.507  12.094  0.5758  1.0838 -0.6948
  776MPD2    H111453   1.048   0.674  12.205 -0.4264  0.8877  1.5335
  776MPD2    H211454   0.944   0.290  12.347  0.1927  0.6086  0.5854
  776MPD2    H311455   1.105   0.479  12.326  0.3729 -1.3704 -0.9506
  776MPD2     N11456   0.825   0.730  12.085  0.6515 -0.0824  0.7475
  776MPD2    H511457   0.874   0.811  12.121  0.1313  0.4769  0.1910
  776MPD2    N111458   0.717   0.269  12.231 -0.7453 -1.1278  0.3955
  776MPD2    H711459   0.756   0.181  12.264 -0.3729 -0.4137  1.8726
  777MPD2     C11460   1.960   3.193   0.710 -0.0201 -0.6459  0.4152
  777MPD2    C111461   1.837   3.157   0.766 -0.5044 -0.0343 -0.7073
  777MPD2    C211462   1.749   3.066   0.703  0.5024  0.2420 -0.0684
  777MPD2    C311463   1.775   3.025   0.571 -0.4887 -0.1395 -0.4672
  777MPD2    C411464   1.886   3.071   0.510 -0.3659  0.5449 -0.6388
  777MPD2    C511465   1.977   3.143   0.585  0.2280  0.6269 -0.4426
  777MPD2     H11466   1.660   3.025   0.749  1.1515 -0.4173  0.5993
  777MPD2    H111467   1.913   3.035   0.412  3.3338  2.6634 -0.3894
  777MPD2    H211468   2.026   3.270   0.748 -1.4558  0.3904  0.8407
  777MPD2    H311469   2.065   3.179   0.533  0.9766 -2.1465 -1.1386
  777MPD2     N11470   1.679   2.932   0.518 -0.1555  0.4073  0.1107
  777MPD2    H511471   1.593   2.919   0.569 -0.0716 -0.0579  0.1374
  777MPD2    N111472   1.811   3.195   0.896 -0.6704  0.1262 -0.0363
  777MPD2    H711473   1.885   3.242   0.948  0.5377 -1.4290 -0.3639
  778MPD2     C11474   2.158   2.630  14.754  0.3360  0.5910  0.4732
  778MPD2    C111475   2.204   2.499  14.738  0.5759  0.2395  0.2501
  778MPD2    C211476   2.335   2.496  14.685  0.3820  0.4290 -0.4608
  778MPD2    C311477   2.408   2.610  14.652 -0.5509  0.4434  0.1105
  778MPD2    C411478   2.349   2.728  14.651 -0.1432  1.1025 -0.0452
  778MPD2    C511479   2.225   2.740  14.710 -0.1984  0.1243 -0.0064
  778MPD2     H11480   2.390   2.407  14.656  2.0408  1.3056 -0.0335
  778MPD2    H111481   2.386   2.821  14.609 -0.0723  0.4779 -1.3821
  778MPD2    H211482   2.056   2.644  14.790  0.0781  0.7609 -0.3360
  778MPD2    H311483   2.176   2.836  14.719  0.4285  0.6420 -2.2628
  778MPD2     N11484   2.529   2.597  14.579 -0.2207 -0.1329 -0.6080
  778MPD2    H511485   2.550   2.510  14.531 -0.9239 -0.7140  0.1399
  778MPD2    N111486   2.134   2.377  14.768  0.0057  1.0940 -0.3024
  778MPD2    H711487   2.191   2.295  14.748  0.7897  1.4221  0.6163
  779MPD2     C11488   2.304   1.514  13.621 -0.5221 -0.1961  1.0195
  779MPD2    C111489   2.354   1.535  13.745  0.1973 -0.6103 -0.7349
  779MPD2    C211490   2.353   1.671  13.789 -0.5033 -0.8449  0.2346
  779MPD2    C311491   2.319   1.775  13.702  0.0770  0.2961  0.8162
  779MPD2    C411492   2.269   1.748  13.572  0.0670  0.0655  0.3903
  779MPD2    C511493   2.263   1.616  13.535  0.3342  0.8159  0.2841
  779MPD2     H11494   2.405   1.690  13.883  2.5264 -0.4896 -1.5254
  779MPD2    H111495   2.240   1.827  13.504  1.3060 -0.1325 -0.3679
  779MPD2    H211496   2.288   1.413  13.585  0.1868 -0.4883  1.5453
  779MPD2    H311497   2.233   1.582  13.437  1.6199  1.1718 -0.2228
  779MPD2     N11498   2.329   1.906  13.754  0.2510  0.3113  0.1143
  779MPD2    H511499   2.373   1.917  13.844  2.7118 -0.1949 -1.0054
  779MPD2    N111500   2.386   1.422  13.824 -0.5236 -0.2089 -0.1241
  779MPD2    H711501   2.389   1.328  13.787 -0.0603  0.8358 -2.7516
  780MPD2     C11502   0.605   1.458   0.744  0.0922  0.2205 -0.4789
  780MPD2    C111503   0.729   1.429   0.791  0.4312 -0.1396 -1.2560
  780MPD2    C211504   0.843   1.451   0.711 -0.8316  0.9956  0.0874
  780MPD2    C311505   0.829   1.482   0.573  0.3829  0.0695  0.3107
  780MPD2    C411506   0.696   1.515   0.525  0.5531  1.3240  0.1465
  780MPD2    C511507   0.593   1.505   0.612 -1.1375 -0.0798  0.1258
  780MPD2     H11508   0.944   1.435   0.748 -1.1543  1.0450  0.9944
  780MPD2    H111509   0.662   1.528   0.423 -0.8372 -0.4338  0.4024
  780MPD2    H211510   0.521   1.456   0.813  1.0045  1.0258  0.6560
  780MPD2    H311511   0.495   1.547   0.591 -0.6547  1.3747  0.8344
  780MPD2     N11512   0.938   1.493   0.491  0.3209 -0.4377  0.1732
  780MPD2    H511513   1.035   1.488   0.523  0.5799  0.5846 -0.4310
  780MPD2    N111514   0.734   1.373   0.921 -0.0220  0.1865  0.0323
  780MPD2    H711515   0.639   1.365   0.955 -0.7290  0.1908 -1.9567
  781MPD2     C11516   3.714   3.845  11.994 -0.4617  0.3234  0.3844
  781MPD2    C111517   3.739   3.710  11.993  1.0931  1.0026 -0.3210
  781MPD2    C211518   3.831   3.662  11.894  0.0052 -0.2580  0.2324
  781MPD2    C311519   3.890   3.750  11.798 -0.2826 -1.1476 -0.8163
  781MPD2    C411520   3.867   3.883  11.816  0.0310 -0.1973 -0.3651
  781MPD2    C511521   3.781   3.928  11.909 -0.1209 -0.5907 -0.1055
  781MPD2     H11522   3.858   3.557  11.904  2.6854  0.4245  0.1211
  781MPD2    H111523   3.891   3.955  11.739 -0.7413 -0.1488 -0.5689
  781MPD2    H211524   3.635   3.889  12.054 -1.1726  1.0125 -1.0400
  781MPD2    H311525   3.765   4.035  11.921  0.3015 -0.6164  0.6861
  781MPD2     N11526   3.967   3.702  11.695  0.8392 -0.4182  0.4324
  781MPD2    H511527   3.992   3.768  11.622 -0.6904  0.2934  0.5518
  781MPD2    N111528   3.679   3.628  12.090 -0.2297 -0.1041  0.1960
  781MPD2    H711529   3.619   3.677  12.156  0.2732  1.2061 -0.3367
  782MPD2     C11530   0.770   0.325  10.908 -0.4547  0.0001 -0.4371
  782MPD2    C111531   0.888   0.279  10.847 -0.5664 -0.8528 -0.2504
  782MPD2    C211532   1.007   0.260  10.921  0.1848  0.5344  0.3630
  782MPD2    C311533   1.004   0.277  11.058  0.5298 -0.1984  0.1588
  782MPD2    C411534   0.887   0.338  11.118  0.2464  0.9478  0.0178
  782MPD2    C511535   0.773   0.351  11.046  0.1256  0.5758  0.5119
  782MPD2     H11536   1.097   0.219  10.877 -0.6292 -1.1759  0.2882
  782MPD2    H111537   0.882   0.356  11.225 -0.2674 -1.5890  0.4161
  782MPD2    H211538   0.687   0.368  10.853 -0.1277  0.2412 -0.7412
  782MPD2    H311539   0.687   0.397  11.092 -1.4399 -0.0083 -1.8540
  782MPD2     N11540   1.122   0.241  11.133 -0.3417  0.2048 -0.2162
  782MPD2    H511541   1.200   0.215  11.074 -0.0414  0.3527  0.1125
  782MPD2    N111542   0.870   0.245  10.714  0.0709  0.0044 -0.3268
  782MPD2    H711543   0.776   0.234  10.679  0.1230 -0.6390 -0.2765
  783MPD2     C11544   0.656   4.182  10.744  0.1048  0.0829  0.3746
  783MPD2    C111545   0.674   4.290  10.826  0.2597  0.1891 -0.1986
  783MPD2    C211546   0.705   4.410  10.771  0.2675  0.1571  0.0939
  783MPD2    C311547   0.691   4.430  10.632 -0.1359 -0.6334 -0.0705
  783MPD2    C411548   0.649   4.319  10.558  0.0258  0.4214 -0.7177
  783MPD2    C511549   0.638   4.200  10.613 -0.3865 -0.2419 -0.3229
  783MPD2     H11550   0.736   4.500  10.823  0.0373  0.9340 -1.1125
  783MPD2    H111551   0.633   4.330  10.451 -2.5353 -0.1265 -0.4010
  783MPD2    H211552   0.650   4.081  10.782  1.3027 -0.3093 -0.4553
  783MPD2    H311553   0.612   4.112  10.555 -2.7771 -1.2196  2.2193
  783MPD2     N11554   0.734   4.550  10.565 -0.4381 -0.4943  0.4795
  783MPD2    H511555   0.773   4.624  10.622  0.7525  0.8992 -2.1658
  783MPD2    N111556   0.667   4.265  10.965 -0.4257 -0.4506  0.3320
  783MPD2    H711557   0.658   4.168  10.993  1.3069 -0.0926  2.1243
  784MPD2     C11558   3.911   0.117   0.530  0.2848 -0.1913 -0.3956
  784MPD2    C111559   3.904   0.226   0.619  0.7020  0.0675 -0.6322
  784MPD2    C211560   3.822   0.333   0.583 -0.3535 -0.2117 -0.6029
  784MPD2    C311561   3.737   0.329   0.470  0.2163 -0.1895  0.4250
  784MPD2    C411562   3.735   0.212   0.394 -0.2639  0.0753 -0.1207
  784MPD2    C511563   3.815   0.111   0.435  0.2776  0.3467 -0.1261
  784MPD2     H11564   3.829   0.416   0.652 -0.5445 -1.1614  0.5533
  784MPD2    H111565   3.674   0.202   0.305 -1.2476 -0.5731  0.6258
  784MPD2    H211566   3.972   0.030   0.551  0.9192  1.2040  3.3832
  784MPD2    H311567   3.801   0.022   0.374  0.5270  1.8069 -2.3284
  784MPD2     N11568   3.655   0.438   0.448 -0.2910  0.1536 -0.6057
  784MPD2    H511569   3.651   0.505   0.524  0.1964 -1.5910  0.9635
  784MPD2    N111570   3.986   0.243   0.740 -0.5838 -0.0732  0.1529
  784MPD2    H711571   3.982   0.333   0.786 -1.4222 -1.0472  1.9674
  785MPD2     C11572   4.672   2.988  10.538 -0.3735 -0.4220 -0.2972
  785MPD2    C111573   4.604   2.990  10.658  0.2156 -0.1930 -0.0984
  785MPD2    C211574   4.506   2.890  10.678 -0.2311  0.4753 -0.3707
  785MPD2    C311575   4.499   2.780  10.598  0.1965  1.2643  0.1171
  785MPD2    C411576   4.576   2.772  10.485 -0.2335  0.3453  0.5673
  785MPD2    C511577   4.658   2.876  10.457  0.7003 -0.3786 -0.1377
  785MPD2     H11578   4.435   2.898  10.759  0.4419 -0.9783  0.3564
  785MPD2    H111579   4.569   2.686  10.418  0.7906 -0.3829  1.3918
  785MPD2    H211580   0.014   3.068  10.501  0.5570 -0.3647  1.4244
  785MPD2    H311581   4.710   2.874  10.361 -0.1118  2.7582 -0.6402
  785MPD2     N11582   4.398   2.688  10.628  0.2716  0.0982 -0.5197
  785MPD2    H511583   4.337   2.713  10.706  0.1720 -0.5645 -0.3897
  785MPD2    N111584   4.625   3.108  10.737 -0.1640  0.6143 -0.7352
  785MPD2    H711585   4.686   3.181  10.702  0.0638  1.6472  1.8630
  786MPD2     C11586   2.597   0.947  15.025  0.5301  0.1789 -0.4730
  786MPD2    C111587   2.688   0.848  15.029  0.0262 -0.5884  0.8154
  786MPD2    C211588   2.788   0.855  15.126 -0.4304  0.0980  0.1785
  786MPD2    C311589   2.790   0.953  15.223 -0.1193  0.3028 -0.3723
  786MPD2    C411590   2.692   1.051  15.215  0.2898 -0.4732  0.6811
  786MPD2    C511591   2.595   1.044  15.118 -0.1898  0.6091  0.4264
  786MPD2     H11592   2.845   0.763  15.128  0.3691  0.5718 -1.0098
  786MPD2    H111593   2.684   1.116  15.301  0.1047  0.2833  0.0882
  786MPD2    H211594   2.527   0.960  14.943 -1.2859 -1.1125  0.8713
  786MPD2    H311595   2.514   1.116  15.119 -1.3816 -0.7102 -0.1803
  786MPD2     N11596   2.886   0.965  15.323  0.0582 -0.0913 -0.0984
  786MPD2    H511597   2.861   1.028  15.399 -0.7579  0.0310 -0.4698
  786MPD2    N111598   2.675   0.740  14.932 -0.1632 -0.5919 -0.1579
  786MPD2    H711599   2.744   0.666  14.933  1.1014  0.5804 -1.1255
  787MPD2     C11600   2.432   4.696  14.773  0.1469  0.6641  0.8417
  787MPD2    C111601   2.559   0.030  14.782 -0.2235  0.2017  0.1352
  787MPD2    C211602   2.663   4.678  14.834 -0.4137  0.0091  0.2819
  787MPD2    C311603   2.651   4.547  14.866 -0.2373 -0.1336  0.6073
  787MPD2    C411604   2.526   4.484  14.858  0.2665 -0.1069  0.5791
  787MPD2    C511605   2.424   4.563  14.810  0.4125 -0.0741  0.3275
  787MPD2     H11606   2.756   0.011  14.843  0.5608 -1.9301  1.7450
  787MPD2    H111607   2.502   4.382  14.883 -0.3524 -0.1159 -0.0524
  787MPD2    H211608   2.347   0.027  14.729 -0.8501 -0.6677  1.2180
  787MPD2    H311609   2.326   4.518  14.794  1.7145 -2.2339 -1.6842
  787MPD2     N11610   2.770   4.473  14.884  0.6325 -0.8651  0.0527
  787MPD2    H511611   2.854   4.530  14.890 -0.1947  0.3103  0.4843
  787MPD2    N111612   2.580   0.164  14.733  0.2200 -0.1198  0.0326
  787MPD2    H711613   2.502   0.207  14.684 -0.0778 -1.1402 -0.3924
  788MPD2     C11614   4.286   3.784   1.341 -0.4044  0.2693 -0.7407
  788MPD2    C111615   4.335   3.718   1.232 -0.0735  0.2657 -0.3269
  788MPD2    C211616   4.427   3.788   1.147 -0.2622  1.1957 -0.5701
  788MPD2    C311617   4.452   3.922   1.176  0.2915  0.1881  1.2762
  788MPD2    C411618   4.401   3.989   1.282 -0.4415  0.4673  0.7511
  788MPD2    C511619   4.327   3.910   1.366 -0.2035 -0.5483  0.3159
  788MPD2     H11620   4.474   3.745   1.060 -1.2113 -1.2440  0.1398
  788MPD2    H111621   4.437   4.087   1.312 -1.1050  1.1775 -0.8192
  788MPD2    H211622   4.209   3.749   1.409 -1.5358  0.3741 -1.9607
  788MPD2    H311623   4.293   3.966   1.453 -0.8381  0.1956 -0.4059
  788MPD2     N11624   4.542   3.997   1.095 -0.0867  0.1186  0.7444
  788MPD2    H511625   4.547   4.096   1.115  0.1335  0.3099 -0.2818
  788MPD2    N111626   4.284   3.597   1.186  0.4777  0.0322  0.0607
  788MPD2    H711627   4.321   3.570   1.096  0.9216 -3.0053  1.1392
  789MPD2     C11628   0.531   3.734  16.896  0.1868  0.2648 -0.6167
  789MPD2    C111629   0.448   3.716  16.788 -0.5157 -0.9657 -0.5420
  789MPD2    C211630   0.323   3.768  16.792  0.3578 -0.3896 -0.5500
  789MPD2    C311631   0.277   3.827  16.906  0.1451 -0.1081 -0.2400
  789MPD2    C411632   0.357   3.828  17.019 -0.4093  0.1997  0.5651
  789MPD2    C511633   0.481   3.773  17.014  0.5708  0.5249  0.2326
  789MPD2     H11634   0.266   3.755  16.701 -2.5016  0.4185  1.1376
  789MPD2    H111635   0.322   3.868  17.113  0.1308  0.1657  0.7788
  789MPD2    H211636   0.631   3.692  16.895 -0.3656 -1.0265 -1.3701
  789MPD2    H311637   0.548   3.767  17.099  0.0653 -2.7002  0.4144
  789MPD2     N11638   0.156   3.904  16.902  0.2140 -0.0617 -0.3167
  789MPD2    H511639   0.131   3.956  16.985  0.5911  1.2454 -1.0109
  789MPD2    N111640   0.482   3.657  16.660 -0.0065  0.5823 -0.2862
  789MPD2    H711641   0.417   3.650  16.583  1.1867 -0.1898 -1.2233
  790MPD2     C11642   1.077   1.171  13.307  0.0905  0.5259 -0.1638
  790MPD2    C111643   1.142   1.051  13.341  0.9572  0.1175 -0.4137
  790MPD2    C211644   1.115   0.938  13.273  0.5968 -0.5391 -1.4166
  790MPD2    C311645   1.032   0.941  13.168  0.0551 -0.0022 -0.7705
  790MPD2    C411646   0.972   1.058  13.126 -0.0379  0.8648 -0.1026
  790MPD2    C511647   0.994   1.173  13.200 -0.4590  0.0636  0.4398
  790MPD2     H11648   1.150   0.846  13.320 -1.0275 -0.3860  0.0631
  790MPD2    H111649   0.926   1.063  13.028  1.1388  0.8941 -0.6567
  790MPD2    H211650   1.092   1.256  13.372  1.9643  0.1384 -0.0990
  790MPD2    H311651   0.947   1.262  13.159 -0.7890  0.7605  2.3299
  790MPD2     N11652   0.988   0.816  13.107  0.3402  0.2462 -0.0607
  790MPD2    H511653   1.045   0.738  13.136  0.5559  0.4327  0.0127
  790MPD2    N111654   1.223   1.060  13.451 -0.7667 -0.4610 -0.0896
  790MPD2    H711655   1.228   1.150  13.498  0.0898 -1.0394  0.9112
  791MPD2     C11656   0.313   0.630  12.707 -0.2633  0.0492  0.0259
  791MPD2    C111657   0.378   0.520  12.766 -0.9788 -0.1901  0.1019
  791MPD2    C211658   0.323   0.398  12.756 -0.1810  0.3568  0.1275
  791MPD2    C311659   0.214   0.374  12.677 -0.3662 -0.2165 -0.4993
  791MPD2    C411660   0.162   0.481  12.608  0.4767 -0.5771  0.1415
  791MPD2    C511661   0.212   0.611  12.624 -0.4958 -0.9902  1.0831
  791MPD2     H11662   0.365   0.315  12.813 -1.0998 -0.4824 -0.4087
  791MPD2    H111663   0.076   0.475  12.542  0.6599 -0.1626 -0.1413
  791MPD2    H211664   0.362   0.726  12.718  0.7192 -0.1377 -2.8425
  791MPD2    H311665   0.164   0.696  12.577  1.2339 -0.0925  0.9153
  791MPD2     N11666   0.160   0.240  12.682  1.1096  0.2105 -0.0456
  791MPD2    H511667   0.223   0.168  12.715 -2.2448 -3.4957 -1.6922
  791MPD2    N111668   0.492   0.548  12.841  0.0039 -0.2145  0.0990
  791MPD2    H711669   0.534   0.640  12.832 -0.4841 -0.1286 -1.1989
  792MPD2     C11670   1.339   0.548  11.443  0.5690 -0.4358  0.0531
  792MPD2    C111671   1.294   0.626  11.343  0.4066 -0.7504  0.3229
  792MPD2    C211672   1.160   0.644  11.331 -1.2338 -0.3867 -0.4556
  792MPD2    C311673   1.071   0.583  11.418  0.1237 -0.4844 -0.5923
  792MPD2    C411674   1.123   0.499  11.520 -0.6518  0.4176  0.0482
  792MPD2    C511675   1.252   0.490  11.532  0.7805 -0.2280 -0.0107
  792MPD2     H11676   1.119   0.708  11.254 -3.0239 -1.0813 -0.0754
  792MPD2    H111677   1.053   0.447  11.585  3.2464 -2.2503  2.1074
  792MPD2    H211678   1.445   0.542  11.465  0.4742  0.2072  0.6859
  792MPD2    H311679   1.286   0.431  11.616  1.2682  1.8466  1.2573
  792MPD2     N11680   0.928   0.596  11.411 -0.2334  0.6210 -0.0875
  792MPD2    H511681   0.878   0.542  11.481  0.2634 -0.9757 -0.9730
  792MPD2    N111682   1.392   0.686  11.252  0.4659  0.0853 -0.1949
  792MPD2    H711683   1.488   0.657  11.268  0.7060  1.3591  0.6133
  793MPD2     C11684   0.610   0.719  10.543  0.0154  0.0273 -0.2984
  793MPD2    C111685   0.719   0.682  10.615  0.0338 -0.1760  0.5939
  793MPD2    C211686   0.717   0.677  10.751 -0.1753  0.4274  0.2739
  793MPD2    C311687   0.599   0.698  10.817 -0.5330 -0.4046  0.0240
  793MPD2    C411688   0.487   0.742  10.748 -0.4427 -0.2828  0.5872
  793MPD2    C511689   0.491   0.757  10.610 -0.1519  0.4342 -0.4901
  793MPD2     H11690   0.798   0.631  10.805 -1.1169  1.6650  2.7117
  793MPD2    H111691   0.393   0.763  10.799 -0.8881  0.4657 -0.5265
  793MPD2    H211692   0.616   0.726  10.435  0.6069  1.9380 -0.1491
  793MPD2    H311693   0.399   0.787  10.560  1.5047  1.4543 -2.9053
  793MPD2     N11694   0.597   0.680  10.957 -0.5569 -0.7242 -0.2051
  793MPD2    H511695   0.686   0.688  11.006 -0.0941  2.2299 -1.5109
  793MPD2    N111696   0.841   0.647  10.551 -0.4061  0.8397  0.1712
  793MPD2    H711697   0.915   0.619  10.616 -0.6984 -0.6102 -0.1235
  794MPD2     C11698   0.949   4.358  16.984  0.5128 -0.3712 -0.9221
  794MPD2    C111699   0.953   4.460  17.079 -0.1078 -0.2949  0.3209
  794MPD2    C211700   0.911   4.587  17.036 -0.0788  0.3132 -0.2303
  794MPD2    C311701   0.882   4.607  16.899 -0.1182  0.1851 -0.1169
  794MPD2    C411702   0.880   4.503  16.807  0.1884  0.7193  0.0612
  794MPD2    C511703   0.903   4.380  16.858 -0.1269  0.1902 -0.0980
  794MPD2     H11704   0.927   4.672  17.101  1.4327 -1.1508  1.3325
  794MPD2    H111705   0.848   4.514  16.704  1.2356 -0.1263 -0.3596
  794MPD2    H211706   0.977   4.257  17.012  2.2537  0.9846  2.2145
  794MPD2    H311707   0.892   4.296  16.790  4.5610 -2.1178  1.9283
  794MPD2     N11708   0.843   0.013  16.849  1.0899 -0.4714  0.4834
  794MPD2    H511709   0.819   0.008  16.751  0.2311  3.3653  0.4656
  794MPD2    N111710   0.986   4.433  17.215 -0.2689  0.4839  0.2284
  794MPD2    H711711   0.999   4.335  17.234  2.7206  0.8434  0.0469
  795MPD2     C11712   3.278   2.063  13.504  0.0534  0.1952 -0.6266
  795MPD2    C111713   3.267   1.984  13.397  0.6651  0.4134 -0.2721
  795MPD2    C211714   3.372   1.913  13.348 -0.0037 -0.3535  0.0623
  795MPD2    C311715   3.499   1.931  13.402  0.6276  0.4867  0.7012
  795MPD2    C411716   3.507   2.007  13.510 -0.2304 -0.1230 -0.3792
  795MPD2    C511717   3.401   2.071  13.567  0.4299 -0.4271 -0.2315
  795MPD2     H11718   3.353   1.862  13.254  0.1718  0.5140 -0.4419
  795MPD2    H111719   3.603   2.007  13.560 -0.2797  0.4776 -0.2846
  795MPD2    H211720   3.189   2.106  13.550 -0.6049 -0.3974 -1.3461
  795MPD2    H311721   3.419   2.130  13.656 -0.1968 -2.4249  1.2203
  795MPD2     N11722   3.602   1.848  13.365 -0.1401  0.1128 -0.0683
  795MPD2    H511723   3.686   1.853  13.422  1.9459  0.9172 -3.2117
  795MPD2    N111724   3.138   1.964  13.334  0.1096 -0.0313 -0.0373
  795MPD2    H711725   3.134   1.890  13.265 -0.1694  0.2690 -0.3425
  796MPD2     C11726   2.733   3.814  15.457  0.1071  0.3553 -0.3453
  796MPD2    C111727   2.837   3.866  15.530 -0.2012  0.3873 -0.8051
  796MPD2    C211728   2.825   3.992  15.585 -0.0235  0.6124 -0.6478
  796MPD2    C311729   2.706   4.060  15.582  0.1326  0.3749 -0.1774
  796MPD2    C411730   2.593   3.997  15.528  0.6896 -0.0811 -0.2132
  796MPD2    C511731   2.612   3.879  15.458 -0.2782  0.7774  0.8693
  796MPD2     H11732   2.911   4.034  15.636 -1.7954  0.6945  2.2715
  796MPD2    H111733   2.492   4.038  15.526  1.6564  2.1254 -2.8168
  796MPD2    H211734   2.734   3.715  15.413  1.5889 -0.6516  1.9614
  796MPD2    H311735   2.529   3.819  15.422  1.2851 -0.9630  0.1890
  796MPD2     N11736   2.698   4.191  15.642  0.0849  0.8050  0.0790
  796MPD2    H511737   2.783   4.235  15.677  1.7834 -3.2109  1.0467
  796MPD2    N111738   2.946   3.782  15.534  0.0964  0.0738 -0.1454
  796MPD2    H711739   2.926   3.690  15.497  0.6849  0.7533 -2.1241
  797MPD2     C11740   3.549   3.271  16.911 -0.6722 -0.3383 -0.1481
  797MPD2    C111741   3.608   3.398  16.908  0.4597  0.1496  0.2579
  797MPD2    C211742   3.599   3.470  16.791  0.1153 -0.4879 -0.1510
  797MPD2    C311743   3.548   3.412  16.674  0.4252 -0.2724  0.0173
  797MPD2    C411744   3.493   3.285  16.673 -0.5953  0.1497  0.4783
  797MPD2    C511745   3.492   3.218  16.799  0.5398  0.0071  0.3621
  797MPD2     H11746   3.641   3.570  16.792 -1.6465  0.2676 -1.5902
  797MPD2    H111747   3.450   3.233  16.589 -0.2972 -0.4778  0.7085
  797MPD2    H211748   3.539   3.213  17.003  0.0381 -0.3125 -0.0563
  797MPD2    H311749   3.458   3.115  16.801 -0.3825  0.2680 -1.4186
  797MPD2     N11750   3.548   3.484  16.550  0.2050  0.3110 -0.3912
  797MPD2    H511751   3.535   3.445  16.458 -0.9571 -1.2015  0.4081
  797MPD2    N111752   3.678   3.451  17.021  0.0868 -0.2461  0.4737
  797MPD2    H711753   3.698   3.550  17.018 -0.4053 -0.1629  0.0860
  798MPD2     C11754   3.786   4.116  16.781 -0.2871 -0.0549 -0.0772
  798MPD2    C111755   3.766   3.981  16.760  0.6038 -0.0239 -0.1829
  798MPD2    C211756   3.773   3.892  16.867  0.0866 -0.9604  0.2912
  798MPD2    C311757   3.806   3.931  16.990 -0.2209 -0.2037 -0.0616
  798MPD2    C411758   3.837   4.058  17.013 -0.0876  0.6069 -0.8311
  798MPD2    C511759   3.823   4.156  16.911  0.4381  0.0414 -0.8627
  798MPD2     H11760   3.747   3.788  16.851  1.6523 -1.1152 -1.3541
  798MPD2    H111761   3.855   4.089  17.115  2.0140 -2.3316 -0.3304
  798MPD2    H211762   3.783   4.202  16.715 -0.9731 -0.6584 -0.8138
  798MPD2    H311763   3.854   4.258  16.930  1.3861 -0.1051 -1.6294
  798MPD2     N11764   3.825   3.829  17.087  0.9744  0.0102 -0.4474
  798MPD2    H511765   3.834   3.736  17.045  0.6316  0.2713 -1.0972
  798MPD2    N111766   3.738   3.924  16.636  0.4723 -0.4446  0.0923
  798MPD2    H711767   3.701   3.830  16.633 -1.8342  0.3997  1.6981
  799MPD2     C11768   2.699   4.177  14.577 -0.2950  1.3563  0.5724
  799MPD2    C111769   2.822   4.242  14.563  0.1344  0.8429 -0.7019
  799MPD2    C211770   2.812   4.377  14.543 -0.0547  0.1672 -1.0891
  799MPD2    C311771   2.694   4.444  14.525  0.0866 -0.1651  0.4489
  799MPD2    C411772   2.569   4.381  14.535  0.1697  0.4377  0.4163
  799MPD2    C511773   2.580   4.247  14.562  0.3073 -0.5125 -0.1068
  799MPD2     H11774   2.906   4.428  14.530  0.1735  0.3787  1.3857
  799MPD2    H111775   2.472   4.427  14.527  1.2103  2.2602 -1.7896
  799MPD2    H211776   2.693   4.072  14.605  2.0505  1.2896  0.8534
  799MPD2    H311777   2.485   4.198  14.580  1.5200 -2.3107  1.2994
  799MPD2     N11778   2.679   4.576  14.481  0.2414  0.1545 -0.1596
  799MPD2    H511779   2.586   4.605  14.453  0.4141 -3.2228 -4.1584
  799MPD2    N111780   2.940   4.168  14.575 -0.0725  0.3205  0.4899
  799MPD2    H711781   2.932   4.072  14.607  1.8971 -0.0459 -0.0713
  800MPD2     C11782   3.203   1.193  13.871 -0.0656 -0.1681  0.1416
  800MPD2    C111783   3.333   1.141  13.864  0.2241 -0.2373  0.2850
  800MPD2    C211784   3.348   1.011  13.820  0.7189  0.3616 -0.4612
  800MPD2    C311785   3.244   0.941  13.754  0.2868 -0.3548 -0.3096
  800MPD2    C411786   3.118   0.990  13.765 -0.6310 -0.5721 -0.2405
  800MPD2    C511787   3.094   1.115  13.827 -0.1292 -0.1709  0.2294
  800MPD2     H11788   3.439   0.954  13.835  1.4786  2.3429  2.3340
  800MPD2    H111789   3.031   0.945  13.720 -0.4435 -1.6970  0.5322
  800MPD2    H211790   3.187   1.296  13.901 -2.9461 -0.7825  0.7378
  800MPD2    H311791   2.994   1.156  13.819  0.2700  0.8576  0.5237
  800MPD2     N11792   3.274   0.829  13.677  0.0609  0.4031 -0.1620
  800MPD2    H511793   3.372   0.802  13.681  0.5177  1.9205 -1.0783
  800MPD2    N111794   3.439   1.214  13.926 -0.0463  0.2363  0.1797
  800MPD2    H711795   3.420   1.313  13.940  1.8891  0.6415 -0.0959
  801MPD2     C11796   3.710   1.900  13.858 -0.9715 -0.1296  0.2325
  801MPD2    C111797   3.628   1.796  13.901 -0.1636  0.2589  0.7707
  801MPD2    C211798   3.506   1.821  13.948  0.4816  0.5339  0.5833
  801MPD2    C311799   3.467   1.946  13.984  0.5230  0.1772 -0.0976
  801MPD2    C411800   3.550   2.046  13.947  0.0292 -0.4604  0.0229
  801MPD2    C511801   3.665   2.033  13.876  0.2000 -0.5136  0.2857
  801MPD2     H11802   3.441   1.742  13.985 -0.4405  1.4912  0.9830
  801MPD2    H111803   3.522   2.148  13.973 -1.9430 -0.3705 -2.4954
  801MPD2    H211804   3.810   1.885  13.820 -1.0043  0.1187  0.0504
  801MPD2    H311805   3.732   2.115  13.854 -0.1345 -0.4192 -0.3895
  801MPD2     N11806   3.359   1.971  14.075  0.1037 -0.6711  0.0958
  801MPD2    H511807   3.358   2.056  14.131 -0.7015  1.5073 -3.2131
  801MPD2    N111808   3.653   1.655  13.899  0.3136 -0.2417 -0.1318
  801MPD2    H711809   3.581   1.596  13.939 -1.8165  2.3855 -0.0482
  802MPD2     C11810   1.908   1.912  16.989 -0.5897  0.3602  0.3188
  802MPD2    C111811   2.013   1.876  17.070 -1.0507  0.7596 -0.1147
  802MPD2    C211812   2.108   1.786  17.026 -0.4516 -0.0937  0.4259
  802MPD2    C311813   2.110   1.733  16.900  0.1452  0.2058 -0.5266
  802MPD2    C411814   2.006   1.775  16.819  0.0889 -0.5235  0.2331
  802MPD2    C511815   1.911   1.864  16.858  0.7102  0.9962 -0.5656
  802MPD2     H11816   2.184   1.760  17.099  0.6466 -0.3217 -0.7901
  802MPD2    H111817   1.998   1.741  16.716 -3.7820 -0.6224  0.5467
  802MPD2    H211818   1.836   1.988  17.019 -1.3699  0.4676 -1.8164
  802MPD2    H311819   1.842   1.908  16.788 -1.4529  0.0214  0.9457
  802MPD2     N11820   2.217   1.646  16.857  0.3251  0.1767  0.2154
  802MPD2    H511821   2.290   1.621  16.924  1.6178  1.7894 -0.5867
  802MPD2    N111822   2.034   1.930  17.201  0.1178 -0.1544 -0.5763
  802MPD2    H711823   2.111   1.888  17.252 -2.3306 -1.6707  1.8494
  803MPD2     C11824   4.098   0.183  11.736 -0.6883  0.6352  0.0170
  803MPD2    C111825   4.071   0.241  11.860 -0.0089 -0.1878 -0.0118
  803MPD2    C211826   3.999   0.174  11.954  0.7841  0.4930  1.3775
  803MPD2    C311827   3.965   0.045  11.934  0.6098 -0.4005 -0.0416
  803MPD2    C411828   4.007   4.700  11.825  0.1854 -0.0534  0.5623
  803MPD2    C511829   4.071   0.052  11.725  0.6679 -0.3568  0.1366
  803MPD2     H11830   3.969   0.219  12.047 -0.9697 -0.2772  1.1766
  803MPD2    H111831   3.999   4.592  11.815 -1.1686  0.0995  0.1102
  803MPD2    H211832   4.167   0.234  11.669 -0.5232  1.0474  0.5055
  803MPD2    H311833   4.115   4.714  11.645 -1.9699 -0.8733 -0.9355
  803MPD2     N11834   3.876   4.697  12.021 -0.2798  0.3434  0.4439
  803MPD2    H511835   3.879   4.595  12.016  0.1913  0.3757  0.0820
  803MPD2    N111836   4.116   0.376  11.888  0.6090  0.2922 -0.1228
  803MPD2    H711837   4.096   0.404  11.983 -0.7588 -1.9171  0.2543
  804MPD2     C11838   3.612   1.730  17.072 -0.1876 -0.2968 -0.2618
  804MPD2    C111839   3.496   1.796  17.052 -0.1726  0.3736  0.3025
  804MPD2    C211840   3.493   1.932  17.052  0.4956 -0.5019 -0.5215
  804MPD2    C311841   3.603   2.010  17.076 -0.4590  0.2612  0.2490
  804MPD2    C411842   3.718   1.943  17.093 -0.4161  0.4084  0.3994
  804MPD2    C511843   3.725   1.803  17.074  0.3660  0.2622  0.2107
  804MPD2     H11844   3.395   1.975  17.037  1.6040  2.7101  1.6138
  804MPD2    H111845   3.815   1.987  17.112 -1.7836  3.6917 -0.3192
  804MPD2    H211846   3.624   1.622  17.065 -2.1759 -0.4412 -1.3645
  804MPD2    H311847   3.817   1.746  17.079  0.6166  0.6385 -0.1164
  804MPD2     N11848   3.597   2.148  17.071 -0.1617 -0.5267 -0.3029
  804MPD2    H511849   3.506   2.192  17.070  0.8786  1.6212  2.2610
  804MPD2    N111850   3.367   1.738  17.021  0.0645 -0.0244 -0.3048
  804MPD2    H711851   3.287   1.798  17.004 -0.0972  0.1751  1.1388
  805MPD2     C11852   2.607   0.279  15.775 -0.0607 -0.2940 -0.2274
  805MPD2    C111853   2.697   0.259  15.673  0.1164  0.0145 -0.3350
  805MPD2    C211854   2.829   0.232  15.713  0.4710  0.3975 -0.1292
  805MPD2    C311855   2.878   0.256  15.842  0.5061  0.6842  0.4611
  805MPD2    C411856   2.782   0.287  15.938 -0.0400 -0.1515  0.1515
  805MPD2    C511857   2.650   0.286  15.908 -0.9489 -0.3981  0.4664
  805MPD2     H11858   2.908   0.238  15.639  1.7297  2.7682  1.3902
  805MPD2    H111859   2.798   0.307  16.044 -0.5450 -2.0003  0.5657
  805MPD2    H211860   2.503   0.306  15.761 -0.8244 -3.6121 -0.7451
  805MPD2    H311861   2.572   0.304  15.981  0.3823  1.7603  1.3631
  805MPD2     N11862   3.017   0.226  15.876  0.3069 -0.2989 -0.0875
  805MPD2    H511863   3.073   0.201  15.795  1.3512  2.2091 -0.1541
  805MPD2    N111864   2.655   0.236  15.545 -0.4622 -0.2503 -0.7065
  805MPD2    H711865   2.717   0.237  15.464  3.3389  1.7214  2.2390
  806MPD2     C11866   3.577   4.599   0.505 -0.1885  0.8583  0.1237
  806MPD2    C111867   3.506   4.716   0.531 -0.0750  0.0220  0.3911
  806MPD2    C211868   3.429   0.044   0.420 -0.4059  0.4995 -0.4857
  806MPD2    C311869   3.441   4.716   0.296  0.1530 -1.0392 -0.3414
  806MPD2    C411870   3.516   4.596   0.278  0.1987  0.1645  0.1815
  806MPD2    C511871   3.578   4.533   0.382  0.5319  0.2814 -0.1452
  806MPD2     H11872   3.382   0.141   0.431 -0.8935  0.3566 -1.3096
  806MPD2    H111873   3.521   4.550   0.179  2.8476  1.3682 -0.2423
  806MPD2    H211874   3.622   4.552   0.592 -0.5771  1.0069  0.4064
  806MPD2    H311875   3.616   4.432   0.366 -1.9062 -0.6342 -0.0770
  806MPD2     N11876   3.387   0.068   0.183  0.3246 -0.6957 -0.0880
  806MPD2    H511877   3.346   0.160   0.199  1.2664  0.1227 -2.3615
  806MPD2    N111878   3.502   0.059   0.657 -0.0169 -0.0103  0.7409
  806MPD2    H711879   3.452   0.147   0.657  1.1571  0.6436  0.1411
  807MPD2     C11880   3.143   4.642   1.342 -0.0590 -0.0518  0.0951
  807MPD2    C111881   3.279   4.623   1.350  0.5341 -0.1951  0.0714
  807MPD2    C211882   3.332   4.549   1.446  0.3843 -0.2436  0.6516
  807MPD2    C311883   3.266   4.460   1.528 -0.0003  0.8690  0.7539
  807MPD2    C411884   3.134   4.464   1.514  0.5714 -0.4211 -0.2599
  807MPD2    C511885   3.076   4.547   1.423 -0.4387  0.1600 -0.4150
  807MPD2     H11886   3.440   4.551   1.453  0.4415  1.8876 -0.8119
  807MPD2    H111887   3.074   4.404   1.582 -1.2715  1.6575 -0.0298
  807MPD2    H211888   3.091   4.696   1.263 -0.0323 -1.3919 -0.8315
  807MPD2    H311889   2.967   4.544   1.423 -0.4088 -1.3096 -1.1855
  807MPD2     N11890   3.345   4.387   1.621 -0.0860  0.0019 -0.3909
  807MPD2    H511891   3.441   4.417   1.628 -0.3938  0.4125  1.8439
  807MPD2    N111892   3.368   4.682   1.261 -0.2068 -0.2356  0.5495
  807MPD2    H711893   3.466   4.658   1.274  0.0191  1.0253  1.1424
  808MPD2     C11894   2.814   0.885   9.356 -0.4661  0.0826  0.6584
  808MPD2    C111895   2.835   0.760   9.417 -0.0356 -0.1771 -0.2245
  808MPD2    C211896   2.929   0.744   9.512 -0.3462 -0.9886 -0.0302
  808MPD2    C311897   2.997   0.847   9.567 -0.5684  0.2343  0.8220
  808MPD2    C411898   2.986   0.974   9.497 -0.2029 -0.2464 -0.4225
  808MPD2    C511899   2.896   0.988   9.394 -0.1475 -0.5667 -0.2318
  808MPD2     H11900   2.938   0.644   9.552  1.3349 -0.7738  0.1247
  808MPD2    H111901   3.043   1.061   9.527 -0.2847 -0.8088  1.3304
  808MPD2    H211902   2.744   0.895   9.275 -0.2662 -1.5795  0.2758
  808MPD2    H311903   2.887   1.085   9.347 -2.7238  0.1461  1.7025
  808MPD2     N11904   3.098   0.833   9.671  0.0521  0.0630  0.8015
  808MPD2    H511905   3.142   0.923   9.690 -0.5889  0.3376  0.9664
  808MPD2    N111906   2.770   0.645   9.376 -0.2930 -0.6316  0.2748
  808MPD2    H711907   2.787   0.558   9.426 -2.4322 -0.1183  1.9168
  809MPD2     C11908   3.821   0.218   9.550  0.2551  0.7555 -0.1871
  809MPD2    C111909   3.853   0.349   9.566 -0.9943 -0.0850 -0.0127
  809MPD2    C211910   3.762   0.433   9.617  0.5050  0.0763 -0.4215
  809MPD2    C311911   3.641   0.381   9.667  0.5080  0.1628  0.1333
  809MPD2    C411912   3.610   0.248   9.655  0.3551 -0.0101 -0.6967
  809MPD2    C511913   3.707   0.170   9.594  0.4274  0.9791  0.9309
  809MPD2     H11914   3.788   0.537   9.634  2.9721 -0.6359  0.1538
  809MPD2    H111915   3.522   0.209   9.705  0.0741 -0.0003 -1.1868
  809MPD2    H211916   3.887   0.141   9.511 -0.1539  0.1207  0.3698
  809MPD2    H311917   3.686   0.064   9.600 -1.7157  1.3870  0.6291
  809MPD2     N11918   3.549   0.458   9.740  0.7205  0.8976  0.1961
  809MPD2    H511919   3.463   0.412   9.770  0.3453  0.1500 -1.9946
  809MPD2    N111920   3.976   0.410   9.530 -0.5539 -0.2617  0.3754
  809MPD2    H711921   3.988   0.509   9.543  1.3323 -0.6039  1.2310
  810MPD2     C11922   3.065   0.521  10.111 -0.2412 -0.4280  0.4995
  810MPD2    C111923   2.984   0.446  10.190 -0.2408  0.0333  0.4659
  810MPD2    C211924   3.026   0.419  10.314 -0.1170  0.2112 -0.5677
  810MPD2    C311925   3.149   0.477  10.361  0.2529 -0.8472 -0.3362
  810MPD2    C411926   3.225   0.555  10.278 -0.3709 -0.7603  0.0428
  810MPD2    C511927   3.179   0.582  10.156  0.3048 -0.1448  0.2927
  810MPD2     H11928   2.969   0.356  10.381  1.8769 -0.2541  0.6915
  810MPD2    H111929   3.313   0.608  10.312 -0.4252 -0.9591  0.4850
  810MPD2    H211930   3.032   0.548  10.011 -0.0895  0.0208  0.5707
  810MPD2    H311931   3.238   0.649  10.095  1.7744  1.7078  3.7732
  810MPD2     N11932   3.210   0.449  10.485 -0.1937  0.1691 -0.3916
  810MPD2    H511933   3.285   0.513  10.505 -2.0189  1.8825  0.9843
  810MPD2    N111934   2.856   0.413  10.136  0.1800 -0.1754  0.9168
  810MPD2    H711935   2.849   0.421  10.035  2.2770  1.9198  0.9157
  811MPD2     C11936   2.240   0.410   9.545  0.3191  0.2280  0.0901
  811MPD2    C111937   2.317   0.477   9.635 -0.3728  0.8944 -1.1927
  811MPD2    C211938   2.358   0.609   9.605  0.4176 -0.1786  0.0882
  811MPD2    C311939   2.310   0.671   9.491 -0.6206  0.3680 -0.6062
  811MPD2    C411940   2.224   0.603   9.404  0.1210  0.2932 -0.8071
  811MPD2    C511941   2.196   0.471   9.431 -0.0278  0.5836 -0.2433
  811MPD2     H11942   2.415   0.670   9.675 -1.5893  1.5324  0.2653
  811MPD2    H111943   2.182   0.638   9.311  0.3890  1.6901 -0.4066
  811MPD2    H211944   2.215   0.305   9.560  0.5694 -0.1538 -2.1113
  811MPD2    H311945   2.138   0.408   9.365  2.9079 -0.7761 -1.5570
  811MPD2     N11946   2.363   0.804   9.468 -0.1139 -0.1731 -0.6271
  811MPD2    H511947   2.409   0.845   9.549  1.9342 -0.1970 -1.7908
  811MPD2    N111948   2.363   0.409   9.753  0.3661 -0.3779  0.2258
  811MPD2    H711949   2.324   0.317   9.768 -0.2055 -0.1061  0.4029
  812MPD2     C11950   1.890   0.046  12.133 -0.2510 -1.0015  0.0230
  812MPD2    C111951   1.830   0.146  12.202  0.5561  0.4836 -0.7086
  812MPD2    C211952   1.794   0.125  12.333  0.2316 -0.3194  0.3780
  812MPD2    C311953   1.808   0.004  12.395 -0.1621  0.1572 -0.0277
  812MPD2    C411954   1.862   4.624  12.321 -0.2196 -0.4818  0.0029
  812MPD2    C511955   1.907   4.643  12.192  0.6457  0.2285  0.3340
  812MPD2     H11956   1.749   0.194  12.403  0.0643  0.4733 -0.5236
  812MPD2    H111957   1.866   4.518  12.345  1.7028 -0.6323 -1.0349
  812MPD2    H211958   1.907   0.059  12.027 -1.6686  1.9997  0.1701
  812MPD2    H311959   1.940   4.563  12.127  0.8623  0.2730  0.3888
  812MPD2     N11960   1.771   4.712  12.532  0.5670 -0.5337 -0.7889
  812MPD2    H511961   1.741   0.072  12.586  0.3735 -0.4175 -1.0768
  812MPD2    N111962   1.814   0.274  12.146 -0.1320  0.5097  0.3698
  812MPD2    H711963   1.855   0.286  12.054  1.8424 -0.9921  1.0354
  813MPD2     C11964   1.288   2.383  12.604  0.7053 -0.0910 -0.0388
  813MPD2    C111965   1.284   2.516  12.648  0.1640 -0.6106 -0.8301
  813MPD2    C211966   1.197   2.538  12.758  0.0135  0.4668 -0.3176
  813MPD2    C311967   1.109   2.440  12.800 -0.4801  0.1103  0.7877
  813MPD2    C411968   1.101   2.317  12.740  0.8399 -0.3080  0.0834
  813MPD2    C511969   1.192   2.287  12.643  0.1621 -0.4807 -0.3221
  813MPD2     H11970   1.183   2.636  12.802 -0.9785  0.6939 -1.1311
  813MPD2    H111971   1.027   2.244  12.774  1.1086 -0.9070 -0.6394
  813MPD2    H211972   1.365   2.345  12.538  0.8069  0.5689 -0.3024
  813MPD2    H311973   1.209   2.183  12.614 -1.8094 -1.5060  2.2413
  813MPD2     N11974   1.017   2.482  12.899  0.3291  0.4517 -1.1895
  813MPD2    H511975   1.033   2.573  12.940  0.9221 -0.1285 -0.1304
  813MPD2    N111976   1.375   2.608  12.596 -0.2785 -0.7135 -0.4969
  813MPD2    H711977   1.440   2.563  12.532  1.6320  1.2686  0.0481
  814MPD2     C11978   1.542   3.331  12.303  0.5010  0.0802  0.4899
  814MPD2    C111979   1.549   3.422  12.197 -0.6322  0.0304  1.0035
  814MPD2    C211980   1.576   3.553  12.215 -0.5586  0.3748  0.0573
  814MPD2    C311981   1.627   3.586  12.337 -0.5737 -0.2478  0.1764
  814MPD2    C411982   1.617   3.504  12.444  0.7178 -0.6982 -0.0618
  814MPD2    C511983   1.573   3.374  12.430  0.3754  0.0436 -0.1270
  814MPD2     H11984   1.586   3.613  12.126  0.2731 -0.5778 -0.4897
  814MPD2    H111985   1.635   3.554  12.538 -2.4868  2.5364 -1.1698
  814MPD2    H211986   1.501   3.230  12.303 -0.3241  0.4090  0.3567
  814MPD2    H311987   1.570   3.307  12.515  0.9849  0.6788  0.3908
  814MPD2     N11988   1.682   3.712  12.365 -0.2360 -0.5027  0.1377
  814MPD2    H511989   1.705   3.743  12.459 -1.0975 -0.3682  0.3038
  814MPD2    N111990   1.505   3.390  12.067  0.5943 -0.4356 -0.5163
  814MPD2    H711991   1.494   3.471  12.007 -0.8290 -0.7546 -0.6974
  815MPD2     C11992   2.338   2.413  11.595 -0.0966  0.4869  0.0956
  815MPD2    C111993   2.369   2.286  11.639  0.6895  0.2715 -1.0074
  815MPD2    C211994   2.283   2.241  11.742 -0.3537  0.1440  0.0252
  815MPD2    C311995   2.180   2.312  11.805  0.5569 -0.3585 -0.2839
  815MPD2    C411996   2.161   2.440  11.757  0.1369  0.0172  0.3688
  815MPD2    C511997   2.243   2.490  11.663 -0.1113 -0.5728  0.5308
  815MPD2     H11998   2.311   2.147  11.787 -3.2596 -0.1335  1.2428
  815MPD2    H111999   2.100   2.514  11.807 -1.4934  0.2761 -2.0002
  815MPD2    H212000   2.400   2.459  11.519 -0.2654 -0.1711 -0.4447
  815MPD2    H312001   2.234   2.596  11.641 -2.4789 -0.9367 -0.3523
  815MPD2     N12002   2.105   2.252  11.909  0.3100  0.0902  0.6741
  815MPD2    H512003   2.111   2.151  11.916 -3.6763 -0.2412 -0.6126
  815MPD2    N112004   2.460   2.209  11.560 -0.0040  0.1818  0.3179
  815MPD2    H712005   2.497   2.253  11.476 -1.2416  2.6141  1.0472
  816MPD2     C12006   1.918   1.555  17.484 -0.5613 -0.0917 -0.2974
  816MPD2    C112007   1.826   1.585  17.388 -0.3229  0.4060 -0.7522
  816MPD2    C212008   1.833   1.515  17.272  0.3014 -0.0434 -0.3342
  816MPD2    C312009   1.940   1.434  17.237  0.3352 -0.0077  0.3600
  816MPD2    C412010   2.040   1.409  17.330 -0.1588 -1.0002 -0.0394
  816MPD2    C512011   2.022   1.473  17.455  0.2487 -0.5791  0.2549
  816MPD2     H12012   1.754   1.525  17.198  0.7390  2.1756 -0.5215
  816MPD2    H112013   2.123   1.340  17.329  0.6576 -0.0201  1.3938
  816MPD2    H212014   1.915   1.590  17.587 -1.1029 -3.9792  1.0030
  816MPD2    H312015   2.091   1.449  17.534 -0.3093  0.1304  0.9617
  816MPD2     N12016   1.944   1.380  17.104 -0.4874 -0.2689  0.3463
  816MPD2    H512017   1.869   1.413  17.045  0.9672  0.8635 -0.8762
  816MPD2    N112018   1.726   1.679  17.427 -0.0756 -0.9211 -0.1542
  816MPD2    H712019   1.737   1.729  17.515 -0.0100  1.8256 -1.7156
  817MPD2     C12020   1.500   2.611  10.194  0.3491  0.3985 -0.2685
  817MPD2    C112021   1.568   2.642  10.079 -0.2703  0.4902 -0.0866
  817MPD2    C212022   1.544   2.759  10.014  0.0686 -0.6712 -0.0014
  817MPD2    C312023   1.457   2.855  10.071  0.2023  0.3559 -0.4236
  817MPD2    C412024   1.398   2.821  10.190  0.1343  0.2205  0.2691
  817MPD2    C512025   1.414   2.702  10.253  0.2359  0.4734  0.2627
  817MPD2     H12026   1.592   2.779   9.919  1.3296 -1.3303  0.4946
  817MPD2    H112027   1.325   2.880  10.245 -0.2166 -1.1044  1.2443
  817MPD2    H212028   1.499   2.514  10.241 -1.1049  0.1173 -0.8709
  817MPD2    H312029   1.354   2.679  10.340 -1.5380  0.0945 -1.0756
  817MPD2     N12030   1.449   2.976   9.991  0.0606  0.0105 -0.0801
  817MPD2    H512031   1.499   2.990   9.904  0.5673  0.7302  0.3263
  817MPD2    N112032   1.652   2.555  10.015  0.1070 -0.6316  0.2568
  817MPD2    H712033   1.688   2.582   9.924 -3.1423  0.7408 -0.5895
  818MPD2     C12034   0.885   2.604   9.694  0.7375 -0.0935  0.0739
  818MPD2    C112035   0.786   2.571   9.787 -0.1408 -0.2000  0.1894
  818MPD2    C212036   0.810   2.466   9.871 -0.3211 -0.2097 -0.4722
  818MPD2    C312037   0.921   2.384   9.853  0.0860 -0.4083  0.4156
  818MPD2    C412038   1.014   2.403   9.752 -0.0619  0.6548 -0.6506
  818MPD2    C512039   0.997   2.516   9.675 -0.1853  0.1595 -0.3883
  818MPD2     H12040   0.752   2.454   9.963  0.4230  0.3941  0.0724
  818MPD2    H112041   1.091   2.330   9.732  0.6179  1.2387 -0.1820
  818MPD2    H212042   0.873   2.694   9.636 -1.7217  0.4976  1.5047
  818MPD2    H312043   1.077   2.530   9.603 -1.3315  0.4137 -1.6112
  818MPD2     N12044   0.930   2.271   9.935 -0.4143  0.2493 -0.0254
  818MPD2    H512045   1.012   2.212   9.925 -1.2063 -0.4624 -2.3087
  818MPD2    N112046   0.670   2.652   9.810 -0.5982 -0.4669  0.6080
  818MPD2    H712047   0.602   2.616   9.876 -0.2779  1.3910  1.9325
  819MPD2     C12048   3.423   4.488  15.546 -0.9692 -0.0737  0.1989
  819MPD2    C112049   3.480   4.364  15.512 -0.5038  0.0630 -0.0961
  819MPD2    C212050   3.617   4.335  15.544  0.6995  1.1313 -0.6386
  819MPD2    C312051   3.679   4.423  15.628  0.1877  0.0347 -0.4028
  819MPD2    C412052   3.616   4.542  15.668  0.4713 -0.1902 -0.0329
  819MPD2    C512053   3.493   4.571  15.620 -0.1467 -0.0715  0.3796
  819MPD2     H12054   3.664   4.242  15.515 -3.0617 -0.7294 -0.6747
  819MPD2    H112055   3.657   4.620  15.731  2.0915 -0.8370 -0.3055
  819MPD2    H212056   3.325   4.521  15.514 -0.7485 -0.5377 -0.9347
  819MPD2    H312057   3.457   4.671  15.642 -1.1083 -0.9125  2.6586
  819MPD2     N12058   3.808   4.393  15.672 -0.4816  0.5313  0.2769
  819MPD2    H512059   3.846   4.310  15.628  0.2757 -0.3663  2.6409
  819MPD2    N112060   3.391   4.285  15.440  0.1728 -0.7096 -0.8251
  819MPD2    H712061   3.304   4.334  15.422 -0.7595 -1.6458  1.0453
  820MPD2     C12062   2.453   4.272  15.168  0.7133 -0.2867  0.0307
  820MPD2    C112063   2.558   4.356  15.184 -1.2443  0.3356 -0.3993
  820MPD2    C212064   2.688   4.312  15.214 -0.4545  0.1944 -0.3165
  820MPD2    C312065   2.701   4.177  15.227  0.9264 -0.0906  0.0009
  820MPD2    C412066   2.592   4.091  15.204 -0.0168 -0.5650  0.8424
  820MPD2    C512067   2.471   4.140  15.184 -0.6714 -0.6758 -0.0634
  820MPD2     H12068   2.771   4.377  15.240 -0.0878 -0.1218 -0.7113
  820MPD2    H112069   2.605   3.984  15.205  0.7185 -0.4890 -1.0070
  820MPD2    H212070   2.354   4.311  15.148 -0.6858 -4.1195 -0.6712
  820MPD2    H312071   2.384   4.075  15.174 -1.8188  0.9645 -0.7376
  820MPD2     N12072   2.823   4.111  15.260  0.9711  0.5263 -0.5833
  820MPD2    H512073   2.832   4.011  15.251 -1.5786  0.1597  0.7711
  820MPD2    N112074   2.532   4.496  15.184 -0.7064 -0.2010  0.2836
  820MPD2    H712075   2.435   4.525  15.173  0.2068  2.6756  0.1016
  821MPD2     C12076   3.219   0.850  12.884  0.1711  0.4860 -0.1722
  821MPD2    C112077   3.300   0.864  12.995 -0.6245  0.3991  0.5525
  821MPD2    C212078   3.402   0.960  12.992  0.1461  0.1680 -0.0699
  821MPD2    C312079   3.409   1.052  12.884  0.0306  0.1101 -0.7662
  821MPD2    C412080   3.323   1.036  12.776  0.4932 -0.6460  0.1168
  821MPD2    C512081   3.235   0.939  12.778 -0.5643  0.0685  0.3141
  821MPD2     H12082   3.460   0.968  13.083 -0.1231  2.8461 -0.1283
  821MPD2    H112083   3.320   1.098  12.687  0.5468  0.2576  0.7319
  821MPD2    H212084   3.125   0.797  12.884  0.7964 -0.6205 -0.7488
  821MPD2    H312085   3.151   0.933  12.710 -1.3997  1.2948  1.2378
  821MPD2     N12086   3.512   1.149  12.871 -0.1670 -0.0502  0.2350
  821MPD2    H512087   3.538   1.195  12.784 -0.0155 -0.0091  0.3021
  821MPD2    N112088   3.288   0.783  13.111  0.4433 -0.2251 -0.2263
  821MPD2    H712089   3.358   0.804  13.181  1.0760 -1.2722 -0.5302
  822MPD2     C12090   3.961   0.766  15.897 -0.8632  0.0122  0.8932
  822MPD2    C112091   3.955   0.755  16.036  0.6543 -0.3161  0.0012
  822MPD2    C212092   3.910   0.869  16.108  0.2130 -0.4997 -0.5417
  822MPD2    C312093   3.876   0.986  16.054  0.5162 -0.4297 -0.6045
  822MPD2    C412094   3.871   0.991  15.914  0.0330 -1.0049  0.2712
  822MPD2    C512095   3.915   0.883  15.846 -0.0096  0.4460 -0.1909
  822MPD2     H12096   3.915   0.869  16.216  3.6331 -0.9686 -0.7121
  822MPD2    H112097   3.844   1.081  15.860  1.2272 -1.2565 -0.7343
  822MPD2    H212098   3.982   0.681  15.833 -1.3616  1.5343 -1.2890
  822MPD2    H312099   3.904   0.890  15.739 -2.0430 -0.1210 -0.0083
  822MPD2     N12100   3.852   1.094  16.142 -0.1379 -0.5725  0.7850
  822MPD2    H512101   3.853   1.082  16.243 -0.0595  1.8981  1.0828
  822MPD2    N112102   4.000   0.649  16.116 -0.2897  0.0898 -0.3613
  822MPD2    H712103   3.990   0.656  16.216  0.5895 -0.5462 -0.2212
  823MPD2     C12104   3.771   1.416  16.903 -1.1078  0.7253  0.2378
  823MPD2    C112105   3.782   1.321  16.801 -0.6616 -0.5585  0.4599
  823MPD2    C212106   3.793   1.191  16.846 -1.0434  0.5590  0.0766
  823MPD2    C312107   3.811   1.155  16.975 -0.1701  0.9012 -0.3157
  823MPD2    C412108   3.802   1.242  17.072 -0.0013 -0.6117  0.0986
  823MPD2    C512109   3.782   1.374  17.032  0.6978 -0.1359 -0.2533
  823MPD2     H12110   3.804   1.109  16.776  1.6576  2.4529 -1.6866
  823MPD2    H112111   3.818   1.214  17.175 -2.4464  0.3365  0.7352
  823MPD2    H212112   3.761   1.522  16.882  0.0894  0.7951 -0.0366
  823MPD2    H312113   3.770   1.436  17.120 -1.4990  0.5995 -1.0646
  823MPD2     N12114   3.843   1.021  17.016  0.2775 -0.2147 -0.4805
  823MPD2    H512115   3.854   1.007  17.116  1.7726  0.7067 -0.5122
  823MPD2    N112116   3.780   1.370  16.668  0.7123 -0.4427 -0.1293
  823MPD2    H712117   3.781   1.470  16.650 -0.1255 -0.4562 -0.2584
  824MPD2     C12118   4.434   4.627  16.186  0.7935  0.2700  0.3422
  824MPD2    C112119   4.431   0.011  16.105  0.0200 -0.0307  0.2268
  824MPD2    C212120   4.539   0.026  16.018  0.0537  0.1331  0.1027
  824MPD2    C312121   4.623   4.638  15.981  0.4519  0.2148  0.2754
  824MPD2    C412122   4.621   4.532  16.070  0.3924  0.1921  0.5021
  824MPD2    C512123   4.535   4.532  16.174 -0.0180  0.0537 -0.4425
  824MPD2     H12124   4.542   0.120  15.964  0.7717 -0.8631 -1.6262
  824MPD2    H112125   4.684   4.444  16.061  0.7746  0.7746 -2.4981
  824MPD2    H212126   4.349   4.614  16.252 -0.4621 -1.3524 -1.6111
  824MPD2    H312127   4.533   4.441  16.233 -0.3084  1.4416  1.6858
  824MPD2     N12128   4.708   4.646  15.873  0.4758 -0.3575  0.4473
  824MPD2    H512129   4.711   0.016  15.828  0.8523 -0.9620 -0.7602
  824MPD2    N112130   4.347   0.128  16.137  0.1131  0.3302 -0.5770
  824MPD2    H712131   4.351   0.207  16.073 -0.2655  1.9203  1.3917
  825MPD2     C12132   0.716   0.258  15.813  0.5217 -0.0233 -0.5534
  825MPD2    C112133   0.591   0.283  15.751  0.1558  0.0180 -0.0062
  825MPD2    C212134   0.551   0.414  15.719 -1.0687  0.0361 -0.1668
  825MPD2    C312135   0.636   0.520  15.737 -0.1653 -0.3030 -0.0013
  825MPD2    C412136   0.763   0.494  15.771  0.5028  0.1051  0.2606
  825MPD2    C512137   0.799   0.369  15.812  0.2812  0.3478 -0.3765
  825MPD2     H12138   0.457   0.428  15.667  1.5037 -0.8397 -5.0941
  825MPD2    H112139   0.830   0.579  15.766 -1.2168  1.4892  0.9902
  825MPD2    H212140   0.759   0.159  15.816 -0.2325 -0.2930  1.4618
  825MPD2    H312141   0.899   0.354  15.850  0.5223  1.7192 -0.4955
  825MPD2     N12142   0.605   0.646  15.685 -0.4302 -0.2522 -0.1369
  825MPD2    H512143   0.682   0.709  15.664 -1.1199  0.5656 -0.2094
  825MPD2    N112144   0.509   0.169  15.727  0.2378 -0.0145  0.2868
  825MPD2    H712145   0.546   0.077  15.748 -0.7319 -0.4202  0.2140
  826MPD2     C12146   4.513   0.318  13.636  0.0559 -0.0331 -0.0234
  826MPD2    C112147   4.536   0.300  13.770  0.7734  0.2401  0.0072
  826MPD2    C212148   4.460   0.360  13.864 -0.2243 -0.3829  1.4073
  826MPD2    C312149   4.358   0.449  13.824  0.5372 -0.7421  1.3660
  826MPD2    C412150   4.332   0.462  13.689 -0.2996 -0.5581  0.0363
  826MPD2    C512151   4.408   0.398  13.592  0.7767 -0.0479  0.0444
  826MPD2     H12152   4.491   0.349  13.968  3.7789  0.1754  0.2779
  826MPD2    H112153   4.250   0.531  13.670  0.7734  0.6937 -0.0794
  826MPD2    H212154   4.591   0.290  13.567 -0.9769 -0.5579 -0.9680
  826MPD2    H312155   4.397   0.410  13.485 -1.5151 -2.2999  0.0239
  826MPD2     N12156   4.292   0.534  13.920  0.2739  0.0013 -0.0276
  826MPD2    H512157   4.227   0.600  13.879  1.4036  0.5780 -0.8864
  826MPD2    N112158   4.651   0.229  13.801 -0.0201 -0.1231 -0.2461
  826MPD2    H712159   4.695   0.183  13.722 -2.4892 -2.7476 -0.1177
  827MPD2     C12160   1.496   1.170   9.940 -0.3249 -0.1508 -1.2509
  827MPD2    C112161   1.405   1.190  10.045  0.1709 -0.0800 -0.1645
  827MPD2    C212162   1.271   1.136  10.034  0.4253  0.2607 -0.3407
  827MPD2    C312163   1.238   1.071   9.912  1.3015  0.0983 -0.1225
  827MPD2    C412164   1.330   1.063   9.812 -0.1991 -0.1036  0.0539
  827MPD2    C512165   1.458   1.112   9.828  0.2634  0.2750  0.0079
  827MPD2     H12166   1.195   1.153  10.109  1.3574  0.8757  0.4676
  827MPD2    H112167   1.304   1.029   9.712  1.0687 -0.0718 -0.2941
  827MPD2    H212168   1.602   1.188   9.947 -0.2157 -1.5908  0.8866
  827MPD2    H312169   1.535   1.106   9.752 -0.1228 -0.7344 -0.3122
  827MPD2     N12170   1.113   1.012   9.900 -0.0736 -0.2353  0.6439
  827MPD2    H512171   1.058   1.000   9.984 -1.0926 -2.0277 -0.2904
  827MPD2    N112172   1.455   1.258  10.158 -0.0907 -0.1126 -0.0952
  827MPD2    H712173   1.545   1.304  10.159 -0.4303  0.4766  2.9226
  828MPD2     C12174   3.772   1.119  12.606  0.0599 -0.6370  0.4481
  828MPD2    C112175   3.768   1.193  12.494  0.2800 -0.4442  0.5228
  828MPD2    C212176   3.883   1.208  12.422  0.6357 -0.4516  0.9969
  828MPD2    C312177   3.996   1.124  12.442  0.0093  0.7911 -0.6412
  828MPD2    C412178   3.991   1.036  12.548 -0.8550  0.2498 -0.0210
  828MPD2    C512179   3.885   1.041  12.636  0.0550 -0.2235 -0.3121
  828MPD2     H12180   3.875   1.283  12.345 -0.2078 -0.3492  1.1885
  828MPD2    H112181   4.074   0.972  12.573  0.1061  0.5770 -2.3628
  828MPD2    H212182   3.688   1.085  12.665 -0.2142  2.0069  1.5377
  828MPD2    H312183   3.888   0.981  12.726 -1.1686 -0.6000 -0.5266
  828MPD2     N12184   4.110   1.134  12.366  0.3458  0.0335 -0.1114
  828MPD2    H512185   4.193   1.079  12.388 -0.8281 -1.5861  0.3190
  828MPD2    N112186   3.656   1.275  12.459  0.0122 -0.7217  0.2293
  828MPD2    H712187   3.669   1.328  12.374  2.1625  1.8043  2.1240
  829MPD2     C12188   3.803   1.452  11.724 -0.3363 -0.9857 -0.3429
  829MPD2    C112189   3.688   1.525  11.730 -0.2521 -0.0803 -0.7113
  829MPD2    C212190   3.601   1.510  11.838 -0.2359 -0.1232  0.4239
  829MPD2    C312191   3.638   1.430  11.946  0.6054 -0.1970 -0.9600
  829MPD2    C412192   3.759   1.371  11.945  0.3371  0.0329  0.1451
  829MPD2    C512193   3.846   1.387  11.842  0.2351  0.2882  0.0693
  829MPD2     H12194   3.504   1.559  11.836  0.2995  0.8765 -0.8352
  829MPD2    H112195   3.789   1.314  12.032  2.0087  2.6523  1.2738
  829MPD2    H212196   3.871   1.446  11.640 -1.7557 -0.6102 -1.5128
  829MPD2    H312197   3.934   1.323  11.846 -1.5793 -2.4172 -3.0591
  829MPD2     N12198   3.557   1.418  12.062 -0.2007 -0.6278  0.2092
  829MPD2    H512199   3.586   1.349  12.131 -1.1305 -0.0088  1.2148
  829MPD2    N112200   3.668   1.607  11.621 -0.0129 -0.3834 -0.3335
  829MPD2    H712201   3.748   1.634  11.565  0.3504  0.6329  0.6565
  830MPD2     C12202   4.645   4.160  15.736 -0.0090  0.1902  0.5336
  830MPD2    C112203   4.546   4.197  15.644  0.7716 -0.4862  0.2689
  830MPD2    C212204   4.580   4.237  15.518  0.2676 -0.3066  0.6768
  830MPD2    C312205   4.718   4.243  15.489  0.0264  0.3018 -0.1661
  830MPD2    C412206   0.093   4.188  15.576 -0.0085 -0.6108 -0.5384
  830MPD2    C512207   0.051   4.135  15.699  0.1812 -0.2079 -0.3553
  830MPD2     H12208   4.503   4.267  15.447  2.3927  0.4509 -1.3295
  830MPD2    H112209   0.199   4.181  15.554  0.7395  0.7287  2.6599
  830MPD2    H212210   4.628   4.137  15.841 -0.1180 -0.1010  0.4524
  830MPD2    H312211   0.113   4.097  15.780  0.2707 -2.1619 -1.3279
  830MPD2     N12212   0.030   4.306  15.367  0.2018 -0.2633  0.3302
  830MPD2    H512213   4.677   4.363  15.328 -1.0261 -1.7245  0.4982
  830MPD2    N112214   4.415   4.198  15.698  0.6762  0.3936  0.0276
  830MPD2    H712215   4.408   4.159  15.791  0.4302  0.9568  0.2438
  831MPD2     C12216   4.128   1.185  16.416  1.0082  0.3040  0.0196
  831MPD2    C112217   4.155   1.066  16.349 -0.0579  0.4677 -0.0376
  831MPD2    C212218   4.093   0.950  16.397  0.5832  0.6262  0.2230
  831MPD2    C312219   4.020   0.951  16.516  0.0474 -0.0978 -0.0463
  831MPD2    C412220   4.020   1.062  16.598  0.9316  0.1173 -0.5011
  831MPD2    C512221   4.067   1.179  16.541 -0.4778  0.1905  0.2284
  831MPD2     H12222   4.100   0.855  16.343  0.3552  0.5544  0.3188
  831MPD2    H112223   3.975   1.067  16.696  1.7724 -0.8672 -0.0732
  831MPD2    H212224   4.172   1.279  16.385 -1.7071  0.8738 -2.1979
  831MPD2    H312225   4.059   1.263  16.609  1.1387 -0.0400  0.7023
  831MPD2     N12226   3.935   0.842  16.558  0.5754  0.5502 -0.3280
  831MPD2    H512227   3.889   0.857  16.648  0.8238  0.0926 -0.1219
  831MPD2    N112228   4.226   1.069  16.221 -0.0876 -0.4196  0.4502
  831MPD2    H712229   4.254   1.160  16.185 -2.3896  0.0947 -0.0796
  832MPD2     C12230   2.652   2.499  17.036 -0.3707  0.5796  0.7796
  832MPD2    C112231   2.560   2.580  17.097  0.0818 -0.8163  0.6846
  832MPD2    C212232   2.456   2.632  17.022 -0.3557 -0.2119  0.1248
  832MPD2    C312233   2.446   2.592  16.887  0.6276  0.2403  0.0734
  832MPD2    C412234   2.550   2.519  16.829  0.2761  0.6687 -0.4043
  832MPD2    C512235   2.650   2.471  16.905 -0.2233 -0.3521  0.0731
  832MPD2     H12236   2.378   2.697  17.060  0.9787  0.8179  1.1065
  832MPD2    H112237   2.541   2.498  16.723 -0.2530  1.4342 -0.5102
  832MPD2    H212238   2.733   2.453  17.090  1.6278  2.1029 -0.9223
  832MPD2    H312239   2.725   2.404  16.863 -0.9494 -0.8884 -0.3767
  832MPD2     N12240   2.341   2.633  16.801  0.1548  0.2699 -0.3550
  832MPD2    H512241   2.353   2.618  16.701  0.5667  0.9077 -0.3989
  832MPD2    N112242   2.562   2.579  17.235  0.9168 -0.2350  0.0859
  832MPD2    H712243   2.610   2.502  17.280 -1.0540 -0.4987  1.7284
  833MPD2     C12244   4.416   3.467  12.288 -0.1677  0.6206  0.2232
  833MPD2    C112245   4.511   3.567  12.270 -0.7866  0.0804 -0.2792
  833MPD2    C212246   4.627   3.530  12.204  0.6607  0.3392  0.4549
  833MPD2    C312247   4.644   3.407  12.153 -0.4579 -0.2951 -0.2324
  833MPD2    C412248   4.550   3.314  12.173 -0.0877  0.0141  0.2354
  833MPD2    C512249   4.439   3.343  12.248  0.7828 -0.5910 -0.6664
  833MPD2     H12250   4.698   3.607  12.178  2.8498 -1.3177  1.5141
  833MPD2    H112251   4.561   3.209  12.146 -0.3569  0.0733 -0.0877
  833MPD2    H212252   4.325   3.485  12.345 -0.7229  1.2873 -0.8587
  833MPD2    H312253   4.368   3.264  12.270 -0.4206  0.3010 -1.3504
  833MPD2     N12254   0.041   3.370  12.085  0.8950 -0.1773  0.8082
  833MPD2    H512255   0.043   3.270  12.068 -1.1253  0.2640 -2.0185
  833MPD2    N112256   4.483   3.698  12.312 -0.0856  0.6476  0.6602
  833MPD2    H712257   4.390   3.711  12.350 -0.0120  2.1173  0.3539
  834MPD2     C12258   4.620   2.919  11.313  0.1516  0.1236  0.2225
  834MPD2    C112259   0.017   2.974  11.260 -0.7548  0.2355 -0.1022
  834MPD2    C212260   0.098   3.041  11.346 -0.5112 -0.0195 -0.4993
  834MPD2    C312261   0.064   3.049  11.482 -0.4738 -0.3012  0.7221
  834MPD2    C412262   4.669   2.989  11.529  0.2389 -0.4811 -0.6105
  834MPD2    C512263   4.589   2.923  11.444  0.2946  0.3669 -0.0037
  834MPD2     H12264   0.189   3.090  11.314 -0.8397  2.9979  3.1417
  834MPD2    H112265   4.633   2.994  11.631 -0.7490  1.7186 -1.0561
  834MPD2    H212266   4.556   2.867  11.243 -1.6408  2.1079  0.3894
  834MPD2    H312267   4.489   2.896  11.476  0.1142  0.6088 -0.3667
  834MPD2     N12268   0.147   3.125  11.572  0.0693 -0.4528  0.0889
  834MPD2    H512269   0.233   3.153  11.526  0.0486 -0.0863  0.2691
  834MPD2    N112270   0.047   2.947  11.125 -0.3921  0.5801 -0.2392
  834MPD2    H712271   4.716   2.878  11.073  0.6618 -0.0085 -0.5127
  835MPD2     C12272   0.059   1.583  11.190 -0.9335 -0.3314  0.3265
  835MPD2    C112273   4.682   1.673  11.222  0.1515 -0.8466 -0.2666
  835MPD2    C212274   4.614   1.670  11.341 -0.9587 -0.6934  0.7805
  835MPD2    C312275   4.651   1.557  11.424 -0.3755  0.4333  0.0609
  835MPD2    C412276   0.030   1.466  11.395  0.5168  0.2749 -0.3649
  835MPD2    C512277   0.101   1.486  11.280 -0.0238 -0.6616 -0.1003
  835MPD2     H12278   4.538   1.740  11.374  0.1869  0.9412 -0.0323
  835MPD2    H112279   0.033   1.373  11.449 -1.7123  1.3922  1.6687
  835MPD2    H212280   0.118   1.592  11.100 -0.5726 -1.8593  0.4017
  835MPD2    H312281   0.187   1.423  11.259 -0.0194 -0.3762 -0.9728
  835MPD2     N12282   4.582   1.536  11.552 -0.2428  0.0421  0.4694
  835MPD2    H512283   4.628   1.470  11.613 -0.5449 -0.2395  0.3958
  835MPD2    N112284   4.645   1.778  11.134 -0.3394 -0.2773 -0.1882
  835MPD2    H712285   4.567   1.835  11.165 -0.7640  0.0011 -1.7973
  836MPD2     C12286   3.976   1.897  11.582  0.3151  0.3604  0.0576
  836MPD2    C112287   3.968   1.836  11.701 -0.0233  0.0777  0.0047
  836MPD2    C212288   3.853   1.864  11.771  0.0854  0.6148  0.0794
  836MPD2    C312289   3.755   1.951  11.724 -0.3878 -0.8479  0.9080
  836MPD2    C412290   3.772   2.014  11.606 -0.2158  0.5349  0.0969
  836MPD2    C512291   3.888   1.988  11.535  0.2534 -0.1816 -0.1047
  836MPD2     H12292   3.839   1.808  11.863 -0.5418 -1.8866 -1.5263
  836MPD2    H112293   3.709   2.094  11.569 -0.8222  0.0054 -0.0193
  836MPD2    H212294   4.061   1.875  11.519  0.4721  0.6187  0.1795
  836MPD2    H312295   3.898   2.026  11.434  1.6791  0.7138  0.3785
  836MPD2     N12296   3.634   1.977  11.782  0.5856  0.8529  0.3990
  836MPD2    H512297   3.572   2.030  11.722  2.4430  0.6122 -1.7181
  836MPD2    N112298   4.070   1.735  11.734  0.2236 -0.2701  0.3813
  836MPD2    H712299   4.156   1.740  11.681  1.2999 -1.8404  1.9726
  837MPD2     C12300   2.768   1.342   9.810 -0.4168  0.2932  0.0368
  837MPD2    C112301   2.699   1.399   9.703  0.1038 -0.0182  0.4556
  837MPD2    C212302   2.682   1.539   9.710  0.5974  0.2355 -0.7231
  837MPD2    C312303   2.721   1.617   9.809 -0.7729 -0.5707 -0.2043
  837MPD2    C412304   2.775   1.564   9.922 -0.7636  0.1045 -0.6070
  837MPD2    C512305   2.804   1.430   9.911 -0.3051 -0.2192  0.0518
  837MPD2     H12306   2.618   1.578   9.632  0.2396 -0.5402 -0.8191
  837MPD2    H112307   2.822   1.621  10.001 -0.9394  1.0955 -1.2297
  837MPD2    H212308   2.798   1.238   9.811 -1.5074  0.0058  1.7061
  837MPD2    H312309   2.873   1.385   9.981 -0.1092 -0.5009 -0.3202
  837MPD2     N12310   2.685   1.745   9.800  0.5166 -0.5261 -0.0847
  837MPD2    H512311   2.635   1.779   9.718 -0.0844 -0.2128  0.4101
  837MPD2    N112312   2.638   1.326   9.602 -0.4138 -0.7805 -0.4633
  837MPD2    H712313   2.598   1.379   9.525  0.4594  1.8657  0.9339
  838MPD2     C12314   0.780   4.270  11.918  0.1514 -0.5651  0.1906
  838MPD2    C112315   0.816   4.213  12.036  0.8567 -0.3436  0.0938
  838MPD2    C212316   0.737   4.121  12.101 -0.3353 -0.4086  0.3467
  838MPD2    C312317   0.622   4.083  12.033  0.2366  0.0505 -0.2255
  838MPD2    C412318   0.582   4.141  11.911 -0.0100 -0.4561  0.0897
  838MPD2    C512319   0.673   4.224  11.850 -0.2211  0.3493  0.1052
  838MPD2     H12320   0.760   4.077  12.198 -0.7136 -2.4919 -0.5124
  838MPD2    H112321   0.494   4.111  11.855 -0.9133 -1.2213  1.8993
  838MPD2    H212322   0.845   4.343  11.871 -3.0929  1.6494 -0.8463
  838MPD2    H312323   0.648   4.273  11.757 -3.5322 -1.8031 -0.1392
  838MPD2     N12324   0.546   3.975  12.090 -0.4829  0.2255 -0.1526
  838MPD2    H512325   0.583   3.941  12.178  0.6291  1.2824 -0.2109
  838MPD2    N112326   0.941   4.258  12.086  0.2384  0.0264  0.7172
  838MPD2    H712327   1.005   4.313  12.029 -2.8713  1.1849 -1.6684
  839MPD2     C12328   1.186   3.457  12.238  0.5253 -0.2738  0.5970
  839MPD2    C112329   1.146   3.544  12.137 -0.5402  0.3023  0.0357
  839MPD2    C212330   1.190   3.672  12.139 -0.1634  0.2559  0.0859
  839MPD2    C312331   1.269   3.722  12.240  0.0780  0.2769  0.1952
  839MPD2    C412332   1.290   3.641  12.357 -0.0227  0.4511 -0.1467
  839MPD2    C512333   1.252   3.510  12.349 -0.0979 -0.1328  0.0844
  839MPD2     H12334   1.158   3.735  12.057 -0.3291 -0.5332 -0.4616
  839MPD2    H112335   1.327   3.667  12.455 -2.0147 -0.7441  0.9266
  839MPD2    H212336   1.166   3.354  12.211 -0.0923 -0.3395  1.3230
  839MPD2    H312337   1.294   3.448  12.427 -1.7756 -1.2084  0.1350
  839MPD2     N12338   1.318   3.856  12.246 -0.4054  0.0430  0.2685
  839MPD2    H512339   1.344   3.902  12.333  0.9789  1.6787 -0.9979
  839MPD2    N112340   1.067   3.498  12.021 -0.4660  0.1536  0.3699
  839MPD2    H712341   1.056   3.557  11.940 -3.3872 -1.1382 -0.1906
  840MPD2     C12342   1.810   1.743  10.205  0.0920  0.1875  0.1059
  840MPD2    C112343   1.797   1.720  10.338 -0.0750  0.3916 -0.1876
  840MPD2    C212344   1.836   1.806  10.436 -0.1165  0.8083 -0.7389
  840MPD2    C312345   1.875   1.938  10.398  0.1417 -0.5382 -0.0754
  840MPD2    C412346   1.883   1.966  10.262 -0.1404 -0.4914  0.1746
  840MPD2    C512347   1.864   1.868  10.171 -0.3356 -0.8178 -0.6429
  840MPD2     H12348   1.824   1.780  10.541 -2.1328  0.9698 -0.9374
  840MPD2    H112349   1.912   2.063  10.224 -0.6457  0.9701  3.5220
  840MPD2    H212350   1.787   1.670  10.127  0.4300 -0.7657  0.8942
  840MPD2    H312351   1.885   1.892  10.067  1.7654 -0.9402 -0.2591
  840MPD2     N12352   1.901   2.041  10.489 -0.2224 -0.4328  0.3995
  840MPD2    H512353   1.913   2.129  10.440 -1.6550 -0.0128  0.8022
  840MPD2    N112354   1.736   1.596  10.370  0.3644 -0.3635 -0.6564
  840MPD2    H712355   1.675   1.559  10.298  0.5600  0.6244 -1.3266
  841MPD2     C12356   0.603   1.794  14.772 -0.8840 -0.3091 -0.7742
  841MPD2    C112357   0.650   1.666  14.759  0.4290  0.1644  0.2044
  841MPD2    C212358   0.738   1.637  14.661 -0.2475 -0.3323 -0.2104
  841MPD2    C312359   0.769   1.725  14.558 -0.0677 -0.5172 -0.6054
  841MPD2    C412360   0.705   1.848  14.561 -0.2479  0.6773  0.7546
  841MPD2    C512361   0.629   1.880  14.670 -0.5541  0.0234 -0.7686
  841MPD2     H12362   0.788   1.541  14.666  0.7692  0.3154  2.0747
  841MPD2    H112363   0.724   1.927  14.490  0.5387 -1.2085 -1.1444
  841MPD2    H212364   0.542   1.823  14.856  0.6253 -0.8383  0.5031
  841MPD2    H312365   0.602   1.985  14.667 -0.5228  0.0709  0.6136
  841MPD2     N12366   0.856   1.672  14.457 -0.1231 -0.1284  0.7946
  841MPD2    H512367   0.881   1.574  14.466  0.3463 -0.1454 -0.7118
  841MPD2    N112368   0.618   1.562  14.848 -0.6550 -0.5419 -0.1663
  841MPD2    H712369   0.651   1.470  14.823 -0.2452 -0.3392 -0.3716
  842MPD2     C12370   1.809   2.827  16.359 -0.6572 -0.2891 -0.2585
  842MPD2    C112371   1.690   2.765  16.337  0.0453  0.7160  0.8614
  842MPD2    C212372   1.613   2.727  16.447 -0.2307  0.0701  0.5795
  842MPD2    C312373   1.650   2.771  16.574  0.8153  0.2172  0.4385
  842MPD2    C412374   1.771   2.836  16.592  0.2427  0.1432  0.0043
  842MPD2    C512375   1.848   2.865  16.486 -0.7479  0.6805  0.3544
  842MPD2     H12376   1.514   2.688  16.431  0.2471 -0.9738  0.1424
  842MPD2    H112377   1.809   2.881  16.682 -1.2346 -0.3902  0.8913
  842MPD2    H212378   1.859   2.864  16.270  0.5077 -2.0895 -0.3509
  842MPD2    H312379   1.936   2.925  16.503  0.5246 -1.8658  2.6709
  842MPD2     N12380   1.573   2.744  16.695 -0.4563 -0.2345 -0.2470
  842MPD2    H512381   1.602   2.783  16.785  0.7022 -0.6661 -0.4372
  842MPD2    N112382   1.637   2.777  16.209 -0.2033 -0.5086  0.2066
  842MPD2    H712383   1.693   2.819  16.136 -0.4854 -1.6551 -0.6837
  843MPD2     C12384   3.534   3.691  17.497 -0.8543 -0.0109  0.2405
  843MPD2    C112385   3.597   3.571  17.525 -0.0203  0.1574 -0.2088
  843MPD2    C212386   3.727   3.570  17.582 -0.9720 -0.5145  0.7254
  843MPD2    C312387   3.789   3.692  17.605  0.3151 -0.0866  0.0346
  843MPD2    C412388   3.728   3.805  17.566  0.1959 -0.1321 -0.1163
  843MPD2    C512389   3.600   3.806  17.515  0.4260 -0.0783 -0.6078
  843MPD2     H12390   3.787   3.480  17.594 -1.0518 -0.8229 -1.2335
  843MPD2    H112391   3.774   3.902  17.584  1.3186 -1.0140  1.7398
  843MPD2    H212392   3.434   3.690  17.453 -0.2486 -0.3993 -1.1374
  843MPD2    H312393   3.550   3.899  17.488 -1.0025 -0.1591  1.7345
  843MPD2     N12394   3.918   3.707  17.663 -1.0175 -0.3892 -0.2509
  843MPD2    H512395   3.947   3.803  17.676 -1.4200  0.0572 -2.5727
  843MPD2    N112396   3.535   3.453  17.486  0.0178 -0.4404 -0.1237
  843MPD2    H712397   3.440   3.465  17.452 -0.1915 -0.2368  0.5261
  844MPD2     C12398   2.407   2.496  16.182 -0.2672  0.1628  0.0256
  844MPD2    C112399   2.384   2.380  16.249  0.2626  0.2044 -0.0967
  844MPD2    C212400   2.470   2.345  16.350  0.8476  0.1659  0.2695
  844MPD2    C312401   2.576   2.428  16.390  0.3688  0.0158  0.5399
  844MPD2    C412402   2.610   2.535  16.305 -0.8931  0.1773 -0.2759
  844MPD2    C512403   2.524   2.566  16.201 -0.3198 -0.1752 -0.5795
  844MPD2     H12404   2.450   2.251  16.400 -2.5840  0.5677 -0.3707
  844MPD2    H112405   2.698   2.597  16.314  0.1560 -1.4493  0.7828
  844MPD2    H212406   2.340   2.535  16.106  0.1506  2.3028  0.7494
  844MPD2    H312407   2.554   2.647  16.135  2.0216 -0.1715  0.4925
  844MPD2     N12408   2.671   2.376  16.484  0.3571 -0.2456 -0.1035
  844MPD2    H512409   2.652   2.287  16.529  0.2836 -1.0859 -1.7748
  844MPD2    N112410   2.283   2.285  16.219 -0.1866 -1.3881  0.1923
  844MPD2    H712411   2.286   2.210  16.286  1.5236 -1.3309  0.1859
  845MPD2     C12412   3.088   2.871  17.236  0.4544 -0.0746  0.6632
  845MPD2    C112413   3.025   2.909  17.115 -0.3141 -0.0402  0.3077
  845MPD2    C212414   3.018   2.809  17.019 -0.9312  0.5079  0.2322
  845MPD2    C312415   3.062   2.678  17.037 -0.1480  0.2859  0.0419
  845MPD2    C412416   3.132   2.647  17.152 -0.0853 -0.5876  0.3280
  845MPD2    C512417   3.142   2.743  17.248  0.0647 -0.2146  0.6698
  845MPD2     H12418   2.965   2.825  16.926  1.2657  3.1454 -0.5379
  845MPD2    H112419   3.177   2.550  17.170  0.8155 -0.1441  0.4729
  845MPD2    H212420   3.110   2.944  17.312 -3.7411  0.9491  0.8742
  845MPD2    H312421   3.201   2.715  17.334  0.1791  2.4558  1.4810
  845MPD2     N12422   3.043   2.594  16.929  0.1493 -0.3221 -0.4044
  845MPD2    H512423   3.011   2.644  16.846 -0.6037  0.0157  0.0902
  845MPD2    N112424   2.975   3.037  17.095 -0.0741  0.0914 -0.4959
  845MPD2    H712425   2.981   3.100  17.174 -3.9144 -1.2275  0.8565
  846MPD2     C12426   4.086   3.337  13.621 -0.3059  0.2496 -0.1359
  846MPD2    C112427   4.015   3.437  13.691  0.1720 -0.7531  0.0813
  846MPD2    C212428   4.012   3.437  13.832  0.4119  0.1752  0.5298
  846MPD2    C312429   4.084   3.345  13.906  0.7588 -0.4309 -0.1856
  846MPD2    C412430   4.152   3.246  13.837  0.0203  0.3738 -0.1852
  846MPD2    C512431   4.143   3.236  13.702  0.2705  0.1284 -0.5839
  846MPD2     H12432   3.957   3.518  13.880 -2.7366 -1.5526 -0.1600
  846MPD2    H112433   4.197   3.162  13.889  0.7229 -0.5889 -2.3345
  846MPD2    H212434   4.095   3.324  13.514  2.0104 -1.1847  0.2492
  846MPD2    H312435   4.188   3.150  13.655  0.6713  0.5943 -1.0560
  846MPD2     N12436   4.075   3.344  14.046 -0.0454 -0.2755  0.3200
  846MPD2    H512437   4.003   3.402  14.087  0.5380 -0.6682  1.8849
  846MPD2    N112438   3.957   3.550  13.626 -0.3959 -0.2543 -0.3752
  846MPD2    H712439   3.914   3.616  13.689  3.2080  1.5799  0.1893
  847MPD2     C12440   4.017   4.138  14.382  0.0849 -0.4925  0.8433
  847MPD2    C112441   4.125   4.228  14.405  0.1295  0.6443 -0.3541
  847MPD2    C212442   4.249   4.188  14.426  0.0201  0.4822 -0.5453
  847MPD2    C312443   4.288   4.060  14.430  0.4723 -0.0751 -0.1635
  847MPD2    C412444   4.189   3.967  14.413 -0.2674 -0.1980 -0.5404
  847MPD2    C512445   4.059   4.007  14.394  0.5535  0.2949 -0.1479
  847MPD2     H12446   4.332   4.257  14.443 -0.3838  0.6531  0.6959
  847MPD2    H112447   4.202   3.860  14.411  4.0699  0.2665  1.0780
  847MPD2    H212448   3.917   4.168  14.353  0.5274  0.1966  0.0109
  847MPD2    H312449   3.976   3.937  14.388  0.6086  0.1596  0.6179
  847MPD2     N12450   4.422   4.026  14.444 -0.0670  0.0577 -0.6052
  847MPD2    H512451   4.492   4.099  14.443 -0.1739  0.1454 -1.5841
  847MPD2    N112452   4.101   4.364  14.415  0.0216  1.3790 -0.7508
  847MPD2    H712453   4.188   4.417  14.409 -0.1616  1.6415 -1.0728
  848MPD2     C12454   2.100   2.652  16.120  0.3715  0.0427  0.1590
  848MPD2    C112455   2.136   2.736  16.219  0.9521 -0.2933 -0.4409
  848MPD2    C212456   2.182   2.863  16.191  0.2728 -0.4757 -0.6575
  848MPD2    C312457   2.181   2.905  16.063 -0.7834  0.6716 -0.6228
  848MPD2    C412458   2.144   2.819  15.965 -0.0884 -0.2256 -0.5958
  848MPD2    C512459   2.102   2.692  15.988  0.2296 -0.3614 -0.2603
  848MPD2     H12460   2.208   2.926  16.276  0.3460  0.4892 -1.3925
  848MPD2    H112461   2.142   2.859  15.865 -2.1082  0.3231 -0.3360
  848MPD2    H212462   2.090   2.545  16.137  0.2134  0.0154 -0.1000
  848MPD2    H312463   2.086   2.621  15.908 -0.3716  0.6052 -0.9932
  848MPD2     N12464   2.198   3.043  16.032 -0.3944  0.1244 -0.2763
  848MPD2    H512465   2.171   3.066  15.936  1.6922  1.4351 -0.5382
  848MPD2    N112466   2.128   2.694  16.350 -0.2932 -0.0901 -0.1723
  848MPD2    H712467   2.169   2.754  16.421  0.2107 -0.0955 -0.4599
  849MPD2     C12468   1.374   2.467  13.669 -0.1567 -0.3667 -0.8182
  849MPD2    C112469   1.442   2.348  13.674 -0.1520  0.4475 -0.1182
  849MPD2    C212470   1.470   2.295  13.798 -0.2357  0.5561  0.5266
  849MPD2    C312471   1.431   2.346  13.920  0.5150 -0.8025  0.4138
  849MPD2    C412472   1.361   2.461  13.911 -0.0306  0.1309 -0.4108
  849MPD2    C512473   1.337   2.515  13.788  0.3330  0.0907 -0.3150
  849MPD2     H12474   1.519   2.198  13.791  3.4183  2.2635  2.1703
  849MPD2    H112475   1.340   2.521  13.999  1.2236 -0.6627  0.4393
  849MPD2    H212476   1.363   2.525  13.579 -0.6689  1.3073  0.3216
  849MPD2    H312477   1.283   2.608  13.800  0.8563 -0.1047  3.7052
  849MPD2     N12478   1.456   2.272  14.037  0.1436 -0.2230 -0.6543
  849MPD2    H512479   1.500   2.181  14.026  0.3628 -0.2091  0.1139
  849MPD2    N112480   1.484   2.277  13.554  0.1173  0.4633 -0.0519
  849MPD2    H712481   1.534   2.189  13.564 -1.4869 -0.4393  0.0965
  850MPD2     C12482   4.021   0.367  14.692 -0.3509 -0.2910  0.4115
  850MPD2    C112483   4.035   0.428  14.812  1.2889  0.3402 -0.5431
  850MPD2    C212484   4.099   0.548  14.823 -0.0430  0.3769 -0.5201
  850MPD2    C312485   4.167   0.596  14.704  0.1704 -0.3092 -0.2250
  850MPD2    C412486   4.153   0.534  14.584 -0.0199  0.3494 -1.0475
  850MPD2    C512487   4.082   0.415  14.584  0.0185  0.2148 -0.9016
  850MPD2     H12488   4.116   0.586  14.923  0.9855 -1.2416 -0.0823
  850MPD2    H112489   4.205   0.570  14.496 -0.0513  0.3055 -1.0838
  850MPD2    H212490   3.971   0.270  14.683 -0.9879  0.0397  0.3762
  850MPD2    H312491   4.065   0.362  14.491  1.7379 -1.4705 -0.2391
  850MPD2     N12492   4.266   0.698  14.718 -0.0728  0.0218 -0.1922
  850MPD2    H512493   4.317   0.729  14.636  0.0926  0.9193  0.2543
  850MPD2    N112494   3.980   0.363  14.926 -1.0477  0.1735  0.3651
  850MPD2    H712495   3.951   0.266  14.918 -0.9200 -0.0314  2.2242
  851MPD2     C12496   4.536   0.318  15.391  0.1809 -0.1418 -0.4435
  851MPD2    C112497   4.475   0.218  15.334 -0.2590  0.0368  0.2031
  851MPD2    C212498   4.538   0.112  15.279  0.3238  0.0054 -0.0518
  851MPD2    C312499   4.674   0.117  15.289 -0.4660 -0.4044 -0.3289
  851MPD2    C412500   0.022   0.223  15.348  0.6060  0.8217  0.3469
  851MPD2    C512501   4.670   0.316  15.412 -0.6956  0.1862 -0.4382
  851MPD2     H12502   4.490   0.027  15.231 -1.1422  1.0096 -0.3252
  851MPD2    H112503   0.130   0.229  15.349  0.8246 -3.2749  0.4045
  851MPD2    H212504   4.479   0.403  15.425  1.4852  0.2128  0.8574
  851MPD2    H312505   4.715   0.404  15.457 -1.5510  0.0924  0.6028
  851MPD2     N12506   0.022   0.012  15.228 -0.1158 -0.2490 -0.8587
  851MPD2    H512507   4.684   4.677  15.166  0.2906 -2.5092  0.7786
  851MPD2    N112508   4.335   0.234  15.315  0.2937 -0.2408  0.3910
  851MPD2    H712509   4.304   0.322  15.355 -0.4412  0.0887 -0.9220
  852MPD2     C12510   3.839   2.776  10.145 -1.2964  0.4534  0.2710
  852MPD2    C112511   3.912   2.844  10.241  0.5818  0.4150  0.0488
  852MPD2    C212512   3.941   2.978  10.220 -0.0194  0.0476  0.1448
  852MPD2    C312513   3.894   3.043  10.109 -0.8016  0.2351 -0.1258
  852MPD2    C412514   3.811   2.974  10.018  0.1402  0.0184  0.1743
  852MPD2    C512515   3.787   2.844  10.040  0.0187 -0.0074 -0.4208
  852MPD2     H12516   4.007   3.024  10.293 -0.5655 -1.8842  1.8667
  852MPD2    H112517   3.771   3.010   9.924  1.7921 -0.3442 -0.6646
  852MPD2    H212518   3.821   2.669  10.149  0.8395  0.1523  1.4301
  852MPD2    H312519   3.736   2.792   9.959 -0.1658 -0.3333 -0.0942
  852MPD2     N12520   3.943   3.166  10.078  0.7408 -0.1445  0.2144
  852MPD2    H512521   4.020   3.201  10.134 -0.4746 -0.0925  1.8441
  852MPD2    N112522   3.959   2.776  10.360 -0.3322  0.1109  0.3089
  852MPD2    H712523   4.005   2.837  10.427 -0.6042 -0.0614  0.6484
  853MPD2     C12524   0.449   2.835  12.426  0.4973 -0.3263 -0.2933
  853MPD2    C112525   0.410   2.928  12.334  0.6491 -0.5687 -0.1320
  853MPD2    C212526   0.429   2.911  12.200  0.1078  0.1786  0.0432
  853MPD2    C312527   0.478   2.783  12.160 -0.4542 -0.2845 -0.0481
  853MPD2    C412528   0.513   2.684  12.252 -0.6167 -0.3145 -0.4607
  853MPD2    C512529   0.494   2.712  12.382  0.4420 -0.4662  0.1099
  853MPD2     H12530   0.395   2.985  12.129 -0.0293 -1.1479 -1.2910
  853MPD2    H112531   0.553   2.585  12.232 -0.0572  0.3550 -2.6379
  853MPD2    H212532   0.428   2.849  12.532 -0.1540  0.3391 -0.5050
  853MPD2    H312533   0.518   2.641  12.460  2.7230  0.2419  0.0561
  853MPD2     N12534   0.485   2.735  12.028 -0.5546  0.5002  0.3053
  853MPD2    H512535   0.527   2.644  12.010  0.3836  0.8845  0.5111
  853MPD2    N112536   0.373   3.050  12.394 -0.3989 -0.1324 -0.2928
  853MPD2    H712537   0.369   3.051  12.496 -0.7328  2.6239 -0.3324
  854MPD2     C12538   3.090   3.108  12.382 -0.6724  0.0034 -0.4635
  854MPD2    C112539   2.984   3.083  12.468  0.0898 -0.1533  0.4593
  854MPD2    C212540   2.968   2.957  12.525  0.2344  0.1813  0.4883
  854MPD2    C312541   3.048   2.850  12.477 -0.6997 -0.1134 -0.0478
  854MPD2    C412542   3.154   2.878  12.390  0.0952  0.7695  0.2097
  854MPD2    C512543   3.170   3.005  12.345  1.2627 -0.2986  0.0659
  854MPD2     H12544   2.877   2.938  12.580  1.1064 -0.9006  1.5352
  854MPD2    H112545   3.223   2.800  12.360 -2.0145  0.0284 -2.7218
  854MPD2    H212546   3.111   3.205  12.340 -1.1844  0.6581  0.7914
  854MPD2    H312547   3.261   3.026  12.291  0.5613 -1.5787 -1.6115
  854MPD2     N12548   3.041   2.717  12.539 -0.1428 -0.0946 -0.4653
  854MPD2    H512549   3.104   2.645  12.506  0.6848  0.6872 -0.5814
  854MPD2    N112550   2.898   3.194  12.486 -0.2716  0.1769  0.1107
  854MPD2    H712551   2.921   3.274  12.429  0.1096 -1.4939 -2.0904
  855MPD2     C12552   3.249   2.633  13.432  0.1584  0.2898  0.2698
  855MPD2    C112553   3.200   2.507  13.414 -0.5352  0.2398  0.3589
  855MPD2    C212554   3.171   2.473  13.278  0.3257 -0.2370 -0.9255
  855MPD2    C312555   3.190   2.562  13.174  0.5040 -0.2010  0.0072
  855MPD2    C412556   3.232   2.691  13.199  0.4921  1.0118  0.0977
  855MPD2    C512557   3.265   2.724  13.330  0.1628  0.3196  0.0429
  855MPD2     H12558   3.126   2.375  13.272  2.9060 -1.6071  1.9905
  855MPD2    H112559   3.244   2.756  13.114  0.7239 -0.6893 -1.1826
  855MPD2    H212560   3.272   2.667  13.532  1.0707 -0.7263  0.4087
  855MPD2    H312561   3.300   2.825  13.350  1.0683 -0.3919  2.0022
  855MPD2     N12562   3.150   2.526  13.044  0.3211 -0.1853 -0.1712
  855MPD2    H512563   3.175   2.597  12.976 -0.0882  1.3620  1.2965
  855MPD2    N112564   3.163   2.418  13.517  0.8175 -0.4858  0.1127
  855MPD2    H712565   3.109   2.337  13.490 -1.5949  1.5361 -1.2116
  856MPD2     C12566   0.104   3.542  13.754 -0.2860 -0.4693  0.3000
  856MPD2    C112567   0.199   3.642  13.761 -0.3298 -0.2675  0.7987
  856MPD2    C212568   0.172   3.756  13.827  0.1621 -0.0513 -0.6519
  856MPD2    C312569   0.042   3.773  13.879  0.0821 -0.2336 -0.5285
  856MPD2    C412570   4.674   3.672  13.874  0.5671  0.6932 -0.4124
  856MPD2    C512571   4.706   3.554  13.816 -0.7081  0.3967 -0.6571
  856MPD2     H12572   0.240   3.840  13.821 -0.7751  0.8113  0.8723
  856MPD2    H112573   4.577   3.688  13.920  0.9879  1.7773  0.0992
  856MPD2    H212574   0.129   3.447  13.708  0.9104 -1.1843  2.4062
  856MPD2    H312575   4.635   3.473  13.829 -0.1030 -0.0691 -0.2419
  856MPD2     N12576   4.720   3.901  13.924 -0.1350 -0.3641 -0.0676
  856MPD2    H512577   4.621   3.901  13.949 -0.1713  0.7353 -0.2294
  856MPD2    N112578   0.329   3.635  13.708 -0.4534 -0.2429 -0.4286
  856MPD2    H712579   0.397   3.710  13.710 -1.5771  0.6893  2.8648
  857MPD2     C12580   1.537   0.964  12.375  0.2913 -0.2780 -1.7011
  857MPD2    C112581   1.662   0.933  12.431  0.2211  0.3540  0.7740
  857MPD2    C212582   1.761   1.029  12.431 -0.5186 -0.8478  0.5701
  857MPD2    C312583   1.737   1.156  12.389 -0.6663  0.8489  0.6994
  857MPD2    C412584   1.615   1.185  12.332  0.1567  0.3575  0.5592
  857MPD2    C512585   1.514   1.092  12.326 -0.0788  0.1953  0.4449
  857MPD2     H12586   1.857   1.002  12.474 -0.1905  0.4392  0.6293
  857MPD2    H112587   1.593   1.283  12.292 -1.2706  0.2207  1.0134
  857MPD2    H212588   1.464   0.887  12.358 -0.1427 -0.2335 -0.0507
  857MPD2    H312589   1.419   1.115  12.279  0.4544  0.2550 -0.6086
  857MPD2     N12590   1.832   1.258  12.413 -0.5176 -0.5723 -0.2241
  857MPD2    H512591   1.918   1.215  12.447 -0.6629 -1.6621 -1.2314
  857MPD2    N112592   1.694   0.799  12.471  0.0852  0.0818 -0.0476
  857MPD2    H712593   1.614   0.737  12.484 -0.7784  1.4945  1.3629
  858MPD2     C12594   2.461   0.056  16.554  0.8433 -0.2664 -0.2340
  858MPD2    C112595   2.561   0.009  16.627  0.2124  0.2558  0.0581
  858MPD2    C212596   2.573   0.052  16.756  0.4572  0.1836  0.2019
  858MPD2    C312597   2.478   0.130  16.812 -0.5836 -0.0780 -0.0920
  858MPD2    C412598   2.381   0.185  16.732  0.2408 -0.7774 -0.5585
  858MPD2    C512599   2.370   0.144  16.602  0.1044 -0.1567 -0.1222
  858MPD2     H12600   2.664   0.034  16.812  0.6624 -2.5780 -1.0166
  858MPD2    H112601   2.312   0.252  16.782  1.6409 -0.4784  0.9770
  858MPD2    H212602   2.446   0.036  16.448 -2.3230 -1.9460  0.5524
  858MPD2    H312603   2.295   0.188  16.538 -0.9022 -0.7467  0.6535
  858MPD2     N12604   2.479   0.162  16.955  0.2629  0.0732 -1.3019
  858MPD2    H512605   2.395   0.210  16.988  0.7584 -0.0543  0.1470
  858MPD2    N112606   2.661   4.644  16.583 -0.1132 -0.1314 -0.3820
  858MPD2    H712607   2.742   4.631  16.644 -0.2146 -0.4622 -0.3168
  859MPD2     C12608   0.887   1.623  15.276  0.2958  0.2507 -0.3630
  859MPD2    C112609   0.903   1.604  15.141 -0.4158  0.4388  0.2957
  859MPD2    C212610   0.923   1.476  15.089  0.4707  0.2684 -0.6098
  859MPD2    C312611   0.924   1.364  15.173 -0.3321 -0.3623  0.4632
  859MPD2    C412612   0.892   1.387  15.309 -0.1156  0.3835 -0.5302
  859MPD2    C512613   0.866   1.513  15.355  0.4171  0.3217 -0.5289
  859MPD2     H12614   0.908   1.461  14.982  2.2793 -2.0224 -0.5225
  859MPD2    H112615   0.890   1.306  15.380 -2.7049  1.0995  0.2253
  859MPD2    H212616   0.885   1.718  15.328  0.6320  1.3435 -2.3345
  859MPD2    H312617   0.850   1.529  15.460 -0.8262 -1.1021 -0.5113
  859MPD2     N12618   0.951   1.228  15.138 -0.7853 -0.3838  0.1810
  859MPD2    H512619   0.940   1.157  15.210  0.0460 -1.2756 -0.5668
  859MPD2    N112620   0.907   1.716  15.054 -0.3107 -0.7575 -0.0595
  859MPD2    H712621   0.876   1.800  15.102  2.7825  1.4960 -2.0330
  860MPD2     C12622   3.874   2.288  11.268  0.2478 -0.2246  0.1705
  860MPD2    C112623   3.895   2.348  11.390 -0.2373 -0.3978  0.1920
  860MPD2    C212624   3.786   2.390  11.463  0.4861 -0.0198  0.0342
  860MPD2    C312625   3.656   2.383  11.419 -0.1443  0.2596 -0.4762
  860MPD2    C412626   3.633   2.329  11.294  0.3172  0.1640 -0.5711
  860MPD2    C512627   3.747   2.287  11.221  1.1095  0.7079 -0.2939
  860MPD2     H12628   3.798   2.445  11.555  1.6974 -1.5736  0.8117
  860MPD2    H112629   3.543   2.329  11.234  0.2597 -0.5363 -0.4863
  860MPD2    H212630   3.949   2.251  11.199  0.5402 -2.4472  1.6904
  860MPD2    H312631   3.730   2.249  11.121 -0.1633 -1.4716  0.7695
  860MPD2     N12632   3.556   2.437  11.507 -0.5157 -0.6744  0.1766
  860MPD2    H512633   3.595   2.493  11.582 -1.2448 -1.3132  1.0283
  860MPD2    N112634   4.019   2.359  11.446  0.0392 -0.1815 -0.1280
  860MPD2    H712635   4.034   2.398  11.539  0.7669  1.8367 -1.1186
  861MPD2     C12636   2.679   0.878  10.897 -0.5416 -0.2873  0.4230
  861MPD2    C112637   2.574   0.915  10.980  0.0265  0.1053  0.4340
  861MPD2    C212638   2.461   0.978  10.924  0.0223 -0.2161 -0.0095
  861MPD2    C312639   2.458   1.006  10.786  0.8854  0.3973  0.3187
  861MPD2    C412640   2.564   0.973  10.702 -0.5685 -0.6686 -0.2869
  861MPD2    C512641   2.676   0.917  10.764  0.8608 -0.1214  0.1210
  861MPD2     H12642   2.370   0.996  10.982  0.7177  1.8012  0.4647
  861MPD2    H112643   2.559   0.997  10.596 -2.0809  0.4381  0.0480
  861MPD2    H212644   2.765   0.831  10.943  0.2282  1.5062  0.8206
  861MPD2    H312645   2.761   0.888  10.704 -0.6344 -1.0306 -1.5648
  861MPD2     N12646   2.358   1.081  10.721  0.5468 -0.1193  0.1995
  861MPD2    H512647   2.361   1.085  10.620 -1.3260  1.2795  0.2066
  861MPD2    N112648   2.569   0.886  11.121  0.2401  0.6359 -0.6125
  861MPD2    H712649   2.478   0.891  11.167  0.3985 -0.4172 -0.1873
  862MPD2     C12650   1.849   1.199  10.214  0.5223 -1.1146 -0.1596
  862MPD2    C112651   1.968   1.208  10.281 -0.3472 -0.2786 -0.5074
  862MPD2    C212652   2.002   1.109  10.371 -0.6127  0.1161  0.4323
  862MPD2    C312653   1.917   1.000  10.385 -0.5705  0.4202 -0.0826
  862MPD2    C412654   1.797   0.998  10.319 -0.0815 -0.7313  0.0858
  862MPD2    C512655   1.759   1.095  10.233  0.3534  0.4417 -0.1423
  862MPD2     H12656   2.102   1.110  10.413 -0.1825 -0.5433 -0.5629
  862MPD2    H112657   1.725   0.920  10.336  0.3864 -1.3926 -0.9860
  862MPD2    H212658   1.832   1.279  10.143  1.4455 -1.7681 -1.1256
  862MPD2    H312659   1.662   1.083  10.186  0.0099 -1.8783  1.1162
  862MPD2     N12660   1.950   0.893  10.473  0.3915 -0.5013  0.9622
  862MPD2    H512661   1.882   0.817  10.483  0.8179 -1.4631 -3.5949
  862MPD2    N112662   2.058   1.321  10.262  0.1620 -0.7975  0.7391
  862MPD2    H712663   2.039   1.365  10.173  1.3655  2.5062  2.1287
  863MPD2     C12664   0.830   3.523  17.031  0.9135  0.1148 -0.3445
  863MPD2    C112665   0.889   3.649  17.025  0.1957  0.0821 -0.3628
  863MPD2    C212666   0.936   3.699  17.142  0.1548  1.1757  0.3034
  863MPD2    C312667   0.931   3.620  17.258  0.1819  1.1013 -0.0064
  863MPD2    C412668   0.864   3.498  17.255 -0.1924 -0.5994 -0.8417
  863MPD2    C512669   0.812   3.454  17.140 -0.5278  0.0574 -0.5230
  863MPD2     H12670   0.981   3.798  17.137  3.0424 -0.1832 -0.6156
  863MPD2    H112671   0.850   3.432  17.340 -0.0213  0.5392  0.0812
  863MPD2    H212672   0.781   3.480  16.945 -0.4104  0.1452  0.3910
  863MPD2    H312673   0.753   3.363  17.138 -0.6508  0.1234 -0.0578
  863MPD2     N12674   0.971   3.664  17.387  0.2799  0.3058 -0.2145
  863MPD2    H512675   0.963   3.595  17.461 -0.0353  0.4003 -0.1586
  863MPD2    N112676   0.872   3.721  16.902 -0.4402 -0.3833  0.0972
  863MPD2    H712677   0.830   3.674  16.823 -1.4413 -3.4127  2.3946
  864MPD2     C12678   1.082   0.463  17.079 -0.1841 -0.1866  0.5351
  864MPD2    C112679   1.176   0.420  17.166  0.4651  0.7058  0.0559
  864MPD2    C212680   1.276   0.507  17.211 -0.3011 -0.3959 -0.6477
  864MPD2    C312681   1.282   0.632  17.154 -0.2316  0.4412  0.1266
  864MPD2    C412682   1.177   0.685  17.082  0.0858 -0.1383 -0.1205
  864MPD2    C512683   1.080   0.594  17.051 -0.2334 -0.1129  0.3966
  864MPD2     H12684   1.356   0.472  17.275 -0.4021 -0.6027 -0.6345
  864MPD2    H112685   1.173   0.787  17.046  3.7130  1.0670  2.9212
  864MPD2    H212686   1.002   0.397  17.048  0.1756  0.0697 -0.9448
  864MPD2    H312687   0.988   0.619  16.999  0.0431 -0.5916 -0.3066
  864MPD2     N12688   1.398   0.715  17.161  0.2599  0.3233 -0.0202
  864MPD2    H512689   1.386   0.809  17.125  1.6156  1.0299  1.3652
  864MPD2    N112690   1.173   0.285  17.200 -0.5945  0.2771  0.3967
  864MPD2    H712691   1.111   0.223  17.150  0.9050  0.4327 -1.6632
  865MPD2     C12692   1.731   0.801  16.376  0.3279 -0.8526  0.3915
  865MPD2    C112693   1.700   0.689  16.441 -0.3239 -0.1919 -0.6120
  865MPD2    C212694   1.705   0.701  16.579 -0.1633 -0.3030  0.1419
  865MPD2    C312695   1.737   0.816  16.643 -0.2872  0.1764  0.0775
  865MPD2    C412696   1.770   0.928  16.568 -0.3488 -0.3784 -0.4687
  865MPD2    C512697   1.750   0.924  16.432 -0.7608 -0.8558 -0.7069
  865MPD2     H12698   1.670   0.623  16.645 -0.1594 -0.5180 -0.1070
  865MPD2    H112699   1.808   1.017  16.616  1.0427 -0.3190 -1.6823
  865MPD2    H212700   1.715   0.802  16.268 -1.0596 -1.1850  0.5921
  865MPD2    H312701   1.755   1.011  16.367  0.4364  0.0103  0.5380
  865MPD2     N12702   1.756   0.838  16.783 -0.2226  0.0823 -0.2804
  865MPD2    H512703   1.759   0.932  16.820  1.0495  0.5516 -1.5712
  865MPD2    N112704   1.666   0.573  16.367  0.1937  0.4589  0.2729
  865MPD2    H712705   1.680   0.577  16.266 -0.8391  1.0387  0.1606
  866MPD2     C12706   3.199   0.934  11.481  1.3333 -0.1681  0.0167
  866MPD2    C112707   3.232   1.004  11.363 -0.0754  0.1464 -0.4615
  866MPD2    C212708   3.145   1.093  11.302 -0.9348 -0.1747 -0.1175
  866MPD2    C312709   3.024   1.124  11.364  0.1102  0.8088 -0.0879
  866MPD2    C412710   2.998   1.069  11.482  0.0144  0.5826 -0.3051
  866MPD2    C512711   3.088   0.978  11.544 -0.2329  0.2030 -0.6758
  866MPD2     H12712   3.194   1.149  11.223  1.2099  0.1686  1.4332
  866MPD2    H112713   2.916   1.117  11.534 -0.4364 -2.2783  1.6272
  866MPD2    H212714   3.261   0.873  11.546 -0.8839 -0.4665  1.8490
  866MPD2    H312715   3.065   0.937  11.642 -0.6554 -0.6768 -1.1447
  866MPD2     N12716   2.928   1.213  11.313 -0.3235 -1.1732 -0.7653
  866MPD2    H512717   2.847   1.232  11.370  1.5994  0.6809  1.3589
  866MPD2    N112718   3.346   0.976  11.286 -0.0154 -0.0971 -0.6900
  866MPD2    H712719   3.356   1.003  11.189  0.7688  0.1975 -0.5282
  867MPD2     C12720   0.410   0.711  16.561 -0.4653 -0.0202  0.2261
  867MPD2    C112721   0.507   0.719  16.657 -0.7889  0.0115  0.0281
  867MPD2    C212722   0.519   0.829  16.745  0.2280  0.4684 -0.7604
  867MPD2    C312723   0.440   0.942  16.715  0.6795  0.2621  0.4911
  867MPD2    C412724   0.357   0.935  16.603  0.0260  0.4866 -0.1090
  867MPD2    C512725   0.334   0.821  16.530 -0.6728 -0.4437 -0.4757
  867MPD2     H12726   0.579   0.820  16.834  2.0356  1.7940 -1.8550
  867MPD2    H112727   0.304   1.026  16.576 -1.3969 -0.2394  0.2643
  867MPD2    H212728   0.394   0.626  16.495 -0.9743 -0.3923  0.8281
  867MPD2    H312729   0.259   0.807  16.453 -0.4407 -1.4914 -0.5129
  867MPD2     N12730   0.445   1.063  16.784 -0.0167 -0.0827  0.3933
  867MPD2    H512731   0.391   1.142  16.750  1.6304  0.9642  0.1888
  867MPD2    N112732   0.578   0.600  16.677 -0.8439 -0.8866  0.5509
  867MPD2    H712733   0.577   0.533  16.600  1.3172 -0.6808  0.3510
  868MPD2     C12734   2.307   4.213  13.308 -0.1733 -0.2410 -0.0460
  868MPD2    C112735   2.339   4.093  13.373  0.0209 -0.1688 -0.4018
  868MPD2    C212736   2.264   4.063  13.488  0.1656 -0.5949  0.2691
  868MPD2    C312737   2.165   4.144  13.540 -0.1646 -0.5173 -0.6390
  868MPD2    C412738   2.139   4.264  13.484  0.3279  0.2003 -0.5190
  868MPD2    C512739   2.207   4.292  13.364 -0.4049  0.1919  0.4657
  868MPD2     H12740   2.285   3.973  13.546 -0.4611 -0.5394  0.5909
  868MPD2    H112741   2.055   4.326  13.513  1.4670  1.4973  0.0299
  868MPD2    H212742   2.351   4.256  13.219  1.2204 -0.0380  0.7394
  868MPD2    H312743   2.185   4.385  13.314  0.2110  0.5602  0.8815
  868MPD2     N12744   2.087   4.089  13.645  0.1357 -0.4022  1.0371
  868MPD2    H512745   2.106   3.994  13.674  0.0054 -0.2032  1.7633
  868MPD2    N112746   2.435   4.011  13.316  0.2050  0.2284 -0.3726
  868MPD2    H712747   2.484   4.048  13.235  0.2707 -1.5987 -1.1716
  869MPD2     C12748   2.775   2.336   1.104  0.1638  0.1798 -0.1289
  869MPD2    C112749   2.875   2.380   1.181  0.5992  0.1767 -0.5024
  869MPD2    C212750   2.940   2.499   1.144 -0.4252 -0.4715 -0.3235
  869MPD2    C312751   2.902   2.570   1.025 -0.0824  0.4792  0.8708
  869MPD2    C412752   2.795   2.523   0.955 -0.1161  0.8052 -0.3610
  869MPD2    C512753   2.734   2.408   0.994 -0.2375 -0.0526 -0.2615
  869MPD2     H12754   3.031   2.534   1.190  1.0842 -1.9099 -2.2208
  869MPD2    H112755   2.751   2.582   0.875 -0.8991  1.9686  0.9237
  869MPD2    H212756   2.720   2.246   1.130  2.7188 -0.3947  3.1888
  869MPD2    H312757   2.655   2.363   0.935 -0.0170 -0.5447 -0.1850
  869MPD2     N12758   2.971   2.679   0.973  0.6087 -0.5303  0.0656
  869MPD2    H512759   2.926   2.715   0.889  0.3657  1.3507  0.9984
  869MPD2    N112760   2.906   2.317   1.302  0.5595  0.3019 -0.2434
  869MPD2    H712761   2.854   2.232   1.321  1.9845 -0.2820  0.9566
  870MPD2     C12762   2.740   1.149   1.526  0.2665 -0.2375 -0.4620
  870MPD2    C112763   2.854   1.125   1.447 -0.0756 -0.3999  0.1821
  870MPD2    C212764   2.849   1.165   1.318  0.0009  0.2653 -0.1881
  870MPD2    C312765   2.756   1.246   1.265  0.3324 -0.0679  0.4561
  870MPD2    C412766   2.652   1.281   1.344 -0.1906 -0.4772  0.1936
  870MPD2    C512767   2.639   1.225   1.467  0.2346  0.3495  0.4872
  870MPD2     H12768   2.950   1.163   1.278 -0.2025 -1.2854 -0.6074
  870MPD2    H112769   2.571   1.348   1.317  1.8307  2.1500  0.7545
  870MPD2    H212770   2.735   1.115   1.629 -0.3397 -2.9589 -1.3931
  870MPD2    H312771   2.556   1.253   1.531 -0.7310 -1.1038 -0.1262
  870MPD2     N12772   2.763   1.298   1.129 -0.3185 -0.0643 -0.9789
  870MPD2    H512773   2.846   1.279   1.073 -0.1664  0.5116 -0.9543
  870MPD2    N112774   2.966   1.047   1.497  0.6252  0.6710  0.3684
  870MPD2    H712775   3.022   0.997   1.429  1.1091 -0.0054  1.2574
  871MPD2     C12776   3.714   0.253  16.744 -0.2636  0.4662 -0.1803
  871MPD2    C112777   3.839   0.307  16.800  0.0700 -0.5660  0.0390
  871MPD2    C212778   3.956   0.235  16.769 -0.3057  0.5006  0.4814
  871MPD2    C312779   3.948   0.116  16.700 -0.1775  0.1268 -0.2456
  871MPD2    C412780   3.831   0.057  16.659  0.4625  0.2580  0.7396
  871MPD2    C512781   3.713   0.130  16.676  0.2644 -0.3832 -0.7061
  871MPD2     H12782   4.051   0.280  16.795 -1.4454  2.7405  0.7297
  871MPD2    H112783   3.831   4.687  16.601  1.7752  1.6618 -1.4692
  871MPD2    H212784   3.620   0.306  16.756 -0.7473 -0.7062  1.1536
  871MPD2    H312785   3.616   0.087  16.656  1.0264 -1.4949 -1.9869
  871MPD2     N12786   4.061   0.035  16.675  0.6253 -0.8639  0.2208
  871MPD2    H512787   4.039   4.664  16.637 -0.7418 -0.5943  0.3632
  871MPD2    N112788   3.838   0.422  16.881  0.0424  0.2493 -0.7248
  871MPD2    H712789   3.769   0.496  16.873 -0.8034 -0.5814 -1.0662
  872MPD2     C12790   0.298   3.418  14.018 -0.8601 -0.6469 -0.7743
  872MPD2    C112791   0.267   3.306  13.944  0.0133  0.2364  0.1726
  872MPD2    C212792   0.142   3.253  13.958 -0.0598  0.3433 -0.3296
  872MPD2    C312793   0.050   3.305  14.045  0.7912 -0.1800  0.2883
  872MPD2    C412794   0.088   3.411  14.128 -0.0955 -0.3607  0.4386
  872MPD2    C512795   0.211   3.478  14.105  0.4094 -0.2718 -0.1527
  872MPD2     H12796   0.120   3.165  13.899  0.2143 -0.1830  0.3610
  872MPD2    H112797   0.026   3.436  14.213 -1.9287 -0.8443 -0.7522
  872MPD2    H212798   0.392   3.470  14.005 -1.9166  1.1915 -1.1253
  872MPD2    H312799   0.239   3.557  14.174  2.2229  0.0165 -1.2353
  872MPD2     N12800   4.656   3.233  14.090 -0.4653  0.4904  0.1755
  872MPD2    H512801   4.639   3.245  14.189  0.0878 -0.5321  0.3926
  872MPD2    N112802   0.349   3.239  13.857  0.7647 -0.5209 -0.1676
  872MPD2    H712803   0.300   3.173  13.798  0.4398 -0.7547  0.3609
  873MPD2     C12804   2.819   3.065   1.247  0.6107  0.0411  0.2594
  873MPD2    C112805   2.685   3.051   1.214 -0.7854  1.0843 -0.2517
  873MPD2    C212806   2.615   2.931   1.215  0.2073 -0.2599 -0.2894
  873MPD2    C312807   2.689   2.818   1.242 -0.2038  0.7118  0.9482
  873MPD2    C412808   2.829   2.823   1.265 -0.4189  0.1054  0.7439
  873MPD2    C512809   2.889   2.949   1.281  0.0456  0.1899 -0.0701
  873MPD2     H12810   2.507   2.926   1.206  0.4775 -0.1877 -3.6941
  873MPD2    H112811   2.889   2.736   1.288 -2.3208 -1.4909 -0.3127
  873MPD2    H212812   2.878   3.155   1.253  0.7682 -0.1015  0.8509
  873MPD2    H312813   2.996   2.955   1.298  0.3006 -0.1674 -1.5114
  873MPD2     N12814   2.643   2.685   1.236  0.8084 -0.5043 -0.1207
  873MPD2    H512815   2.716   2.619   1.258 -0.3058 -1.3964  0.9260
  873MPD2    N112816   2.623   3.174   1.194 -0.5169  0.3032  0.0379
  873MPD2    H712817   2.666   3.260   1.223 -0.4069  1.0520 -2.3470
  874MPD2     C12818   1.562   3.453  16.050  0.1426  0.4416  0.5750
  874MPD2    C112819   1.592   3.343  15.972 -0.2176 -0.2507 -0.0816
  874MPD2    C212820   1.714   3.346  15.911  0.4359  1.1150  0.5111
  874MPD2    C312821   1.814   3.435  15.941  0.2644  0.0093  0.0813
  874MPD2    C412822   1.779   3.541  16.027  0.2301 -0.9241 -0.5837
  874MPD2    C512823   1.656   3.544  16.081  0.1805  0.2333 -0.1389
  874MPD2     H12824   1.740   3.264  15.845 -1.6692 -0.4381  1.6043
  874MPD2    H112825   1.832   3.631  16.055 -1.1080 -0.1398 -0.5564
  874MPD2    H212826   1.473   3.456  16.112  1.3042 -2.5579  2.3993
  874MPD2    H312827   1.646   3.612  16.165  0.9770  1.5015 -1.0618
  874MPD2     N12828   1.945   3.409  15.907 -0.2845 -0.4124  0.4007
  874MPD2    H512829   1.969   3.315  15.876  1.5375 -0.1037  0.8354
  874MPD2    N112830   1.509   3.230  15.966 -0.0865  0.0291 -0.5115
  874MPD2    H712831   1.427   3.242  16.025 -1.6377 -1.6827 -2.2891
  875MPD2     C12832   2.689   1.225  14.616 -0.0903 -0.5858 -0.3118
  875MPD2    C112833   2.578   1.294  14.567 -0.2869  0.1355  0.1337
  875MPD2    C212834   2.510   1.392  14.643  0.2492  0.7822 -0.4992
  875MPD2    C312835   2.552   1.411  14.772  0.2406 -0.2267 -0.2434
  875MPD2    C412836   2.668   1.343  14.811  0.7124 -0.3794 -0.3130
  875MPD2    C512837   2.731   1.244  14.740 -0.1349 -0.2992  0.6515
  875MPD2     H12838   2.415   1.429  14.609 -0.1311 -0.0440 -0.3329
  875MPD2    H112839   2.702   1.359  14.913  0.2300  0.3601 -0.2777
  875MPD2    H212840   2.748   1.165  14.548  2.4610  1.5291  0.0795
  875MPD2    H312841   2.825   1.213  14.784  0.5886  2.1803  0.8518
  875MPD2     N12842   2.478   1.497  14.863  0.4433  0.0477 -0.2207
  875MPD2    H512843   2.526   1.508  14.952 -2.3827 -1.4187  1.4796
  875MPD2    N112844   2.526   1.277  14.434 -0.2816  0.3234  0.3399
  875MPD2    H712845   2.444   1.327  14.402 -0.2757  0.3624  0.3864
  876MPD2     C12846   1.764   2.576  15.873 -0.3353  0.2964 -0.1338
  876MPD2    C112847   1.709   2.495  15.772 -0.4377  0.8237 -0.2519
  876MPD2    C212848   1.663   2.370  15.812  0.2484  0.0958 -0.3812
  876MPD2    C312849   1.659   2.330  15.938  0.0306  0.3553  0.8297
  876MPD2    C412850   1.723   2.409  16.036  0.4359 -0.6779 -1.2505
  876MPD2    C512851   1.768   2.537  16.003  0.3353  0.1683 -0.1515
  876MPD2     H12852   1.611   2.301  15.746 -0.0284 -0.3023  0.2489
  876MPD2    H112853   1.722   2.382  16.141 -2.3882  0.1145 -1.0574
  876MPD2    H212854   1.796   2.678  15.853 -0.8035  0.3826 -0.4585
  876MPD2    H312855   1.807   2.605  16.078  2.4723 -0.3895 -0.7610
  876MPD2     N12856   1.597   2.209  15.966  0.2805  0.8894 -0.0861
  876MPD2    H512857   1.565   2.150  15.889  2.0228  2.3546 -1.9385
  876MPD2    N112858   1.707   2.538  15.631  0.1061  0.0978 -0.2993
  876MPD2    H712859   1.743   2.632  15.615 -0.5598  0.5831  1.0294
  877MPD2     C12860   2.109   2.931  15.112  0.1917  0.0861 -0.3481
  877MPD2    C112861   1.990   2.912  15.050  0.0161 -0.1164  0.5994
  877MPD2    C212862   1.973   2.968  14.923 -0.2849  0.9718  0.3335
  877MPD2    C312863   2.076   3.036  14.866 -0.1468 -0.3094 -0.2148
  877MPD2    C412864   2.193   3.053  14.931 -0.2195  0.5758  0.3657
  877MPD2    C512865   2.212   3.002  15.057 -0.4620  0.0246 -0.5466
  877MPD2     H12866   1.876   2.956  14.877  0.6786  2.3728 -2.0231
  877MPD2    H112867   2.276   3.111  14.893  0.1408 -2.0465 -2.8264
  877MPD2    H212868   2.126   2.889  15.210  1.7412  1.6475  0.0544
  877MPD2    H312869   2.297   3.028  15.118 -1.1674  0.0146  0.4395
  877MPD2     N12870   2.064   3.079  14.730 -0.4312 -0.0578  0.4676
  877MPD2    H512871   2.139   3.128  14.683 -0.5115  0.4835  0.9020
  877MPD2    N112872   1.879   2.847  15.110  0.1854  0.0070 -0.1442
  877MPD2    H712873   1.812   2.819  15.039  0.1104  0.5397 -0.2814
  878MPD2     C12874   2.021   2.766  13.060 -0.7792 -0.6540 -0.1342
  878MPD2    C112875   1.931   2.702  12.972 -0.3966  0.3801  0.0616
  878MPD2    C212876   1.883   2.577  13.008  0.2981 -0.0423  0.5285
  878MPD2    C312877   1.933   2.511  13.121 -0.2582 -0.3886  0.5255
  878MPD2    C412878   2.028   2.573  13.205 -0.0288 -0.5248 -1.1540
  878MPD2    C512879   2.064   2.702  13.173  0.4023  0.1067 -0.4510
  878MPD2     H12880   1.802   2.531  12.952  0.4568 -0.1360  0.3771
  878MPD2    H112881   2.067   2.524  13.294  1.9173 -2.1732 -2.9022
  878MPD2    H212882   2.060   2.864  13.036 -0.7216 -1.0081 -1.5025
  878MPD2    H312883   2.132   2.765  13.230  0.0424 -1.4367  1.6898
  878MPD2     N12884   1.860   2.392  13.153 -0.1330  0.6016 -0.3165
  878MPD2    H512885   1.783   2.374  13.089 -0.6733 -0.6100  0.6821
  878MPD2    N112886   1.868   2.773  12.868 -0.2291  0.1441  1.3435
  878MPD2    H712887   1.873   2.873  12.885 -0.0027  0.5607 -1.1989
  879MPD2     C12888   1.925   3.449  17.294  0.5640  0.0760  0.5592
  879MPD2    C112889   1.977   3.520  17.192 -0.3243  0.3525 -0.3578
  879MPD2    C212890   1.896   3.562  17.094 -0.6716 -0.4736  0.4878
  879MPD2    C312891   1.765   3.513  17.081  0.8947 -0.1066 -1.0070
  879MPD2    C412892   1.719   3.434  17.179  0.4434 -0.4453 -0.5380
  879MPD2    C512893   1.798   3.403  17.287 -0.3102  1.0776  0.1211
  879MPD2     H12894   1.931   3.635  17.022  1.2222 -0.1166  1.7679
  879MPD2    H112895   1.625   3.380  17.172  0.7817 -0.9835 -0.8472
  879MPD2    H212896   1.987   3.429  17.381  1.7510  2.2863  0.2156
  879MPD2    H312897   1.754   3.342  17.365  0.8943 -0.5718 -0.4809
  879MPD2     N12898   1.677   3.550  16.976 -0.6007 -0.2989  0.0367
  879MPD2    H512899   1.586   3.506  16.980 -0.9747  0.3673 -1.5657
  879MPD2    N112900   2.113   3.555  17.199  0.2338  0.6026  0.5259
  879MPD2    H712901   2.171   3.548  17.282 -0.0732 -2.2083  0.5171
  880MPD2     C12902   2.909   0.754  17.424 -0.2253  0.1602  0.0500
  880MPD2    C112903   2.846   0.787  17.547  0.2545 -1.0658  0.4593
  880MPD2    C212904   2.921   0.757  17.659  0.3550 -1.0607  0.1692
  880MPD2    C312905   3.051   0.710  17.652 -0.8725  0.1167  0.3206
  880MPD2    C412906   3.104   0.680  17.531  0.0270 -0.0548 -0.6102
  880MPD2    C512907   3.034   0.698  17.417  0.4538  0.4196 -0.6000
  880MPD2     H12908   2.863   0.775   0.064 -2.3978 -0.2692 -1.7336
  880MPD2    H112909   3.204   0.641  17.516 -1.0020 -2.6495 -0.8233
  880MPD2    H212910   2.859   0.774  17.330  0.9244 -1.3233 -0.8715
  880MPD2    H312911   3.084   0.668  17.326  1.4184 -1.0467  0.3995
  880MPD2     N12912   3.112   0.695   0.089 -0.4923 -0.4522  0.0952
  880MPD2    H512913   3.057   0.718   0.171 -0.7229 -0.5989 -0.0189
  880MPD2    N112914   2.721   0.836  17.538  0.0514 -0.0882 -0.6804
  880MPD2    H712915   2.684   0.835  17.444 -1.2889 -0.2036 -0.1440
  881MPD2     C12916   2.629   1.645  17.263  0.2889 -0.2043 -0.4436
  881MPD2    C112917   2.649   1.524  17.200  0.2175  0.0295 -0.4579
  881MPD2    C212918   2.579   1.414  17.249 -0.0211  0.8509 -0.0989
  881MPD2    C312919   2.478   1.425  17.344 -0.1691 -0.4244 -0.5171
  881MPD2    C412920   2.451   1.550  17.395  0.0702 -0.4051 -0.1197
  881MPD2    C512921   2.519   1.661  17.345  0.4937  0.2853 -0.2756
  881MPD2     H12922   2.623   1.319  17.220  2.1774  1.1259  2.3426
  881MPD2    H112923   2.373   1.560  17.469 -0.5085  2.1359 -1.0723
  881MPD2    H212924   2.679   1.735  17.231  1.3795 -1.1498 -1.3978
  881MPD2    H312925   2.496   1.766  17.358  1.6590  0.6022 -0.7793
  881MPD2     N12926   2.414   1.315  17.389  0.3573 -0.3853  0.3302
  881MPD2    H512927   2.371   1.333  17.480 -0.8304 -0.6493 -0.1754
  881MPD2    N112928   2.782   1.498  17.136  0.1679  0.8436  0.2433
  881MPD2    H712929   2.783   1.407  17.091  1.1882  1.3144 -0.6909
  882MPD2     C12930   1.700   2.947  13.913  0.6336  0.1200 -0.6892
  882MPD2    C112931   1.662   3.001  14.031 -0.5924 -0.4654 -0.0395
  882MPD2    C212932   1.532   3.024  14.061  0.0103 -0.8031  0.2836
  882MPD2    C312933   1.436   2.990  13.968  0.1942  0.3292 -0.4042
  882MPD2    C412934   1.475   2.938  13.850  0.3720 -0.0428 -0.4515
  882MPD2    C512935   1.606   2.918  13.824 -0.3562  0.2493 -0.0589
  882MPD2     H12936   1.499   3.048  14.161 -0.6760 -0.6311  0.0227
  882MPD2    H112937   1.399   2.898  13.783  1.7943 -1.4913 -1.1799
  882MPD2    H212938   1.805   2.928  13.891  0.3352 -0.4637 -1.6098
  882MPD2    H312939   1.635   2.878  13.727  2.7309  1.4564  0.3734
  882MPD2     N12940   1.294   3.011  13.981 -0.6823  0.4544 -0.4473
  882MPD2    H512941   1.236   2.984  13.902 -0.2676  0.4913 -0.7645
  882MPD2    N112942   1.771   3.033  14.110 -0.5047  0.2178 -0.4939
  882MPD2    H712943   1.867   3.013  14.085 -0.9448 -1.4833 -0.7926
  883MPD2     C12944   3.635   3.107  16.329 -0.8061  0.2949  0.1794
  883MPD2    C112945   3.710   3.159  16.227  0.6165  0.0887 -0.5841
  883MPD2    C212946   3.803   3.251  16.262 -0.1223  0.2643  0.2921
  883MPD2    C312947   3.831   3.276  16.400  0.1736  0.4297 -0.3701
  883MPD2    C412948   3.765   3.214  16.497 -0.0185  0.6163  0.3559
  883MPD2    C512949   3.669   3.131  16.463 -0.7325 -0.5369 -0.4214
  883MPD2     H12950   3.857   3.305  16.185  1.6705 -2.4235 -0.3498
  883MPD2    H112951   3.780   3.241  16.601  0.2422  0.3367  0.3914
  883MPD2    H212952   3.558   3.033  16.310  2.3551 -2.3353 -2.5458
  883MPD2    H312953   3.616   3.076  16.540 -1.3773  0.7023  0.0361
  883MPD2     N12954   3.918   3.382  16.422 -0.8488  0.7652 -0.2687
  883MPD2    H512955   3.968   3.415  16.340  1.2527 -1.4828  0.0969
  883MPD2    N112956   3.684   3.143  16.087  0.1747  0.5621 -0.1416
  883MPD2    H712957   3.753   3.182  16.025  0.4998 -0.6373 -0.5259
  884MPD2     C12958   0.617   3.277  15.455  0.0653  0.3842 -0.3411
  884MPD2    C112959   0.694   3.357  15.368 -0.4302  0.6045  0.5251
  884MPD2    C212960   0.648   3.481  15.335 -0.1870  0.3439 -0.4527
  884MPD2    C312961   0.523   3.528  15.376 -0.2524  0.2337  0.0878
  884MPD2    C412962   0.448   3.443  15.446 -0.0698  0.3302 -0.2858
  884MPD2    C512963   0.498   3.324  15.495 -0.1247 -0.6919 -0.3973
  884MPD2     H12964   0.709   3.541  15.268 -1.5138 -0.2333 -2.1676
  884MPD2    H112965   0.349   3.474  15.476  0.6756  1.0907  1.4135
  884MPD2    H212966   0.635   3.177  15.493 -0.5076  0.7422  0.8793
  884MPD2    H312967   0.434   3.258  15.552  1.3639 -2.1314 -0.4093
  884MPD2     N12968   0.456   3.653  15.344  0.0620 -0.6995  0.1051
  884MPD2    H512969   0.358   3.663  15.370  0.5262 -0.2753  1.6790
  884MPD2    N112970   0.812   3.316  15.307 -0.4311  0.0095 -0.1379
  884MPD2    H712971   0.850   3.393  15.254  0.2460  1.0573  1.8486
  885MPD2     C12972   4.071   0.037   0.273 -0.1904 -0.0194  0.1710
  885MPD2    C112973   4.010   4.629   0.255  0.3386  0.1255 -0.2432
  885MPD2    C212974   3.930   4.617   0.148  0.5018  0.0143  0.1772
  885MPD2    C312975   3.904   4.718   0.058  0.3326  0.3275 -0.1285
  885MPD2    C412976   3.952   0.125   0.087 -0.2497 -0.6671  0.3478
  885MPD2    C512977   4.040   0.138   0.186 -0.1311  0.7150  0.0393
  885MPD2     H12978   3.891   4.519   0.123  0.4577  0.1808 -0.4131
  885MPD2    H112979   3.932   0.211   0.025  1.8163 -1.5905 -1.6059
  885MPD2    H212980   4.138   0.068   0.352  0.5639  1.4619 -1.0571
  885MPD2    H312981   4.086   0.233   0.209  1.3054 -0.3011  1.3717
  885MPD2     N12982   3.828   4.688  17.630  0.7264 -0.3556 -0.1313
  885MPD2    H512983   3.812   4.589  17.617 -1.2958 -0.2617  1.5223
  885MPD2    N112984   4.054   4.524   0.340  0.3202 -0.5163  0.5705
  885MPD2    H712985   4.123   4.544   0.411  2.4798 -1.0176 -1.3857
  886MPD2     C12986   0.374   2.615  15.787 -0.6402  0.0326  0.5355
  886MPD2    C112987   0.404   2.515  15.706  0.5486  0.3491  0.3217
  886MPD2    C212988   0.346   2.509  15.579  0.0806 -0.1315  0.2090
  886MPD2    C312989   0.256   2.608  15.535 -0.9848  0.5440  0.5658
  886MPD2    C412990   0.215   2.703  15.626  0.2834  0.0234  0.4285
  886MPD2    C512991   0.285   2.712  15.744 -0.3564 -0.3429 -0.3953
  886MPD2     H12992   0.382   2.433  15.512  0.3066  1.6135 -1.6333
  886MPD2    H112993   0.145   2.784  15.609 -2.3512 -2.2328  0.5729
  886MPD2    H212994   0.436   2.630  15.875  0.6148 -0.8861 -0.1799
  886MPD2    H312995   0.267   2.801  15.803  1.4015  1.7486 -3.0153
  886MPD2     N12996   0.216   2.602  15.399  0.3722  0.6335 -0.5536
  886MPD2    H512997   0.274   2.545  15.338 -1.0104  0.4446 -1.6855
  886MPD2    N112998   0.497   2.418  15.760 -0.1367 -0.1178  0.8051
  886MPD2    H712999   0.556   2.448  15.837 -0.9447  2.5066  0.4116
  887MPD2     C13000   1.207   2.370  15.926 -0.0904 -0.1266 -0.6755
  887MPD2    C113001   1.103   2.405  15.847 -0.6541 -0.4203 -0.3265
  887MPD2    C213002   1.110   2.518  15.772  0.3904  0.1653  0.9783
  887MPD2    C313003   1.225   2.586  15.766  0.2899 -0.1206 -0.1234
  887MPD2    C413004   1.333   2.553  15.840 -0.0577 -0.5850  0.5775
  887MPD2    C513005   1.320   2.446  15.926  0.7948 -0.0192 -0.3431
  887MPD2     H13006   1.023   2.549  15.716  0.5994  0.8233  1.0243
  887MPD2    H113007   1.426   2.608  15.838  0.5056 -1.6541 -2.1355
  887MPD2    H213008   1.203   2.289  15.998  1.2770  0.9827  0.6464
  887MPD2    H313009   1.400   2.420  15.995  0.7851  0.0611 -0.3018
  887MPD2     N13010   1.224   2.694  15.672 -0.4706  0.6632 -0.1940
  887MPD2    H513011   1.135   2.724  15.634  0.1643  2.9189  0.0721
  887MPD2    N113012   0.985   2.332  15.830  0.1154 -0.4567  0.0360
  887MPD2    H713013   0.932   2.368  15.751  0.5336 -0.1745 -0.1208
  888MPD2     C13014   2.741   2.342  14.801  0.0385  0.0879  0.2812
  888MPD2    C113015   2.708   2.405  14.920 -0.6933  0.4133  0.6899
  888MPD2    C213016   2.776   2.522  14.947 -0.7625 -0.1714 -0.3511
  888MPD2    C313017   2.879   2.570  14.869  0.1415  0.1309 -1.0004
  888MPD2    C413018   2.914   2.500  14.757 -0.4310 -0.3359 -0.4839
  888MPD2    C513019   2.844   2.389  14.724  0.1749  0.4484  0.0212
  888MPD2     H13020   2.736   2.576  15.032  2.8345  1.2468  0.4570
  888MPD2    H113021   2.997   2.524  14.692 -0.7911 -0.1673 -0.8791
  888MPD2    H213022   2.699   2.249  14.764 -0.4748 -0.4165  2.1306
  888MPD2    H313023   2.896   2.324  14.655 -2.9963  0.7102 -2.6126
  888MPD2     N13024   2.941   2.696  14.904 -0.1277  0.1490  0.4494
  888MPD2    H513025   2.905   2.737  14.990  2.1196 -2.0728  2.4583
  888MPD2    N113026   2.599   2.365  14.997 -0.4492 -0.1112  0.0898
  888MPD2    H713027   2.582   2.418  15.083  1.4722 -2.6724  2.0575
  889MPD2     C13028   2.251   2.001  12.176 -0.0028  0.4244 -0.0236
  889MPD2    C113029   2.203   1.989  12.305 -0.3948 -0.3936 -0.5605
  889MPD2    C213030   2.242   2.079  12.398 -0.4320 -0.1882 -0.2342
  889MPD2    C313031   2.301   2.201  12.360  0.5814  0.1736 -0.4579
  889MPD2    C413032   2.323   2.224  12.227 -0.2009 -0.1677 -0.2532
  889MPD2    C513033   2.315   2.115  12.141  0.3173  0.2775  0.0813
  889MPD2     H13034   2.195   2.076  12.496 -0.2065 -2.4179 -0.1806
  889MPD2    H113035   2.363   2.315  12.183 -2.0391  2.0934  2.8400
  889MPD2    H213036   2.230   1.928  12.099 -0.8209 -1.0215  1.5530
  889MPD2    H313037   2.338   2.124  12.035 -0.4002  0.3450 -0.0704
  889MPD2     N13038   2.329   2.293  12.462  0.0210 -0.0763  0.9966
  889MPD2    H513039   2.336   2.258  12.557  1.3434 -1.2493  0.4707
  889MPD2    N113040   2.148   1.874  12.359  0.3580 -0.2484 -0.5823
  889MPD2    H713041   2.118   1.876  12.456  2.4674 -0.9995  0.0961
  890MPD2     C13042   2.082   4.312  14.852  0.9308 -0.3097 -1.0597
  890MPD2    C113043   1.959   4.262  14.800  0.2032 -0.1607  0.8069
  890MPD2    C213044   1.944   4.123  14.812  0.7603 -0.3686  0.0076
  890MPD2    C313045   2.046   4.034  14.862 -0.4159 -0.3536 -0.1486
  890MPD2    C413046   2.167   4.096  14.896 -0.3994  0.3490 -0.0670
  890MPD2    C513047   2.176   4.232  14.898  0.4453  0.9376 -0.8435
  890MPD2     H13048   1.847   4.083  14.787  0.7450 -0.1675 -0.2628
  890MPD2    H113049   2.248   4.035  14.934  1.1168  0.4757 -3.1271
  890MPD2    H213050   2.099   4.419  14.843 -1.3385  0.0174 -1.5698
  890MPD2    H313051   2.261   4.282  14.943 -0.0918  1.0972 -0.0094
  890MPD2     N13052   2.016   3.896  14.880 -0.0428  0.6385 -0.5924
  890MPD2    H513053   1.924   3.857  14.860 -0.9038  2.5258 -0.2761
  890MPD2    N113054   1.863   4.354  14.775 -0.1314  0.2651  0.5956
  890MPD2    H713055   1.880   4.453  14.790 -0.6938  0.6148 -1.1724
  891MPD2     C13056   4.331   2.154  16.422 -0.7952 -0.3958  0.9618
  891MPD2    C113057   4.262   2.221  16.521 -0.4222  0.2341 -0.9667
  891MPD2    C213058   4.324   2.327  16.588 -0.2086  0.5301 -0.3542
  891MPD2    C313059   4.453   2.367  16.563 -0.0907  0.7485  1.2706
  891MPD2    C413060   4.527   2.295  16.467  0.0661  0.4492  0.8522
  891MPD2    C513061   4.465   2.186  16.409 -0.2976 -0.2341 -0.0840
  891MPD2     H13062   4.282   2.368  16.679 -1.0457  4.2154 -2.3794
  891MPD2    H113063   4.624   2.327  16.432  0.0919 -2.8733 -2.0529
  891MPD2    H213064   4.297   2.075  16.356 -0.3418 -0.0158  0.2772
  891MPD2    H313065   4.525   2.137  16.333 -2.6297 -2.8609 -0.2094
  891MPD2     N13066   4.501   2.479  16.634 -0.6616  0.3740  0.5779
  891MPD2    H513067   4.432   2.523  16.694  0.1085  2.1902  0.1501
  891MPD2    N113068   4.123   2.191  16.538 -0.6194  0.3047  0.1135
  891MPD2    H713069   4.086   2.124  16.470 -0.3158  0.9937 -0.7330
  892MPD2     C13070   0.695   3.052  14.767  0.6002  0.5570 -0.1337
  892MPD2    C113071   0.629   3.135  14.677 -0.2221  1.0084 -0.4443
  892MPD2    C213072   0.671   3.116  14.542  0.8482 -0.4110  0.5328
  892MPD2    C313073   0.768   3.031  14.506 -0.5327 -1.1407 -0.5374
  892MPD2    C413074   0.828   2.954  14.596 -0.4617  0.0992 -0.1730
  892MPD2    C513075   0.791   2.966  14.730  0.2762 -0.4016  0.3916
  892MPD2     H13076   0.620   3.187  14.477 -0.5067 -0.2611  1.7403
  892MPD2    H113077   0.905   2.893  14.553 -0.0038  0.4456  0.1524
  892MPD2    H213078   0.663   3.048  14.871 -0.0513  0.4895 -0.3329
  892MPD2    H313079   0.834   2.893  14.798 -1.4636 -2.0025 -0.2379
  892MPD2     N13080   0.829   3.039  14.372  0.0738  0.4450  0.1401
  892MPD2    H513081   0.903   2.973  14.353 -0.6545 -0.7455  1.3842
  892MPD2    N113082   0.531   3.236  14.707  0.3787 -0.2797  0.3205
  892MPD2    H713083   0.479   3.279  14.631 -0.3418  2.0649  2.1287
  893MPD2     C13084   1.980   1.208   1.331  0.9404  0.1014  0.1286
  893MPD2    C113085   1.935   1.325   1.267 -0.0371 -0.3854 -0.0688
  893MPD2    C213086   1.798   1.347   1.271  0.2348 -0.2730  0.9435
  893MPD2    C313087   1.712   1.261   1.338 -0.1767 -0.0863 -0.3740
  893MPD2    C413088   1.766   1.138   1.367  0.0121  0.0233 -0.3609
  893MPD2    C513089   1.897   1.113   1.371 -0.3110 -0.3487  0.2485
  893MPD2     H13090   1.761   1.446   1.247 -0.4171 -1.1879 -1.7568
  893MPD2    H113091   1.705   1.057   1.406 -0.7672  0.6343 -0.3247
  893MPD2    H213092   2.086   1.190   1.313  1.0514  3.2677 -2.3991
  893MPD2    H313093   1.937   1.014   1.387 -0.0231 -0.7548 -2.9687
  893MPD2     N13094   1.576   1.286   1.361 -0.0039 -0.3340 -0.0790
  893MPD2    H513095   1.528   1.210   1.409  1.0203 -1.2147 -0.4410
  893MPD2    N113096   2.028   1.421   1.233 -0.2895 -0.0369 -0.3770
  893MPD2    H713097   2.124   1.409   1.264 -0.2582  0.7769 -0.1650
  894MPD2     C13098   0.575   4.284   0.899  0.1325  0.4941  0.3811
  894MPD2    C113099   0.613   4.346   1.015  0.5424 -0.6567  0.4228
  894MPD2    C213100   0.728   4.413   1.028  0.2384  0.1439 -0.8275
  894MPD2    C313101   0.803   4.436   0.917  0.3246  0.0349 -0.1542
  894MPD2    C413102   0.761   4.388   0.796 -0.6477  0.1953 -0.2156
  894MPD2    C513103   0.654   4.311   0.786  0.0206  0.1203 -0.0744
  894MPD2     H13104   0.753   4.464   1.121 -0.9844 -0.9807  0.1014
  894MPD2    H113105   0.817   4.407   0.706  1.3729  2.6180  1.5447
  894MPD2    H213106   0.492   4.214   0.897 -0.2102  0.9487 -1.2924
  894MPD2    H313107   0.625   4.267   0.691 -0.8175 -0.2119  0.3306
  894MPD2     N13108   0.928   4.511   0.933  0.1488 -0.4528 -0.0953
  894MPD2    H513109   0.949   4.537   1.029 -2.7135 -1.1528  0.7137
  894MPD2    N113110   0.535   4.319   1.132  0.3802 -0.2774  0.3945
  894MPD2    H713111   0.585   4.341   1.218 -1.7206 -0.1561  1.5783
  895MPD2     C13112   4.370   2.739  13.417  0.2880 -0.3909  0.5775
  895MPD2    C113113   4.317   2.646  13.334  0.4415 -0.3905  0.2006
  895MPD2    C213114   4.406   2.542  13.300  0.4385 -0.0007  0.3112
  895MPD2    C313115   4.540   2.533  13.334  0.1534  0.2836  0.0712
  895MPD2    C413116   4.589   2.631  13.425 -0.1614 -0.0507  0.0973
  895MPD2    C513117   4.501   2.730  13.467 -0.2599 -0.3499  0.2796
  895MPD2     H13118   4.366   2.477  13.223  3.7212 -2.2745  0.5177
  895MPD2    H113119   4.691   2.637  13.460  0.2180 -0.9394 -0.8346
  895MPD2    H213120   4.301   2.813  13.458 -0.0082  0.4594 -1.4720
  895MPD2    H313121   4.527   2.798  13.547  0.6276  1.2681 -1.3838
  895MPD2     N13122   4.621   2.436  13.269  0.5872 -0.6294 -0.1266
  895MPD2    H513123   4.569   2.378  13.204 -1.8458  0.8698  0.4661
  895MPD2    N113124   4.189   2.657  13.272 -0.0027  0.1180  0.0539
  895MPD2    H713125   4.163   2.585  13.205  0.8002  0.4460 -0.6087
  896MPD2     C13126   2.520   0.001   1.682  0.4438 -0.6524  0.0039
  896MPD2    C113127   2.500   0.009   1.543 -0.0118  0.4039  0.1155
  896MPD2    C213128   2.370   4.698   1.501  0.8462  0.1497 -0.0070
  896MPD2    C313129   2.265   4.691   1.592 -0.4140  0.2234 -0.0996
  896MPD2    C413130   2.291   4.684   1.727  0.2596  0.3260  0.1152
  896MPD2    C513131   2.422   4.692   1.768 -0.3339 -0.1368  0.2472
  896MPD2     H13132   2.349   4.704   1.394  1.3823  2.1013 -0.0067
  896MPD2    H113133   2.224   4.665   1.810  0.1894  2.3088  0.5110
  896MPD2    H213134   2.617   0.021   1.726 -0.5579  0.7490  1.5881
  896MPD2    H313135   2.450   4.674   1.872 -1.9733 -0.2659  0.6618
  896MPD2     N13136   2.134   4.675   1.535  0.0869  0.2171 -0.4295
  896MPD2    H513137   2.125   4.653   1.436 -0.2720 -2.0575  0.1244
  896MPD2    N113138   2.609   0.038   1.460 -0.3466 -0.3643  0.3340
  896MPD2    H713139   2.695   0.077   1.499 -0.5320  0.2688  0.1151
  897MPD2     C13140   3.108   1.645  10.131 -0.1288  0.5883 -0.1141
  897MPD2    C113141   3.107   1.777  10.176 -0.8676  0.0424 -0.2792
  897MPD2    C213142   3.002   1.829  10.248 -0.0812  0.1803 -0.9259
  897MPD2    C313143   2.907   1.744  10.306  0.9250  0.4173 -0.0373
  897MPD2    C413144   2.914   1.610  10.267  0.5391 -0.1747 -0.5440
  897MPD2    C513145   3.013   1.566  10.186 -0.1153  0.0592  0.4758
  897MPD2     H13146   3.003   1.927  10.294 -0.6100  0.4451 -1.4751
  897MPD2    H113147   2.843   1.533  10.296 -2.5605  2.4731 -1.0804
  897MPD2    H213148   3.178   1.597  10.064 -2.4907 -1.1431 -1.3538
  897MPD2    H313149   3.006   1.464  10.150  1.6912 -0.0891  0.5274
  897MPD2     N13150   2.822   1.791  10.406  0.2186 -0.2042  0.0409
  897MPD2    H513151   2.817   1.891  10.419  1.4628 -0.1373 -0.0226
  897MPD2    N113152   3.211   1.860  10.126  0.0766 -0.5159 -0.6286
  897MPD2    H713153   3.264   1.819  10.050  1.9882  1.1379 -0.1846
  898MPD2     C13154   0.923   2.733  17.208 -0.1364 -1.4162 -0.4387
  898MPD2    C113155   0.918   2.858  17.272  0.8138  0.0320  0.2962
  898MPD2    C213156   0.856   2.960  17.207  0.1293  0.0236  0.0349
  898MPD2    C313157   0.794   2.937  17.090  0.3601  0.4277  0.7229
  898MPD2    C413158   0.804   2.815  17.024  0.0761 -0.2827  0.7330
  898MPD2    C513159   0.878   2.720  17.078 -0.8215  0.4793  0.3564
  898MPD2     H13160   0.847   3.059  17.248  0.9689  0.0954  0.0415
  898MPD2    H113161   0.757   2.784  16.931 -1.1579  0.5058  1.0832
  898MPD2    H213162   0.986   2.656  17.251 -0.0664 -0.5603  0.9763
  898MPD2    H313163   0.893   2.622  17.034  0.1368  1.3559 -1.2736
  898MPD2     N13164   0.709   3.039  17.036 -0.1267 -0.6339  0.3525
  898MPD2    H513165   0.687   3.113  17.102  2.0281  1.0950 -0.8567
  898MPD2    N113166   0.976   2.885  17.398  0.5857 -0.2341  0.5458
  898MPD2    H713167   0.984   2.978  17.439  0.8659 -0.1556  0.3111
  899MPD2     C13168   0.907   3.269   0.130  0.2017 -0.1490 -0.1656
  899MPD2    C113169   1.010   3.344   0.177  0.0475  0.7776 -0.8303
  899MPD2    C213170   1.074   3.305   0.295 -0.3732 -0.3769  0.9223
  899MPD2    C313171   1.015   3.210   0.377 -0.3113  0.0138 -0.3888
  899MPD2    C413172   0.914   3.128   0.322  0.0437 -0.1712 -0.3900
  899MPD2    C513173   0.879   3.145   0.188 -0.3530  0.5977 -0.2934
  899MPD2     H13174   1.160   3.359   0.333 -0.8545  1.9429 -1.2421
  899MPD2    H113175   0.852   3.060   0.380 -0.4468 -2.1645 -3.2366
  899MPD2    H213176   0.849   3.305   0.045 -0.3810 -0.5044  0.0861
  899MPD2    H313177   0.794   3.093   0.144 -0.4039  1.3380 -1.0761
  899MPD2     N13178   1.049   3.193   0.517  0.2078  0.4469 -0.1354
  899MPD2    H513179   1.009   3.111   0.560  3.0503 -2.1433 -2.4914
  899MPD2    N113180   1.050   3.462   0.102 -0.4844  0.1069  0.1663
  899MPD2    H713181   0.984   3.484   0.029 -2.4990  0.5082  2.1129
  900MPD2     C13182   0.854   0.514  12.616  0.2362 -0.5491 -1.2065
  900MPD2    C113183   0.765   0.401  12.610 -0.0101 -0.1823  0.7863
  900MPD2    C213184   0.648   0.414  12.539  0.4347  0.4968 -0.8864
  900MPD2    C313185   0.625   0.535  12.475  0.3665 -0.6357  0.9478
  900MPD2    C413186   0.696   0.649  12.502  0.2451 -0.3499 -0.0871
  900MPD2    C513187   0.812   0.641  12.578  0.0585  0.1720  0.0806
  900MPD2     H13188   0.578   0.332  12.534  0.7874  0.1462 -0.0865
  900MPD2    H113189   0.667   0.748  12.469  0.7381  0.5054  2.0666
  900MPD2    H213190   0.957   0.502  12.646 -0.3266 -0.3044  0.8011
  900MPD2    H313191   0.869   0.733  12.578  0.0834  0.1674  2.1412
  900MPD2     N13192   0.515   0.526  12.392 -0.8908  0.2520  0.6252
  900MPD2    H513193   0.476   0.436  12.368  1.0320 -0.2237 -0.7490
  900MPD2    N113194   0.807   0.279  12.670  0.2570 -0.1169  0.1920
  900MPD2    H713195   0.890   0.276  12.729  0.2837  1.4861  0.2376
  901MPD2     C13196   0.595   4.009  13.055  0.5759 -0.0505  0.2911
  901MPD2    C113197   0.725   4.008  13.011 -0.2050  0.2382  0.3636
  901MPD2    C213198   0.778   4.124  12.959  0.2379 -0.3326  0.0205
  901MPD2    C313199   0.696   4.235  12.942  0.3330  0.0456 -0.0813
  901MPD2    C413200   0.575   4.243  13.000  0.8969 -0.3992  0.0460
  901MPD2    C513201   0.522   4.127  13.045 -0.5924 -0.3365  0.4089
  901MPD2     H13202   0.880   4.126  12.921  0.7499  0.2156  1.4090
  901MPD2    H113203   0.515   4.334  12.993  0.2002 -1.1201 -3.3245
  901MPD2    H213204   0.544   3.921  13.094  0.5580  0.0974  0.6011
  901MPD2    H313205   0.424   4.119  13.091 -1.9122  2.1870 -1.9884
  901MPD2     N13206   0.767   4.351  12.901 -0.1902  0.9221  0.1044
  901MPD2    H513207   0.862   4.341  12.867 -0.7800  0.2332 -1.3227
  901MPD2    N113208   0.809   3.903  13.038 -0.9487 -0.4616 -0.4405
  901MPD2    H713209   0.752   3.823  13.063 -0.3543 -0.8054 -0.1828
  902MPD2     C13210   4.429   2.930  13.123 -0.1344  0.2365 -0.2853
  902MPD2    C113211   4.361   2.920  13.003 -0.0921  0.1493 -0.4778
  902MPD2    C213212   4.415   2.834  12.908 -0.1036 -0.5065  0.5193
  902MPD2    C313213   4.540   2.770  12.925  0.2380 -0.6097 -0.5433
  902MPD2    C413214   4.595   2.769  13.051 -0.0786 -0.0295  0.5898
  902MPD2    C513215   4.545   2.857  13.142 -0.1480  0.0872 -0.1301
  902MPD2     H13216   4.362   2.807  12.817  1.7023 -0.2870 -0.6048
  902MPD2    H113217   4.686   2.716  13.076 -0.1467 -0.3743  0.1119
  902MPD2    H213218   4.410   3.006  13.198  1.2621 -0.4470  0.7642
  902MPD2    H313219   4.596   2.866  13.238 -0.5223  1.6276 -0.0759
  902MPD2     N13220   4.609   2.727  12.810  0.0066 -0.1826 -0.3439
  902MPD2    H513221   4.700   2.682  12.817 -0.0314 -0.0993  0.7523
  902MPD2    N113222   4.247   2.997  12.988 -0.3334  0.2484 -0.3388
  902MPD2    H713223   4.220   3.057  13.066 -1.1014 -1.4861  0.7198
  903MPD2     C13224   4.588   2.962  11.983  0.2446  0.1118  0.3416
  903MPD2    C113225   4.606   2.831  12.037  0.1568  0.3342  0.3816
  903MPD2    C213226   4.544   2.733  11.968  0.9556 -0.4305 -0.4141
  903MPD2    C313227   4.475   2.740  11.851 -0.0241 -0.1364  0.1059
  903MPD2    C413228   4.454   2.866  11.805 -0.1228  0.0580 -0.3387
  903MPD2    C513229   4.508   2.979  11.868  1.3622 -0.0616 -0.2441
  903MPD2     H13230   4.559   2.633  12.007  1.3516 -0.4230 -0.5423
  903MPD2    H113231   4.400   2.882  11.713 -0.5681 -3.3530 -0.6608
  903MPD2    H213232   4.637   3.051  12.020  0.6831 -0.0086  0.0496
  903MPD2    H313233   4.497   3.072  11.813 -0.4247  0.2088  0.5971
  903MPD2     N13234   4.407   2.631  11.800  0.1951 -0.7407 -0.3780
  903MPD2    H513235   4.420   2.550  11.861 -1.1422 -0.4435  0.3088
  903MPD2    N113236   4.674   2.797  12.158 -0.0476 -0.4811  0.2057
  903MPD2    H713237   4.708   2.702  12.169  2.2497  0.1635 -1.4453
  904MPD2     C13238   4.212   2.145  13.435 -0.0258  0.3162  0.1589
  904MPD2    C113239   4.188   2.087  13.558  0.1138  0.3067 -0.1061
  904MPD2    C213240   4.292   2.078  13.647  0.9120 -0.2946 -0.1246
  904MPD2    C313241   4.419   2.129  13.611  0.7747 -0.0631 -0.3722
  904MPD2    C413242   4.439   2.198  13.491 -0.5782  0.9747  0.4656
  904MPD2    C513243   4.335   2.200  13.402 -0.2172  0.7303 -0.9792
  904MPD2     H13244   4.285   2.024  13.740 -0.2190 -3.6332 -2.1532
  904MPD2    H113245   4.531   2.254  13.479  0.5816 -0.9181  0.3276
  904MPD2    H213246   4.133   2.139  13.362 -2.8587  1.3716  3.1609
  904MPD2    H313247   4.358   2.251  13.309 -3.3100 -1.2187 -2.8033
  904MPD2     N13248   4.525   2.081  13.697  0.6257  0.2664 -0.4356
  904MPD2    H513249   4.503   2.027  13.780  1.8324  1.1348  0.4508
  904MPD2    N113250   4.067   2.023  13.591  0.2772  0.2435 -0.2835
  904MPD2    H713251   4.070   1.943  13.654 -0.9385 -0.2144 -0.8034
  905MPD2     C13252   4.041   2.027  13.011 -0.3657 -0.2392  0.1105
  905MPD2    C113253   4.075   2.149  13.057 -0.0913  0.1590 -0.0385
  905MPD2    C213254   4.209   2.184  13.059 -0.7894  0.0812 -0.0643
  905MPD2    C313255   4.295   2.096  12.995 -0.6109  0.8779 -0.1746
  905MPD2    C413256   4.257   1.978  12.941  0.4097 -0.2236  0.1706
  905MPD2    C513257   4.124   1.943  12.949 -0.0270  0.8160 -0.8163
  905MPD2     H13258   4.242   2.281  13.094 -1.5793 -0.0843  1.1158
  905MPD2    H113259   4.329   1.912  12.894  0.9793  0.8568 -0.4436
  905MPD2    H213260   3.936   2.002  13.017 -0.1401 -1.1799  0.2085
  905MPD2    H313261   4.099   1.844  12.915 -2.9678  0.7658  1.5197
  905MPD2     N13262   4.432   2.109  12.977 -0.3078 -0.2073 -0.2235
  905MPD2    H513263   4.481   2.033  12.931  1.2237  2.0305 -2.3207
  905MPD2    N113264   3.967   2.221  13.121 -0.8355  0.2294 -0.1192
  905MPD2    H713265   3.877   2.178  13.136 -0.4412 -1.1579 -1.7694
  906MPD2     C13266   2.072   2.182  11.324 -0.1440  0.0374  1.0576
  906MPD2    C113267   2.053   2.097  11.220  0.0168 -0.3275 -0.1516
  906MPD2    C213268   2.093   1.967  11.235  0.7867  0.4541 -0.8695
  906MPD2    C313269   2.143   1.910  11.351 -0.0715 -0.1113 -0.8587
  906MPD2    C413270   2.153   2.002  11.459  0.1868 -0.3943  0.2996
  906MPD2    C513271   2.121   2.131  11.440 -0.9103 -0.6868 -0.1296
  906MPD2     H13272   2.088   1.905  11.146 -1.2810 -0.0025 -0.4543
  906MPD2    H113273   2.181   1.969  11.558  1.7001  1.0797  0.3648
  906MPD2    H213274   2.062   2.290  11.320  1.4246  0.1343 -0.5178
  906MPD2    H313275   2.124   2.193  11.529 -2.4301 -0.8624  0.0371
  906MPD2     N13276   2.159   1.769  11.370  0.0288  0.4087  0.3301
  906MPD2    H513277   2.173   1.734  11.464  0.2005  1.5384  0.7307
  906MPD2    N113278   1.996   2.136  11.091  1.3382 -0.4426 -0.0127
  906MPD2    H713279   1.970   2.062  11.026  0.8832 -0.7934  0.5816
  907MPD2     C13280   0.664   1.518  15.626 -0.0703 -0.1386  0.1040
  907MPD2    C113281   0.684   1.399  15.698  0.4381  0.0348 -0.1830
  907MPD2    C213282   0.768   1.404  15.803  0.1445  0.3712 -0.2055
  907MPD2    C313283   0.842   1.517  15.839 -0.2789  0.2734  0.2445
  907MPD2    C413284   0.819   1.638  15.775  0.7585  0.1844  0.7411
  907MPD2    C513285   0.735   1.632  15.665 -0.2129  0.2730 -0.2206
  907MPD2     H13286   0.800   1.311  15.848 -1.9889  0.5578  1.7473
  907MPD2    H113287   0.876   1.727  15.801  3.4237 -2.1158  2.7938
  907MPD2    H213288   0.591   1.521  15.546  0.1105  0.7163 -0.0349
  907MPD2    H313289   0.716   1.723  15.610 -0.4652  0.6293  0.4598
  907MPD2     N13290   0.923   1.512  15.952  0.3806 -0.1897  0.1828
  907MPD2    H513291   0.924   1.418  15.990  0.2664 -1.2781 -2.5034
  907MPD2    N113292   0.622   1.281  15.656  0.7494 -0.1074 -0.4116
  907MPD2    H713293   0.565   1.284  15.573  0.4841  1.8725 -0.1609
  908MPD2     C13294   3.399   1.755   9.382  0.6112 -0.1362  0.6181
  908MPD2    C113295   3.279   1.819   9.406 -0.7064  0.5369 -0.1792
  908MPD2    C213296   3.279   1.904   9.521 -0.2806  0.0832  0.4043
  908MPD2    C313297   3.390   1.929   9.603  0.3052 -0.2091 -0.5714
  908MPD2    C413298   3.506   1.865   9.568 -0.3842 -0.0235  0.3307
  908MPD2    C513299   3.507   1.776   9.462 -0.0839  0.7796 -0.1304
  908MPD2     H13300   3.186   1.959   9.536  1.7799  4.1040 -1.5444
  908MPD2    H113301   3.582   1.864   9.645 -0.1770 -2.3027  0.0827
  908MPD2    H213302   3.412   1.689   9.297 -0.5162  1.3056 -0.6779
  908MPD2    H313303   3.598   1.722   9.442  0.0915  0.9189  0.2858
  908MPD2     N13304   3.386   2.015   9.708  0.3768  0.0583 -0.0300
  908MPD2    H513305   3.291   2.044   9.732  0.7274  1.2027 -0.0303
  908MPD2    N113306   3.165   1.800   9.325 -0.0259 -0.7345  0.2597
  908MPD2    H713307   3.083   1.849   9.357 -0.5090 -0.5699 -1.2027
  909MPD2     C13308   3.707   4.569  11.715  0.0202  1.2907  0.1892
  909MPD2    C113309   3.653   4.694  11.679  0.0217 -0.3691  0.6640
  909MPD2    C213310   3.549   0.026  11.754 -0.0350  0.0210  0.5660
  909MPD2    C313311   3.498   4.680  11.867 -0.1412 -0.2326 -0.0036
  909MPD2    C413312   3.555   4.564  11.909 -0.0237  0.4251  0.4379
  909MPD2    C513313   3.656   4.512  11.833 -0.6171 -0.0441  0.1577
  909MPD2     H13314   3.511   0.122  11.720 -1.2249 -0.0936  1.5778
  909MPD2    H113315   3.534   4.516  12.004  1.6984  1.4086  1.3179
  909MPD2    H213316   3.775   4.510  11.655 -2.8341  1.1156 -2.8818
  909MPD2    H313317   3.710   4.424  11.868 -1.0675 -0.2344  0.3736
  909MPD2     N13318   3.382   0.011  11.934  0.6679  0.3141  0.1263
  909MPD2    H513319   3.346   0.099  11.898 -1.2596 -0.2135  0.7623
  909MPD2    N113320   3.697   0.056  11.570 -0.2148  0.2478  0.2545
  909MPD2    H713321   3.633   0.133  11.556  0.7471  0.1786 -4.3564
  910MPD2     C13322   4.296   1.772  15.560 -0.2244 -0.4590  0.3107
  910MPD2    C113323   4.420   1.725  15.527 -0.4055  0.1636  0.0961
  910MPD2    C213324   4.461   1.723  15.395 -0.7940 -0.0347  0.0878
  910MPD2    C313325   4.379   1.770  15.296 -0.2541  0.3287 -0.2243
  910MPD2    C413326   4.255   1.821  15.328  0.3311 -0.0043 -0.2436
  910MPD2    C513327   4.214   1.817  15.457  0.0936  0.4946 -0.1741
  910MPD2     H13328   4.559   1.683  15.373  0.0419  2.2368 -0.3744
  910MPD2    H113329   4.187   1.859  15.253  0.9216 -1.2807 -1.4045
  910MPD2    H213330   4.250   1.779  15.658 -2.1288  0.4475 -0.6578
  910MPD2    H313331   4.116   1.852  15.485 -0.4306  0.1948 -1.6618
  910MPD2     N13332   4.419   1.777  15.165 -0.1070 -0.3556 -0.6559
  910MPD2    H513333   4.354   1.805  15.092 -0.7941 -0.0838  0.0631
  910MPD2    N113334   4.512   1.677  15.626  0.2988 -0.8292 -0.0526
  910MPD2    H713335   4.598   1.627  15.605  1.1833  1.5159 -2.0215
  911MPD2     C13336   2.712   2.924  16.128 -0.2653  0.1543 -0.7639
  911MPD2    C113337   2.728   2.820  16.045  0.2259 -0.4550  0.8153
  911MPD2    C213338   2.661   2.810  15.926  0.0732  0.1198  0.6882
  911MPD2    C313339   2.570   2.908  15.886  0.9479  0.3616  0.5479
  911MPD2    C413340   2.559   3.017  15.970  0.1458 -0.1619  0.3467
  911MPD2    C513341   2.643   3.029  16.077  0.4628 -0.0453 -0.0557
  911MPD2     H13342   2.670   2.722  15.864  2.4916  2.3227 -2.0639
  911MPD2    H113343   2.514   3.108  15.933  2.1293 -0.6580 -3.2913
  911MPD2    H213344   2.775   2.941  16.215 -0.8757  1.1092 -0.5117
  911MPD2    H313345   2.656   3.121  16.132 -2.5806 -1.6516  3.3204
  911MPD2     N13346   2.497   2.911  15.761  0.2406 -0.5845  0.0292
  911MPD2    H513347   2.443   2.995  15.745 -1.7995 -1.5472  1.8581
  911MPD2    N113348   2.810   2.720  16.088 -0.4048  0.4959 -0.0860
  911MPD2    H713349   2.845   2.722  16.183 -0.0868 -0.7348 -0.1754
  912MPD2     C13350   1.917   2.322  15.380  0.1433 -0.8368 -0.8296
  912MPD2    C113351   1.993   2.389  15.469  0.3202  0.5813  0.5378
  912MPD2    C213352   1.992   2.331  15.603 -0.7406  0.0955  1.1932
  912MPD2    C313353   1.920   2.223  15.641 -0.3409  0.2694 -0.3801
  912MPD2    C413354   1.840   2.161  15.549 -0.8487 -0.3418 -0.2567
  912MPD2    C513355   1.840   2.212  15.417  0.0564  0.0780 -0.3213
  912MPD2     H13356   2.052   2.380  15.679  2.0445  1.1624 -1.6794
  912MPD2    H113357   1.770   2.085  15.581 -1.1820  0.2435  0.3927
  912MPD2    H213358   1.910   2.361  15.279  0.2924  0.7512 -0.2302
  912MPD2    H313359   1.772   2.155  15.355 -1.2067 -0.5066  1.5968
  912MPD2     N13360   1.945   2.174  15.770  0.1127 -0.0392  0.6154
  912MPD2    H513361   1.996   2.242  15.826 -0.9307  1.5537 -0.3447
  912MPD2    N113362   2.070   2.504  15.435 -0.2390  0.3219 -0.4475
  912MPD2    H713363   2.074   2.534  15.338 -1.4310  1.3300 -0.1838
  913MPD2     C13364   3.538   3.048  11.030 -0.4100 -0.2761  0.2869
  913MPD2    C113365   3.508   3.186  11.023 -0.1810  0.6348  0.1335
  913MPD2    C213366   3.481   3.238  10.899 -0.1377  0.5342 -0.4281
  913MPD2    C313367   3.462   3.156  10.789  0.2973 -0.2926 -0.2312
  913MPD2    C413368   3.481   3.021  10.793 -0.9706 -0.4587 -0.3686
  913MPD2    C513369   3.531   2.967  10.916 -0.3424  0.2835  0.9034
  913MPD2     H13370   3.490   3.345  10.893 -2.1052  0.6552 -1.3751
  913MPD2    H113371   3.472   2.957  10.707  0.9004 -1.2686  0.0210
  913MPD2    H213372   3.574   3.000  11.120 -0.2021 -0.9261 -0.1387
  913MPD2    H313373   3.545   2.860  10.923 -1.0720  0.2079  1.1811
  913MPD2     N13374   3.423   3.205  10.666  0.1709 -0.4326 -0.0357
  913MPD2    H513375   3.401   3.129  10.602  0.6996 -1.4989  1.0339
  913MPD2    N113376   3.524   3.271  11.133 -0.4642  0.2272 -0.5578
  913MPD2    H713377   3.564   3.224  11.214 -1.9440 -0.3080 -0.1463
  914MPD2     C13378   0.776   3.429  12.370  0.6130  1.1037 -0.5809
  914MPD2    C113379   0.701   3.512  12.446 -0.4425 -0.4027  0.0268
  914MPD2    C213380   0.731   3.534  12.572  0.7678  0.3962 -0.5358
  914MPD2    C313381   0.840   3.478  12.633  0.6302  0.2910  0.7462
  914MPD2    C413382   0.910   3.385  12.558  0.4510 -1.0722 -0.5774
  914MPD2    C513383   0.880   3.360  12.429  0.1297 -0.0641 -0.3103
  914MPD2     H13384   0.669   3.600  12.633  0.2067 -0.2107 -0.4524
  914MPD2    H113385   0.997   3.328  12.590 -0.3556 -1.5283  0.7772
  914MPD2    H213386   0.753   3.410  12.265 -1.1934 -0.2515  0.0606
  914MPD2    H313387   0.950   3.302  12.371  0.7874  1.4582 -1.0545
  914MPD2     N13388   0.874   3.521  12.756  0.0711 -0.4343 -0.1104
  914MPD2    H513389   0.813   3.591  12.799 -1.1842 -0.5773 -1.6768
  914MPD2    N113390   0.598   3.583  12.375  0.4925 -0.5578 -0.0025
  914MPD2    H713391   0.589   3.559  12.277  0.1282  0.7451 -0.2900
  915MPD2     C13392   4.168   3.682  15.582 -0.1988 -0.8233 -0.5059
  915MPD2    C113393   4.047   3.714  15.526 -0.1813  0.1828 -0.6116
  915MPD2    C213394   3.968   3.805  15.591 -0.6541  0.2462 -0.0869
  915MPD2    C313395   3.994   3.856  15.719  0.2585  1.1033  0.0337
  915MPD2    C413396   4.112   3.819  15.771  0.4837 -0.7359  0.0770
  915MPD2    C513397   4.197   3.738  15.702 -0.1131  0.3334 -0.2409
  915MPD2     H13398   3.870   3.824  15.549 -1.0217 -0.3861  0.4887
  915MPD2    H113399   4.136   3.838  15.876 -0.6876  0.2559  0.1595
  915MPD2    H213400   4.237   3.613  15.534  0.1058 -0.7174 -0.2171
  915MPD2    H313401   4.283   3.701  15.756  0.1163  0.6864 -0.3693
  915MPD2     N13402   3.894   3.913  15.794 -0.0797  0.0327 -0.0440
  915MPD2    H513403   3.806   3.909  15.743  0.3477 -0.4364 -0.7459
  915MPD2    N113404   3.999   3.655  15.408  0.2722 -0.2737 -0.2748
  915MPD2    H713405   3.915   3.691  15.364  0.4590 -1.0425 -1.2754
  916MPD2     C13406   1.407   1.815  15.502  0.1535  0.3133 -0.6013
  916MPD2    C113407   1.487   1.750  15.593 -0.0610  0.2672 -0.0148
  916MPD2    C213408   1.545   1.640  15.549 -0.0435  0.0666  0.5888
  916MPD2    C313409   1.524   1.584  15.425 -1.0050  0.9005  0.3861
  916MPD2    C413410   1.429   1.638  15.340 -0.1479 -0.4695 -0.3395
  916MPD2    C513411   1.370   1.759  15.379 -0.1485 -0.0040  0.0992
  916MPD2     H13412   1.611   1.582  15.612 -2.2918 -1.7429  1.2553
  916MPD2    H113413   1.390   1.588  15.252 -2.6225 -0.1041  0.5520
  916MPD2    H213414   1.354   1.904  15.533  0.2414 -0.3343  1.3584
  916MPD2    H313415   1.286   1.804  15.327 -0.6715  0.2901  1.2052
  916MPD2     N13416   1.593   1.460  15.395 -0.1024 -0.0794  0.3930
  916MPD2    H513417   1.646   1.419  15.472 -1.6172 -0.2659  1.3406
  916MPD2    N113418   1.510   1.801  15.723 -1.2053  0.0936  0.0370
  916MPD2    H713419   1.463   1.891  15.734 -0.9024  0.2639 -0.0570
  917MPD2     C13420   1.889   4.553  11.354  0.1163  0.0988 -0.9984
  917MPD2    C113421   1.974   4.491  11.448  0.3198  0.0402  0.4366
  917MPD2    C213422   2.105   4.545  11.466  0.3193  0.5660  0.5554
  917MPD2    C313423   2.151   4.657  11.396  1.4064  0.6489 -0.5892
  917MPD2    C413424   2.060   0.006  11.318 -0.1035 -0.6343 -0.5433
  917MPD2    C513425   1.935   4.671  11.302 -0.4296 -0.2027 -0.1829
  917MPD2     H13426   2.174   4.501  11.537  1.4329  1.9360  0.3218
  917MPD2    H113427   2.090   0.101  11.275  1.7215 -0.9443  0.0740
  917MPD2    H213428   1.793   4.511  11.330 -0.0267 -0.5944  0.8043
  917MPD2    H313429   1.867   0.007  11.239 -1.3373 -2.0766 -0.9006
  917MPD2     N13430   2.277   4.717  11.408 -0.2702  0.8802  0.1693
  917MPD2    H513431   2.281   0.080  11.350 -1.4889  2.3800  2.2700
  917MPD2    N113432   1.917   4.387  11.530  0.0409  0.2796 -0.8277
  917MPD2    H713433   1.824   4.354  11.505 -0.6808  0.7926  1.1815
  918MPD2     C13434   2.268   4.268  12.472  0.0018  0.2825 -0.0203
  918MPD2    C113435   2.324   4.319  12.356 -0.3591 -0.4346 -0.3308
  918MPD2    C213436   2.256   4.305  12.233  0.1318  0.1061  0.2448
  918MPD2    C313437   2.140   4.234  12.225 -0.4923 -0.5700  0.5843
  918MPD2    C413438   2.093   4.179  12.342  0.0272  0.2295  0.0189
  918MPD2    C513439   2.143   4.204  12.466 -0.2332  0.1776  0.3898
  918MPD2     H13440   2.304   4.348  12.146 -0.3457  0.1217 -0.0146
  918MPD2    H113441   2.006   4.114  12.336  0.6050 -0.5832  0.4419
  918MPD2    H213442   2.312   4.272  12.571  1.0137 -0.4158 -0.4405
  918MPD2    H313443   2.100   4.169  12.559  0.3861 -1.3423  0.0941
  918MPD2     N13444   2.075   4.217  12.099  0.1708 -0.0823  0.3130
  918MPD2    H513445   2.104   4.283  12.028 -0.3274 -2.3979 -2.0901
  918MPD2    N113446   2.446   4.388  12.354  0.3590 -0.5691 -0.5046
  918MPD2    H713447   2.496   4.386  12.266  0.2598 -3.5700 -0.5033
  919MPD2     C13448   3.020   3.567  11.585 -0.2968 -0.1184 -0.0439
  919MPD2    C113449   3.059   3.443  11.554 -0.2337 -0.5412 -0.6287
  919MPD2    C213450   3.113   3.410  11.430 -0.0328  0.1390  0.1872
  919MPD2    C313451   3.116   3.506  11.329 -0.2409 -0.0835 -0.2436
  919MPD2    C413452   3.075   3.633  11.360  1.2764 -0.1100 -0.0611
  919MPD2    C513453   3.038   3.663  11.491 -0.4969 -0.7891 -0.7274
  919MPD2     H13454   3.147   3.309  11.413  1.7925  0.8254 -0.3517
  919MPD2    H113455   3.075   3.702  11.277  1.5575 -0.5361 -0.4171
  919MPD2    H213456   2.968   3.597  11.675 -0.5932  0.6918 -0.4951
  919MPD2    H313457   2.985   3.756  11.507 -2.5864 -1.8033 -1.7578
  919MPD2     N13458   3.141   3.466  11.192 -0.1063  0.2574  0.0076
  919MPD2    H513459   3.124   3.532  11.117  3.0136 -0.0925 -0.9823
  919MPD2    N113460   3.040   3.336  11.647  0.0835  0.0177 -0.0532
  919MPD2    H713461   3.052   3.244  11.606 -0.3148  0.2769 -0.7579
  920MPD2     C13462   2.980   3.789  10.268  0.3143  0.1609 -0.2846
  920MPD2    C113463   2.908   3.671  10.273  0.0312  0.1528  0.1230
  920MPD2    C213464   2.919   3.592  10.386  0.3614  0.0169 -0.3288
  920MPD2    C313465   2.994   3.632  10.497 -0.2739  0.6898  0.2795
  920MPD2    C413466   3.078   3.747  10.485 -0.0909 -0.0076  0.2695
  920MPD2    C513467   3.072   3.817  10.362  0.3583 -0.9417 -0.0687
  920MPD2     H13468   2.877   3.493  10.376  2.0096 -0.7519  0.2985
  920MPD2    H113469   3.153   3.770  10.560  1.0600  1.5701 -1.3612
  920MPD2    H213470   2.979   3.860  10.186 -0.0950 -2.4787 -2.5598
  920MPD2    H313471   3.135   3.905  10.357  0.7387 -1.1650  0.7397
  920MPD2     N13472   3.002   3.546  10.608 -0.2180 -0.1707 -0.0405
  920MPD2    H513473   2.931   3.473  10.612 -0.3233  0.0094  1.4714
  920MPD2    N113474   2.835   3.619  10.166 -0.2627  0.5505 -0.3457
  920MPD2    H713475   2.791   3.528  10.170  1.6176 -0.2464  1.8236
  921MPD2     C13476   3.533   2.698  16.578 -0.1960  0.1595  0.7151
  921MPD2    C113477   3.497   2.561  16.588  0.1512  0.0319 -0.1270
  921MPD2    C213478   3.373   2.535  16.525 -0.0576 -0.4031  0.4666
  921MPD2    C313479   3.285   2.626  16.477  0.0164  0.7979  0.5315
  921MPD2    C413480   3.320   2.758  16.487 -0.2706  0.9184 -0.5849
  921MPD2    C513481   3.445   2.788  16.528 -0.2455  0.2000  0.7623
  921MPD2     H13482   3.357   2.430  16.505 -1.1849 -0.2868  0.7281
  921MPD2    H113483   3.255   2.840  16.459  0.8076  2.4008  1.2838
  921MPD2    H213484   3.626   2.740  16.617  1.4315 -1.3430 -1.6095
  921MPD2    H313485   3.469   2.893  16.540  0.1756  0.2743 -0.6832
  921MPD2     N13486   3.163   2.593  16.402 -0.7573 -0.5772  0.3820
  921MPD2    H513487   3.105   2.668  16.367  0.0516  0.2469  0.7937
  921MPD2    N113488   3.595   2.472  16.641 -0.4404 -1.0785 -0.5087
  921MPD2    H713489   3.685   2.505  16.675 -1.5671  2.1737 -0.6520
  922MPD2     C13490   4.629   0.297  17.041 -0.0943 -0.2392  0.7376
  922MPD2    C113491   4.717   0.341  17.139 -0.0657 -0.3912  0.9291
  922MPD2    C213492   0.004   0.271  17.256  0.6116  0.6192  0.1349
  922MPD2    C313493   4.641   0.157  17.274  0.4623 -0.4325 -0.0426
  922MPD2    C413494   4.563   0.111  17.168  0.1252 -0.0921 -0.3890
  922MPD2    C513495   4.556   0.184  17.054  0.1520  0.7400  0.0575
  922MPD2     H13496   0.078   0.308  17.326  0.9296  1.0308 -0.4158
  922MPD2    H113497   4.497   0.027  17.184 -0.3060  0.2963 -0.1076
  922MPD2    H213498   4.612   0.354  16.950 -0.8294 -1.0192  0.3869
  922MPD2    H313499   4.495   0.155  16.969 -1.0038 -0.4779  1.3096
  922MPD2     N13500   4.631   0.096  17.400  0.3193 -0.1501 -0.2743
  922MPD2    H513501   4.551   0.035  17.415  1.5189 -1.6287  0.0750
  922MPD2    N113502   0.089   0.441  17.116  0.3948 -0.2250 -0.4280
  922MPD2    H713503   0.174   0.449  17.172  0.1042 -2.8133  0.3899
  923MPD2     C13504   0.852   1.502   9.179 -0.0241 -0.0711  0.1680
  923MPD2    C113505   0.869   1.617   9.255  0.8211  0.3634 -0.6209
  923MPD2    C213506   0.989   1.628   9.321  0.7329 -0.1525  0.2334
  923MPD2    C313507   1.091   1.543   9.295  0.1856  0.1202  0.2168
  923MPD2    C413508   1.078   1.437   9.214  0.1708 -0.1087  0.3387
  923MPD2    C513509   0.958   1.421   9.154 -0.9551 -0.0661 -0.2494
  923MPD2     H13510   1.004   1.711   9.388 -0.6219 -1.9055  2.6983
  923MPD2    H113511   1.160   1.368   9.196  2.0209  1.9089  0.9259
  923MPD2    H213512   0.762   1.488   9.120  1.7046  0.8859 -2.7251
  923MPD2    H313513   0.937   1.345   9.080 -1.1312 -0.6344  0.3898
  923MPD2     N13514   1.220   1.553   9.351  0.0169  0.4395 -0.3552
  923MPD2    H513515   1.286   1.486   9.313  0.4839 -0.6250  2.4049
  923MPD2    N113516   0.754   1.702   9.263 -0.0477 -0.0504  0.5414
  923MPD2    H713517   0.675   1.697   9.199  0.0354 -0.1818  0.4477
  924MPD2     C13518   1.089   0.818  16.040  0.0683  0.0351  0.0851
  924MPD2    C113519   1.054   0.859  16.167  0.3713  0.3299 -0.5517
  924MPD2    C213520   1.083   0.990  16.213  0.2518  0.6715  0.0334
  924MPD2    C313521   1.165   1.071  16.135 -0.6202  0.0789 -0.4847
  924MPD2    C413522   1.198   1.028  16.008  0.1768  0.4242  0.1358
  924MPD2    C513523   1.168   0.901  15.964 -0.3020 -0.8318  0.9849
  924MPD2     H13524   1.066   1.016  16.316 -0.7347 -0.7750  0.2306
  924MPD2    H113525   1.260   1.085  15.940 -0.1113  0.9795  0.3393
  924MPD2    H213526   1.060   0.724  15.994  1.2074 -0.5356  0.5580
  924MPD2    H313527   1.209   0.875  15.867 -1.1592 -0.2860  0.4781
  924MPD2     N13528   1.197   1.199  16.165 -0.4814 -0.4111 -0.4842
  924MPD2    H513529   1.243   1.250  16.091 -2.0506  1.7411  0.0314
  924MPD2    N113530   0.949   0.784  16.222 -0.0042  0.6435  0.6696
  924MPD2    H713531   0.900   0.723  16.157  2.0877 -1.8040  1.3795
  925MPD2     C13532   4.705   2.683  14.604  0.0291 -0.7613 -0.0250
  925MPD2    C113533   4.602   2.776  14.615 -0.3356  0.2448 -0.6706
  925MPD2    C213534   4.534   2.797  14.736 -0.0944 -0.2085 -0.1766
  925MPD2    C313535   4.556   2.706  14.840  0.0127  0.1093 -0.0613
  925MPD2    C413536   4.647   2.606  14.827 -0.8707  0.0397 -0.1563
  925MPD2    C513537   4.718   2.594  14.706 -0.0470 -0.2964 -0.5849
  925MPD2     H13538   4.456   2.871  14.727 -0.0253  0.0477  1.3724
  925MPD2    H113539   4.676   2.546  14.912 -1.5233  1.0228  0.7534
  925MPD2    H213540   0.042   2.666  14.514  0.3539  1.9630 -0.3474
  925MPD2    H313541   0.064   2.508  14.699  2.0222  1.3171 -0.7838
  925MPD2     N13542   4.470   2.706  14.955 -0.3224 -0.3483 -0.0285
  925MPD2    H513543   4.471   2.620  15.010  3.0446 -0.0100  0.4088
  925MPD2    N113544   4.575   2.859  14.508  0.2750  0.2287  0.4196
  925MPD2    H713545   4.492   2.917  14.514 -0.2062 -0.3095 -1.2014
  926MPD2     C13546   2.800   1.065  12.963  0.1950  0.6851 -0.0174
  926MPD2    C113547   2.826   1.191  13.017 -0.2902  0.1241 -0.3590
  926MPD2    C213548   2.920   1.265  12.953 -0.3390  0.4334 -0.3533
  926MPD2    C313549   2.979   1.226  12.836  0.4199  1.0234 -0.3796
  926MPD2    C413550   2.929   1.108  12.782 -0.2928 -0.1874  0.6479
  926MPD2    C513551   2.843   1.030  12.842  0.1292  0.7532 -0.3064
  926MPD2     H13552   2.943   1.367  12.984 -1.2601  0.1789  1.1392
  926MPD2    H113553   2.972   1.068  12.690 -0.5343 -1.8134  1.2429
  926MPD2    H213554   2.730   1.003  13.017  1.1970 -1.2556 -0.9723
  926MPD2    H313555   2.815   0.931  12.807  2.1619  0.4557 -1.0561
  926MPD2     N13556   3.067   1.307  12.757 -0.4524 -0.4586  0.2420
  926MPD2    H513557   3.068   1.285  12.658  1.8504 -1.7747  0.5371
  926MPD2    N113558   2.769   1.251  13.130 -0.1361  0.6587  0.6632
  926MPD2    H713559   2.789   1.346  13.160  1.0844  0.8101 -0.5851
  927MPD2     C13560   3.719   3.810   0.624  1.5949  0.6314 -0.5040
  927MPD2    C113561   3.607   3.893   0.631 -0.1161 -0.5433  0.1192
  927MPD2    C213562   3.492   3.834   0.585  0.2385  0.2165  0.6471
  927MPD2    C313563   3.474   3.700   0.556  0.3466  0.1365 -0.6284
  927MPD2    C413564   3.587   3.626   0.553 -0.6221  0.3257 -0.4561
  927MPD2    C513565   3.708   3.683   0.582  0.2528 -0.2316 -0.0881
  927MPD2     H13566   3.402   3.893   0.592 -1.7136 -2.3413 -3.1166
  927MPD2    H113567   3.586   3.520   0.533 -2.9989  1.2810 -5.5482
  927MPD2    H213568   3.815   3.846   0.659  0.8495  2.8028 -0.6481
  927MPD2    H313569   3.799   3.623   0.581  0.4464  0.0532  0.5627
  927MPD2     N13570   3.348   3.644   0.525  0.6828 -0.0691  0.1142
  927MPD2    H513571   3.270   3.709   0.521  0.3289 -0.7525 -3.6702
  927MPD2    N113572   3.603   4.028   0.672 -0.1848  0.0069  0.5142
  927MPD2    H713573   3.510   4.070   0.673  0.4247  1.3634 -0.2089
  928MPD2     C13574   1.368   2.052   0.847 -0.3776  0.3690  0.6246
  928MPD2    C113575   1.327   2.177   0.887  0.3706  0.8472 -1.0478
  928MPD2    C213576   1.374   2.292   0.816 -0.3054 -0.3182 -0.9426
  928MPD2    C313577   1.455   2.271   0.701  0.3607  0.6802 -0.0797
  928MPD2    C413578   1.487   2.145   0.669  0.3420 -0.6480  0.4585
  928MPD2    C513579   1.447   2.038   0.742  0.1565 -0.2926 -0.0179
  928MPD2     H13580   1.336   2.389   0.845  0.9330 -0.0924 -0.0653
  928MPD2    H113581   1.554   2.118   0.589 -0.3931  0.5873 -0.5656
  928MPD2    H213582   1.329   1.958   0.881  1.1261 -0.4188  0.1859
  928MPD2    H313583   1.482   1.940   0.711  0.8156  0.2224 -0.9374
  928MPD2     N13584   1.486   2.377   0.615 -0.0598  0.1477  0.2114
  928MPD2    H513585   1.526   2.354   0.524 -1.5690 -0.3962 -0.3133
  928MPD2    N113586   1.240   2.189   0.999  0.5124 -0.3908 -0.5737
  928MPD2    H713587   1.233   2.104   1.054 -0.3370 -0.7408 -1.2218
  929MPD2     C13588   1.570   2.187  10.554  0.2751  0.3945 -0.5752
  929MPD2    C113589   1.530   2.053  10.548 -0.4542  0.0512 -0.0632
  929MPD2    C213590   1.437   2.018  10.458  0.0718 -0.0911 -0.2186
  929MPD2    C313591   1.370   2.119  10.386 -0.2671 -0.0660 -0.2476
  929MPD2    C413592   1.415   2.249  10.396 -0.2106  0.0829  0.3170
  929MPD2    C513593   1.511   2.286  10.486  0.0237 -0.2821  0.3514
  929MPD2     H13594   1.387   1.922  10.469  0.0336  0.0152  0.5578
  929MPD2    H113595   1.368   2.327  10.336 -0.0663  2.6871  3.5918
  929MPD2    H213596   1.657   2.219  10.610 -0.3729 -0.4528  0.9103
  929MPD2    H313597   1.529   2.392  10.500  0.5229 -0.4214  0.7691
  929MPD2     N13598   1.251   2.103  10.316 -0.1384 -0.5995 -0.0376
  929MPD2    H513599   1.217   2.194  10.285 -0.6840 -0.4768  0.9113
  929MPD2    N113600   1.586   1.963  10.638  0.2099  0.3751 -0.1810
  929MPD2    H713601   1.648   2.003  10.708 -0.6374 -0.8132  1.2583
  930MPD2     C13602   2.685   4.107  14.263 -0.8580 -0.0719  0.6086
  930MPD2    C113603   2.710   4.211  14.171 -0.7221 -0.6702 -0.5544
  930MPD2    C213604   2.649   4.215  14.042 -0.3037 -0.8825 -0.5387
  930MPD2    C313605   2.567   4.111  14.001 -0.1907  0.2640 -0.4322
  930MPD2    C413606   2.548   4.005  14.087  0.2390 -0.0675  0.0448
  930MPD2    C513607   2.606   4.003  14.212  0.1612  0.0209  0.1326
  930MPD2     H13608   2.681   4.285  13.966 -1.3209  0.4684  0.2757
  930MPD2    H113609   2.508   3.911  14.051  0.1803  0.4724 -1.3156
  930MPD2    H213610   2.749   4.087  14.347 -0.6974 -3.2495 -0.2726
  930MPD2    H313611   2.607   3.911  14.269 -0.4029 -0.6320 -0.9133
  930MPD2     N13612   2.514   4.099  13.870 -0.3395 -0.0989 -0.3188
  930MPD2    H513613   2.487   4.006  13.839 -0.7383 -0.1842  0.2904
  930MPD2    N113614   2.804   4.311  14.209 -0.2111 -0.4856 -0.0980
  930MPD2    H713615   2.847   4.293  14.299 -3.6936 -0.4186  1.5435
  931MPD2     C13616   3.983   4.181   1.312  0.0576 -0.7435 -0.3964
  931MPD2    C113617   3.854   4.201   1.262 -0.7232 -0.3332  0.5103
  931MPD2    C213618   3.746   4.142   1.323 -0.0237  0.5248  0.3768
  931MPD2    C313619   3.762   4.053   1.431 -0.8695  0.2530  0.4374
  931MPD2    C413620   3.888   4.035   1.481 -0.2001 -0.0907  0.0661
  931MPD2    C513621   3.996   4.107   1.432  0.1238  0.0014  0.2187
  931MPD2     H13622   3.652   4.148   1.269 -0.0791  0.7275  0.4973
  931MPD2    H113623   3.900   3.969   1.566 -0.8494  1.1158  1.0924
  931MPD2    H213624   4.066   4.234   1.268 -0.1866 -0.9051 -1.0530
  931MPD2    H313625   4.093   4.102   1.480 -0.7787  1.3514  2.1600
  931MPD2     N13626   3.666   3.963   1.465  0.3334 -0.3672 -0.0169
  931MPD2    H513627   3.696   3.869   1.486 -0.4599 -0.8337 -0.9949
  931MPD2    N113628   3.832   4.280   1.143  0.5172  0.3346 -0.2058
  931MPD2    H713629   3.909   4.272   1.077 -0.8194 -0.6522 -1.6769
  932MPD2     C13630   0.174   2.291  10.912 -0.0948  0.3166 -0.1416
  932MPD2    C113631   0.186   2.402  11.005 -0.1293  0.2609  0.7418
  932MPD2    C213632   0.203   2.364  11.137 -0.8834 -1.0122  0.3968
  932MPD2    C313633   0.206   2.234  11.176  0.2261 -0.6410  0.2197
  932MPD2    C413634   0.185   2.134  11.086  0.4812  0.4615  0.4384
  932MPD2    C513635   0.168   2.162  10.953  0.2779 -0.1084  0.0859
  932MPD2     H13636   0.227   2.451  11.197 -0.8155 -0.1092 -0.9244
  932MPD2    H113637   0.174   2.031  11.118  4.4349 -0.3215 -0.8009
  932MPD2    H213638   0.170   2.303  10.804 -0.6976  2.0035  0.0609
  932MPD2    H313639   0.144   2.090  10.876  2.2312 -1.3210  0.6049
  932MPD2     N13640   0.242   2.193  11.305  0.0020 -0.0331  0.1829
  932MPD2    H513641   0.220   2.096  11.326 -0.2600  0.0043  0.0806
  932MPD2    N113642   0.176   2.537  10.962  0.1017 -0.3520  0.2924
  932MPD2    H713643   0.176   2.611  11.032 -0.7404 -0.6291  0.5754
  933MPD2     C13644   0.458   2.335   1.461  0.5040 -0.6064  0.8876
  933MPD2    C113645   0.578   2.402   1.434 -0.5573  0.6085 -0.1957
  933MPD2    C213646   0.573   2.538   1.451 -0.4472 -0.4755  0.1150
  933MPD2    C313647   0.454   2.610   1.495  0.3017  0.0510 -0.4261
  933MPD2    C413648   0.344   2.539   1.527  0.0276 -0.0267  0.4035
  933MPD2    C513649   0.348   2.404   1.500  0.0932  0.7086  0.1338
  933MPD2     H13650   0.661   2.595   1.424 -0.5605 -1.4688 -2.4178
  933MPD2    H113651   0.261   2.578   1.585  0.3352  1.0260  0.1324
  933MPD2    H213652   0.449   2.227   1.451  2.2070 -0.7085  0.4448
  933MPD2    H313653   0.257   2.355   1.533 -0.8082  1.3317 -1.4449
  933MPD2     N13654   0.467   2.748   1.521 -0.3056  0.7769 -0.0520
  933MPD2    H513655   0.556   2.791   1.499 -0.7142  2.6714  1.9478
  933MPD2    N113656   0.683   2.333   1.373 -0.1862 -0.0144  0.2207
  933MPD2    H713657   0.681   2.232   1.381  0.1351  0.0256  0.7956
  934MPD2     C13658   1.833   4.082   2.270 -0.2569  0.9522  0.0492
  934MPD2    C113659   1.935   4.140   2.201 -0.2961  0.1516 -0.4339
  934MPD2    C213660   1.933   4.147   2.067 -0.2790  0.0160 -0.0727
  934MPD2    C313661   1.834   4.092   1.993 -0.1278  0.5254 -0.6894
  934MPD2    C413662   1.730   4.034   2.063 -0.2946  0.0498  0.6773
  934MPD2    C513663   1.729   4.026   2.203  0.3917 -0.1949 -0.0781
  934MPD2     H13664   2.013   4.198   2.016 -0.4008 -0.4682 -0.7540
  934MPD2    H113665   1.649   3.984   2.012  2.2456 -0.9148 -2.4162
  934MPD2    H213666   1.824   4.084   2.378  1.5468 -2.5935  0.2523
  934MPD2    H313667   1.651   3.976   2.258  0.9246  0.5098  1.3183
  934MPD2     N13668   1.838   4.094   1.850  0.0504  0.4561  0.1991
  934MPD2    H513669   1.753   4.084   1.796 -1.1636  1.8587  1.8763
  934MPD2    N113670   2.043   4.204   2.270  0.2893  0.5170  0.3484
  934MPD2    H713671   2.106   4.259   2.213 -1.5276  1.7374 -0.4732
  935MPD2     C13672   2.441   3.765   1.109 -0.0085 -0.5015 -0.2211
  935MPD2    C113673   2.309   3.767   1.065 -0.1889 -0.8040 -0.6957
  935MPD2    C213674   2.216   3.822   1.146 -0.0643 -0.2019 -0.0142
  935MPD2    C313675   2.253   3.902   1.252 -0.4421  0.0013 -0.9074
  935MPD2    C413676   2.385   3.905   1.286 -0.3493 -0.4285  0.1037
  935MPD2    C513677   2.484   3.842   1.213 -0.2525 -0.5877  0.3996
  935MPD2     H13678   2.110   3.821   1.123 -0.2103 -3.7985  0.8002
  935MPD2    H113679   2.422   3.969   1.365 -1.7996 -1.4438  1.5986
  935MPD2    H213680   2.510   3.705   1.051  1.3415  0.6633  0.1922
  935MPD2    H313681   2.582   3.829   1.256  0.6666 -1.3358 -1.9276
  935MPD2     N13682   2.162   3.978   1.338 -0.0838 -0.2446 -0.1219
  935MPD2    H513683   2.202   4.041   1.406 -0.7028 -0.6788  0.6406
  935MPD2    N113684   2.267   3.699   0.945 -0.1001  0.1756  0.8159
  935MPD2    H713685   2.175   3.728   0.914  0.3081  0.5777 -0.0168
  936MPD2     C13686   0.300   1.764  12.360 -0.4067  0.2862 -0.6683
  936MPD2    C113687   0.348   1.682  12.461 -0.1618 -0.2094 -0.3203
  936MPD2    C213688   0.480   1.635  12.445 -0.5175  0.5061 -0.5573
  936MPD2    C313689   0.568   1.688  12.344  0.0555 -0.1032  0.8263
  936MPD2    C413690   0.515   1.774  12.249 -0.3832  0.7323 -0.0804
  936MPD2    C513691   0.381   1.809  12.259  0.4034 -0.0559  0.3818
  936MPD2     H13692   0.509   1.570  12.527 -0.3845 -0.8562 -1.6642
  936MPD2    H113693   0.576   1.817  12.171  0.3388 -0.3189 -0.0936
  936MPD2    H213694   0.199   1.799  12.344  0.4112  3.0310  0.2795
  936MPD2    H313695   0.330   1.870  12.185  2.9279  0.2293 -1.1282
  936MPD2     N13696   0.707   1.651  12.342 -0.2620 -0.4118 -0.7793
  936MPD2    H513697   0.770   1.694  12.275  0.1958  0.0995 -0.0236
  936MPD2    N113698   0.277   1.639  12.575  0.3129 -0.4825  0.6162
  936MPD2    H713699   0.317   1.575  12.644 -1.0156 -2.2195 -0.2302
  937MPD2     C13700   2.989   2.638  11.549  0.0490 -0.7911  0.1928
  937MPD2    C113701   3.077   2.739  11.570 -0.5311  1.2505  0.0218
  937MPD2    C213702   3.174   2.745  11.469  0.4956 -0.4228  0.3633
  937MPD2    C313703   3.194   2.649  11.374 -0.3314 -0.6681  0.0025
  937MPD2    C413704   3.110   2.539  11.369  0.1844 -0.0697  0.2831
  937MPD2    C513705   3.001   2.543  11.453  0.7481  0.0185 -0.2171
  937MPD2     H13706   3.242   2.829  11.469 -0.6909  0.5227  3.0085
  937MPD2    H113707   3.110   2.463  11.292 -1.1594 -0.8019  0.9967
  937MPD2    H213708   2.897   2.627  11.605 -0.5114  0.5188 -0.4551
  937MPD2    H313709   2.931   2.464  11.431 -0.6942  1.4023 -0.6307
  937MPD2     N13710   3.306   2.655  11.295 -0.2445  0.3949  0.3093
  937MPD2    H513711   3.362   2.738  11.311  0.3701 -0.3084  1.7788
  937MPD2    N113712   3.048   2.848  11.651 -0.7172  0.0067 -0.5058
  937MPD2    H713713   3.103   2.928  11.622 -0.1391  0.5196  1.9720
  938MPD2     C13714   0.873   4.169   0.430  0.1207 -0.0969  0.2367
  938MPD2    C113715   0.952   4.208   0.537 -0.1337  0.1418  0.4788
  938MPD2    C213716   0.940   4.137   0.658  0.5374 -1.0802 -0.3527
  938MPD2    C313717   0.843   4.040   0.669 -0.0877 -0.0584  0.5387
  938MPD2    C413718   0.771   3.999   0.555  0.3186  0.0591  0.1014
  938MPD2    C513719   0.796   4.061   0.438 -0.2162  0.1709  0.4036
  938MPD2     H13720   0.992   4.174   0.745 -0.6455 -1.0945  0.3445
  938MPD2    H113721   0.700   3.917   0.556  1.7534 -1.1652  1.3687
  938MPD2    H213722   0.858   4.219   0.335 -1.3729 -1.4202 -0.2217
  938MPD2    H313723   0.746   4.026   0.348 -1.8041 -0.6439  1.6015
  938MPD2     N13724   0.801   3.982   0.791  0.0731  0.3328 -0.6194
  938MPD2    H513725   0.725   3.915   0.784  0.7724 -0.3065 -1.9893
  938MPD2    N113726   1.046   4.306   0.538 -0.4315  0.1782  0.1921
  938MPD2    H713727   1.097   4.319   0.624  1.4175  0.3175 -0.9129
  939MPD2     C13728   2.189   0.335   1.412  0.2854  0.2905 -0.1040
  939MPD2    C113729   2.079   0.358   1.335 -0.4698 -0.1509 -0.3395
  939MPD2    C213730   2.074   0.311   1.206  0.1617  0.0627  0.1187
  939MPD2    C313731   2.185   0.245   1.152 -0.3723  0.6716 -0.0854
  939MPD2    C413732   2.297   0.217   1.234 -0.7389  0.4300 -0.5144
  939MPD2    C513733   2.302   0.274   1.361 -0.6757  0.6818  0.1069
  939MPD2     H13734   1.986   0.327   1.144  1.7012  0.0099 -2.0918
  939MPD2    H113735   2.378   0.156   1.196  1.6660  2.4977  1.2593
  939MPD2    H213736   2.186   0.370   1.514 -1.1435  1.0588 -0.4172
  939MPD2    H313737   2.391   0.255   1.420 -0.0260  3.2567 -0.0439
  939MPD2     N13738   2.182   0.187   1.022 -0.5141 -0.6631 -0.1097
  939MPD2    H513739   2.094   0.199   0.972 -1.6849  1.1248  2.3847
  939MPD2    N113740   1.971   0.431   1.397  0.0544  0.5663 -0.3440
  939MPD2    H713741   1.975   0.463   1.493 -0.9269 -0.5120  0.0506
  940MPD2     C13742   0.941   0.777  13.588 -0.6575  0.0058  0.7602
  940MPD2    C113743   0.913   0.912  13.598 -0.0470 -0.8381 -0.0641
  940MPD2    C213744   0.837   0.986  13.507  0.3289  0.5177  0.0098
  940MPD2    C313745   0.781   0.918  13.403  0.5695 -0.1670  0.8467
  940MPD2    C413746   0.808   0.786  13.385 -0.6729  0.3389  0.4716
  940MPD2    C513747   0.886   0.717  13.478  0.9025 -0.4274 -0.3042
  940MPD2     H13748   0.833   1.093  13.521  2.4809  0.6197 -0.0842
  940MPD2    H113749   0.785   0.725  13.299  1.8890 -0.2013  0.1674
  940MPD2    H213750   1.003   0.711  13.647 -0.7287  0.5118  1.4030
  940MPD2    H313751   0.913   0.616  13.451  0.8454 -0.5693  0.1620
  940MPD2     N13752   0.695   0.975  13.305 -0.7116 -0.3218 -0.1504
  940MPD2    H513753   0.672   0.916  13.226 -1.3055  1.5521 -1.3916
  940MPD2    N113754   0.952   0.974  13.713 -0.1607  0.6513 -0.2639
  940MPD2    H713755   0.907   1.061  13.738 -0.0400  0.8381 -0.6900
  941MPD2     C13756   4.606   0.213   8.992  0.5387  0.5335 -0.6628
  941MPD2    C113757   4.620   0.194   9.125  0.3242 -0.4549 -0.0476
  941MPD2    C213758   4.551   0.094   9.185  0.5540 -0.8271 -0.3707
  941MPD2    C313759   4.476   0.011   9.108 -0.3259 -0.0770 -0.1661
  941MPD2    C413760   4.450   0.037   8.976 -0.0066 -0.1074 -0.1967
  941MPD2    C513761   4.526   0.130   8.915 -0.7117 -0.9459  0.1233
  941MPD2     H13762   4.559   0.080   9.292  0.6725 -1.0474 -0.4074
  941MPD2    H113763   4.392   4.690   8.916  0.7400 -1.4074  0.5338
  941MPD2    H213764   4.668   0.288   8.943  1.2711 -0.8582 -1.8891
  941MPD2    H313765   4.531   0.150   8.808 -0.5807  0.1052  0.3293
  941MPD2     N13766   4.431   4.607   9.154  0.1452 -0.2283 -0.4276
  941MPD2    H513767   4.368   4.557   9.092  0.1698  1.2241 -1.6364
  941MPD2    N113768   4.704   0.278   9.202 -0.4244  0.2873  0.3321
  941MPD2    H713769   4.716   0.252   9.300 -1.7695 -0.3298  0.3395
  942MPD2     C13770   3.640   1.772   9.990  0.6098 -0.1188  0.3309
  942MPD2    C113771   3.645   1.654   9.924  0.0882 -0.0676 -0.1605
  942MPD2    C213772   3.761   1.582   9.915  0.0655 -0.2111 -0.5027
  942MPD2    C313773   3.876   1.636   9.969 -0.1781  0.0830  0.0044
  942MPD2    C413774   3.867   1.754  10.037  0.4696  0.4512 -0.5029
  942MPD2    C513775   3.750   1.824  10.052  0.2853  0.0792 -0.3904
  942MPD2     H13776   3.762   1.486   9.865  0.3584 -0.3704 -0.1931
  942MPD2    H113777   3.955   1.795  10.085  0.7239 -0.3797 -0.2588
  942MPD2    H213778   3.548   1.830   9.994  0.5515 -0.1587 -0.5322
  942MPD2    H313779   3.740   1.909  10.119  0.9629  0.5520 -0.8880
  942MPD2     N13780   4.002   1.571   9.962  0.7251  0.8684 -0.4486
  942MPD2    H513781   4.085   1.622   9.991  0.7848  1.0753 -0.9925
  942MPD2    N113782   3.541   1.599   9.857  0.3776  0.5824 -0.4710
  942MPD2    H713783   3.562   1.515   9.805  2.4584  0.6586  0.2656
  943MPD2     C13784   3.987   4.430   9.352 -0.0384 -0.1483 -0.4957
  943MPD2    C113785   3.945   4.416   9.481  0.2531 -0.7954 -0.4099
  943MPD2    C213786   3.977   4.505   9.578  0.4132 -0.0394  0.0007
  943MPD2    C313787   4.061   4.613   9.540  0.0749 -0.0003 -0.2754
  943MPD2    C413788   4.105   4.620   9.409 -0.2739 -0.4229 -0.0206
  943MPD2    C513789   4.065   4.538   9.313  0.2610  0.2196 -0.0501
  943MPD2     H13790   3.938   4.492   9.678 -1.7370 -2.5331 -1.1402
  943MPD2    H113791   4.168   4.705   9.384 -0.4550 -0.7219 -1.4878
  943MPD2    H213792   3.971   4.349   9.281 -3.3539  2.3414 -2.6007
  943MPD2    H313793   4.118   4.535   9.219 -2.0112 -1.0565 -1.3012
  943MPD2     N13794   4.097   4.714   9.626 -0.2787 -0.0943 -0.0803
  943MPD2    H513795   4.149   0.075   9.593 -2.3651  1.5747  0.7870
  943MPD2    N113796   3.856   4.304   9.502 -0.1231 -0.1924  0.2404
  943MPD2    H713797   3.834   4.244   9.422 -1.5205  1.5334 -0.6659
  944MPD2     C13798   3.392   3.802  10.954 -0.0898 -0.2994  0.3106
  944MPD2    C113799   3.506   3.877  10.963 -0.1106  0.1997 -0.9893
  944MPD2    C213800   3.528   3.962  11.077 -0.4835  0.2193  0.4145
  944MPD2    C313801   3.421   3.976  11.168  0.1432 -0.7610  1.0386
  944MPD2    C413802   3.304   3.902  11.148  0.3702 -0.1147 -0.3306
  944MPD2    C513803   3.289   3.818  11.042 -0.3511 -0.4503  0.2635
  944MPD2     H13804   3.619   4.016  11.099 -0.4794  0.8396 -1.1696
  944MPD2    H113805   3.217   3.908  11.212 -0.0682  0.9991 -1.0364
  944MPD2    H213806   3.387   3.720  10.883  2.5561  0.5379 -0.8910
  944MPD2    H313807   3.198   3.763  11.024 -0.4610 -0.2594  0.2450
  944MPD2     N13808   3.425   4.076  11.264  0.0059  0.0600 -0.5144
  944MPD2    H513809   3.500   4.142  11.244 -0.5623  1.1373  0.8672
  944MPD2    N113810   3.601   3.864  10.855  0.5501 -0.5568  0.1959
  944MPD2    H713811   3.581   3.786  10.794 -1.9151 -0.7278  1.2326
    1TCq1    O113812   1.518   0.198  14.103  0.2866 -0.0439  0.0470
    1TCq1    C113813   1.544   0.066  14.137  0.5637 -0.2122  0.4153
    1TCq1    O213814   1.566   4.694  14.059 -0.0681 -0.1062  0.5309
    1TCq1    C213815   1.613   0.075  14.269  0.1678 -0.4451 -0.4733
    1TCq1    C313816   1.694   4.692  14.289  0.0548  0.9733  0.2985
    1TCq1    C413817   1.772   4.685  14.406 -0.1644  0.3327  0.4709
    1TCq1    C513818   1.752   0.058  14.505 -0.3534 -0.5213  0.2639
    1TCq1    C613819   1.666   0.165  14.482 -0.2253 -0.1894  0.0412
    1TCq1    C713820   1.595   0.174  14.367  0.9542  0.0646  0.4966
    1TCq1    C813821   1.673   0.276  14.571  0.6234 -0.2208  0.5744
    1TCq1    O413822   1.734   0.246  14.670  0.3064 -0.9160 -0.4166
    1TCq1    C913823   1.874   4.585  14.415  0.2251 -1.0820 -0.2325
    1TCq1    O513824   1.931   4.569  14.525  0.6590  0.1602 -0.0699
    1TCq1    O613825   1.905   4.529  14.303 -0.0737  0.2063 -0.1437
    1TCq1    H113826   1.486   0.238  14.187  2.4145  1.6165  0.0768
    1TCq1    H213827   1.714   4.616  14.215 -2.9647  0.9684 -0.5051
    1TCq1    H313828   1.818   0.039  14.589 -0.7785  0.7002  0.8721
    1TCq1    H413829   1.519   0.248  14.342  0.6040 -0.0528  1.2085
    2MPD2     C13830   1.615   0.744  14.758  0.5732  0.3700 -0.4160
    2MPD2    C113831   1.611   0.749  14.621 -0.0416 -0.3375  0.1329
    2MPD2    C213832   1.603   0.628  14.546  0.5724  0.4180 -0.0557
    2MPD2    C313833   1.612   0.508  14.605  0.3253  0.6694  0.4042
    2MPD2    C413834   1.609   0.499  14.741  0.8598 -0.0251  0.2225
    2MPD2    C513835   1.617   0.615  14.813  1.1716 -0.9090 -0.1491
    2MPD2     H13836   1.598   0.633  14.438 -0.2906 -1.5389 -0.1005
    2MPD2    H113837   1.616   0.407  14.797  1.0206 -1.2552 -1.8322
    2MPD2    H213838   1.607   0.834  14.819  0.8272 -1.0605  1.7284
    2MPD2    H313839   1.616   0.609  14.922 -0.6753 -1.0632 -0.1770
    2MPD2     N13840   1.619   0.392  14.526 -0.2991 -0.4377  0.7825
    2MPD2    H513841   1.606   0.406  14.426 -2.1739  0.9335  1.2013
    2MPD2    N113842   1.616   0.881  14.565  0.0444 -0.3863  0.2116
    2MPD2    H713843   1.629   0.959  14.629 -1.7646 -0.2643  0.4524
    3TMC2    C113844   1.684   1.050  14.414 -0.3104 -0.1730 -0.6583
    3TMC2    C213845   1.607   1.143  14.473 -0.3896 -0.3592  0.1897
    3TMC2    C313846   1.621   1.271  14.425  0.6527 -0.5185 -0.0399
    3TMC2    C413847   1.760   1.087  14.305  0.4414  0.0591 -0.3833
    3TMC2    C513848   1.769   1.210  14.260 -0.3550 -0.3273 -0.0219
    3TMC2    C613849   1.699   1.307  14.318 -0.2734 -0.0342  0.1609
    3TMC2     C13850   1.651   0.908  14.435 -0.2877  0.7418  0.5921
    3TMC2     O13851   1.689   0.824  14.353  0.1503 -0.1586  0.2388
    3TMC2     H13852   1.541   1.126  14.557  0.4141 -1.9436  0.4943
    3TMC2    H113853   1.810   1.006  14.252 -2.3538 -0.5377 -2.1290
    3TMC2    H213854   1.707   1.412  14.291 -0.4194 -0.2217 -0.6221
    3TMC2    C713855   1.859   1.229  14.149 -0.3218  0.1183  0.8855
    3TMC2    C813856   1.542   1.377  14.492 -0.0728 -0.0247 -0.8792
    3TMC2    O113857   1.946   1.145  14.137  0.3630 -0.0845  0.1272
    3TMC2    O213858   1.433   1.369  14.545 -0.0007 -0.3046  0.6559
    3TMC2    O513859   1.633   1.467  14.527 -0.3073 -0.0566  0.1911
    3TMC2    H513860   1.720   1.459  14.482  0.4375 -0.7623  1.7279
    4MPD2     C13861   0.794   1.964  13.230  0.0941 -0.1354  0.2888
    4MPD2    C113862   0.868   1.887  13.143  0.5576  0.7324  0.2441
    4MPD2    C213863   0.996   1.839  13.174 -0.0501  0.0216 -0.5107
    4MPD2    C313864   1.036   1.853  13.304  0.3318 -0.0135 -0.0261
    4MPD2    C413865   0.966   1.934  13.393 -0.0503  0.1158  0.0027
    4MPD2    C513866   0.847   1.987  13.355  0.3239 -0.0638  0.0237
    4MPD2     H13867   1.062   1.787  13.106  0.3472  1.0245 -0.8837
    4MPD2    H113868   1.001   1.957  13.493  2.5386  0.1593 -0.8952
    4MPD2    H213869   0.703   2.013  13.198 -0.5772 -1.0257  0.8450
    4MPD2    H313870   0.792   2.045  13.428 -2.0202 -2.0950 -0.1195
    4MPD2     N13871   1.163   1.799  13.332  0.2951 -0.6669  0.6359
    4MPD2    H513872   1.204   1.764  13.246  1.1088  1.7022  0.0698
    4MPD2    N113873   0.807   1.874  13.022  0.1568 -0.4310  0.2165
    4MPD2    H713874   0.718   1.919  13.002  0.0711  0.5476  2.7961
    5TCq2    C113875   1.228   1.797  13.454 -0.1304  0.0998  1.1239
    5TCq2    O213876   1.191   1.815  13.567 -0.8302 -0.2111 -0.4088
    5TCq2    C213877   1.370   1.773  13.429  0.5465  0.3065 -0.0298
    5TCq2    C313878   1.442   1.794  13.313  0.8190 -0.1126 -0.2013
    5TCq2    C413879   1.569   1.739  13.307 -0.1218 -0.0039  0.1701
    5TCq2    C513880   1.638   1.687  13.416 -0.2712 -0.0876 -0.4568
    5TCq2    C613881   1.558   1.661  13.524  0.3600  0.3795 -0.5283
    5TCq2    C713882   1.426   1.705  13.534  0.8947 -0.7391 -0.1156
    5TCq2    C813883   1.603   1.571  13.635  0.3423  0.0543 -0.0805
    5TCq2    O413884   1.518   1.543  13.723 -0.5875 -0.1056 -0.9154
    5TCq2    C913885   1.643   1.762  13.188 -0.2556  0.5063 -0.7068
    5TCq2    O513886   1.589   1.822  13.089  0.0002 -0.2721  0.1024
    5TCq2    O613887   1.761   1.717  13.182 -0.1191  0.0216 -0.0103
    5TCq2    H213888   1.390   1.839  13.229  0.1643  0.6159  0.5913
    5TCq2    H313889   1.734   1.645  13.393 -0.0612  1.1592 -1.8343
    5TCq2    H413890   1.378   1.691  13.630  1.2617  0.3027  0.2182
    6MPD1     C13891   4.561   3.253  12.658  0.2714 -0.3819 -0.1268
    6MPD1    C113892   4.670   3.223  12.585 -0.0592  0.0873 -0.4187
    6MPD1    C213893   0.054   3.156  12.642 -0.4038  0.0829  0.9145
    6MPD1    C313894   0.038   3.097  12.768 -0.3096 -0.0512 -0.5134
    6MPD1    C413895   4.645   3.138  12.842  0.0999  0.3074 -0.0084
    6MPD1    C513896   4.549   3.221  12.794 -0.6046  0.3900 -0.0029
    6MPD1     H13897   0.139   3.133  12.579 -1.0878 -1.4262  0.5273
    6MPD1    H113898   4.627   3.107  12.944  0.0165  0.7316  0.1073
    6MPD1    H213899   4.468   3.291  12.616 -0.6926  0.4810  2.8108
    6MPD1    H313900   4.461   3.244  12.853 -0.6024  3.1630 -1.0711
    6MPD1     N13901   0.131   3.013  12.829  0.3580 -0.0198 -0.6912
    6MPD1    H513902   0.105   2.979  12.921 -2.2833  1.7366 -0.7489
    6MPD1    N113903   4.686   3.244  12.447 -0.4631 -0.2656 -0.6626
    6MPD1    H613904   4.615   3.309  12.415 -0.1507  0.3787 -0.0526
    6MPD1    H713905   4.688   3.155  12.397 -0.5976 -0.8694  0.4116
    7MPD2     C13906   0.081   2.308  12.758  0.8217  0.7094 -0.7507
    7MPD2    C113907   0.193   2.298  12.838  0.0838 -0.1184  0.0999
    7MPD2    C213908   0.273   2.182  12.820 -0.5464  0.0761  0.0333
    7MPD2    C313909   0.253   2.093  12.719 -0.6883  0.4964  0.4442
    7MPD2    C413910   0.154   2.109  12.634  0.3018 -1.0604  0.5162
    7MPD2    C513911   0.058   2.209  12.659 -0.1534  0.9467  0.5408
    7MPD2     H13912   0.341   2.164  12.903 -0.3316 -2.7576 -0.7289
    7MPD2    H113913   0.136   2.040  12.553  0.7546 -1.1039  0.4562
    7MPD2    H213914   0.015   2.393  12.744  1.3938  1.4548  1.0675
    7MPD2    H313915   4.697   2.223  12.589 -0.5137 -0.9612  0.5728
    7MPD2     N13916   0.336   1.977  12.701  0.5638  0.3614 -0.0658
    7MPD2    H513917   0.318   1.916  12.622  1.9706 -1.1559  0.8067
    7MPD2    N113918   0.240   2.400  12.931 -0.0531  0.2534 -0.0684
    7MPD2    H713919   0.316   2.364  12.987 -0.4036 -1.0929 -0.4478
    8TMC3    C113920   0.535   1.848  12.743  0.2205 -0.5063 -0.7736
    8TMC3    C213921   0.624   1.812  12.839 -0.1404 -0.7301 -0.3434
    8TMC3    C313922   0.755   1.816  12.811 -0.6875 -0.1805  0.3286
    8TMC3    C413923   0.583   1.891  12.622 -0.0643  0.2413  0.3075
    8TMC3    C513924   0.713   1.880  12.594 -0.3874 -0.0135 -0.3980
    8TMC3    C613925   0.802   1.836  12.687 -0.1083 -0.6023 -0.2305
    8TMC3     C13926   0.425   1.933  12.793 -0.9909 -0.1189  0.0476
    8TMC3     O13927   0.411   1.939  12.915 -0.1080 -0.1785  0.4971
    8TMC3     H13928   0.599   1.777  12.938 -2.0738 -1.9625 -1.2490
    8TMC3    H113929   0.510   1.915  12.545  0.9591 -1.0314 -1.0527
    8TMC3    H213930   0.903   1.866  12.663 -0.7225  1.6708 -0.0196
    8TMC3    C713931   0.757   2.005  12.538 -0.3713 -0.3814  0.5805
    8TMC3    C813932   0.856   1.808  12.910 -0.1260 -0.5415  0.0338
    8TMC3    O113933   0.860   2.011  12.470  0.3160  0.9085  0.5067
    8TMC3    O213934   0.960   1.768  12.872  0.5967  0.0395 -0.2630
    9TMC3    C113935   0.308   2.857  12.864  0.2937  0.1870  0.1843
    9TMC3    C213936   0.443   2.830  12.857 -0.4041  0.4137  0.4849
    9TMC3    C313937   0.496   2.715  12.902 -0.0661 -0.4183 -0.2309
    9TMC3    C413938   0.224   2.755  12.904  0.0004  0.2472 -0.2740
    9TMC3    C513939   0.273   2.635  12.949  0.0199  0.1602 -0.1835
    9TMC3    C613940   0.412   2.614  12.953 -0.3753 -0.7045  0.8098
    9TMC3     C13941   0.247   2.962  12.779 -0.1246  0.3916  0.5146
    9TMC3     O13942   0.310   2.981  12.677 -0.1264  0.5912  0.1960
    9TMC3     H13943   0.501   2.912  12.818  1.7903 -1.4490 -0.0987
    9TMC3    H113944   0.120   2.782  12.899 -0.0654 -0.2085 -1.3439
    9TMC3    H213945   0.458   2.529  13.001  1.0980  0.1660  0.9564
    9TMC3    C713946   0.180   2.522  12.951 -0.2472  0.3684  0.0802
    9TMC3    C813947   0.614   2.664  12.836 -0.0694  0.1515  0.9893
    9TMC3    O113948   0.073   2.555  12.905  0.7995 -0.7015 -0.0321
    9TMC3    O213949   0.717   2.734  12.822 -0.1069  0.1569 -0.4426
   10MPD2     C13950   0.798   2.298  12.519  0.4519 -0.0129 -0.3397
   10MPD2    C113951   0.694   2.243  12.593 -0.0842  0.1809  1.1230
   10MPD2    C213952   0.620   2.325  12.673 -0.3432  0.0540 -0.4536
   10MPD2    C313953   0.659   2.459  12.687  0.1457 -0.4318 -0.8641
   10MPD2    C413954   0.760   2.519  12.613  0.5834 -0.7306 -0.3169
   10MPD2    C513955   0.826   2.431  12.529  0.4701 -0.3924 -0.4175
   10MPD2     H13956   0.540   2.279  12.730  0.4680 -2.7402 -1.6027
   10MPD2    H113957   0.794   2.621  12.628 -2.0910 -0.0368  0.9115
   10MPD2    H213958   0.853   2.237  12.449  0.8876 -0.1802  0.1547
   10MPD2    H313959   0.913   2.468  12.475  1.2552  1.4783  2.1224
   10MPD2     N13960   0.591   2.533  12.787 -0.6575 -0.5852 -0.2248
   10MPD2    H513961   0.506   2.489  12.822 -1.2544 -0.0014 -0.9243
   10MPD2    N113962   0.683   2.108  12.593  0.7216  0.0495 -0.0537
   10MPD2    H713963   0.622   2.077  12.667  2.2881 -1.5125  0.6037
   11MPD2     C13964   1.977   1.327  13.895  0.5955 -0.3212 -0.1684
   11MPD2    C113965   1.839   1.339  13.925  0.5251  0.3887  0.5409
   11MPD2    C213966   1.763   1.419  13.845  0.2445 -0.2549 -0.3478
   11MPD2    C313967   1.813   1.466  13.723 -0.1625  0.1081 -0.4367
   11MPD2    C413968   1.937   1.433  13.684  0.9307 -0.4456 -0.0155
   11MPD2    C513969   2.027   1.374  13.778  0.5291 -0.3418 -0.0624
   11MPD2     H13970   1.658   1.435  13.870  1.0374 -0.8313  3.3189
   11MPD2    H113971   1.982   1.458  13.589 -2.0540  1.5986 -0.8712
   11MPD2    H213972   2.049   1.280  13.961  1.7200 -0.9724 -1.8582
   11MPD2    H313973   2.133   1.357  13.765  0.1898 -1.1230 -1.8988
   11MPD2     N13974   1.739   1.545  13.626 -0.6016 -0.4249 -0.1062
   11MPD2    H513975   1.787   1.570  13.541 -0.0105  2.8605  1.2257
   11MPD2    N113976   1.791   1.301  14.054  0.7792 -0.6931 -0.4088
   11MPD2    H713977   1.698   1.331  14.081  0.5548 -1.6519 -0.1413
    1MPD1     C13978   3.394   2.871  17.051  0.1210 -0.4618  0.2490
    1MPD1    C113979   3.445   2.818  16.935  0.4472  0.3891 -0.3097
    1MPD1    C213980   3.563   2.863  16.891 -0.3266 -0.0031 -0.2570
    1MPD1    C313981   3.645   2.939  16.980  0.0507 -0.3410  0.0277
    1MPD1    C413982   3.601   2.978  17.097  0.6689  0.1731  0.1364
    1MPD1    C513983   3.475   2.941  17.142  0.0066  0.5803 -0.4730
    1MPD1     H13984   3.584   2.849  16.785 -0.8852  0.4311 -0.4220
    1MPD1    H113985   3.670   3.043  17.151 -1.6265  1.8116  1.0705
    1MPD1    H213986   3.297   2.844  17.090 -0.5449 -1.5761 -2.1887
    1MPD1    H313987   3.438   2.972  17.239 -1.0510  1.1053 -1.0461
    1MPD1     N13988   3.752   3.017  16.929 -0.5382  0.1143  0.1948
    1MPD1    H513989   3.781   3.100  16.981 -4.2641  1.6480 -0.2078
    1MPD1    N113990   3.350   2.752  16.844  0.1514 -0.3134  0.5763
    1MPD1    H613991   3.276   2.711  16.900 -2.2114  1.9935 -0.8583
    1MPD1    H713992   3.385   2.684  16.777  2.8247 -0.5556  2.2082
    2MPD1     C13993   4.410   3.750  17.008  0.3226  0.7017  0.1410
    2MPD1    C113994   4.503   3.646  16.987  0.0619  0.2355 -0.4673
    2MPD1    C213995   4.446   3.527  16.951 -0.5132 -0.8979 -0.5225
    2MPD1    C313996   4.314   3.501  16.979 -0.0018  1.1958  0.5734
    2MPD1    C413997   4.227   3.603  17.019 -0.2484  0.2786  0.1108
    2MPD1    C513998   4.276   3.730  17.032  0.0096  0.3130  0.0890
    2MPD1     H13999   4.514   3.457  16.903 -0.9063 -2.3709  1.0400
    2MPD1    H114000   4.124   3.592  17.052  0.5054 -1.5624  1.8884
    2MPD1    H214001   4.441   3.854  17.002  0.4480  0.6307 -0.4305
    2MPD1    H314002   4.223   3.817  17.069  0.7108  0.6878  0.2054
    2MPD1     N14003   4.263   3.377  16.935  0.0459 -0.2025  0.0240
    2MPD1    H514004   4.323   3.307  16.893 -0.1687 -0.7943  0.6990
    2MPD1    N114005   4.633   3.669  16.951 -0.3298 -0.7342 -0.4728
    2MPD1    H614006   4.673   3.731  17.021 -1.6198  2.4377 -2.5712
    2MPD1    H714007   4.686   3.582  16.955  1.2104  0.2008 -0.7596
    3TMC3    C114008   4.095   3.232  16.849 -0.2930 -0.2182  0.5844
    3TMC3    C214009   4.169   3.209  16.739 -0.7081 -0.0493 -0.0806
    3TMC3    C314010   4.132   3.113  16.648 -0.4973 -0.3953  0.3460
    3TMC3    C414011   3.986   3.160  16.875 -0.5086 -0.2429 -0.2166
    3TMC3    C514012   3.942   3.066  16.783  0.0822 -0.2082 -0.4972
    3TMC3    C614013   4.010   3.048  16.660 -0.0511  0.5153  0.2297
    3TMC3     C14014   4.129   3.342  16.939 -0.6659  0.6348 -0.4160
    3TMC3     O14015   4.032   3.395  16.991  0.0611  0.5269  0.4036
    3TMC3     H14016   4.258   3.257  16.702 -0.0959 -0.3871  0.9738
    3TMC3    H114017   3.932   3.187  16.965  0.5528  0.5568  0.1782
    3TMC3    H214018   3.986   2.968  16.591  0.4265  0.6992 -0.1560
    3TMC3    C714019   3.818   2.993  16.807 -0.1411  0.0640  0.0983
    3TMC3    C814020   4.185   3.123  16.512 -0.6953  0.2107 -0.1975
    3TMC3    O114021   3.800   2.907  16.723 -0.2488  0.0448  0.1586
    3TMC3    O214022   4.297   3.173  16.508  0.1104  0.0426  0.3381
    4MPD1     C14023   4.226   3.025  16.006  0.6754  0.1376  0.0997
    4MPD1    C114024   4.102   2.983  16.041 -0.4636 -0.2569  0.2801
    4MPD1    C214025   4.073   3.004  16.176 -0.0206  0.0632 -0.3539
    4MPD1    C314026   4.155   3.052  16.269  0.0430  0.3985  0.3134
    4MPD1    C414027   4.278   3.097  16.229  0.5449 -0.2759 -1.1869
    4MPD1    C514028   4.311   3.087  16.092 -0.0444  0.4214 -0.0444
    4MPD1     H14029   3.976   2.979  16.216  0.7595  1.7838  2.5351
    4MPD1    H114030   4.347   3.149  16.295 -1.0375  0.3953 -0.0458
    4MPD1    H214031   4.254   3.027  15.901 -0.7818  0.4294 -0.2825
    4MPD1    H314032   4.398   3.138  16.054 -0.6245 -0.6645 -2.8081
    4MPD1     N14033   4.112   3.076  16.402 -0.4406 -0.1494  0.2296
    4MPD1    H514034   4.020   3.033  16.407 -0.1075 -1.0937 -1.5430
    4MPD1    N114035   4.003   2.956  15.948 -0.5229 -0.1431 -0.4606
    4MPD1    H614036   4.040   2.921  15.860 -1.1867 -1.6757 -0.1318
    4MPD1    H714037   3.921   2.901  15.974  1.1054 -1.2918  2.2831
    1TCq1    O114038   1.066   0.812  11.714 -0.1882  0.7137 -0.4325
    1TCq1    C114039   1.039   0.869  11.601  0.2882 -0.1850 -0.3657
    1TCq1    O214040   0.924   0.899  11.572  0.0811  0.2477 -0.4308
    1TCq1    C214041   1.152   0.949  11.569  0.3939  0.7474  0.4850
    1TCq1    C314042   1.130   1.079  11.545 -0.0967 -0.5326 -0.3040
    1TCq1    C414043   1.235   1.149  11.490  0.4912  0.9833 -0.1978
    1TCq1    C514044   1.363   1.097  11.506 -0.2845 -0.1443 -0.4634
    1TCq1    C614045   1.379   0.965  11.533  0.5015  0.9926  0.8343
    1TCq1    C714046   1.269   0.891  11.559 -0.4582 -0.3688 -0.3423
    1TCq1    C814047   1.513   0.917  11.533 -0.2454 -0.3510 -0.1550
    1TCq1    O414048   1.608   0.997  11.515 -0.4703  0.1863  0.4140
    1TCq1    C914049   1.222   1.296  11.488  0.4062  0.3262 -0.1080
    1TCq1    O514050   1.324   1.367  11.503 -0.1521 -0.2617 -0.5662
    1TCq1    O614051   1.105   1.344  11.506  0.1145  0.2571 -0.1132
    1TCq1    H114052   1.160   0.831  11.736 -0.1025  0.4410 -0.5638
    1TCq1    H214053   1.032   1.124  11.531  0.4314  1.3445  1.9548
    1TCq1    H314054   1.453   1.158  11.502 -0.1561 -0.2054  1.3169
    1TCq1    H414055   1.270   0.784  11.577 -0.3436 -0.7251 -2.4775
    2MPD1     C14056   1.852   0.535  11.638  0.2783  0.0204 -0.4190
    2MPD1    C114057   1.734   0.507  11.686 -0.6508  0.0602 -0.7882
    2MPD1    C214058   1.625   0.596  11.674  0.7660 -0.3234  0.2837
    2MPD1    C314059   1.641   0.714  11.606  0.0311 -0.1400  0.0310
    2MPD1    C414060   1.762   0.739  11.539 -0.5899 -0.1534 -0.0242
    2MPD1    C514061   1.864   0.647  11.553 -0.5257 -0.8530  0.1350
    2MPD1     H14062   1.527   0.566  11.708  0.6363 -0.0042  0.1861
    2MPD1    H114063   1.773   0.823  11.472  0.8491  0.1995  0.6523
    2MPD1    H214064   1.930   0.461  11.646 -0.2258 -0.2758  1.5404
    2MPD1    H314065   1.966   0.664  11.520 -0.3951 -2.3010 -0.2091
    2MPD1     N14066   1.524   0.794  11.589  0.3053 -0.8405 -0.1100
    2MPD1    H514067   1.443   0.752  11.635  1.3195 -1.9791  0.6153
    2MPD1    N114068   1.708   0.386  11.749  0.4303 -0.8811 -0.0245
    2MPD1    H614069   1.622   0.386  11.803  1.8335 -2.1325  2.2033
    2MPD1    H714070   1.789   0.350  11.801  1.6588  0.2866 -1.1266
    1TCq1    O114071   2.089   3.901   0.565  0.0186  0.5841 -0.4520
    1TCq1    C114072   2.205   3.859   0.506 -0.4881 -0.4584 -0.3037
    1TCq1    O214073   2.215   3.751   0.449 -0.2297 -0.7008  0.0450
    1TCq1    C214074   2.320   3.906   0.587 -0.1697  0.0522  0.5414
    1TCq1    C314075   2.311   3.997   0.685  0.1192  0.7184 -1.4059
    1TCq1    C414076   2.422   4.015   0.765 -0.3151 -0.3800 -0.0314
    1TCq1    C514077   2.540   3.945   0.747 -0.6542  0.6774 -0.5862
    1TCq1    C614078   2.548   3.864   0.637 -1.1677  0.7121  0.0999
    1TCq1    C714079   2.442   3.840   0.557 -0.2326  0.5829 -0.0646
    1TCq1    C814080   2.660   3.778   0.618 -0.0161 -0.6196  0.3842
    1TCq1    O414081   2.647   3.683   0.540  0.1084  0.2619  0.2266
    1TCq1    C914082   2.392   4.075   0.892  0.2143  0.0380 -0.2543
    1TCq1    O514083   2.274   4.098   0.926  0.3612 -0.3551  0.3023
    1TCq1    O614084   2.490   4.125   0.957  0.0385 -0.1591 -0.2997
    1TCq1    H114085   2.082   3.998   0.581  3.1455  0.5464  1.2113
    1TCq1    H214086   2.216   4.032   0.726  0.6901  0.0945  0.4490
    1TCq1    H314087   2.611   3.941   0.829  1.2853 -0.1773 -2.3371
    1TCq1    H414088   2.447   3.766   0.477  0.9140 -0.3799  0.9054
    2MPD1     C14089   3.086   3.567   0.809 -0.3522  0.1069 -0.3482
    2MPD1    C114090   3.108   3.696   0.801 -0.4178 -0.0023  0.8782
    2MPD1    C214091   3.000   3.780   0.773  0.8339 -0.7893 -0.8951
    2MPD1    C314092   2.875   3.726   0.729 -0.4462  0.1819  0.4050
    2MPD1    C414093   2.862   3.589   0.714 -0.0696  0.2634  1.0662
    2MPD1    C514094   2.970   3.511   0.761  0.1510 -0.7272  0.0813
    2MPD1     H14095   3.009   3.887   0.786 -1.7245 -0.5785 -0.7021
    2MPD1    H114096   2.779   3.541   0.664  1.4610 -1.2904  0.0231
    2MPD1    H214097   3.150   3.489   0.849 -1.1708 -1.4461 -2.0604
    2MPD1    H314098   2.971   3.404   0.745  0.8012 -0.2698 -2.9358
    2MPD1     N14099   2.769   3.812   0.699 -0.0912 -0.1524 -0.3085
    2MPD1    H514100   2.772   3.911   0.720  1.6434 -0.2099 -0.3331
    2MPD1    N114101   3.219   3.741   0.867 -0.0740  0.4278  0.1280
    2MPD1    H614102   3.300   3.679   0.860 -0.6442 -0.3155  0.1778
    2MPD1    H714103   3.248   3.826   0.820  1.5591 -1.1170 -1.6825
    1MPD1     C14104   2.077   3.559  11.370  1.0650 -0.0056 -0.0612
    1MPD1    C114105   2.196   3.624  11.394  0.2398  0.4635  0.0768
    1MPD1    C214106   2.248   3.618  11.521  0.6077 -1.0812 -0.6139
    1MPD1    C314107   2.189   3.553  11.628 -1.0110 -0.4365 -0.1788
    1MPD1    C414108   2.062   3.502  11.606 -0.5955 -0.2617  0.0837
    1MPD1    C514109   2.011   3.497  11.474  0.4559 -0.3159 -0.3268
    1MPD1     H14110   2.346   3.661  11.538  0.2816 -0.4284 -0.3781
    1MPD1    H114111   2.025   3.428  11.676 -0.6903  0.7030  1.0567
    1MPD1    H214112   2.038   3.556  11.270 -0.3805 -0.8841  0.5320
    1MPD1    H314113   1.927   3.431  11.463  1.2136 -0.8399 -2.8750
    1MPD1     N14114   2.265   3.524  11.746 -0.4079 -0.0908 -0.4448
    1MPD1    H514115   2.354   3.572  11.755 -0.9873  1.0516 -0.6822
    1MPD1    N114116   2.268   3.671  11.287 -0.0717  0.4969  0.9244
    1MPD1    H614117   2.200   3.707  11.221 -0.7808  1.7350  2.3075
    1MPD1    H714118   2.335   3.747  11.302 -0.9572  0.9875  2.4119
    2MPD1     C14119   1.950   3.499  10.397 -0.6632  0.3782 -0.3681
    2MPD1    C114120   1.832   3.485  10.472 -0.2149 -0.7252 -0.1743
    2MPD1    C214121   1.806   3.367  10.541 -0.6229 -0.3543  0.1119
    2MPD1    C314122   1.885   3.259  10.517  0.7202  0.3840 -0.5654
    2MPD1    C414123   1.991   3.265  10.425 -0.6412 -0.5451 -0.7050
    2MPD1    C514124   2.019   3.385  10.371  0.1385 -0.5551  0.1820
    2MPD1     H14125   1.728   3.373  10.616  1.1678  3.4289  1.7266
    2MPD1    H114126   2.046   3.175  10.401 -0.1770 -1.0859  2.3564
    2MPD1    H214127   1.968   3.589  10.338  0.3294  0.3954 -0.0339
    2MPD1    H314128   2.103   3.401  10.305  0.2961  0.0054  0.5237
    2MPD1     N14129   1.874   3.142  10.595 -0.0921  0.0125  0.2158
    2MPD1    H514130   1.916   3.053  10.570  0.2757 -0.6507  3.2635
    2MPD1    N114131   1.750   3.599  10.503  0.3792  0.1365  0.1945
    2MPD1    H614132   1.663   3.575  10.549  0.5025 -0.6036  0.0458
    2MPD1    H714133   1.740   3.669  10.429 -1.6175 -0.6745 -0.3003
    3MPD1     C14134   1.252   2.725  11.266 -0.2126 -0.1250  0.4970
    3MPD1    C114135   1.292   2.855  11.258  0.1002 -0.0977 -0.6904
    3MPD1    C214136   1.398   2.887  11.181  0.9695 -0.0022  0.6966
    3MPD1    C314137   1.471   2.786  11.117 -0.0248 -0.2242 -0.1016
    3MPD1    C414138   1.426   2.654  11.117 -0.1443 -0.3688 -0.4752
    3MPD1    C514139   1.313   2.629  11.188 -0.0414 -0.5750 -0.4058
    3MPD1     H14140   1.434   2.989  11.190  2.3513 -0.3184 -1.4466
    3MPD1    H114141   1.481   2.573  11.070  3.7236  0.4197  2.7009
    3MPD1    H214142   1.171   2.689  11.328  0.7693 -1.8321  0.7860
    3MPD1    H314143   1.289   2.526  11.211 -1.9885 -0.3232 -1.2842
    3MPD1     N14144   1.581   2.828  11.040  0.1716 -0.5204 -0.3490
    3MPD1    H514145   1.609   2.926  11.037  1.3937 -0.8314  1.2752
    3MPD1    N114146   1.232   2.945  11.351 -0.4590 -0.0623 -0.4161
    3MPD1    H614147   1.238   3.043  11.325 -1.3405  0.1277  0.0782
    3MPD1    H714148   1.133   2.926  11.367 -0.0342 -0.6617  1.5446
    4MPD2     C14149   2.672   3.640  11.538  0.2506  0.0404  0.0026
    4MPD2    C114150   2.673   3.521  11.600 -0.4388  0.7333 -0.5683
    4MPD2    C214151   2.721   3.411  11.533 -0.1877  0.2900  1.0814
    4MPD2    C314152   2.747   3.418  11.396  0.2093 -0.5671 -0.1729
    4MPD2    C414153   2.727   3.534  11.332 -0.0228  0.0813 -0.2728
    4MPD2    C514154   2.690   3.650  11.402  0.3305 -0.7280  0.7608
    4MPD2     H14155   2.737   3.317  11.584  1.8169 -0.4993 -0.9513
    4MPD2    H114156   2.747   3.553  11.228  1.3705 -0.0319 -0.0297
    4MPD2    H214157   2.650   3.734  11.587  1.2179  0.6977 -0.8365
    4MPD2    H314158   2.677   3.748  11.358  2.3872 -0.5805  0.4914
    4MPD2     N14159   2.790   3.302  11.337  0.3235 -0.0589 -0.0355
    4MPD2    H514160   2.799   3.230  11.408 -0.7303  0.1425  0.3046
    4MPD2    N114161   2.647   3.504  11.738  0.8151 -0.1308 -0.5551
    4MPD2    H714162   2.649   3.409  11.772  0.1185 -0.6300 -1.8804
    5TMC3    C114163   2.541   3.528  11.943 -0.4442 -0.0086 -0.3035
    5TMC3    C214164   2.414   3.541  11.952 -0.4511  0.2660 -0.5860
    5TMC3    C314165   2.339   3.428  11.942  0.2077  0.1639 -0.5558
    5TMC3    C414166   2.599   3.411  11.962  0.2822 -0.4014  0.4229
    5TMC3    C514167   2.527   3.294  11.959  0.2232 -0.0435  0.5226
    5TMC3    C614168   2.395   3.301  11.947 -0.4656  0.1496 -0.3991
    5TMC3     C14169   2.589   3.596  11.829  0.1875  0.4892  0.5956
    5TMC3     O14170   2.533   3.700  11.795 -0.0039  0.4487  0.3632
    5TMC3     H14171   2.375   3.641  11.937  1.6380  1.0063 -1.1238
    5TMC3    H114172   2.707   3.404  11.964  0.2420 -1.5040 -0.6322
    5TMC3    H214173   2.327   3.220  11.920  0.9293 -0.0297 -3.3709
    5TMC3    C714174   2.596   3.201  11.885  0.1834 -0.4149  0.3378
    5TMC3    C814175   2.237   3.438  11.848 -0.1660  0.2715 -0.4360
    5TMC3    O114176   2.678   3.239  11.805  0.2171  0.7690 -1.0411
    5TMC3    O214177   2.152   3.353  11.853  0.2427 -0.3704 -0.5565
    6TMC3    C114178   1.839   3.013  10.782 -1.1818 -0.4405  0.5474
    6TMC3    C214179   1.735   2.951  10.853 -0.3127 -0.0828 -0.2518
    6TMC3    C314180   1.764   2.823  10.894 -0.3825  0.1669 -1.0199
    6TMC3    C414181   1.961   2.963  10.751  0.3606 -0.4126  0.1811
    6TMC3    C514182   1.984   2.838  10.798  0.0959 -0.0939  0.5270
    6TMC3    C614183   1.889   2.766  10.865  0.4035  0.3194 -0.1763
    6TMC3     C14184   1.800   3.126  10.703 -0.0087  0.4974 -0.1034
    6TMC3     O14185   1.696   3.181  10.733  0.0942 -0.1271 -0.2183
    6TMC3     H14186   1.638   2.994  10.871 -0.8862 -2.2340  1.7279
    6TMC3    H114187   2.046   3.021  10.720  0.5248 -0.5219  0.4258
    6TMC3    H214188   1.923   2.671  10.903  0.2922  0.5778  0.5756
    6TMC3    C714189   2.122   2.797  10.796 -0.2552  0.3809 -0.0138
    6TMC3    C814190   1.672   2.747  10.973 -0.0656  0.0976 -0.1616
    6TMC3    O114191   2.163   2.713  10.875 -0.1727  0.1668  0.2899
    6TMC3    O214192   1.687   2.626  10.983 -0.0267  0.1476 -0.3376
    7MPD2     C14193   2.576   2.743  11.669  0.0081 -0.1145 -0.2594
    7MPD2    C114194   2.636   2.859  11.636 -0.0582 -0.3763  0.2118
    7MPD2    C214195   2.627   2.968  11.715 -0.3932 -0.2710  0.2124
    7MPD2    C314196   2.564   2.967  11.834  0.3346 -0.1822 -0.9458
    7MPD2    C414197   2.506   2.847  11.878  1.2546  0.0357  0.3095
    7MPD2    C514198   2.515   2.740  11.793  0.7184 -0.1952 -0.3976
    7MPD2     H14199   2.656   3.067  11.681 -2.4363  0.9184  1.9652
    7MPD2    H114200   2.446   2.855  11.969 -0.3316 -1.5514 -0.6091
    7MPD2    H214201   2.584   2.657  11.602 -0.7796  0.4479 -1.0701
    7MPD2    H314202   2.467   2.646  11.817 -2.1982  1.5685  0.6510
    7MPD2     N14203   2.546   3.084  11.916 -0.0037  0.1277 -0.4185
    7MPD2    H514204   2.478   3.068  11.990 -1.1733  1.3262 -1.2259
    7MPD2    N114205   2.703   2.859  11.512 -0.6015  0.1333  0.0910
    7MPD2    H714206   2.701   2.776  11.454 -0.4486 -1.1574  1.9335
    8TMC3    C114207   2.824   2.943  11.326 -0.2397  0.7958 -0.5684
    8TMC3    C214208   2.732   2.885  11.237  0.1257 -0.0490 -0.8098
    8TMC3    C314209   2.705   2.953  11.120 -0.3813  0.3640 -0.0438
    8TMC3    C414210   2.890   3.061  11.290  0.5096  0.3010  0.0634
    8TMC3    C514211   2.840   3.140  11.187 -0.8465  0.4590  0.2985
    8TMC3    C614212   2.749   3.087  11.095 -0.2526  0.1795  0.3399
    8TMC3     C14213   2.777   2.963  11.461 -0.2878 -0.5054 -0.5394
    8TMC3     O14214   2.803   3.073  11.511 -0.3698 -0.0711  0.0434
    8TMC3     H14215   2.690   2.787  11.252 -2.1521  0.9937 -0.3704
    8TMC3    H114216   2.966   3.102  11.356 -1.7155 -1.2542  3.5550
    8TMC3    H214217   2.714   3.141  11.007  0.1782 -1.9427 -1.1336
    8TMC3    C714218   2.829   3.285  11.209  0.5070 -0.2828  0.2390
    8TMC3    C814219   2.603   2.903  11.027 -0.2892 -0.0366  0.0732
    8TMC3    O114220   2.801   3.360  11.113  0.2484 -0.1212  0.1264
    8TMC3    O214221   2.504   2.851  11.064 -0.1755 -0.7561 -0.0447
    9MPD2     C14222   2.598   2.937  10.663 -0.1196  0.3654  0.3481
    9MPD2    C114223   2.540   2.909  10.786 -0.0586  0.1139 -0.0618
    9MPD2    C214224   2.412   2.855  10.791 -0.5369  0.3868 -0.5849
    9MPD2    C314225   2.333   2.867  10.679  0.1012  0.9015 -0.2227
    9MPD2    C414226   2.379   2.905  10.557  0.1540  0.2995 -0.3452
    9MPD2    C514227   2.517   2.933  10.555  0.3948 -0.2155  0.2849
    9MPD2     H14228   2.368   2.842  10.889 -0.6553  0.8759 -0.5747
    9MPD2    H114229   2.329   2.887  10.462 -0.9482 -1.0881  0.5010
    9MPD2    H214230   2.704   2.952  10.644 -0.2250  2.1594  1.1737
    9MPD2    H314231   2.574   2.942  10.463  0.1893 -0.6331  0.1169
    9MPD2     N14232   2.189   2.845  10.683  0.4928  0.7737  0.5266
    9MPD2    H514233   2.136   2.878  10.603 -0.2702 -0.4801  0.5258
    9MPD2    N114234   2.628   2.937  10.895 -0.1907 -0.1436 -0.4687
    9MPD2    H714235   2.722   2.971  10.876  0.0236  0.3715  1.5403
    1MPD1     C14236   2.252   0.822  17.221 -0.5909  0.1302  0.2420
    1MPD1    C114237   2.169   0.881  17.131 -1.2659 -0.1189  0.5105
    1MPD1    C214238   2.067   0.961  17.173 -0.2294 -0.8783  0.5674
    1MPD1    C314239   2.033   0.964  17.310  0.4387  0.0770  0.3170
    1MPD1    C414240   2.115   0.908  17.405  0.4938  0.0666  0.5987
    1MPD1    C514241   2.224   0.842  17.361  0.1602  0.4291  0.2124
    1MPD1     H14242   2.014   1.016  17.096 -0.0872  0.5782  1.4997
    1MPD1    H114243   2.095   0.916  17.512  2.0197 -2.1105  1.0480
    1MPD1    H214244   2.336   0.760  17.194  0.3918  0.9824  1.3613
    1MPD1    H314245   2.290   0.803  17.437  0.8146 -0.8508 -1.0014
    1MPD1     N14246   1.911   1.025  17.356  0.0253  0.1688 -0.4819
    1MPD1    H514247   1.908   1.033  17.457  0.3333 -1.1878 -0.3597
    1MPD1    N114248   2.204   0.887  16.988 -0.0491 -0.1865 -0.2807
    1MPD1    H614249   2.114   0.890  16.942 -0.4680  2.3412  0.7411
    1MPD1    H714250   2.257   0.803  16.963 -0.4582 -0.5183 -0.0330
    2MPD1     C14251   1.778   1.336   0.426  0.0238 -0.2659  0.1426
    2MPD1    C114252   1.781   1.210   0.371  1.0370 -0.2220 -0.1192
    2MPD1    C214253   1.751   1.193   0.234  0.0809 -0.2081  0.3685
    2MPD1    C314254   1.740   1.311   0.159 -0.3095  0.2049 -0.0971
    2MPD1    C414255   1.746   1.441   0.217 -0.2586 -0.4076  0.8108
    2MPD1    C514256   1.762   1.448   0.350  0.3473  0.7298  0.4244
    2MPD1     H14257   1.751   1.098   0.182  1.0351 -0.6611  1.1894
    2MPD1    H114258   1.731   1.537   0.170  1.6807 -1.4224 -1.8545
    2MPD1    H214259   1.787   1.344   0.534  1.8677  2.6448 -0.2163
    2MPD1    H314260   1.743   1.539   0.405  1.4211  0.1466  1.7336
    2MPD1     N14261   1.732   1.296   0.016 -0.8987  0.2804  0.1523
    2MPD1    H514262   1.769   1.210  17.662  1.4130  0.3994  2.0463
    2MPD1    N114263   1.775   1.101   0.456  0.0179  0.0364 -0.1246
    2MPD1    H614264   1.820   1.022   0.410  0.8957 -0.6380  1.8773
    2MPD1    H714265   1.825   1.113   0.545  1.5887 -1.7453 -0.7607
    3TCq2    C114266   1.666   1.381  17.621  0.0967  0.6105 -0.2602
    3TCq2    O214267   1.591   1.472  17.655  0.2731 -0.1273 -0.2146
    3TCq2    C214268   1.658   1.323  17.486 -0.4639  0.3809 -0.4020
    3TCq2    C314269   1.540   1.353  17.421  0.9035  0.5713  0.8708
    3TCq2    C414270   1.514   1.279  17.310  0.3591 -0.4030 -0.3157
    3TCq2    C514271   1.599   1.186  17.260 -0.2658  0.1210  0.0381
    3TCq2    C614272   1.708   1.151  17.334 -0.1800 -0.4519 -0.5960
    3TCq2    C714273   1.742   1.225  17.447 -0.1361 -0.0807 -0.0842
    3TCq2    C814274   1.819   1.082  17.273 -0.4016  0.3737  0.6837
    3TCq2    O414275   1.813   1.081  17.151  0.0325  0.2765 -0.7481
    3TCq2    C914276   1.392   1.302  17.239 -0.0769 -0.3093 -0.1993
    3TCq2    O514277   1.364   1.218  17.150 -0.1867 -0.3521 -0.1249
    3TCq2    O614278   1.325   1.406  17.260 -0.2522  0.4054  0.1366
    3TCq2    H214279   1.466   1.424  17.455  0.5782  1.4499 -1.6591
    3TCq2    H314280   1.591   1.136  17.164 -0.5335 -0.2324  0.2466
    3TCq2    H414281   1.848   1.223  17.470  0.3447  3.8589 -1.9582
    1TCq1    O114282   4.337   4.557  11.835  0.5122 -0.1538  0.0187
    1TCq1    C114283   4.362   4.691  11.835  0.1680  0.3364 -0.6438
    1TCq1    O214284   4.394   0.034  11.734 -0.2306 -0.1592  0.3151
    1TCq1    C214285   4.349   0.032  11.966 -0.3350  0.2573  0.5238
    1TCq1    C314286   4.281   4.689  12.066  0.7473 -0.6067 -0.0098
    1TCq1    C414287   4.262   0.038  12.184  0.3395 -0.2462 -0.2396
    1TCq1    C514288   4.320   0.159  12.208  0.0285 -0.1648 -0.7847
    1TCq1    C614289   4.397   0.216  12.109 -0.2505  0.0919 -0.0782
    1TCq1    C714290   4.405   0.159  11.983  0.2834 -0.1820 -0.5133
    1TCq1    C814291   4.487   0.327  12.138 -0.3458 -0.4647  0.6425
    1TCq1    O414292   4.557   0.373  12.048  0.4201  0.3445  0.1019
    1TCq1    C914293   4.184   4.690  12.288 -0.2658  0.0883  0.4487
    1TCq1    O514294   4.133   4.581  12.256  0.0668  0.2584  0.0724
    1TCq1    O614295   4.148   0.039  12.386 -0.0850 -0.0328  0.5956
    1TCq1    H114296   4.350   4.515  11.922 -1.1728 -1.9702 -0.5949
    1TCq1    H214297   4.222   4.602  12.039 -0.5687  0.1256  0.4641
    1TCq1    H314298   4.311   0.201  12.307 -0.7781 -1.9246 -0.1068
    1TCq1    H414299   4.457   0.206  11.899 -0.8146 -0.4659 -1.3574
    2MPD2     C14300   4.639   0.556  12.254  0.3496 -0.1916 -0.2791
    2MPD2    C114301   4.535   0.493  12.321 -0.5891 -0.3206 -0.0242
    2MPD2    C214302   4.503   0.529  12.446  0.1058  0.1880 -0.0102
    2MPD2    C314303   4.569   0.631  12.512  0.0245 -0.4002 -0.4669
    2MPD2    C414304   4.664   0.702  12.440  0.0081  0.4273  1.4491
    2MPD2    C514305   4.699   0.668  12.314  0.0334  0.5633  0.5286
    2MPD2     H14306   4.427   0.474  12.501 -0.6514  2.2496  0.9932
    2MPD2    H114307   4.712   0.784  12.492 -0.0571  0.9647  0.6701
    2MPD2    H214308   4.678   0.527  12.157 -1.7506 -1.3458 -0.7637
    2MPD2    H314309   0.058   0.714  12.256  0.4246 -0.7733  0.0276
    2MPD2     N14310   4.541   0.646  12.648 -0.3868  0.1976  0.6287
    2MPD2    H514311   4.471   0.585  12.689 -0.3395 -0.6223 -0.5171
    2MPD2    N114312   4.466   0.383  12.264  0.1695 -0.2573 -0.0787
    2MPD2    H714313   4.400   0.341  12.329 -0.9764  0.9791 -0.4716
    3TCq1    O114314   4.181   0.806  12.959  0.4984  0.0821  0.8294
    3TCq1    C114315   4.235   0.732  13.052 -0.0926 -0.4747  1.2600
    3TCq1    O214316   4.184   0.722  13.159 -0.5005  0.2636  0.2622
    3TCq1    C214317   4.376   0.712  13.015  0.0122  0.6171  0.2934
    3TCq1    C314318   4.467   0.729  13.117  0.3609 -0.7294  0.0617
    3TCq1    C414319   4.602   0.736  13.087  0.2502  0.3169  0.4260
    3TCq1    C514320   4.651   0.739  12.958 -0.1611  0.0879  0.1042
    3TCq1    C614321   4.555   0.723  12.859 -0.2961  1.1379  1.0131
    3TCq1    C714322   4.422   0.700  12.886  0.2981 -0.5842 -0.0344
    3TCq1    C814323   4.603   0.738  12.727  0.4660 -0.5824 -0.0791
    3TCq1    O414324   4.707   0.807  12.728 -0.4552 -0.1095  0.1799
    3TCq1    C914325   4.697   0.726  13.192  0.7284 -0.4327  0.0653
    3TCq1    O514326   0.094   0.706  13.153  0.0376 -0.7023  0.4145
    3TCq1    O614327   4.659   0.728  13.305 -0.0965 -0.5465  0.1598
    3TCq1    H114328   4.253   0.847  12.908  1.2463 -0.3632  1.5348
    3TCq1    H214329   4.429   0.733  13.218  1.9669 -2.4680  0.7455
    3TCq1    H314330   0.038   0.741  12.942 -0.2074  1.2005 -0.0712
    3TCq1    H414331   4.348   0.701  12.807 -0.8427 -2.0349  1.0244
    1MPD2     C14332   3.742   1.499  14.908  1.0710 -0.8288 -0.0468
    1MPD2    C114333   3.690   1.403  14.823  0.8503 -0.7967 -0.2081
    1MPD2    C214334   3.593   1.318  14.875 -0.4764  0.1394  0.3398
    1MPD2    C314335   3.543   1.333  15.008 -0.2270 -0.0294 -0.0971
    1MPD2    C414336   3.602   1.424  15.090 -0.2918 -0.1467  0.5820
    1MPD2    C514337   3.697   1.510  15.039 -0.6843 -0.6392 -0.8783
    1MPD2     H14338   3.549   1.248  14.805  2.6653 -1.5135  0.0242
    1MPD2    H114339   3.568   1.440  15.192 -1.4076  0.9623  0.0217
    1MPD2    H214340   3.811   1.577  14.879  2.3012 -1.8516  0.1519
    1MPD2    H314341   3.731   1.582  15.112 -0.4320 -1.5030 -0.1360
    1MPD2     N14342   3.445   1.236  15.051 -0.0264 -0.6199  0.0955
    1MPD2    H514343   3.424   1.172  14.976  2.0230 -0.5316 -0.5550
    1MPD2    N114344   3.733   1.409  14.689 -0.3740  0.3190 -0.1849
    1MPD2    H714345   3.804   1.475  14.660 -0.4987  0.8399  0.6812
    2TMC3    C114346   3.684   1.416  14.457 -0.0534 -0.0783 -0.5461
    2TMC3    C214347   3.617   1.341  14.362  0.2522  0.5875  0.2286
    2TMC3    C314348   3.525   1.407  14.285  0.1921  0.2418 -0.3009
    2TMC3    C414349   3.679   1.551  14.456 -0.4179 -0.0044 -0.3439
    2TMC3    C514350   3.590   1.608  14.364  0.1018 -0.5306  0.7258
    2TMC3    C614351   3.508   1.539  14.279  0.6352 -0.0094  0.0559
    2TMC3     C14352   3.671   1.342  14.584 -0.8793  0.3076 -0.0617
    2TMC3     O14353   3.579   1.264  14.581  0.6226 -0.3207  0.0365
    2TMC3     H14354   3.619   1.233  14.354 -1.7639  0.6800 -1.4178
    2TMC3    H114355   3.701   1.607  14.547 -1.6966  1.4779 -0.9414
    2TMC3    H214356   3.439   1.585  14.209  2.2570  1.2945 -0.6577
    2TMC3    C714357   3.626   1.745  14.320 -0.1016 -0.1017 -0.0836
    2TMC3    C814358   3.399   1.346  14.284 -0.0595 -0.0536  0.1839
    2TMC3    O114359   3.527   1.815  14.294  0.1412  0.1378 -0.1036
    2TMC3    O214360   3.324   1.370  14.184 -0.0028 -0.2403  0.2508
    3TCq1    O114361   4.572   2.470  14.268 -0.0226 -0.0045  0.7888
    3TCq1    C114362   4.636   2.397  14.362 -0.3862 -0.1205  0.4968
    3TCq1    O214363   0.019   2.431  14.419  0.1666  0.6641 -0.1018
    3TCq1    C214364   4.535   2.312  14.421 -0.0626 -0.4095  0.3183
    3TCq1    C314365   4.548   2.267  14.550  0.0834  0.5914  0.0948
    3TCq1    C414366   4.464   2.167  14.592 -0.5245  0.0814  0.0252
    3TCq1    C514367   4.375   2.109  14.508 -0.6652 -0.4109 -0.5974
    3TCq1    C614368   4.371   2.147  14.380 -0.4863  0.2633  0.5620
    3TCq1    C714369   4.451   2.250  14.331  0.6603  0.6224  0.3918
    3TCq1    C814370   4.244   2.136  14.309 -0.1074  0.6073 -0.4282
    3TCq1    O414371   4.232   2.219  14.220  0.4878 -0.1628 -0.5709
    3TCq1    C914372   4.455   2.138  14.733  0.2192  0.1460  0.2330
    3TCq1    O514373   4.359   2.064  14.768  0.4265  0.5648 -0.0257
    3TCq1    O614374   4.527   2.203  14.817 -0.7909 -0.5323  0.2894
    3TCq1    H114375   4.477   2.468  14.291 -0.5941 -1.7176 -1.7668
    3TCq1    H214376   4.614   2.316  14.620  0.7477  0.6373 -0.5751
    3TCq1    H314377   4.313   2.031  14.551  0.9419 -1.2349  0.2474
    3TCq1    H414378   4.451   2.271  14.225 -0.0622 -0.2399  0.2234
    4MPD2     C14379   3.955   2.119  14.232 -0.2115 -1.3632  0.1300
    4MPD2    C114380   4.020   2.029  14.310  0.0409 -0.1504 -0.3025
    4MPD2    C214381   3.950   1.914  14.344  0.2334  0.2618 -0.2182
    4MPD2    C314382   3.815   1.888  14.306  0.4250 -0.8858 -0.5721
    4MPD2    C414383   3.751   1.983  14.232 -0.0017 -0.1233 -0.1021
    4MPD2    C514384   3.827   2.091  14.185  0.0226  0.4687  0.5223
    4MPD2     H14385   4.003   1.840  14.403 -0.7272  0.8804  1.4110
    4MPD2    H114386   3.654   1.978  14.183  0.0266 -1.1052 -0.0533
    4MPD2    H214387   3.988   2.217  14.198  1.3765 -0.6021  3.9035
    4MPD2    H314388   3.778   2.157  14.114 -0.5707 -1.3418 -0.7495
    4MPD2     N14389   3.756   1.772  14.345  0.1169 -0.4782  0.1895
    4MPD2    H514390   3.815   1.707  14.396 -0.4671  0.1472  1.6784
    4MPD2    N114391   4.146   2.056  14.367 -0.3964  0.2784  0.4294
    4MPD2    H714392   4.188   1.989  14.431  3.1191  1.2898 -0.8181
    5TMC2    C114393   3.163   1.045  14.988  1.3858  0.3524 -0.3313
    5TMC2    C214394   3.045   1.113  15.015  0.9847 -0.2297  0.5365
    5TMC2    C314395   3.051   1.197  15.124 -0.2607  0.1740 -0.2232
    5TMC2    C414396   3.272   1.049  15.070 -0.2906  0.4452 -0.7246
    5TMC2    C514397   3.270   1.127  15.179 -0.3348 -0.4588  0.3701
    5TMC2    C614398   3.158   1.192  15.204 -0.1730 -0.1456  0.3409
    5TMC2     C14399   3.214   1.064  14.851 -0.3487 -0.0480 -0.1637
    5TMC2     O14400   3.333   1.090  14.838 -0.6320 -0.1395  0.8158
    5TMC2     H14401   2.960   1.120  14.948 -0.0347 -0.3621  1.8305
    5TMC2    H114402   3.357   0.987  15.049  0.0177  1.2585 -1.8559
    5TMC2    H214403   3.148   1.259  15.289 -3.2797  0.2586 -0.3541
    5TMC2    C714404   3.380   1.227  15.173  0.4791 -0.1863 -0.5444
    5TMC2    C814405   2.929   1.263  15.169 -0.4577 -0.2958 -0.0991
    5TMC2    O114406   3.378   1.303  15.272  0.4053 -0.1461  0.7711
    5TMC2    O214407   2.891   1.280  15.285  0.2837 -0.8707 -0.3836
    5TMC2    O514408   2.903   1.351  15.070  0.1136  0.1567  0.3273
    5TMC2    H514409   2.973   1.349  15.002 -2.8150 -0.9360 -2.6996
    6MPD2     C14410   3.172   1.157  14.345 -0.4558 -0.3550  0.3458
    6MPD2    C114411   3.273   1.194  14.436 -0.3496  0.1185 -0.7317
    6MPD2    C214412   3.265   1.139  14.566  0.3649 -0.6652 -0.2246
    6MPD2    C314413   3.149   1.086  14.616 -0.6827 -1.0237  0.2795
    6MPD2    C414414   3.047   1.058  14.527 -0.3369  0.2723  0.3664
    6MPD2    C514415   3.063   1.092  14.393  0.1630  0.2466  0.3452
    6MPD2     H14416   3.342   1.167  14.637  0.1158  0.8407 -0.5523
    6MPD2    H114417   2.947   1.037  14.563 -0.3843  0.9134  0.6117
    6MPD2    H214418   3.190   1.179  14.240 -0.4365  1.6273  0.7552
    6MPD2    H314419   2.980   1.056  14.333  1.0817  1.3511 -1.6152
    6MPD2     N14420   3.121   1.057  14.754  0.5437 -0.0775 -0.3137
    6MPD2    H514421   3.028   1.021  14.771  1.1833  0.1007  3.4440
    6MPD2    N114422   3.387   1.267  14.393 -0.5118  0.4797 -0.0485
    6MPD2    H714423   3.448   1.284  14.473  1.2546 -4.1149 -0.4328
  945NH3     N114424   1.979   3.934  17.064 -0.1856 -0.2914 -0.9570
  945NH3     H214425   1.880   3.913  17.077 -0.4918  1.5887 -0.3197
  945NH3     H314426   2.033   3.886  17.135 -0.0260 -0.0474 -0.9148
  945NH3     H414427   1.994   3.888  16.975  0.9997 -1.2144 -0.2870
  946SOD     NA14428   4.379   1.859  12.467  0.1834  0.6969 -0.1932
  947SOD     NA14429   2.049   1.049  14.887  0.2346  0.1123  0.0032
  948SOD     NA14430   1.142   1.449  14.820  0.1696 -0.2884  0.1532
  949SOD     NA14431   2.326   2.950  11.167 -0.2340 -0.0822 -0.0654
  950SOD     NA14432   2.078   1.330   7.270  0.0695  1.0749  0.3067
  951SOD     NA14433   4.249   3.193   2.230  0.0882 -0.0142  0.0512
  952SOD     NA14434   1.214   1.923  13.782 -0.0410  0.0285 -0.1515
  953SOD     NA14435   4.576   0.412  10.072 -0.0210  0.2024 -0.1913
  954SOD     NA14436   1.555   3.847  13.490 -0.1113 -0.0355 -0.2102
  955SOD     NA14437   4.262   0.025  12.585 -0.5029  0.3337  0.0870
  956SOD     NA14438   2.144   3.661   1.607 -0.7127 -0.5407 -0.4271
  957SOD     NA14439   1.003   1.424  11.692  0.2005  0.3025  0.0472
  958SOD     NA14440   3.759   0.465  13.125  0.1254  0.0367  0.0350
  959SOD     NA14441   2.072   4.381  14.262  0.5962  0.1245  0.0214
  960SOD     NA14442   3.768   2.424   9.163 -0.4737  0.3458 -0.0800
  961SOD     NA14443   3.267   1.718   0.246  0.1677 -0.2143  0.1865
  962SOD     NA14444   0.008   0.601  11.681  0.2460  0.2844  0.7082
  963SOD     NA14445   2.784   3.353  17.655  0.0534  0.3481  0.2282
  964SOD     NA14446   4.386   4.288  11.067 -0.1278 -0.2481  0.6559
  965SOD     NA14447   1.564   1.138   0.556  0.0968 -0.6283  0.4251
  966SOD     NA14448   4.610   1.723  14.347  0.1513 -0.3399  0.0876
  967SOD     NA14449   4.383   1.797   1.244  0.2529  0.2032  0.1028
  968SOD     NA14450   3.121   0.086  11.319 -0.0633 -0.4543 -0.0889
  969SOD     NA14451   4.289   0.350  10.145 -0.1333 -0.6215  0.0303
  970SOD     NA14452   4.290   2.719   5.947  0.1158 -0.5950  0.2759
  971SOD     NA14453   1.886   1.000  12.802  0.3103  0.1173  0.0487
  972SOD     NA14454   0.352   0.486  11.706 -0.1451  0.4347 -0.0170
  973SOD     NA14455   3.315   2.184   3.833  0.4987  0.2123  0.2445
  974SOD     NA14456   2.909   3.678  15.026 -0.4263 -0.1582  0.5779
  975SOD     NA14457   1.168   0.327   0.286 -0.2071 -0.1044 -0.4475
  976SOD     NA14458   0.524   1.784  11.082  0.1024 -0.0312 -0.1598
  977SOD     NA14459   0.061   0.920  11.825  0.1077 -0.0767  0.5486
  978SOD     NA14460   2.318   4.277   1.042  0.0621 -0.3434 -0.3155
  979SOD     NA14461   0.272   0.023  13.149 -0.1124  0.1412 -0.1224
  980SOD     NA14462   3.743   2.606  16.122  0.6080 -0.2000 -0.3924
  981SOD     NA14463   4.577   0.185   9.652  0.1080 -0.1291 -0.6220
  982SOD     NA14464   2.375   4.568   1.117  0.1788  0.2300 -0.4168
  983SOD     NA14465   0.651   1.672  11.697  0.3186 -0.2414  0.0583
  984SOD     NA14466   2.954   2.877   2.621 -0.0303  0.0631 -0.4152
  985SOD     NA14467   0.403   0.583   0.787 -0.0143 -0.4876  0.1455
  986SOD     NA14468   2.217   4.677   4.982  0.3051 -0.0811 -0.8362
  987SOD     NA14469   2.386   2.930   8.007 -0.1186  0.2722  0.0601
  988SOD     NA14470   0.390   4.695   9.604 -0.3583  0.0213 -0.4947
  989SOD     NA14471   0.986   4.382  15.509 -0.0103 -0.1947 -0.1088
  990SOD     NA14472   3.482   0.359   9.151  0.1183 -0.1934 -0.1506
  991SOD     NA14473   0.737   0.330  15.006  0.3719 -0.2335  0.4202
  992SOD     NA14474   2.010   0.120  13.990  0.1460 -0.4782 -0.1275
  993SOD     NA14475   0.084   2.103   2.006  0.3742 -0.4738  0.1033
  994SOD     NA14476   1.090   2.937  12.643 -0.5162  0.1716 -0.1957
  995SOD     NA14477   1.855   1.701  12.999 -0.3047 -0.6553  0.2619
  996SOD     NA14478   0.429   2.588   0.417 -0.9816  0.1985  0.0708
  997SOD     NA14479   3.178   3.125   1.538 -0.2111  0.3059  0.3040
  998SOD     NA14480   0.399   2.043  10.113 -0.2288 -0.6810 -0.2178
  999SOD     NA14481   0.333   3.898   7.958 -0.0769  0.5883 -0.2935
 1000SOD     NA14482   3.685   2.921   6.905 -0.4462  0.1681  0.1872
 1001SOD     NA14483   3.743   1.025   9.531  0.4949 -0.3580 -0.4095
 1002SOD     NA14484   0.312   1.395  15.379  0.5650  0.4251 -0.0882
 1003SOD     NA14485   4.686   3.845  10.434  0.0092 -0.3867  0.0942
 1004SOD     NA14486   3.433   4.609  10.516 -0.2533  0.7849  0.5196
 1005SOD     NA14487   4.506   1.219  15.256  0.6841 -0.8156  0.1823
 1006SOD     NA14488   0.218   1.653  10.532 -0.2014  0.1391  0.4620
 1007SOD     NA14489   0.319   0.523  14.236 -0.4695  0.0007 -0.0587
 1008SOD     NA14490   1.304   0.123  15.003 -0.0653 -0.4303 -0.1648
 1009SOD     NA14491   1.113   2.200  16.510 -0.0915  0.3054 -0.3011
 1010SOD     NA14492   0.514   4.644   2.055 -0.1649 -0.2083  0.2691
 1011SOD     NA14493   3.319   2.278   2.058  0.6026 -0.3808  0.4440
 1012SOL     OW14494   3.655   2.186   2.513  0.3891  0.4921 -0.2872
 1012SOL    HW114495   3.599   2.218   2.583 -1.5806 -1.3846 -0.9917
 1012SOL    HW214496   3.737   2.168   2.560  0.1659  1.6072  0.5123
 1013SOL     OW14497   1.799   4.067   1.026 -0.1244 -0.4134  0.1442
 1013SOL    HW114498   1.856   4.013   1.081 -2.0386 -1.7353  0.8555
 1013SOL    HW214499   1.861   4.125   0.982  1.9084 -1.6342  1.3633
 1014SOL     OW14500   1.154   2.752   7.989 -0.4926 -0.1486 -0.2899
 1014SOL    HW114501   1.146   2.738   8.083 -0.4691  0.2101 -0.2344
 1014SOL    HW214502   1.249   2.758   7.983 -0.3537 -0.2194  2.0442
 1015SOL     OW14503   0.175   4.677   3.890 -0.0331  0.1050  0.6502
 1015SOL    HW114504   0.227   4.633   3.822 -1.5041  0.0785 -0.4595
 1015SOL    HW214505   0.133   4.596   3.918  1.0140 -0.8602 -0.5604
 1016SOL     OW14506   0.650   2.857   4.282 -0.0954  0.7310  0.0526
 1016SOL    HW114507   0.691   2.771   4.276 -0.8490  0.4393 -1.0959
 1016SOL    HW214508   0.654   2.881   4.189  0.5609  0.0997 -0.0816
 1017SOL     OW14509   0.443   3.928  13.659  0.3576  0.7593  0.0170
 1017SOL    HW114510   0.385   3.995  13.696  2.7974  1.3713  2.7486
 1017SOL    HW214511   0.494   3.968  13.588 -1.7258  1.3995 -1.1308
 1018SOL     OW14512   2.373   0.879   8.211  0.4888 -0.3931  0.5103
 1018SOL    HW114513   2.441   0.845   8.269  1.7497  0.1476 -0.6796
 1018SOL    HW214514   2.335   0.945   8.269  1.2289  0.4806 -0.0271
 1019SOL     OW14515   2.260   1.033   4.727 -0.1398  0.3194  0.2980
 1019SOL    HW114516   2.338   1.070   4.769  0.9555 -0.8383 -0.7049
 1019SOL    HW214517   2.243   0.961   4.788  0.4448 -2.2392 -2.5946
 1020SOL     OW14518   4.711   1.064  11.658  0.1048 -0.1234  1.2106
 1020SOL    HW114519   4.617   1.077  11.656  0.3499  1.7756  1.3107
 1020SOL    HW214520   0.012   1.063  11.565 -1.2385 -0.4881  0.9100
 1021SOL     OW14521   2.881   2.699  15.196 -0.5885  0.3436  0.4158
 1021SOL    HW114522   2.798   2.745  15.188 -1.2218 -0.6473  1.3754
 1021SOL    HW214523   2.852   2.623  15.246  0.3677 -0.6855 -0.5800
 1022SOL     OW14524   2.297   1.063   4.433  0.2193  0.1021  0.1621
 1022SOL    HW114525   2.257   1.128   4.376 -0.5538 -0.4600  0.0576
 1022SOL    HW214526   2.259   1.076   4.520  0.6771 -0.0336  0.3800
 1023SOL     OW14527   0.947   4.093   3.197 -0.0403 -0.1406  0.6211
 1023SOL    HW114528   0.924   4.086   3.290 -1.6234 -6.7952 -0.2806
 1023SOL    HW214529   0.880   4.029   3.172 -0.2648  0.2676  0.1830
 1024SOL     OW14530   2.962   4.393   2.873  0.2984  0.1085  0.0203
 1024SOL    HW114531   2.951   4.486   2.892  0.5350  0.2705 -0.6199
 1024SOL    HW214532   2.877   4.372   2.833  1.7952 -3.8312 -1.0617
 1025SOL     OW14533   2.014   3.365  16.546  0.1872  0.0024  0.2805
 1025SOL    HW114534   2.063   3.381  16.627 -1.5136 -1.1964  1.5334
 1025SOL    HW214535   2.033   3.444  16.495  0.5344 -0.3454 -0.1215
 1026SOL     OW14536   2.472   0.053  10.559  0.5095  0.2390  0.2576
 1026SOL    HW114537   2.430   0.014  10.637  0.5258 -0.1222  0.0880
 1026SOL    HW214538   2.429   0.003  10.490  1.2507 -1.2824  0.8856
 1027SOL     OW14539   2.730   3.492   5.779  0.0992  0.0116 -0.4001
 1027SOL    HW114540   2.805   3.517   5.725 -0.0946 -1.1249 -1.1933
 1027SOL    HW214541   2.751   3.553   5.850  0.4202 -1.5026  0.7934
 1028SOL     OW14542   2.298   2.610   5.546  1.2084  0.0914  0.4854
 1028SOL    HW114543   2.220   2.636   5.497  1.2729  2.5739  1.6737
 1028SOL    HW214544   2.257   2.553   5.611  0.3464 -2.1276 -2.0265
 1029SOL     OW14545   2.580   4.640   2.823  0.3761  0.4192 -0.0870
 1029SOL    HW114546   2.542   4.557   2.852  1.7437 -0.7432 -1.6773
 1029SOL    HW214547   2.630   4.662   2.902  0.1783  0.6029 -0.0110
 1030SOL     OW14548   0.947   1.565   5.408  0.1466 -0.1113 -0.3732
 1030SOL    HW114549   0.940   1.641   5.350  0.8241  1.8375  2.0678
 1030SOL    HW214550   0.988   1.593   5.490  1.6522 -0.3923 -1.0330
 1031SOL     OW14551   2.861   3.863   3.565  0.1100  0.0908 -0.8848
 1031SOL    HW114552   2.941   3.861   3.618  0.1796 -1.4168 -1.0561
 1031SOL    HW214553   2.865   3.949   3.523  1.2833  0.8772  0.8459
 1032SOL     OW14554   0.987   1.512  13.317 -0.5235 -0.2355  0.2635
 1032SOL    HW114555   1.039   1.552  13.248  2.3530 -2.5976  1.0433
 1032SOL    HW214556   1.056   1.508  13.383  0.5682 -1.0904 -0.9201
 1033SOL     OW14557   1.894   3.721  13.199  0.3449  0.2240 -0.1783
 1033SOL    HW114558   1.953   3.745  13.127 -0.6265 -0.1491 -1.0905
 1033SOL    HW214559   1.900   3.800  13.254  2.7213  0.0339 -0.1789
 1034SOL     OW14560   1.704   3.709   9.713 -0.4054  0.7110 -0.1493
 1034SOL    HW114561   1.732   3.629   9.756 -0.5164 -0.6360 -2.5801
 1034SOL    HW214562   1.768   3.713   9.642 -2.7240 -0.7067 -2.3142
 1035SOL     OW14563   4.569   2.928   7.422  0.1047  0.2999  0.0404
 1035SOL    HW114564   4.632   2.990   7.458  2.4902 -1.9335 -0.3114
 1035SOL    HW214565   4.590   2.927   7.328 -0.2291  0.0043 -0.0331
 1036SOL     OW14566   4.505   0.487   1.138 -0.4751  0.3094  0.0957
 1036SOL    HW114567   4.489   0.485   1.043  2.5396 -1.5729 -0.3811
 1036SOL    HW214568   4.600   0.498   1.145 -0.1982  0.8042 -4.1184
 1037SOL     OW14569   3.903   1.511   7.944 -0.2382 -0.7149  0.3240
 1037SOL    HW114570   3.996   1.520   7.966 -0.3152 -0.5812  0.5979
 1037SOL    HW214571   3.858   1.453   8.005  0.6280 -0.6918  0.9876
 1038SOL     OW14572   4.378   3.927   5.326 -0.6299 -0.1863  0.6355
 1038SOL    HW114573   4.371   3.949   5.419  0.9681 -0.8625  0.9031
 1038SOL    HW214574   4.467   3.950   5.301 -0.2277 -0.0245  2.2115
 1039SOL     OW14575   0.531   0.367  13.233 -0.4644 -0.7208 -0.1610
 1039SOL    HW114576   0.598   0.303  13.259 -1.1271 -1.0554  0.7140
 1039SOL    HW214577   0.512   0.349  13.141 -1.5803 -1.6838  0.2545
 1040SOL     OW14578   0.846   0.809   3.119 -0.6691  0.7538  0.5665
 1040SOL    HW114579   0.857   0.860   3.199  0.3110 -1.9644  2.1387
 1040SOL    HW214580   0.806   0.861   3.049 -0.4396  2.0207  1.3755
 1041SOL     OW14581   1.111   3.996   5.805 -0.9787  0.1191  0.4277
 1041SOL    HW114582   1.060   3.918   5.828 -0.8813  0.2348  1.0170
 1041SOL    HW214583   1.082   4.057   5.872 -1.2609  1.2437 -0.7129
 1042SOL     OW14584   2.203   4.682   5.788  0.0325  0.0262 -0.1142
 1042SOL    HW114585   2.173   0.014   5.714 -0.7297  0.9620  0.8555
 1042SOL    HW214586   2.290   4.653   5.762 -0.5186 -0.6988 -1.1425
 1043SOL     OW14587   1.739   1.980   6.387 -0.2351  0.0635 -0.0085
 1043SOL    HW114588   1.708   2.020   6.306  0.6647 -0.9119 -0.8375
 1043SOL    HW214589   1.740   2.052   6.450  1.2037  0.5300 -0.5766
 1044SOL     OW14590   3.910   0.095   2.512 -0.1804 -0.0786 -0.2499
 1044SOL    HW114591   3.897   0.182   2.473  0.1587 -1.5538 -3.6742
 1044SOL    HW214592   3.855   0.044   2.452  0.7208  0.6079 -1.6651
 1045SOL     OW14593   3.776   2.754  15.937 -0.0741  0.3428  0.5024
 1045SOL    HW114594   3.854   2.720  15.892 -1.3097 -0.9469 -0.6849
 1045SOL    HW214595   3.718   2.739  15.863 -0.3144  1.4261  0.4722
 1046SOL     OW14596   2.634   3.500   8.619  0.2689  0.0681  0.5024
 1046SOL    HW114597   2.699   3.501   8.690 -0.0165  1.3318  0.7442
 1046SOL    HW214598   2.564   3.449   8.659  0.6488 -1.3585 -0.6582
 1047SOL     OW14599   3.788   2.716   6.871 -0.1787 -0.0885  0.3503
 1047SOL    HW114600   3.866   2.673   6.835 -0.2116 -1.9935  2.5905
 1047SOL    HW214601   3.760   2.652   6.936 -1.1374 -1.1720 -1.1460
 1048SOL     OW14602   3.975   3.199   1.914  0.3223  0.3776 -0.3298
 1048SOL    HW114603   3.934   3.254   1.981 -0.7398  0.6561 -1.2122
 1048SOL    HW214604   3.952   3.245   1.833  1.7025  2.1317  0.2778
 1049SOL     OW14605   1.240   1.904   8.343  0.0476  0.1863  0.3089
 1049SOL    HW114606   1.172   1.865   8.397  1.3043 -2.7207 -0.1974
 1049SOL    HW214607   1.288   1.821   8.342 -0.9905 -0.4213  2.0050
 1050SOL     OW14608   3.667   0.068   3.863  0.4914  0.9778 -0.5095
 1050SOL    HW114609   3.751   0.037   3.898 -0.5457 -0.0756  1.0102
 1050SOL    HW214610   3.627   4.711   3.825 -0.1385 -0.3904  3.0195
 1051SOL     OW14611   0.042   0.898  14.228  0.1063 -0.4797  0.3168
 1051SOL    HW114612   0.076   0.831  14.287  0.2518 -1.0163 -0.3835
 1051SOL    HW214613   0.014   0.967  14.289  0.6153 -0.2717  0.3136
 1052SOL     OW14614   4.550   3.366   8.472 -0.4847  0.0056  0.5126
 1052SOL    HW114615   4.535   3.423   8.548 -0.5204 -0.8506  1.1517
 1052SOL    HW214616   4.490   3.409   8.412  0.8795  1.3814  0.1307
 1053SOL     OW14617   4.460   0.869  11.597  0.3892  0.1659  0.3349
 1053SOL    HW114618   4.517   0.829  11.662 -0.2280  0.5076  1.0758
 1053SOL    HW214619   4.377   0.827  11.618  0.4266  0.1638  0.4752
 1054SOL     OW14620   0.852   3.615   0.951 -0.3184  0.2812  0.0972
 1054SOL    HW114621   0.933   3.663   0.967  0.0147 -0.6386  1.1145
 1054SOL    HW214622   0.870   3.545   0.888 -1.7720  1.1603 -1.2907
 1055SOL     OW14623   2.860   1.989   5.275  0.4257  0.2314  0.0700
 1055SOL    HW114624   2.775   1.964   5.237  0.1467  1.0372  0.1667
 1055SOL    HW214625   2.840   2.007   5.367 -1.6695  0.0588 -0.3397
 1056SOL     OW14626   4.593   0.748  10.948  0.0817 -0.6181  0.3422
 1056SOL    HW114627   4.558   0.801  11.019 -1.6362 -0.9974 -0.2170
 1056SOL    HW214628   4.532   0.675  10.940 -1.4890  0.9853 -2.1275
 1057SOL     OW14629   0.001   3.743  16.455 -0.2166  0.3536 -0.4469
 1057SOL    HW114630   4.653   3.796  16.414 -1.2853 -0.8352 -0.2071
 1057SOL    HW214631   0.020   3.794  16.534 -1.4963  1.9125 -1.1489
 1058SOL     OW14632   4.157   1.139   4.296 -0.1095  0.2983  0.4345
 1058SOL    HW114633   4.186   1.223   4.333  0.8074 -0.2419  0.9416
 1058SOL    HW214634   4.137   1.085   4.373  0.2037  0.0668  0.3546
 1059SOL     OW14635   1.102   2.679   3.785 -0.0732  0.1206  0.5340
 1059SOL    HW114636   1.085   2.758   3.836  0.0484  0.9953 -0.7904
 1059SOL    HW214637   1.084   2.710   3.696  0.4550 -1.8233 -0.2691
 1060SOL     OW14638   4.361   3.677   0.614 -0.1478 -0.5590 -0.3339
 1060SOL    HW114639   4.421   3.655   0.543  0.2261  0.0859 -0.2245
 1060SOL    HW214640   4.284   3.698   0.561 -0.2383  0.6821  0.2890
 1061SOL     OW14641   3.150   4.498   7.001 -0.4649  0.1337  0.0756
 1061SOL    HW114642   3.112   4.414   7.027 -0.9690  0.7553  1.3324
 1061SOL    HW214643   3.084   4.531   6.940 -0.2374 -1.3823 -1.0025
 1062SOL     OW14644   3.693   3.304   3.861 -0.2208 -0.3868 -0.2569
 1062SOL    HW114645   3.747   3.271   3.933  0.4493  1.7480  0.2281
 1062SOL    HW214646   3.762   3.364   3.831 -0.2665 -0.3232 -0.2346
 1063SOL     OW14647   1.422   1.941   2.858  0.1198  0.1642 -0.0758
 1063SOL    HW114648   1.509   1.980   2.862  0.1790  0.2804 -2.1268
 1063SOL    HW214649   1.444   1.852   2.829  1.4477  0.5382 -0.2354
 1064SOL     OW14650   3.180   4.033   9.949 -0.2676 -0.6180 -0.3079
 1064SOL    HW114651   3.220   4.047  10.034 -1.1488 -1.9323  0.3211
 1064SOL    HW214652   3.221   3.952   9.920  0.1968 -0.1885 -0.8465
 1065SOL     OW14653   4.427   1.234   6.642  0.1419  0.1671  0.0999
 1065SOL    HW114654   4.360   1.166   6.652  0.0913  0.2353  0.2155
 1065SOL    HW214655   4.497   1.196   6.696  1.3992  1.5116 -0.5621
 1066SOL     OW14656   1.868   0.157   9.557 -0.3402  0.2366  0.2164
 1066SOL    HW114657   1.852   0.246   9.588 -1.6603  0.3990 -0.9247
 1066SOL    HW214658   1.924   0.165   9.480  0.5786 -0.5681  0.8138
 1067SOL     OW14659   4.043   4.025   2.328 -0.1851  0.0098 -0.1937
 1067SOL    HW114660   3.964   4.063   2.290 -1.9279 -0.6395  2.8334
 1067SOL    HW214661   4.110   4.062   2.270  1.1369  0.2679  1.5237
 1068SOL     OW14662   3.696   0.685   0.636  0.1988 -0.2876 -0.3746
 1068SOL    HW114663   3.767   0.687   0.572 -1.0506 -1.2721 -1.7957
 1068SOL    HW214664   3.709   0.767   0.683 -1.0812  0.0859 -0.6477
 1069SOL     OW14665   4.026   3.373  10.769  0.4997 -0.2342 -0.6489
 1069SOL    HW114666   4.054   3.367  10.861  1.8772 -0.7166 -1.0912
 1069SOL    HW214667   3.995   3.461  10.748  1.7218  0.2430 -0.4765
 1070SOL     OW14668   0.096   0.580   4.461  0.0862  0.1109  0.2148
 1070SOL    HW114669   0.155   0.646   4.498 -0.7182 -1.5085  4.4132
 1070SOL    HW214670   0.117   0.588   4.368  3.8608 -1.2472  0.9350
 1071SOL     OW14671   1.901   2.508   7.536 -0.0231 -0.2847 -0.6520
 1071SOL    HW114672   1.850   2.443   7.487  0.2974 -0.2654 -1.0137
 1071SOL    HW214673   1.949   2.568   7.478  1.3434 -1.3856 -0.6485
 1072SOL     OW14674   2.283   4.001   1.936 -0.2641  0.4734 -0.5718
 1072SOL    HW114675   2.194   4.019   1.903  0.0681  0.5944 -1.3921
 1072SOL    HW214676   2.276   3.918   1.984  2.5779  1.8442  2.2443
 1073SOL     OW14677   3.387   3.979   8.175 -0.2921 -0.3065 -0.6817
 1073SOL    HW114678   3.351   3.897   8.141 -1.4833 -0.5414  1.1019
 1073SOL    HW214679   3.470   3.945   8.209 -0.8301  1.1539  2.1354
 1074SOL     OW14680   3.656   4.069   8.474 -0.0130 -0.5526 -0.2086
 1074SOL    HW114681   3.685   4.160   8.467  2.2131 -1.3365 -1.1487
 1074SOL    HW214682   3.617   4.061   8.561 -0.1992 -2.7535 -0.5082
 1075SOL     OW14683   1.070   1.468  17.543  0.0568  0.2943 -0.1100
 1075SOL    HW114684   1.048   1.552  17.583 -0.1242  0.3644 -0.3532
 1075SOL    HW214685   1.000   1.468  17.477 -0.6542  0.2420  0.6407
 1076SOL     OW14686   4.023   1.551   6.902  0.6621  0.0287 -0.1115
 1076SOL    HW114687   4.082   1.498   6.850  0.8015 -2.9173  3.0659
 1076SOL    HW214688   4.035   1.640   6.867  0.5906  0.1749  0.2298
 1077SOL     OW14689   1.670   0.701   6.978 -0.5432  0.0636  0.2901
 1077SOL    HW114690   1.731   0.678   7.048  1.5190  0.3843 -1.4137
 1077SOL    HW214691   1.704   0.780   6.935 -1.3008  0.6237  0.7195
 1078SOL     OW14692   1.774   4.437   5.079  0.1657  0.2597 -0.1899
 1078SOL    HW114693   1.725   4.355   5.069  1.6637 -0.9577  2.3532
 1078SOL    HW214694   1.717   4.483   5.141 -0.2738 -0.9473  0.3079
 1079SOL     OW14695   4.445   1.549  17.001  0.3912  0.3963  0.0725
 1079SOL    HW114696   4.499   1.490  16.947  0.0878  0.7497 -0.6187
 1079SOL    HW214697   4.458   1.637  16.967  2.8947  0.8898  2.3101
 1080SOL     OW14698   0.454   3.424   7.276  0.4124 -0.1975  0.4930
 1080SOL    HW114699   0.419   3.364   7.211 -1.0868 -0.6537  1.7183
 1080SOL    HW214700   0.544   3.393   7.276  0.6034  0.3483 -0.8474
 1081SOL     OW14701   3.712   1.001   9.758  0.1560 -0.0207  0.3518
 1081SOL    HW114702   3.690   1.076   9.813 -0.2843  0.3730 -0.3543
 1081SOL    HW214703   3.716   0.935   9.827 -0.6597 -0.9195 -0.4507
 1082SOL     OW14704   2.754   1.225   3.876 -0.4562 -0.2069 -0.6128
 1082SOL    HW114705   2.737   1.318   3.857  2.1429  0.5957  0.9500
 1082SOL    HW214706   2.758   1.232   3.972 -0.3790 -0.1926 -0.6166
 1083SOL     OW14707   2.437   3.129   9.436 -0.2892  0.0604  0.0335
 1083SOL    HW114708   2.383   3.178   9.499 -0.0391 -0.9507  1.0411
 1083SOL    HW214709   2.493   3.198   9.402  0.0971  0.2399  1.0234
 1084SOL     OW14710   0.249   1.380  16.328  0.3752 -0.3796 -0.2714
 1084SOL    HW114711   0.225   1.289  16.314 -4.5190  1.0379 -1.1995
 1084SOL    HW214712   0.169   1.424  16.299 -0.2958 -0.4025  1.5195
 1085SOL     OW14713   0.894   3.848  10.768 -0.1953 -0.1230 -0.6367
 1085SOL    HW114714   0.944   3.930  10.772 -0.1890 -0.0763 -1.6779
 1085SOL    HW214715   0.827   3.860  10.836 -1.1422 -0.8486 -1.4428
 1086SOL     OW14716   3.874   0.766  10.414 -0.5345 -0.2068  0.3265
 1086SOL    HW114717   3.946   0.740  10.356  0.8851  1.7741  1.2085
 1086SOL    HW214718   3.866   0.860  10.400 -0.7160 -0.4683 -1.3199
 1087SOL     OW14719   0.176   4.634   1.222  0.1268  0.4085 -0.6860
 1087SOL    HW114720   0.244   4.660   1.159 -0.5721  0.1268 -1.5538
 1087SOL    HW214721   0.107   4.606   1.162 -0.4009 -2.5323  1.3259
 1088SOL     OW14722   2.760   3.016   8.752  0.2908 -0.7264 -0.2837
 1088SOL    HW114723   2.672   2.990   8.725  0.8140 -2.8658  0.0431
 1088SOL    HW214724   2.788   2.971   8.832  1.1651  1.0738  0.4086
 1089SOL     OW14725   0.988   1.542   2.237 -0.0139  0.1835 -0.2054
 1089SOL    HW114726   0.920   1.530   2.302  1.6798  1.8291  1.8525
 1089SOL    HW214727   1.024   1.455   2.258 -2.5296 -1.4525 -2.6712
 1090SOL     OW14728   1.667   3.507   5.348 -0.1363 -0.0612 -0.5407
 1090SOL    HW114729   1.723   3.570   5.301  1.0073 -1.6938 -1.3889
 1090SOL    HW214730   1.590   3.515   5.292 -0.4050  1.0574 -0.0137
 1091SOL     OW14731   0.295   2.996  17.582 -0.2158  0.4172 -0.3289
 1091SOL    HW114732   0.292   3.092  17.579  0.9403  0.5130  1.5275
 1091SOL    HW214733   0.244   2.968  17.505 -0.6370  1.2415 -0.3593
 1092SOL     OW14734   1.864   4.474  16.447  0.1888  0.0164 -0.1549
 1092SOL    HW114735   1.803   4.533  16.403  2.2042  1.4044 -1.0852
 1092SOL    HW214736   1.890   4.415  16.377 -0.2651  1.9545 -1.9387
 1093SOL     OW14737   0.616   1.929  11.963  0.0103 -0.3957  0.1034
 1093SOL    HW114738   0.692   1.945  11.907  0.0228 -2.3541 -0.4368
 1093SOL    HW214739   0.572   1.874  11.898  0.1491 -0.5722  0.1570
 1094SOL     OW14740   4.302   1.273   5.277 -0.1027  0.2719 -0.1477
 1094SOL    HW114741   4.310   1.198   5.336  2.2676  1.6636  1.2672
 1094SOL    HW214742   4.233   1.324   5.320 -0.4276 -0.7915  0.5954
 1095SOL     OW14743   1.627   2.819   3.316  0.2042  0.0713  0.1620
 1095SOL    HW114744   1.607   2.794   3.407 -1.4373 -1.2837 -0.5702
 1095SOL    HW214745   1.719   2.793   3.309  0.3660  0.7210 -0.0863
 1096SOL     OW14746   0.048   4.380   2.228 -0.0089 -0.1721  0.3012
 1096SOL    HW114747   0.011   4.456   2.273  0.0075  0.9329 -1.5727
 1096SOL    HW214748   4.703   4.313   2.246 -0.4187  0.3211  0.6036
 1097SOL     OW14749   0.673   2.471   5.836 -0.0335 -1.0102  0.4346
 1097SOL    HW114750   0.585   2.451   5.804  0.4044  0.4056 -1.5730
 1097SOL    HW214751   0.687   2.532   5.765  2.7042 -0.7473  1.1781
 1098SOL     OW14752   1.192   1.916   3.415 -0.1554 -0.4076  0.1354
 1098SOL    HW114753   1.210   1.879   3.502 -1.1172 -0.6476  0.2304
 1098SOL    HW214754   1.103   1.893   3.389 -0.4411  1.3090 -0.4524
 1099SOL     OW14755   2.607   2.710   7.417 -0.0100  0.2162 -0.0972
 1099SOL    HW114756   2.618   2.767   7.493 -1.6967 -0.5028  0.6911
 1099SOL    HW214757   2.666   2.639   7.442 -2.0753 -1.2733  0.4877
 1100SOL     OW14758   3.693   0.963   5.978  0.3291 -0.6027 -0.5345
 1100SOL    HW114759   3.770   0.944   6.032 -1.7887  0.8203  2.9682
 1100SOL    HW214760   3.711   1.050   5.943 -0.0149 -0.0494  0.6402
 1101SOL     OW14761   0.135   2.595   6.884  0.1433  0.0061 -0.3896
 1101SOL    HW114762   0.051   2.588   6.840 -0.0765  0.8044 -0.1064
 1101SOL    HW214763   0.158   2.508   6.916  0.2561  0.6086  1.1591
 1102SOL     OW14764   3.743   2.887   9.113  0.2336  0.2587 -0.1148
 1102SOL    HW114765   3.728   2.931   9.029  2.9297 -0.1641 -0.7933
 1102SOL    HW214766   3.657   2.910   9.150  0.1329 -2.9757  1.7096
 1103SOL     OW14767   0.212   2.157   0.906  0.1713  0.1951  0.2296
 1103SOL    HW114768   0.190   2.135   0.815 -1.1383 -0.5664  0.7278
 1103SOL    HW214769   0.145   2.221   0.928 -2.0280 -1.3269 -2.0185
 1104SOL     OW14770   4.432   4.332   2.779 -0.0611 -0.2111 -0.0618
 1104SOL    HW114771   4.396   4.417   2.802 -1.4109 -0.7474 -0.1578
 1104SOL    HW214772   4.491   4.346   2.704  1.3837  0.3542  1.1854
 1105SOL     OW14773   1.048   0.503   4.026 -0.0980 -0.4558  0.0549
 1105SOL    HW114774   0.983   0.536   3.963 -1.9271 -3.4077  0.3762
 1105SOL    HW214775   1.049   0.559   4.104 -2.0172  1.0909 -1.0281
 1106SOL     OW14776   0.272   3.928   6.711 -0.0332  0.0022 -0.2089
 1106SOL    HW114777   0.289   3.927   6.806  0.6198 -1.7899 -0.3477
 1106SOL    HW214778   0.177   3.919   6.704 -0.0838 -0.8466  1.3830
 1107SOL     OW14779   0.685   3.883   7.094 -0.4901 -0.4029  0.4388
 1107SOL    HW114780   0.674   3.871   6.999  0.1680 -1.0911  0.4529
 1107SOL    HW214781   0.738   3.962   7.098 -1.3259  0.1970 -0.2164
 1108SOL     OW14782   4.582   1.840   0.229  0.4028  0.5390 -0.0770
 1108SOL    HW114783   4.594   1.795   0.313 -0.5972 -1.9538 -1.2609
 1108SOL    HW214784   4.607   1.775   0.164 -1.8181  0.3763 -0.7797
 1109SOL     OW14785   0.836   0.872   6.526 -0.0175 -0.4520 -0.0011
 1109SOL    HW114786   0.826   0.957   6.569  0.9267 -0.3590  0.0387
 1109SOL    HW214787   0.921   0.890   6.485 -0.8365 -0.3694 -1.6611
 1110SOL     OW14788   0.196   1.169   7.104 -0.2972 -0.3497  0.1113
 1110SOL    HW114789   0.177   1.076   7.112  3.5121 -1.1113  0.1927
 1110SOL    HW214790   0.276   1.168   7.051 -1.6451 -0.3823 -1.9068
 1111SOL     OW14791   2.837   1.719   1.251  0.4397  0.0690 -0.2123
 1111SOL    HW114792   2.867   1.710   1.341  0.2842  1.8856  0.0237
 1111SOL    HW214793   2.896   1.656   1.210  0.0954  0.5084 -1.3923
 1112SOL     OW14794   0.267   1.378   1.076  0.0970 -0.1935 -0.0146
 1112SOL    HW114795   0.359   1.399   1.063 -0.2612  1.8448  0.8428
 1112SOL    HW214796   0.264   1.311   1.008 -1.2900  0.2135 -0.3577
 1113SOL     OW14797   2.742   3.061   8.165 -0.1007 -0.8037  0.1462
 1113SOL    HW114798   2.796   3.004   8.219  0.9210 -0.2347 -0.2826
 1113SOL    HW214799   2.805   3.112   8.113 -2.2244  0.9391 -0.7447
 1114SOL     OW14800   1.669   0.990   4.200  0.2165 -0.2297  0.3770
 1114SOL    HW114801   1.702   1.002   4.111 -2.9279  1.0304 -0.6301
 1114SOL    HW214802   1.573   0.992   4.192  0.2322  2.5616  0.9519
 1115SOL     OW14803   1.330   3.534   4.952  0.2486 -0.4728 -0.3505
 1115SOL    HW114804   1.296   3.446   4.933  0.3441 -0.2310 -1.6442
 1115SOL    HW214805   1.254   3.592   4.944  3.1083  3.2589 -0.1655
 1116SOL     OW14806   2.866   2.814   5.256  0.1211  0.0987 -0.3471
 1116SOL    HW114807   2.960   2.813   5.276 -0.6071 -2.2110  2.8322
 1116SOL    HW214808   2.828   2.797   5.341  1.2131  0.5762  0.2365
 1117SOL     OW14809   4.502   1.602  10.327  0.5656  0.2073  0.4707
 1117SOL    HW114810   4.411   1.575  10.329  0.8485 -0.8404 -0.6037
 1117SOL    HW214811   4.529   1.519  10.287 -1.8184 -0.1928 -0.2669
 1118SOL     OW14812   1.650   2.310   5.096  0.2523  0.0894 -0.2002
 1118SOL    HW114813   1.556   2.327   5.095  0.2575  0.0944 -0.8061
 1118SOL    HW214814   1.675   2.400   5.115  0.0688  0.3867 -1.3503
 1119SOL     OW14815   2.700   3.965   5.787 -0.0577  0.1142  0.0272
 1119SOL    HW114816   2.771   3.913   5.751  0.0704 -0.6093  1.3181
 1119SOL    HW214817   2.736   4.053   5.795  1.2687 -0.4687  0.4442
 1120SOL     OW14818   3.714   4.176   7.402 -0.4926 -0.5476 -0.3573
 1120SOL    HW114819   3.749   4.120   7.333  0.3958  0.2254 -0.5315
 1120SOL    HW214820   3.646   4.221   7.351  0.3764  0.7812 -0.3375
 1121SOL     OW14821   1.054   3.316   9.630 -0.3156 -0.4235  0.2465
 1121SOL    HW114822   1.103   3.256   9.687  0.4225 -1.3752 -1.4022
 1121SOL    HW214823   1.000   3.363   9.694 -0.9378 -0.1569 -0.4837
 1122SOL     OW14824   1.481   3.971   4.926  0.2771 -1.0508  0.6928
 1122SOL    HW114825   1.496   3.901   4.862  0.6146 -1.1869  0.9210
 1122SOL    HW214826   1.495   4.045   4.868 -0.4702 -0.0796  1.7636
 1123SOL     OW14827   1.556   3.765  13.283 -0.3688  0.3471  0.2381
 1123SOL    HW114828   1.642   3.757  13.243 -0.8915  0.6641 -0.9677
 1123SOL    HW214829   1.519   3.843  13.242  1.2549  1.3745  0.7403
 1124SOL     OW14830   1.122   0.579   9.068 -0.3142  0.1411  0.1578
 1124SOL    HW114831   1.137   0.502   9.123  0.6582  0.6734  0.6367
 1124SOL    HW214832   1.210   0.611   9.050  0.9696 -1.5693  3.2451
 1125SOL     OW14833   4.674   0.463   7.626  0.9277  0.4130 -0.7008
 1125SOL    HW114834   4.618   0.496   7.696  0.5056  0.8132 -1.2311
 1125SOL    HW214835   0.032   0.432   7.670  0.7330 -0.1186 -0.7158
 1126SOL     OW14836   2.836   3.292  14.906 -0.2483  0.5136  0.3856
 1126SOL    HW114837   2.773   3.312  14.836 -0.3193 -0.2547  0.2238
 1126SOL    HW214838   2.890   3.224  14.865  1.3509  2.3704 -0.5953
 1127SOL     OW14839   4.239   3.422   7.231  0.6250 -0.1026 -0.0172
 1127SOL    HW114840   4.243   3.493   7.167  1.8685 -1.5001 -1.4764
 1127SOL    HW214841   4.329   3.412   7.264  0.2454 -2.1354  0.3970
 1128SOL     OW14842   0.521   0.404   0.715  0.1681  0.3827 -0.1754
 1128SOL    HW114843   0.557   0.316   0.722 -3.3817 -0.8571  2.6824
 1128SOL    HW214844   0.529   0.427   0.623  2.1665 -0.9091 -0.3207
 1129SOL     OW14845   1.020   4.158  13.275  0.4766 -0.5237  0.3733
 1129SOL    HW114846   1.099   4.200  13.244  1.3843 -0.8156  2.3023
 1129SOL    HW214847   1.003   4.105  13.197 -0.2865  0.9721 -0.4808
 1130SOL     OW14848   4.605   2.777  17.559 -0.2197 -0.4985  0.1736
 1130SOL    HW114849   4.561   2.728  17.628 -0.4848 -2.1312 -1.1579
 1130SOL    HW214850   4.651   2.837  17.618 -1.2682  1.8941 -1.4077
 1131SOL     OW14851   1.443   3.314   6.281  0.0792  0.0204 -0.4902
 1131SOL    HW114852   1.513   3.359   6.235  0.2387  0.2839  0.0084
 1131SOL    HW214853   1.458   3.335   6.373  1.1742  1.5097 -1.0140
 1132SOL     OW14854   1.002   1.856   5.044  0.0977 -0.6117 -0.1504
 1132SOL    HW114855   1.096   1.861   5.029  0.2154  0.7430  0.9568
 1132SOL    HW214856   1.007   1.884   5.136  1.2804 -0.7125 -0.1790
 1133SOL     OW14857   0.157   1.761  15.302 -0.0982 -0.5655 -0.6129
 1133SOL    HW114858   0.224   1.807  15.251  1.0121  1.5948  2.8091
 1133SOL    HW214859   0.109   1.735  15.223 -0.6067 -2.6391  0.3704
 1134SOL     OW14860   0.257   3.155   6.591  0.3528 -0.5501 -0.0020
 1134SOL    HW114861   0.270   3.065   6.563 -0.4239 -0.2142 -1.4478
 1134SOL    HW214862   0.162   3.165   6.581  0.8890  1.1875 -3.5802
 1135SOL     OW14863   3.930   4.311   7.130  0.0933  0.4469  0.1430
 1135SOL    HW114864   3.930   4.224   7.170 -2.6271  0.1307 -0.5785
 1135SOL    HW214865   3.890   4.294   7.045 -3.5064 -1.8854  2.3236
 1136SOL     OW14866   3.420   4.561  14.320 -0.3371 -0.3695  0.1463
 1136SOL    HW114867   3.496   4.512  14.352  0.5258  1.0173  0.2324
 1136SOL    HW214868   3.360   4.565  14.394  1.5404  0.4411  1.6174
 1137SOL     OW14869   4.607   3.370   6.243 -0.0932 -0.1106  0.3416
 1137SOL    HW114870   4.636   3.416   6.165 -1.3283 -1.3538 -0.8371
 1137SOL    HW214871   4.680   3.316   6.273  0.5930 -0.1070 -1.3906
 1138SOL     OW14872   3.481   2.376   7.983  0.4941  0.2186 -0.1179
 1138SOL    HW114873   3.486   2.436   8.057 -0.6917  0.7547 -0.4783
 1138SOL    HW214874   3.449   2.303   8.036 -0.5167 -0.8764 -2.2318
 1139SOL     OW14875   1.627   3.064   4.782 -0.5311  0.0573  0.0817
 1139SOL    HW114876   1.617   3.071   4.877 -3.2900  0.6981 -0.2492
 1139SOL    HW214877   1.702   3.120   4.767 -1.3624  0.4227 -2.7894
 1140SOL     OW14878   3.652   1.555   0.700  0.2300  0.0033 -0.5926
 1140SOL    HW114879   3.640   1.645   0.670  2.6694  0.4743 -0.1376
 1140SOL    HW214880   3.746   1.561   0.716  0.0333 -1.1050  0.9673
 1141SOL     OW14881   1.573   2.648   9.225 -0.1310 -0.1486 -0.2191
 1141SOL    HW114882   1.585   2.659   9.320 -1.8873  1.2468 -0.1470
 1141SOL    HW214883   1.629   2.572   9.211  1.8803  0.9308  2.0333
 1142SOL     OW14884   0.821   4.657   2.428  0.3574 -0.3138 -0.1083
 1142SOL    HW114885   0.856   4.568   2.425 -1.2288 -0.9311 -0.7767
 1142SOL    HW214886   0.751   4.638   2.490 -1.1402 -0.4003 -1.7961
 1143SOL     OW14887   4.092   2.941  10.540  0.3677  0.1890 -0.7203
 1143SOL    HW114888   4.170   2.954  10.487  0.1186  3.8149 -0.1545
 1143SOL    HW214889   4.078   3.021  10.590  1.6211 -0.7299  1.0988
 1144SOL     OW14890   3.682   2.668   7.660  0.6184  0.1044  0.8800
 1144SOL    HW114891   3.634   2.743   7.696 -1.4709 -0.0230 -1.6523
 1144SOL    HW214892   3.611   2.641   7.601  0.0166  0.3240  1.5090
 1145SOL     OW14893   3.221   1.280   6.700 -0.5240 -0.1380 -0.0774
 1145SOL    HW114894   3.129   1.284   6.727 -0.5320 -1.0177  0.0088
 1145SOL    HW214895   3.220   1.220   6.625 -0.5313 -1.1000  0.6961
 1146SOL     OW14896   0.316   4.577   8.561  0.2211  0.2687 -0.1478
 1146SOL    HW114897   0.242   4.517   8.573 -0.4344  1.0950 -0.0160
 1146SOL    HW214898   0.379   4.518   8.519  0.0355  0.7959 -1.1591
 1147SOL     OW14899   0.344   0.392   4.041 -0.0893 -0.3041 -0.7104
 1147SOL    HW114900   0.390   0.428   3.965  2.4557 -0.2283  0.9006
 1147SOL    HW214901   0.295   0.323   3.995  1.2581 -1.8834  0.2484
 1148SOL     OW14902   3.733   3.859   9.242  0.7358 -0.2195  0.7094
 1148SOL    HW114903   3.647   3.893   9.222  2.1139  1.1636 -2.7995
 1148SOL    HW214904   3.714   3.804   9.318  0.5881 -0.4221  0.5233
 1149SOL     OW14905   1.421   0.918   3.145  0.1819 -0.1794  0.2380
 1149SOL    HW114906   1.345   0.870   3.111  1.0488  1.2485 -3.6788
 1149SOL    HW214907   1.498   0.862   3.136  0.6140  0.1030  2.0615
 1150SOL     OW14908   3.827   2.426   2.986 -0.0839  0.2569  0.0454
 1150SOL    HW114909   3.860   2.465   3.067  1.0168  0.4797 -0.5107
 1150SOL    HW214910   3.849   2.484   2.914 -0.3305 -0.1589 -0.3682
 1151SOL     OW14911   3.403   4.185  17.016  0.1600  0.1040 -0.9226
 1151SOL    HW114912   3.420   4.183  16.922 -0.3958  1.3346 -1.0503
 1151SOL    HW214913   3.439   4.271  17.040  1.4603 -0.3622 -1.1828
 1152SOL     OW14914   3.942   2.386   3.520 -0.0373  0.0899  0.3360
 1152SOL    HW114915   3.969   2.477   3.533 -2.6191  1.2632 -2.5051
 1152SOL    HW214916   4.007   2.343   3.575  1.0861  0.2261 -0.8733
 1153SOL     OW14917   0.018   4.620   7.223  0.3073 -0.0874  0.0622
 1153SOL    HW114918   0.080   4.557   7.260 -0.5408 -0.1898  1.2967
 1153SOL    HW214919   4.656   4.584   7.256 -0.3156 -0.0100 -1.4362
 1154SOL     OW14920   3.766   2.439   2.376 -0.0917 -0.7574 -0.0305
 1154SOL    HW114921   3.798   2.388   2.301 -1.0168 -2.0656  0.4525
 1154SOL    HW214922   3.720   2.372   2.428  0.9562 -0.4712  1.2699
 1155SOL     OW14923   0.454   4.467   9.679 -0.1059  0.1146 -0.1845
 1155SOL    HW114924   0.431   4.391   9.626  3.9474 -0.1614 -1.5569
 1155SOL    HW214925   0.549   4.474   9.671  0.0080  1.0577  2.0771
 1156SOL     OW14926   0.361   0.435   2.003 -0.7862  0.1461 -0.2161
 1156SOL    HW114927   0.269   0.446   1.979  0.0599 -0.0911 -3.5910
 1156SOL    HW214928   0.383   0.391   1.921  2.8312  1.6305 -0.0442
 1157SOL     OW14929   3.812   4.162  12.760  0.5165  1.1609  0.2668
 1157SOL    HW114930   3.811   4.211  12.678  2.3401 -0.3301 -0.6585
 1157SOL    HW214931   3.831   4.072  12.730  1.0355  1.7814 -1.2875
 1158SOL     OW14932   1.885   4.588   8.192  0.4482  0.2237 -0.5180
 1158SOL    HW114933   1.809   4.635   8.226  0.2468 -1.0702  0.8529
 1158SOL    HW214934   1.860   4.496   8.205  0.8258  0.4645  1.9530
 1159SOL     OW14935   1.580   2.288   7.552  0.2309  0.0379 -0.4103
 1159SOL    HW114936   1.560   2.348   7.480  0.2667  1.0925  0.4582
 1159SOL    HW214937   1.557   2.331   7.634  2.7648  0.8402 -0.1081
 1160SOL     OW14938   1.267   0.014   7.421 -0.3577  0.5448 -0.4614
 1160SOL    HW114939   1.186   0.033   7.468 -0.1286 -1.8114  0.8995
 1160SOL    HW214940   1.331   0.068   7.468 -2.9360  2.1380  1.2187
 1161SOL     OW14941   2.629   3.537  15.257 -0.4679 -0.3859 -0.0492
 1161SOL    HW114942   2.582   3.604  15.207  0.4299  1.3269  1.3947
 1161SOL    HW214943   2.565   3.466  15.261  0.1679 -1.1068 -2.2420
 1162SOL     OW14944   0.141   4.208   2.830 -0.0376  0.0245 -0.1277
 1162SOL    HW114945   0.219   4.178   2.784 -0.4700  0.1948 -0.9734
 1162SOL    HW214946   0.185   4.276   2.882 -2.0885 -0.2039  1.9185
 1163SOL     OW14947   3.685   4.315   4.516  0.4233  0.4746 -0.2967
 1163SOL    HW114948   3.663   4.329   4.424  0.5804 -0.0733 -0.4192
 1163SOL    HW214949   3.599   4.284   4.544  0.3301  1.9840  1.0992
 1164SOL     OW14950   3.554   4.342  13.304  0.1130 -0.2514  0.0149
 1164SOL    HW114951   3.497   4.360  13.228  1.4840  1.4905 -0.5857
 1164SOL    HW214952   3.634   4.393  13.292 -0.5520  0.8657  0.3211
 1165SOL     OW14953   2.819   2.627   3.302  0.2391  0.1860 -0.0779
 1165SOL    HW114954   2.907   2.594   3.315  0.5480  1.3632  0.8362
 1165SOL    HW214955   2.768   2.571   3.360  0.8580  0.9054  1.1637
 1166SOL     OW14956   0.752   0.737  15.968 -0.0221 -0.2162  0.2437
 1166SOL    HW114957   0.662   0.737  16.002 -1.0273  1.5589 -2.3728
 1166SOL    HW214958   0.779   0.651  15.998  1.1814 -0.3029 -1.0846
 1167SOL     OW14959   4.095   0.413   6.078  0.2412  0.0522  0.0254
 1167SOL    HW114960   4.118   0.504   6.095 -1.5140  0.0211  2.5831
 1167SOL    HW214961   4.066   0.383   6.164  2.3498 -0.3196  0.6044
 1168SOL     OW14962   0.724   2.847   4.690 -0.3939  0.1462  0.4357
 1168SOL    HW114963   0.767   2.911   4.633 -1.8802 -0.6316 -1.5127
 1168SOL    HW214964   0.697   2.897   4.767  2.3763  1.4454  0.5610
 1169SOL     OW14965   2.630   2.744   4.212 -0.0440  0.1532  0.3097
 1169SOL    HW114966   2.536   2.743   4.233 -0.6619  1.0468 -2.4432
 1169SOL    HW214967   2.663   2.784   4.292 -3.1526 -1.2281  2.2938
 1170SOL     OW14968   2.145   2.749   1.255  0.4388  0.7007 -0.2708
 1170SOL    HW114969   2.129   2.792   1.171 -0.8334 -1.5504 -1.1663
 1170SOL    HW214970   2.239   2.743   1.240 -0.1683 -2.1392 -2.8978
 1171SOL     OW14971   3.213   0.742   3.546 -0.3106 -0.2149 -0.2787
 1171SOL    HW114972   3.188   0.830   3.575 -1.2738 -0.3749 -0.6007
 1171SOL    HW214973   3.308   0.734   3.542 -0.2894 -1.0804  1.8399
 1172SOL     OW14974   1.372   2.903   6.758  0.4178  0.4096 -0.0202
 1172SOL    HW114975   1.463   2.890   6.733  0.0652 -3.5825  0.7039
 1172SOL    HW214976   1.376   2.954   6.839 -0.1750 -0.9344  0.8676
 1173SOL     OW14977   3.996   0.565   4.378 -0.0376  0.3160  0.1918
 1173SOL    HW114978   3.993   0.482   4.331 -2.8728  0.1038  0.7063
 1173SOL    HW214979   3.908   0.575   4.415 -0.6654 -2.0827 -0.6388
 1174SOL     OW14980   3.780   1.394   7.153  0.8573 -1.0173  0.3062
 1174SOL    HW114981   3.786   1.364   7.244  1.5427 -1.2404  0.1875
 1174SOL    HW214982   3.869   1.387   7.117  0.7084  1.0492 -0.4530
 1175SOL     OW14983   4.344   3.386   6.184 -0.1999  0.2980  0.1865
 1175SOL    HW114984   4.439   3.374   6.181  0.0091  1.8259  0.9174
 1175SOL    HW214985   4.339   3.460   6.243 -1.7722  0.5289 -0.2320
 1176SOL     OW14986   3.134   2.703   1.482 -0.4183 -0.2094  0.5578
 1176SOL    HW114987   3.145   2.655   1.564 -0.2682  1.6815  1.6484
 1176SOL    HW214988   3.101   2.634   1.425 -1.5237  1.5153 -0.8617
 1177SOL     OW14989   4.077   3.168   3.720  0.2214 -0.5685  0.4990
 1177SOL    HW114990   4.006   3.223   3.689  1.3472  0.2167 -0.6605
 1177SOL    HW214991   4.037   3.100   3.775  0.4213 -1.1316 -0.0501
 1178SOL     OW14992   2.795   2.972   5.653  0.5583  0.2764 -0.7610
 1178SOL    HW114993   2.806   2.996   5.745 -0.6219 -1.4417 -0.1730
 1178SOL    HW214994   2.858   3.031   5.611  1.7962 -0.6478 -0.2193
 1179SOL     OW14995   0.003   0.987   5.512  0.5093  0.4107  0.9610
 1179SOL    HW114996   4.699   0.897   5.488  0.5605  0.2427  1.5353
 1179SOL    HW214997   0.096   0.977   5.531  0.4545  0.6129  1.3327
 1180SOL     OW14998   0.710   0.203   0.725  0.0825 -0.0798 -0.1598
 1180SOL    HW114999   0.695   0.142   0.653 -0.1665  0.3695 -0.4877
 1180SOL    HW215000   0.796   0.237   0.703  0.1235  0.8745  1.4539
 1181SOL     OW15001   0.821   3.693  12.045  0.1576 -0.1338  0.7261
 1181SOL    HW115002   0.868   3.715  12.126  1.5904  1.2268 -0.4622
 1181SOL    HW215003   0.875   3.746  11.987 -0.3784 -1.1933 -0.7317
 1182SOL     OW15004   4.211   0.263  13.329 -0.5154 -0.3463 -0.3875
 1182SOL    HW115005   4.254   0.201  13.388 -2.0019 -2.0293 -1.0845
 1182SOL    HW215006   4.153   0.303  13.394  0.5677  0.7475 -0.0996
 1183SOL     OW15007   0.918   0.546   3.453  0.4552 -0.3261 -0.1312
 1183SOL    HW115008   1.009   0.575   3.455  1.2671 -2.9233  0.7811
 1183SOL    HW215009   0.900   0.547   3.359 -2.4662  2.2719  0.4615
 1184SOL     OW15010   2.735   0.219   7.256 -0.4793  0.2373  0.0887
 1184SOL    HW115011   2.685   0.202   7.337 -1.2854 -1.4672 -0.7619
 1184SOL    HW215012   2.743   0.314   7.252 -0.3984  0.2820  1.3733
 1185SOL     OW15013   2.574   0.451   8.589 -0.1026 -0.1212  0.0429
 1185SOL    HW115014   2.532   0.504   8.521  1.0338 -2.0731 -2.1624
 1185SOL    HW215015   2.503   0.440   8.652 -1.1996  0.7477 -1.0473
 1186SOL     OW15016   1.472   1.453   6.874  0.0914  0.1485  0.2011
 1186SOL    HW115017   1.420   1.530   6.851 -0.0402 -0.4871 -1.5862
 1186SOL    HW215018   1.409   1.385   6.848  1.2085 -0.4768 -0.8455
 1187SOL     OW15019   2.502   3.396  10.531  0.9168  0.2339  0.4150
 1187SOL    HW115020   2.448   3.320  10.508  1.2231 -0.0337  0.5776
 1187SOL    HW215021   2.436   3.454  10.568  0.3519 -0.1643  0.0254
 1188SOL     OW15022   1.175   3.080   4.294 -0.0174 -0.1210 -0.3415
 1188SOL    HW115023   1.161   3.160   4.242  1.3201  1.5473  1.8405
 1188SOL    HW215024   1.268   3.061   4.282 -0.3765 -2.0568 -0.0632
 1189SOL     OW15025   0.441   3.123  14.188 -0.0056  0.3433 -0.2209
 1189SOL    HW115026   0.429   3.201  14.134 -1.4338  0.9260  0.9298
 1189SOL    HW215027   0.514   3.154  14.243 -0.5673  1.3219 -0.0266
 1190SOL     OW15028   4.704   4.607  10.965 -0.2798 -1.1554  0.3334
 1190SOL    HW115029   4.673   4.682  11.015  0.7718  0.6498 -1.7059
 1190SOL    HW215030   0.032   4.647  10.892 -0.7206 -0.1310  0.5951
 1191SOL     OW15031   1.340   4.162  17.653 -0.4942 -0.2122 -0.0593
 1191SOL    HW115032   1.397   4.088  17.629  0.3342  0.2701  0.4297
 1191SOL    HW215033   1.337   4.209  17.570  2.4098  1.1100  0.5788
 1192SOL     OW15034   1.608   1.205   2.858 -0.4927 -0.1355  0.2593
 1192SOL    HW115035   1.651   1.140   2.803  1.3355 -0.2211  1.7761
 1192SOL    HW215036   1.522   1.166   2.875 -0.5938 -1.1897 -2.7045
 1193SOL     OW15037   1.096   3.685   3.207 -0.0827  0.4171  0.6086
 1193SOL    HW115038   1.091   3.708   3.300 -2.0256 -0.8863  0.8419
 1193SOL    HW215039   1.188   3.662   3.200  0.0038  1.1403 -0.7232
 1194SOL     OW15040   3.908   2.556   9.040 -0.7583  0.2782 -0.2424
 1194SOL    HW115041   3.937   2.646   9.024 -0.7289  0.1261 -1.0760
 1194SOL    HW215042   3.936   2.523   8.954 -1.8651  0.7013 -0.7600
 1195SOL     OW15043   1.326   4.470   7.437 -0.3571 -0.1873  0.3208
 1195SOL    HW115044   1.401   4.454   7.381  0.0955  1.4154  0.4892
 1195SOL    HW215045   1.312   4.564   7.433  1.7165 -0.0153 -2.1842
 1196SOL     OW15046   1.642   0.965   6.111  0.0557 -0.7062 -0.5535
 1196SOL    HW115047   1.712   1.023   6.084  1.8474 -1.6821  1.9682
 1196SOL    HW215048   1.600   0.950   6.026  0.7745 -1.4268 -0.7869
 1197SOL     OW15049   3.058   4.718   4.649  0.0755  0.0008  0.1945
 1197SOL    HW115050   3.053   0.022   4.556  0.6912  1.7708  0.6356
 1197SOL    HW215051   2.966   4.714   4.676 -0.3839 -0.0812 -1.3404
 1198SOL     OW15052   3.715   2.631  11.692 -0.1569  0.5112  0.1654
 1198SOL    HW115053   3.793   2.678  11.663  0.6999 -0.9696  0.0300
 1198SOL    HW215054   3.724   2.663  11.782  0.9847 -0.4935  0.4113
 1199SOL     OW15055   4.124   4.702   2.662  0.5123  0.6354 -0.4803
 1199SOL    HW115056   4.045   4.716   2.609  0.0924  0.7291  0.1801
 1199SOL    HW215057   4.174   0.059   2.636  0.2012  0.5651 -1.3054
 1200SOL     OW15058   1.969   2.583   3.713 -0.0531  0.1648 -0.6348
 1200SOL    HW115059   1.923   2.657   3.753 -0.0418  0.7038 -1.6169
 1200SOL    HW215060   2.049   2.622   3.679  1.3708 -0.6669  1.7868
 1201SOL     OW15061   1.738   0.442   8.891  0.1555 -0.7478 -0.3650
 1201SOL    HW115062   1.664   0.421   8.834  1.2060 -2.2002 -1.1848
 1201SOL    HW215063   1.818   0.425   8.842  2.2981 -1.6430  3.4350
 1202SOL     OW15064   1.126   3.242   6.449  0.2655 -0.1188 -0.4697
 1202SOL    HW115065   1.147   3.194   6.528 -1.9010  0.7510  0.6372
 1202SOL    HW215066   1.155   3.332   6.462 -0.9967  0.2714 -0.3481
 1203SOL     OW15067   3.752   2.310   6.296  0.1667  0.1737  0.3009
 1203SOL    HW115068   3.675   2.366   6.312 -0.4040 -0.7896  0.9342
 1203SOL    HW215069   3.748   2.261   6.377 -0.0311 -0.0198  0.1761
 1204SOL     OW15070   3.236   2.395   6.590 -0.7461 -0.8145  0.2059
 1204SOL    HW115071   3.152   2.433   6.618 -1.2168 -1.1262 -0.7840
 1204SOL    HW215072   3.266   2.458   6.525 -2.6122 -1.2160 -1.0468
 1205SOL     OW15073   0.510   3.750   7.982  0.1741  0.3946 -0.3518
 1205SOL    HW115074   0.506   3.654   7.984  0.2981  0.3821 -0.7874
 1205SOL    HW215075   0.566   3.767   7.906 -0.2239  1.3620 -0.4252
 1206SOL     OW15076   2.291   4.589  17.070 -0.4681  0.0382 -0.7087
 1206SOL    HW115077   2.359   4.594  17.138 -2.3157  0.3533  1.1240
 1206SOL    HW215078   2.328   4.534  17.001  2.1833  0.7676  0.1247
 1207SOL     OW15079   0.518   0.555   6.383  0.1426  1.1076 -0.3987
 1207SOL    HW115080   0.490   0.621   6.447  1.8207  0.9478  0.4822
 1207SOL    HW215081   0.604   0.587   6.355  1.1041  0.6019  2.0196
 1208SOL     OW15082   0.368   1.147  17.679 -0.0939 -0.0535 -0.3414
 1208SOL    HW115083   0.404   1.180  17.597 -1.1975  3.7444  0.7297
 1208SOL    HW215084   0.399   1.211   0.057  1.9023  0.7128 -2.1056
 1209SOL     OW15085   2.072   4.536   6.213 -0.3593 -0.5492 -0.0119
 1209SOL    HW115086   2.082   4.461   6.272 -1.8266 -1.5839 -1.0841
 1209SOL    HW215087   2.049   4.613   6.265 -0.5911 -0.3757 -0.3680
 1210SOL     OW15088   3.199   4.568   9.224 -0.2572 -0.2619  0.1893
 1210SOL    HW115089   3.267   4.596   9.162 -1.9656  1.8655 -0.7291
 1210SOL    HW215090   3.206   4.473   9.220 -1.1397 -0.3829  1.6054
 1211SOL     OW15091   4.171   3.227  15.180  0.3269 -0.3985 -0.2814
 1211SOL    HW115092   4.148   3.280  15.256  1.0781 -1.1966  0.5051
 1211SOL    HW215093   4.255   3.188  15.203 -0.1707 -1.1737  0.2541
 1212SOL     OW15094   2.776   1.587  16.274 -0.5045  0.4397 -0.2118
 1212SOL    HW115095   2.776   1.502  16.317 -2.6608 -1.7447 -4.5286
 1212SOL    HW215096   2.834   1.582  16.197 -1.1571 -1.4691 -0.5815
 1213SOL     OW15097   1.558   0.585   9.732  0.0731 -0.1069  1.2116
 1213SOL    HW115098   1.639   0.580   9.682  0.1061 -0.4039  1.2930
 1213SOL    HW215099   1.578   0.658   9.791  0.5110  1.3444 -0.7395
 1214SOL     OW15100   4.383   1.818   1.002 -0.2115  0.3921  0.2325
 1214SOL    HW115101   4.329   1.859   0.935 -0.4239 -0.6448 -0.2268
 1214SOL    HW215102   4.394   1.728   0.972  0.2578  0.6072 -0.2463
 1215SOL     OW15103   0.431   4.530  13.168  0.4749 -0.3749  0.5789
 1215SOL    HW115104   0.504   4.539  13.107  0.2641  2.7535  0.8045
 1215SOL    HW215105   0.484   4.527  13.248  0.1780 -0.7292  0.7630
 1216SOL     OW15106   0.334   0.532   3.598  0.5042 -0.3607 -0.2331
 1216SOL    HW115107   0.386   0.453   3.580  0.8310  0.0162 -0.9203
 1216SOL    HW215108   0.248   0.497   3.575 -0.4115  0.6238  1.6380
 1217SOL     OW15109   2.039   3.697   4.598  0.0258 -0.6325 -0.1881
 1217SOL    HW115110   2.033   3.760   4.669 -0.6790 -2.5699  1.4691
 1217SOL    HW215111   2.114   3.651   4.634 -0.7569 -0.2869  1.8549
 1218SOL     OW15112   4.453   2.972  16.671  0.0880 -0.3203  0.4939
 1218SOL    HW115113   4.494   2.980  16.585 -0.7077  1.9066  0.3279
 1218SOL    HW215114   4.493   3.045  16.719  3.5573 -0.5087 -2.1012
 1219SOL     OW15115   4.549   1.247  17.129  0.1692  0.5645 -0.1114
 1219SOL    HW115116   4.575   1.323  17.181  0.7755  0.5576 -0.4040
 1219SOL    HW215117   4.575   1.274  17.041 -1.8810 -0.8366 -1.1486
 1220SOL     OW15118   2.485   0.510  16.151  0.5345  0.3234 -0.4769
 1220SOL    HW115119   2.545   0.579  16.124  0.1290  1.1830  0.8169
 1220SOL    HW215120   2.402   0.553  16.132  0.4674 -0.7624 -2.7168
 1221SOL     OW15121   1.229   2.486   4.449 -0.2733 -0.0709  0.2604
 1221SOL    HW115122   1.250   2.548   4.379 -1.2512 -0.1561 -0.1038
 1221SOL    HW215123   1.240   2.399   4.409  0.0114 -0.3259  0.8869
 1222SOL     OW15124   4.331   2.673   5.712  0.4607 -0.2884  0.2744
 1222SOL    HW115125   4.384   2.606   5.669  1.2019  0.6622 -0.2918
 1222SOL    HW215126   4.247   2.643   5.679  1.1353 -1.0046 -0.8194
 1223SOL     OW15127   0.219   0.721   3.066  0.4434 -0.0631 -0.0370
 1223SOL    HW115128   0.173   0.722   2.983  2.0063  0.2753 -0.8957
 1223SOL    HW215129   0.169   0.645   3.097  1.5331 -0.5007  0.6446
 1224SOL     OW15130   2.155   3.620  10.908 -0.3376  0.0684  0.2687
 1224SOL    HW115131   2.182   3.572  10.986  1.1174  1.3131  0.5136
 1224SOL    HW215132   2.158   3.709  10.943 -2.4454 -0.1795  1.1298
 1225SOL     OW15133   2.139   0.683  10.282  0.0998 -0.1574 -0.5790
 1225SOL    HW115134   2.204   0.732  10.232  1.4782 -0.6558  0.7313
 1225SOL    HW215135   2.190   0.602  10.276 -0.8347 -0.7070 -1.2146
 1226SOL     OW15136   1.188   0.515  14.051 -0.5631 -0.0373 -0.4860
 1226SOL    HW115137   1.256   0.477  13.994  0.3083  1.9477 -0.7718
 1226SOL    HW215138   1.232   0.497  14.134 -0.1652  2.9134 -0.0688
 1227SOL     OW15139   4.192   4.554   7.552 -0.3074 -0.3197  0.4285
 1227SOL    HW115140   4.184   4.517   7.465 -0.7201 -0.3803  0.4936
 1227SOL    HW215141   4.144   4.634   7.530  0.6141  0.8124  2.4495
 1228SOL     OW15142   1.459   3.720   4.421 -0.1511  0.1532  0.2199
 1228SOL    HW115143   1.386   3.727   4.483  0.0430  1.0619  0.3458
 1228SOL    HW215144   1.484   3.629   4.431 -1.2553  0.0048  1.6322
 1229SOL     OW15145   2.820   2.139  17.234 -0.0425 -0.4402  0.0143
 1229SOL    HW115146   2.833   2.076  17.163 -0.8370 -0.7927  0.1827
 1229SOL    HW215147   2.901   2.124  17.282  0.2296  0.5051 -0.1550
 1230SOL     OW15148   2.476   0.229   3.918 -0.0761 -0.2428 -0.0168
 1230SOL    HW115149   2.390   0.266   3.940  1.2853  1.8284  1.7886
 1230SOL    HW215150   2.528   0.308   3.909 -0.2595 -0.3342 -1.9316
 1231SOL     OW15151   2.212   1.695  11.722  0.4111 -0.1121 -0.0520
 1231SOL    HW115152   2.151   1.621  11.723  0.6801 -0.3365 -0.0435
 1231SOL    HW215153   2.297   1.653  11.738 -0.8228 -2.0558  1.4879
 1232SOL     OW15154   1.467   2.164   8.750 -0.6523  0.6695 -0.2393
 1232SOL    HW115155   1.452   2.095   8.685 -1.8945  1.1303 -0.4449
 1232SOL    HW215156   1.403   2.157   8.821  0.1448 -1.7974  0.2290
 1233SOL     OW15157   4.341   4.656  10.907  0.2667 -0.3692  0.4706
 1233SOL    HW115158   4.330   0.020  10.864 -0.0405  0.4101  2.0536
 1233SOL    HW215159   4.278   4.670  10.978  1.1666 -2.7454  1.7466
 1234SOL     OW15160   3.271   2.940   1.448 -0.4222 -0.0971 -0.9606
 1234SOL    HW115161   3.234   2.852   1.440 -0.8983  0.0787 -0.6818
 1234SOL    HW215162   3.350   2.921   1.397  1.1778  2.2133  0.6424
 1235SOL     OW15163   0.719   2.216  16.475 -0.4317 -0.1449  0.3827
 1235SOL    HW115164   0.718   2.257  16.389  1.2225 -0.7241  0.0838
 1235SOL    HW215165   0.748   2.127  16.456 -1.6765 -0.0810 -1.7783
 1236SOL     OW15166   1.196   4.018   0.813 -0.0204  0.4993 -0.1026
 1236SOL    HW115167   1.102   4.006   0.826  0.1318 -1.3673 -0.7060
 1236SOL    HW215168   1.199   4.113   0.800  0.5432  0.6890  1.4811
 1237SOL     OW15169   0.844   0.210   2.417 -0.3983 -0.0973 -0.1770
 1237SOL    HW115170   0.767   0.172   2.459 -1.1744  1.3521 -0.3139
 1237SOL    HW215171   0.896   0.131   2.403 -1.5526 -0.9401  0.3207
 1238SOL     OW15172   4.324   1.836   7.262 -0.2083  0.2368 -0.2497
 1238SOL    HW115173   4.401   1.811   7.313 -1.3759  1.0123  1.9489
 1238SOL    HW215174   4.339   1.778   7.188  0.9058 -3.0868  2.5597
 1239SOL     OW15175   3.201   2.877   8.945  0.3363  0.5544  0.5261
 1239SOL    HW115176   3.121   2.871   8.893  1.5698 -0.4204 -1.2508
 1239SOL    HW215177   3.245   2.958   8.919 -2.1405  1.3298 -1.1910
 1240SOL     OW15178   2.054   0.841  16.208 -0.0679 -0.0642 -0.0713
 1240SOL    HW115179   2.071   0.921  16.158 -2.1847 -0.0756 -0.8059
 1240SOL    HW215180   2.097   0.857  16.293  1.7949 -2.2506 -0.5940
 1241SOL     OW15181   4.629   1.269   8.636 -0.5119  0.0499  0.2746
 1241SOL    HW115182   4.650   1.213   8.711 -1.4656  0.9609  1.2183
 1241SOL    HW215183   4.714   1.286   8.598 -1.7828  1.2662 -2.0086
 1242SOL     OW15184   2.681   3.922   0.047  0.3481  0.4070 -0.4771
 1242SOL    HW115185   2.721   4.008   0.065  1.4697 -0.3856  0.8046
 1242SOL    HW215186   2.761   3.877   0.019  0.3894 -0.7598  1.5002
 1243SOL     OW15187   4.590   1.320   7.289  0.5420 -0.2179  0.6152
 1243SOL    HW115188   4.547   1.237   7.267  1.1513  0.3268 -2.7171
 1243SOL    HW215189   4.565   1.328   7.381  0.6580  0.3228  0.5993
 1244SOL     OW15190   3.745   2.691  15.137  0.3982  0.0275 -0.0299
 1244SOL    HW115191   3.740   2.604  15.099  0.7311  0.7864 -1.8243
 1244SOL    HW215192   3.708   2.684  15.225 -0.9844  1.2066 -0.5071
 1245SOL     OW15193   3.501   0.727   3.503  0.4170 -0.7240 -0.3114
 1245SOL    HW115194   3.491   0.701   3.411  2.8392 -1.4238 -0.3750
 1245SOL    HW215195   3.523   0.641   3.537  1.0582 -0.5911 -0.3929
 1246SOL     OW15196   1.779   2.728  11.896 -0.2423 -0.2640 -0.3562
 1246SOL    HW115197   1.845   2.692  11.955  0.5008  1.7141  0.0002
 1246SOL    HW215198   1.839   2.789  11.854 -1.1689  1.4003  0.7469
 1247SOL     OW15199   3.427   4.390  10.114  0.4811  0.2569 -0.4962
 1247SOL    HW115200   3.383   4.445  10.049  0.4701 -0.0400 -0.7428
 1247SOL    HW215201   3.508   4.365  10.070  0.6668  2.0249 -1.1470
 1248SOL     OW15202   3.663   0.327   6.595 -0.1307  0.1800  0.3269
 1248SOL    HW115203   3.718   0.335   6.673  1.1846 -0.7865 -0.5007
 1248SOL    HW215204   3.632   0.238   6.611  1.6625 -0.5438 -0.2147
 1249SOL     OW15205   0.890   3.032  12.692  0.3149 -0.2357  0.1410
 1249SOL    HW115206   0.799   3.005  12.684 -0.2112  1.3334  0.9245
 1249SOL    HW215207   0.894   3.125  12.670  3.5304 -0.6086 -0.9372
 1250SOL     OW15208   3.049   2.114  17.368  0.3238  0.0160  0.3789
 1250SOL    HW115209   3.055   2.022  17.342  1.8030 -0.1222  1.2458
 1250SOL    HW215210   3.136   2.140  17.396  0.1438  1.9454 -0.7823
 1251SOL     OW15211   0.242   3.633   4.780 -0.2218 -0.2640  0.1908
 1251SOL    HW115212   0.325   3.587   4.793 -0.6343 -1.1396 -0.2807
 1251SOL    HW215213   0.185   3.618   4.855  0.8377  1.2288  1.2868
 1252SOL     OW15214   4.258   2.660   8.848  0.1675 -0.6616 -0.0192
 1252SOL    HW115215   4.326   2.633   8.787  0.2636  1.9657 -1.0888
 1252SOL    HW215216   4.296   2.746   8.866 -2.7714  0.6855 -0.2248
 1253SOL     OW15217   2.849   4.113   6.325  0.4058  0.4209  0.0495
 1253SOL    HW115218   2.846   4.058   6.247  0.2366  1.6048 -0.7964
 1253SOL    HW215219   2.846   4.201   6.285 -0.7240 -0.2784 -1.4181
 1254SOL     OW15220   2.639   0.792   8.349 -0.0960  0.5070  0.3613
 1254SOL    HW115221   2.555   0.777   8.391  0.1819  0.2072  0.8172
 1254SOL    HW215222   2.703   0.759   8.412 -0.8545  1.2405  1.5079
 1255SOL     OW15223   2.336   3.241   5.368  0.6051 -0.2436  0.3450
 1255SOL    HW115224   2.309   3.332   5.382  0.7492  0.3687 -3.1400
 1255SOL    HW215225   2.423   3.246   5.408  0.1929  2.0355  0.9544
 1256SOL     OW15226   1.081   0.707  15.603 -0.7430  0.1566 -0.4519
 1256SOL    HW115227   1.032   0.745  15.676  1.3792  0.1444  1.0153
 1256SOL    HW215228   1.010   0.707  15.540 -1.6105  0.1015  0.5284
 1257SOL     OW15229   4.555   3.940   1.952 -0.6960 -0.1002 -0.6684
 1257SOL    HW115230   4.639   3.935   1.998 -0.4077 -0.5618 -1.2486
 1257SOL    HW215231   4.493   3.900   2.014  0.1107 -1.0534 -0.4832
 1258SOL     OW15232   0.213   2.517   6.127  0.2383 -0.3811  0.5044
 1258SOL    HW115233   0.241   2.434   6.087 -1.3558  0.6537 -2.8196
 1258SOL    HW215234   0.289   2.572   6.111  0.6489 -0.3466  2.6053
 1259SOL     OW15235   4.658   4.031   8.591 -0.1450  0.6967  0.0110
 1259SOL    HW115236   4.646   4.084   8.512  1.6339 -0.1352 -0.8071
 1259SOL    HW215237   0.026   4.057   8.614 -0.3674  0.2084  1.4044
 1260SOL     OW15238   3.783   4.443   5.339 -0.1390  0.3753  0.1624
 1260SOL    HW115239   3.823   4.470   5.421  1.0387  0.7897 -0.5452
 1260SOL    HW215240   3.722   4.516   5.328  2.9419  2.7785 -1.0547
 1261SOL     OW15241   1.786   0.305   5.535  0.0846  0.0507  0.0394
 1261SOL    HW115242   1.755   0.324   5.447 -0.7685 -2.3611 -0.1749
 1261SOL    HW215243   1.762   0.386   5.580 -0.2905  0.1239 -0.2980
 1262SOL     OW15244   2.862   0.865   6.019  0.0937  0.4297 -0.2107
 1262SOL    HW115245   2.772   0.865   6.048 -0.2258 -1.2725 -1.2144
 1262SOL    HW215246   2.879   0.772   6.003 -0.5243  0.1010  1.0815
 1263SOL     OW15247   1.938   0.428   3.586  0.0803 -0.3872  0.2805
 1263SOL    HW115248   1.999   0.360   3.557 -0.5344 -0.5435 -0.6576
 1263SOL    HW215249   1.952   0.422   3.680  0.3347 -0.8310  0.2175
 1264SOL     OW15250   1.545   1.777   4.135  0.8320  0.5845  0.3267
 1264SOL    HW115251   1.600   1.837   4.082  1.0552  0.0817 -0.0131
 1264SOL    HW215252   1.480   1.750   4.070 -0.7928 -0.7992  2.5325
 1265SOL     OW15253   4.173   2.460   0.338 -0.5562 -0.1282  0.0518
 1265SOL    HW115254   4.136   2.390   0.391 -2.2306 -0.7578 -1.9712
 1265SOL    HW215255   4.229   2.409   0.279  2.3136 -0.5487  3.0598
 1266SOL     OW15256   1.428   1.077   3.489 -0.2050  0.3292  0.3270
 1266SOL    HW115257   1.484   1.027   3.430 -2.2913  0.1795 -1.5166
 1266SOL    HW215258   1.341   1.048   3.463 -0.3342 -0.2720  1.4393
 1267SOL     OW15259   4.573   0.779  14.061 -0.3616  0.9228  0.1745
 1267SOL    HW115260   4.638   0.826  14.114 -0.0555  0.0538  0.5562
 1267SOL    HW215261   4.624   0.700  14.042 -1.7349 -0.2476  1.4557
 1268SOL     OW15262   0.563   1.923   0.909  0.2782  0.0092 -0.5473
 1268SOL    HW115263   0.530   2.001   0.953 -1.3659 -2.1527  1.9667
 1268SOL    HW215264   0.638   1.902   0.965  0.5660 -1.0043 -1.3149
 1269SOL     OW15265   4.425   2.441   7.255  0.3247  0.2982 -0.1401
 1269SOL    HW115266   4.505   2.491   7.270  0.4174 -0.8322  3.3785
 1269SOL    HW215267   4.431   2.396   7.340  2.4025  1.8979  0.5664
 1270SOL     OW15268   1.265   1.873   5.052 -0.1097 -0.3758  0.4028
 1270SOL    HW115269   1.320   1.906   5.123  1.8248 -3.1397  0.1839
 1270SOL    HW215270   1.276   1.946   4.990  1.0940 -0.3357  0.6535
 1271SOL     OW15271   0.639   1.165   4.099  0.1284  0.2702 -0.2443
 1271SOL    HW115272   0.642   1.238   4.037  3.4301  0.4975  0.1972
 1271SOL    HW215273   0.709   1.188   4.160 -1.6079  1.3101  1.3282
 1272SOL     OW15274   4.533   2.783  15.315  0.5768  0.5780  0.4970
 1272SOL    HW115275   4.543   2.859  15.258  1.9265  0.3465  0.4242
 1272SOL    HW215276   4.614   2.779  15.366  1.6024 -0.3946 -1.2049
 1273SOL     OW15277   3.865   4.523   0.660  0.0333  0.1600 -0.0545
 1273SOL    HW115278   3.810   4.594   0.692 -1.5207 -0.8713 -0.3913
 1273SOL    HW215279   3.827   4.502   0.574  0.2699  1.5133 -0.4842
 1274SOL     OW15280   4.469   3.472   8.153 -0.4853  0.0119  0.2852
 1274SOL    HW115281   4.543   3.503   8.206 -1.1780  1.6624  0.2953
 1274SOL    HW215282   4.490   3.504   8.065  0.2101 -0.3793  0.3065
 1275SOL     OW15283   2.578   1.915   5.143  0.4455 -0.3827 -0.7993
 1275SOL    HW115284   2.602   1.826   5.118 -0.4277 -0.5572 -1.0229
 1275SOL    HW215285   2.572   1.910   5.239 -1.2406  1.4844 -0.8036
 1276SOL     OW15286   1.828   1.898   7.605 -0.1094  0.1128 -0.0748
 1276SOL    HW115287   1.839   1.985   7.642 -0.3551  0.8601 -1.7404
 1276SOL    HW215288   1.829   1.918   7.511  1.3530  1.5005  0.2479
 1277SOL     OW15289   3.612   2.657  15.728 -0.0535 -0.1880 -0.0607
 1277SOL    HW115290   3.698   2.659  15.686 -0.0119  1.0351  0.0820
 1277SOL    HW215291   3.550   2.643  15.657  0.1808 -0.6589 -0.1702
 1278SOL     OW15292   3.825   4.429   3.651  0.1201  0.0299  0.0091
 1278SOL    HW115293   3.819   4.437   3.746  0.2468  2.0438 -0.1412
 1278SOL    HW215294   3.920   4.440   3.647 -0.0114  1.5321  1.0132
 1279SOL     OW15295   2.561   4.247   8.757  0.5805  0.1632  0.2222
 1279SOL    HW115296   2.604   4.332   8.743 -0.3741  0.7392  0.7856
 1279SOL    HW215297   2.624   4.206   8.817 -0.8741 -0.0086  1.6332
 1280SOL     OW15298   0.860   4.058   2.390  0.1840  0.5931  0.3702
 1280SOL    HW115299   0.826   4.002   2.460 -0.1731 -0.8723 -1.0004
 1280SOL    HW215300   0.844   4.006   2.312 -0.8171 -0.0349  0.9927
 1281SOL     OW15301   0.353   3.981   7.748 -1.0923 -0.6480 -0.2781
 1281SOL    HW115302   0.341   4.062   7.699  1.8810  1.5079  2.5533
 1281SOL    HW215303   0.388   3.923   7.681  0.2956  1.3392 -1.2514
 1282SOL     OW15304   1.170   1.453   7.291  0.1448 -0.0447 -0.0093
 1282SOL    HW115305   1.242   1.402   7.329  0.6266  2.2529  2.1545
 1282SOL    HW215306   1.172   1.420   7.201 -2.5378 -0.3508  0.0552
 1283SOL     OW15307   1.765   2.936   5.853  0.0803  0.3093 -0.2071
 1283SOL    HW115308   1.720   2.948   5.770  2.8979  0.5581 -1.7120
 1283SOL    HW215309   1.759   3.030   5.870  1.2419  0.5441 -1.1221
 1284SOL     OW15310   1.017   2.243  17.620  0.5785  0.2016 -0.0506
 1284SOL    HW115311   1.063   2.167  17.584 -3.0844 -1.1645 -1.7659
 1284SOL    HW215312   1.014   2.305  17.547 -1.2050 -0.8334 -0.8246
 1285SOL     OW15313   3.496   4.056   6.158 -0.4776 -0.2000  0.9717
 1285SOL    HW115314   3.588   4.040   6.180 -0.3989  1.2452  1.7270
 1285SOL    HW215315   3.484   4.018   6.071 -1.0085 -2.1589  1.9048
 1286SOL     OW15316   4.018   4.105   2.801 -0.2678  0.4287 -0.2309
 1286SOL    HW115317   3.931   4.068   2.818  0.4689 -0.2290  2.1635
 1286SOL    HW215318   4.041   4.072   2.715 -0.6828  1.1754 -0.6264
 1287SOL     OW15319   0.608   3.805   3.890 -0.0101 -0.0621 -0.6025
 1287SOL    HW115320   0.523   3.773   3.860 -1.2435  0.3447  2.4593
 1287SOL    HW215321   0.633   3.861   3.815 -0.1777  0.5788 -0.1785
 1288SOL     OW15322   4.373   2.560   3.615 -0.1504 -0.1593  0.0097
 1288SOL    HW115323   4.461   2.579   3.647 -1.0297  1.5608  1.4174
 1288SOL    HW215324   4.370   2.610   3.533 -0.9441  0.4975  0.4312
 1289SOL     OW15325   0.477   2.690   0.657 -0.2030 -0.4399  0.1502
 1289SOL    HW115326   0.523   2.766   0.692  1.2940  0.2254 -3.2254
 1289SOL    HW215327   0.454   2.643   0.736  0.5367  0.6291  1.0041
 1290SOL     OW15328   2.239   0.629   4.224 -0.4580  0.1832  0.6873
 1290SOL    HW115329   2.299   0.606   4.295 -0.7312  0.9858  1.1760
 1290SOL    HW215330   2.255   0.719   4.196 -1.0383  0.1016  0.1053
 1291SOL     OW15331   3.650   0.434   2.517  0.0473  0.0613 -0.4016
 1291SOL    HW115332   3.657   0.407   2.426  1.3904 -0.5988 -0.0949
 1291SOL    HW215333   3.718   0.501   2.525 -0.0680  0.2609 -1.0918
 1292SOL     OW15334   0.672   3.202  17.323 -0.0275 -0.3941  0.3028
 1292SOL    HW115335   0.604   3.140  17.348 -1.6014  0.7644 -1.1399
 1292SOL    HW215336   0.630   3.274  17.370  2.0461  0.5101  0.7854
 1293SOL     OW15337   3.554   1.285   2.403  0.3043  0.0518 -0.1933
 1293SOL    HW115338   3.581   1.223   2.471  1.4478  1.9210  1.0487
 1293SOL    HW215339   3.605   1.251   2.329  0.3562  0.1000 -0.1798
 1294SOL     OW15340   2.040   1.198   5.152 -0.0315 -0.2614  0.1514
 1294SOL    HW115341   2.077   1.221   5.237  0.1446 -0.3309  0.0943
 1294SOL    HW215342   2.103   1.133   5.122 -0.3743  0.3933 -1.9759
 1295SOL     OW15343   4.526   3.366   1.052 -0.0858  0.2661 -0.7387
 1295SOL    HW115344   4.605   3.419   1.063 -0.1452  0.4948 -1.4525
 1295SOL    HW215345   4.515   3.381   0.959 -3.2203  0.1836 -0.3874
 1296SOL     OW15346   2.844   4.200   8.862  0.4478 -0.3691  0.0597
 1296SOL    HW115347   2.858   4.285   8.819 -0.4457  0.1289  0.7447
 1296SOL    HW215348   2.912   4.194   8.929 -0.2656  1.6045  0.9598
 1297SOL     OW15349   0.389   3.086   9.269 -0.2614 -0.2514  0.6591
 1297SOL    HW115350   0.346   3.055   9.349 -0.4329  1.1895  1.1152
 1297SOL    HW215351   0.475   3.106   9.304 -0.1862  0.9807 -0.2193
 1298SOL     OW15352   0.047   2.557   7.566 -0.6252 -0.7312 -0.2845
 1298SOL    HW115353   0.064   2.464   7.576 -0.0198 -0.6447 -0.5020
 1298SOL    HW215354   0.000   2.559   7.482  0.0358 -1.3766 -0.6610
 1299SOL     OW15355   2.832   0.314   8.628 -0.2642 -0.3071 -0.1723
 1299SOL    HW115356   2.898   0.376   8.599  1.4414 -1.0864  2.0744
 1299SOL    HW215357   2.753   0.361   8.599 -1.4352 -1.5356  0.9927
 1300SOL     OW15358   2.056   0.156   4.599  0.3096 -0.4338  1.0637
 1300SOL    HW115359   2.084   0.241   4.566 -2.7329  0.5011  0.8666
 1300SOL    HW215360   2.114   0.098   4.549 -0.8434  0.2701 -1.1148
 1301SOL     OW15361   4.524   4.329   8.151 -0.1692  0.3024 -0.0313
 1301SOL    HW115362   4.618   4.321   8.133  0.0909 -0.9303  1.8770
 1301SOL    HW215363   4.527   4.421   8.179  1.2790  0.3539 -0.3363
 1302SOL     OW15364   1.299   3.283   8.337  0.2727 -0.3742  0.7430
 1302SOL    HW115365   1.389   3.267   8.310  0.5094  2.4166 -0.1903
 1302SOL    HW215366   1.285   3.368   8.294 -2.9703 -1.8496 -1.2037
 1303SOL     OW15367   2.198   3.762  12.481  0.2354  0.5065  0.3357
 1303SOL    HW115368   2.121   3.742  12.429  0.8054 -0.2615 -0.2069
 1303SOL    HW215369   2.252   3.819  12.427  2.2482 -2.0190 -0.3232
 1304SOL     OW15370   3.644   1.811  12.857  0.2815  0.4494  0.0646
 1304SOL    HW115371   3.614   1.725  12.827 -1.3589  1.1917 -0.4021
 1304SOL    HW215372   3.579   1.829  12.925  0.2171 -0.4524  0.2427
 1305SOL     OW15373   0.624   4.374  15.899  0.1086 -0.4491  0.0758
 1305SOL    HW115374   0.626   4.357  15.993 -0.4628  1.9271  0.5086
 1305SOL    HW215375   0.568   4.302  15.867 -1.2127  0.8430 -0.5205
 1306SOL     OW15376   3.815   3.909   0.208  0.5253  0.0101 -0.3991
 1306SOL    HW115377   3.884   3.914   0.274 -0.1254 -0.2768  0.2991
 1306SOL    HW215378   3.792   3.817   0.215 -1.9636  0.4991 -1.8964
 1307SOL     OW15379   4.710   0.490  13.418  0.1130  0.0271 -0.4545
 1307SOL    HW115380   4.671   0.564  13.371  1.0084  1.4778  1.1003
 1307SOL    HW215381   4.691   0.425  13.350 -2.3863  1.2583 -0.9362
 1308SOL     OW15382   1.415   4.186  12.637 -0.5474 -0.0437  0.2008
 1308SOL    HW115383   1.453   4.221  12.717  0.7035  1.2326 -0.9650
 1308SOL    HW215384   1.323   4.200  12.656 -1.1901 -1.5042 -1.8580
 1309SOL     OW15385   2.344   4.570   8.665 -0.4308  0.0566 -0.1056
 1309SOL    HW115386   2.407   4.564   8.737 -3.2346 -3.7090  2.0760
 1309SOL    HW215387   2.259   4.573   8.708 -0.9997 -1.0051 -1.1586
 1310SOL     OW15388   4.330   2.022   5.116  0.4534 -0.2248 -0.3424
 1310SOL    HW115389   4.332   2.036   5.021 -2.0123  1.2032 -0.1818
 1310SOL    HW215390   4.266   1.951   5.110  0.1990  0.0820 -1.2966
 1311SOL     OW15391   0.419   2.206   3.768 -0.2290 -0.5892  0.1190
 1311SOL    HW115392   0.406   2.112   3.757 -1.0566 -0.7570  2.3965
 1311SOL    HW215393   0.339   2.240   3.810 -0.4001 -3.2096  1.8932
 1312SOL     OW15394   3.658   0.181  13.996 -0.1352  0.1485  0.1118
 1312SOL    HW115395   3.668   0.241  14.070 -0.9131 -0.4217  0.6847
 1312SOL    HW215396   3.591   0.126  14.037  1.1884  0.1472  2.2800
 1313SOL     OW15397   2.255   1.681   6.582  0.4775 -0.4594 -0.3316
 1313SOL    HW115398   2.163   1.654   6.585  0.4732 -0.6564 -2.2294
 1313SOL    HW215399   2.286   1.648   6.497  2.0811  0.1844 -0.0017
 1314SOL     OW15400   1.802   3.728   5.224  0.3749 -0.0620  0.2581
 1314SOL    HW115401   1.733   3.790   5.202 -1.3457 -2.2719 -0.5793
 1314SOL    HW215402   1.861   3.747   5.150  1.6351 -3.9870  0.2280
 1315SOL     OW15403   0.801   2.255   6.889  0.2265  0.2914 -0.0031
 1315SOL    HW115404   0.767   2.194   6.954  3.1830 -1.5670 -0.2224
 1315SOL    HW215405   0.732   2.321   6.880 -0.2574 -0.4757 -1.8975
 1316SOL     OW15406   2.514   3.921   8.936  0.6724  0.5498 -0.1344
 1316SOL    HW115407   2.448   3.966   8.988 -1.5994 -0.4260 -2.2197
 1316SOL    HW215408   2.593   3.937   8.989 -0.3070  0.0396  1.4910
 1317SOL     OW15409   0.326   0.069  13.357 -0.3449 -0.8693 -0.2166
 1317SOL    HW115410   0.285   0.151  13.385  0.9702 -0.5258  0.6940
 1317SOL    HW215411   0.418   0.067  13.382 -0.8035  0.1734  1.6185
 1318SOL     OW15412   4.684   3.511   8.699 -0.5553  0.5991  0.2930
 1318SOL    HW115413   4.710   3.603   8.692 -0.9655  0.7114  0.2565
 1318SOL    HW215414   4.591   3.516   8.723 -0.8693  1.5049 -1.0910
 1319SOL     OW15415   3.446   2.962   1.243  0.5522  0.5734 -0.5877
 1319SOL    HW115416   3.451   2.918   1.158 -1.4048 -0.9035  0.0709
 1319SOL    HW215417   3.405   3.043   1.212  1.6987  0.7542 -1.6284
 1320SOL     OW15418   1.154   4.497  11.580 -0.3883 -0.3683 -0.1625
 1320SOL    HW115419   1.221   4.563  11.599  1.2636 -1.0151 -3.8151
 1320SOL    HW215420   1.076   4.551  11.565 -0.7597 -0.5128  1.2794
 1321SOL     OW15421   4.431   1.878   2.025 -0.4580  0.0511  0.7414
 1321SOL    HW115422   4.494   1.950   2.037  0.7228 -0.8016 -0.3509
 1321SOL    HW215423   4.366   1.917   1.967  0.3558 -1.3786 -1.1345
 1322SOL     OW15424   4.289   3.703   6.016 -0.8004  0.6921  0.4970
 1322SOL    HW115425   4.234   3.753   6.076 -1.6620  3.3781 -2.5020
 1322SOL    HW215426   4.371   3.718   6.062 -2.3774  3.6867  2.3748
 1323SOL     OW15427   1.570   2.036   1.932  0.3713  0.8378  0.0959
 1323SOL    HW115428   1.484   2.000   1.912 -1.0726  3.6673  1.2727
 1323SOL    HW215429   1.621   1.994   1.863 -2.4840 -0.5703 -1.1560
 1324SOL     OW15430   1.342   2.127   3.412  0.1890  0.2295  0.3391
 1324SOL    HW115431   1.417   2.088   3.368 -0.4296  0.4713 -0.9501
 1324SOL    HW215432   1.285   2.050   3.421 -0.1117  0.6511  1.9634
 1325SOL     OW15433   3.668   0.815   6.767  0.0360  0.4423  0.0138
 1325SOL    HW115434   3.692   0.763   6.844 -2.5630  0.2942  0.7494
 1325SOL    HW215435   3.649   0.900   6.806 -1.8433  0.1289 -0.2115
 1326SOL     OW15436   4.656   1.089   5.893 -0.2487 -0.2286 -0.3831
 1326SOL    HW115437   4.696   1.129   5.970  2.5139 -0.6225 -1.6321
 1326SOL    HW215438   4.684   0.998   5.902  2.5876  0.6421 -0.4003
 1327SOL     OW15439   2.085   1.913   3.264  0.7217  0.0237  0.2462
 1327SOL    HW115440   2.047   1.975   3.201  0.3778  0.8631  1.2853
 1327SOL    HW215441   2.144   1.861   3.210 -0.2735  0.6837 -1.4823
 1328SOL     OW15442   4.197   2.163  17.576 -0.2440 -0.1220 -0.1913
 1328SOL    HW115443   4.126   2.148  17.513  0.9947  1.4361 -1.9714
 1328SOL    HW215444   4.159   2.138  17.659  0.4468  2.3652  0.8772
 1329SOL     OW15445   0.133   3.780   3.217 -0.0160  0.3516 -0.2788
 1329SOL    HW115446   0.069   3.850   3.206 -0.4397 -0.2401 -1.5285
 1329SOL    HW215447   0.185   3.803   3.140  1.2184 -0.7702  0.2176
 1330SOL     OW15448   2.677   0.030   3.082 -1.0456 -0.3576 -0.0744
 1330SOL    HW115449   2.737   0.091   3.038  1.1142 -2.4133  0.0324
 1330SOL    HW215450   2.595   0.079   3.091  0.2808  2.0213 -0.9718
 1331SOL     OW15451   3.393   0.309   5.790 -0.6214  0.3733  0.4223
 1331SOL    HW115452   3.438   0.389   5.819 -0.1189  0.3169 -0.2075
 1331SOL    HW215453   3.417   0.246   5.858 -1.3727  0.8523  1.1323
 1332SOL     OW15454   4.001   4.069   5.082  0.0653 -0.0333  0.3342
 1332SOL    HW115455   4.029   4.004   5.147 -0.1908  1.2969  1.7727
 1332SOL    HW215456   3.969   4.141   5.136  0.6755  2.1275 -2.1580
 1333SOL     OW15457   2.487   3.936   3.998 -1.0339 -0.3231 -0.1474
 1333SOL    HW115458   2.428   3.943   4.073 -0.1953  1.4742  0.3521
 1333SOL    HW215459   2.511   4.026   3.978  1.8618 -1.0099  0.2892
 1334SOL     OW15460   2.249   4.383   5.889 -0.4860 -0.9608  0.4352
 1334SOL    HW115461   2.292   4.435   5.822  0.4450 -1.4978  0.6173
 1334SOL    HW215462   2.202   4.324   5.830  0.4289  0.4996 -1.7511
 1335SOL     OW15463   0.926   3.989   6.882  0.0154  0.0835  0.4275
 1335SOL    HW115464   0.849   4.036   6.914 -1.1663 -0.2847 -1.8270
 1335SOL    HW215465   0.981   3.986   6.960 -1.2373 -1.9836  1.2153
 1336SOL     OW15466   1.419   2.949   0.649  0.4117 -0.1294  0.1474
 1336SOL    HW115467   1.400   3.021   0.588 -1.3606 -0.1377  0.6893
 1336SOL    HW215468   1.331   2.928   0.681  0.1847  0.5537 -0.0324
 1337SOL     OW15469   3.097   4.562  13.257  0.1866 -0.2489  0.2063
 1337SOL    HW115470   3.140   4.487  13.217 -0.0909  0.8829 -2.2270
 1337SOL    HW215471   3.018   4.571  13.204 -0.2210 -1.0824  0.6852
 1338SOL     OW15472   1.088   3.183   9.084  0.0538  0.0994 -0.2431
 1338SOL    HW115473   1.010   3.225   9.048 -1.5044 -2.5083  0.1480
 1338SOL    HW215474   1.094   3.108   9.026 -2.7694  0.1324 -0.5937
 1339SOL     OW15475   1.113   0.059   4.878 -0.1938  0.6325 -0.5359
 1339SOL    HW115476   1.062   0.137   4.898  0.3936  1.0498 -0.6723
 1339SOL    HW215477   1.169   0.073   4.802 -0.6664 -1.6321 -1.3012
 1340SOL     OW15478   4.374   3.647   3.053 -0.4658  0.3638 -0.0191
 1340SOL    HW115479   4.381   3.583   2.982 -0.1929  1.3391 -0.8650
 1340SOL    HW215480   4.436   3.712   3.022  0.1262  0.5498  1.5925
 1341SOL     OW15481   0.191   2.067   9.183 -0.1772  0.1828 -0.5634
 1341SOL    HW115482   0.168   2.159   9.174 -3.9657 -0.6676  0.6882
 1341SOL    HW215483   0.153   2.057   9.270  2.5067 -2.0631  0.3655
 1342SOL     OW15484   1.546   3.758   2.160 -0.1506  0.0938  0.3300
 1342SOL    HW115485   1.496   3.794   2.086  1.4397 -0.9559 -1.2579
 1342SOL    HW215486   1.619   3.726   2.108 -0.8547  1.2406 -1.3759
 1343SOL     OW15487   4.058   3.837   6.969  1.2032 -0.1794 -0.4889
 1343SOL    HW115488   4.136   3.781   6.968  1.8630  0.7817 -2.6173
 1343SOL    HW215489   4.003   3.791   7.032  0.5213 -2.0022 -2.4216
 1344SOL     OW15490   4.488   2.803   5.138 -0.1757 -0.7308  0.1380
 1344SOL    HW115491   4.508   2.822   5.047 -0.7601 -2.5453 -0.3721
 1344SOL    HW215492   4.445   2.884   5.166  0.4302  0.0511 -1.1886
 1345SOL     OW15493   1.832   2.751  13.589 -0.0751 -0.0458  0.2766
 1345SOL    HW115494   1.835   2.657  13.607  0.7964 -0.0546  0.1289
 1345SOL    HW215495   1.923   2.770  13.563 -0.3659  1.3182  0.2403
 1346SOL     OW15496   0.397   4.687   1.082  0.1679  0.2408 -0.6042
 1346SOL    HW115497   0.368   4.628   1.012  1.8491  0.1648 -1.2466
 1346SOL    HW215498   0.416   0.050   1.041  0.5451  0.2355 -0.4373
 1347SOL     OW15499   4.623   3.004   0.080 -0.3039  0.0287 -0.0539
 1347SOL    HW115500   4.674   2.991   0.159 -0.4861  0.4231  0.1318
 1347SOL    HW215501   4.536   3.030   0.110 -2.5515 -3.5599 -3.3963
 1348SOL     OW15502   2.109   4.214   3.050  0.9336  0.4804  0.8179
 1348SOL    HW115503   2.173   4.158   3.094 -1.3045 -1.7849  1.2412
 1348SOL    HW215504   2.163   4.226   2.972  1.2756 -0.8147  0.8496
 1349SOL     OW15505   0.413   0.977  11.154  0.1705  0.4639  0.1015
 1349SOL    HW115506   0.368   0.909  11.103 -1.1574  0.1933  1.6306
 1349SOL    HW215507   0.412   0.953  11.247  0.0832  0.4346  0.0934
 1350SOL     OW15508   0.740   3.084  11.386  0.6343 -0.7983 -0.3225
 1350SOL    HW115509   0.773   3.023  11.319  0.6981  1.5573 -2.4232
 1350SOL    HW215510   0.671   3.031  11.424  0.9110 -2.0556 -1.5567
 1351SOL     OW15511   0.877   3.247   2.831 -0.3171  0.1821  0.0090
 1351SOL    HW115512   0.883   3.267   2.738  0.5265  1.3865  0.3167
 1351SOL    HW215513   0.898   3.154   2.826  0.2163  0.3136 -0.1505
 1352SOL     OW15514   3.739   4.333   8.455 -0.1883 -0.1696  0.2107
 1352SOL    HW115515   3.773   4.343   8.544 -2.6969 -2.5278  1.4359
 1352SOL    HW215516   3.816   4.345   8.400  0.9147 -0.8214  1.6175
 1353SOL     OW15517   2.579   1.784   7.657  0.5460 -0.4439 -0.3511
 1353SOL    HW115518   2.662   1.820   7.690  0.1082  0.1814  0.0715
 1353SOL    HW215519   2.527   1.864   7.661  1.9626  0.5388 -1.7321
 1354SOL     OW15520   0.558   1.914  17.508  0.0235  0.5272 -0.6081
 1354SOL    HW115521   0.554   2.010  17.509  0.0700  0.5519 -2.5009
 1354SOL    HW215522   0.649   1.905  17.535 -0.8275  1.4528  2.5129
 1355SOL     OW15523   4.644   4.205  12.670  0.2228 -0.2993  0.0490
 1355SOL    HW115524   0.011   4.207  12.708  0.1622 -0.2587  0.1854
 1355SOL    HW215525   4.653   4.241  12.582  0.1005  0.4301  0.3405
 1356SOL     OW15526   3.892   2.992   4.551 -0.1399  0.0153 -0.4914
 1356SOL    HW115527   3.874   3.084   4.573  1.0534  0.0179  0.4231
 1356SOL    HW215528   3.905   2.956   4.638  0.1170 -1.1857 -1.0307
 1357SOL     OW15529   1.769   4.245   8.792 -0.1570  0.8834  0.4707
 1357SOL    HW115530   1.686   4.270   8.751 -1.7690 -1.1528  2.4638
 1357SOL    HW215531   1.753   4.159   8.831  1.0676  0.4568  0.0372
 1358SOL     OW15532   0.039   0.991   0.912 -0.3263 -0.7656  0.1665
 1358SOL    HW115533   4.702   0.987   0.835  1.0985  0.1230 -0.9369
 1358SOL    HW215534   0.075   0.902   0.913 -0.0467 -0.6825 -1.8701
 1359SOL     OW15535   0.823   4.124   9.709 -0.4761  0.0546 -0.5155
 1359SOL    HW115536   0.740   4.110   9.663 -0.1947  3.3602 -2.0058
 1359SOL    HW215537   0.868   4.199   9.670 -1.4559  0.5027 -0.7561
 1360SOL     OW15538   1.248   1.904   6.441  0.9009  0.0733 -0.6479
 1360SOL    HW115539   1.287   1.822   6.471 -1.5078 -1.2319 -1.1330
 1360SOL    HW215540   1.323   1.964   6.439 -1.2226  2.6487 -1.7469
 1361SOL     OW15541   3.158   4.282  13.560  0.4986 -0.0934  0.6611
 1361SOL    HW115542   3.105   4.359  13.538  3.6926  1.7058 -0.8268
 1361SOL    HW215543   3.118   4.247  13.639 -0.1620 -0.1071  0.3220
 1362SOL     OW15544   3.780   3.992   4.047  0.3978  0.4885  0.0440
 1362SOL    HW115545   3.795   3.912   4.099 -3.8215 -0.1992  0.1504
 1362SOL    HW215546   3.765   3.956   3.960  0.7910 -0.3496  0.3146
 1363SOL     OW15547   0.315   3.762  16.153 -0.1571  0.1982  0.0493
 1363SOL    HW115548   0.285   3.689  16.098  2.0898 -1.7914  1.4343
 1363SOL    HW215549   0.273   3.835  16.109 -1.3658  0.2789  1.3284
 1364SOL     OW15550   3.301   3.974   4.926 -0.5993  0.4410 -0.3507
 1364SOL    HW115551   3.316   3.915   4.852 -0.8203 -0.8539  0.6322
 1364SOL    HW215552   3.386   4.016   4.926 -0.6673  0.5885 -3.3118
 1365SOL     OW15553   2.088   4.310   6.400 -0.0191 -0.5126 -0.4055
 1365SOL    HW115554   2.144   4.344   6.470  0.8018  2.8731 -2.7112
 1365SOL    HW215555   2.112   4.217   6.403  1.1352 -0.2261 -0.8341
 1366SOL     OW15556   4.435   3.255  10.451  0.0804 -0.3614  0.4415
 1366SOL    HW115557   4.361   3.225  10.504 -1.2497  2.1297 -0.0132
 1366SOL    HW215558   4.414   3.347  10.438 -1.3983 -0.8503 -0.7193
 1367SOL     OW15559   2.059   0.553   1.684 -0.6757 -0.0742  0.0650
 1367SOL    HW115560   2.136   0.544   1.740 -1.3889  2.6242  1.4839
 1367SOL    HW215561   1.987   0.568   1.745 -0.7823  0.4786 -0.2010
 1368SOL     OW15562   2.178   4.444  11.916  0.2027  0.1048  0.4453
 1368SOL    HW115563   2.211   4.530  11.891 -3.5341  1.3919 -0.1898
 1368SOL    HW215564   2.144   4.416  11.830 -1.5183  1.1941  0.7647
 1369SOL     OW15565   2.356   0.209  14.324 -0.3853  0.5850  0.3556
 1369SOL    HW115566   2.430   0.269  14.327  1.7858 -2.0304 -0.4718
 1369SOL    HW215567   2.328   0.224  14.234  0.7533 -0.5068 -0.1907
 1370SOL     OW15568   3.141   3.167   9.024 -0.3420 -0.2188 -0.5879
 1370SOL    HW115569   3.203   3.191   8.956  0.8689 -1.9666 -0.1254
 1370SOL    HW215570   3.073   3.124   8.972  0.3414  0.1820 -1.8115
 1371SOL     OW15571   2.157   1.867   7.673  0.8678  0.4113 -0.0002
 1371SOL    HW115572   2.166   1.842   7.582 -2.2990 -0.3093 -0.1216
 1371SOL    HW215573   2.210   1.946   7.677  0.7137  0.5190 -0.1182
 1372SOL     OW15574   1.789   4.293   8.190 -0.2085  0.4805 -0.1374
 1372SOL    HW115575   1.774   4.278   8.283 -2.2477 -1.5729 -0.7778
 1372SOL    HW215576   1.709   4.337   8.163 -1.5054 -0.9809  1.3163
 1373SOL     OW15577   2.525   0.948   4.400 -0.0490  0.4031 -0.3752
 1373SOL    HW115578   2.435   0.981   4.412 -0.1180 -0.9419  2.7721
 1373SOL    HW215579   2.538   0.950   4.305  1.5178  1.9267 -0.1171
 1374SOL     OW15580   0.675   4.097   8.278  0.1976 -0.0822  0.0689
 1374SOL    HW115581   0.623   4.172   8.252  1.7867 -0.1334 -3.2000
 1374SOL    HW215582   0.758   4.109   8.232  0.4299 -0.0591  0.4921
 1375SOL     OW15583   1.676   0.637  16.092 -0.0959  0.5320 -0.6930
 1375SOL    HW115584   1.720   0.603  16.014 -1.2731 -1.0596 -0.6711
 1375SOL    HW215585   1.632   0.714  16.056  0.9954  1.5829  0.2333
 1376SOL     OW15586   0.874   4.067   8.480 -0.8877 -0.0164 -0.0933
 1376SOL    HW115587   0.855   3.984   8.523 -2.5059  1.1817  1.5558
 1376SOL    HW215588   0.804   4.079   8.415 -0.9299  0.2869  0.0062
 1377SOL     OW15589   4.364   2.944   2.779  0.2174 -0.9264  0.5937
 1377SOL    HW115590   4.435   2.983   2.728 -0.9873  0.5611  0.0242
 1377SOL    HW215591   4.396   2.950   2.869 -0.0829 -0.7380  0.6896
 1378SOL     OW15592   2.418   4.058   9.536  0.0417  0.2265  0.2507
 1378SOL    HW115593   2.324   4.057   9.519  0.3642 -0.7349 -1.4508
 1378SOL    HW215594   2.423   4.005   9.616  1.3163 -2.4617 -1.5975
 1379SOL     OW15595   4.018   4.590   6.425 -0.1690 -0.0897  0.1404
 1379SOL    HW115596   3.924   4.603   6.407  0.2016 -0.7683 -2.3099
 1379SOL    HW215597   4.052   4.676   6.398 -1.4640 -0.0966 -1.5677
 1380SOL     OW15598   4.121   0.707   8.704  0.3269 -0.4111  0.3588
 1380SOL    HW115599   4.132   0.733   8.613  0.3749  0.7035  0.6816
 1380SOL    HW215600   4.193   0.644   8.716 -1.3575 -1.9388  2.4826
 1381SOL     OW15601   0.659   3.001  15.143  0.3675 -0.2022  0.3205
 1381SOL    HW115602   0.719   3.008  15.218  0.9156 -1.7797  0.0437
 1381SOL    HW215603   0.579   3.029  15.187  0.7853  0.7284  0.4783
 1382SOL     OW15604   0.569   3.175   5.842  0.6350  0.2918 -0.1149
 1382SOL    HW115605   0.479   3.205   5.852  0.7136 -0.0144  1.4618
 1382SOL    HW215606   0.613   3.260   5.841  1.4991 -0.1592 -1.3997
 1383SOL     OW15607   0.249   4.390   8.940 -0.0010 -0.4822 -0.1256
 1383SOL    HW115608   0.260   4.482   8.914 -0.6987  0.3777  2.6229
 1383SOL    HW215609   0.331   4.390   8.990 -0.6038  0.8413  0.8798
 1384SOL     OW15610   4.162   0.656  15.644 -0.5416 -0.0493  0.0413
 1384SOL    HW115611   4.075   0.663  15.605 -1.7433  2.7806  3.1704
 1384SOL    HW215612   4.156   0.608  15.726  0.7337 -1.5307 -0.7256
 1385SOL     OW15613   1.914   2.422   1.101  0.2299  0.4448 -0.5387
 1385SOL    HW115614   1.826   2.384   1.094 -0.5037  2.0200  0.0979
 1385SOL    HW215615   1.896   2.514   1.085 -1.2772  0.2826  0.1798
 1386SOL     OW15616   3.098   2.795   2.474  0.0372  0.0451 -0.0476
 1386SOL    HW115617   3.134   2.714   2.511 -2.0233 -1.1325 -0.5876
 1386SOL    HW215618   3.138   2.801   2.388  2.5699 -0.4260  1.0799
 1387SOL     OW15619   0.282   1.391   8.867 -0.1564  0.0156  0.4240
 1387SOL    HW115620   0.251   1.365   8.780  1.2427 -0.4293  0.0513
 1387SOL    HW215621   0.240   1.476   8.877  0.2985  0.3514 -0.4794
 1388SOL     OW15622   1.587   2.683   2.469  0.5013  0.0640 -0.2085
 1388SOL    HW115623   1.644   2.678   2.392  1.8593 -0.0200  0.8002
 1388SOL    HW215624   1.581   2.592   2.498  0.4396  0.5406  1.2433
 1389SOL     OW15625   4.386   1.946  11.476  0.2576 -0.4396 -0.0043
 1389SOL    HW115626   4.449   2.011  11.509 -1.0836 -0.6554  2.9522
 1389SOL    HW215627   4.388   1.877  11.543 -0.7611 -0.0376  0.4341
 1390SOL     OW15628   4.297   3.759   8.441 -0.7480 -0.8796  0.3554
 1390SOL    HW115629   4.341   3.675   8.426  1.7084  0.4041  0.2995
 1390SOL    HW215630   4.207   3.728   8.447 -0.2583 -1.9810  1.8331
 1391SOL     OW15631   3.314   0.419   7.987  0.0041  0.0404  0.6116
 1391SOL    HW115632   3.265   0.445   8.065  0.6376 -1.8012  1.6334
 1391SOL    HW215633   3.383   0.373   8.035 -0.5130 -2.0658 -0.6552
 1392SOL     OW15634   0.304   3.520   9.653  0.3281  0.0445 -1.4394
 1392SOL    HW115635   0.356   3.525   9.733  0.4886 -2.6824 -1.3868
 1392SOL    HW215636   0.264   3.435   9.669 -0.4026  0.4690 -1.0294
 1393SOL     OW15637   0.119   1.102   1.368  0.4264  0.5791  0.0665
 1393SOL    HW115638   0.052   1.092   1.435  2.1022 -1.9494  1.3521
 1393SOL    HW215639   0.084   1.045   1.300  1.6705  0.3279 -0.3689
 1394SOL     OW15640   3.336   0.187   9.193  0.0318  0.1405 -0.0143
 1394SOL    HW115641   3.344   0.101   9.233 -0.1639  1.0396  1.9942
 1394SOL    HW215642   3.250   0.208   9.231  0.5917  1.0449  0.7638
 1395SOL     OW15643   0.477   1.268   4.413  0.6535  0.1779  0.8436
 1395SOL    HW115644   0.495   1.318   4.333 -1.8168 -0.3463 -0.0374
 1395SOL    HW215645   0.513   1.334   4.472 -0.0180  0.4303  0.9661
 1396SOL     OW15646   1.338   3.829   0.934  0.3174 -0.4456  0.3486
 1396SOL    HW115647   1.271   3.889   0.900  2.9881  2.7219  0.7404
 1396SOL    HW215648   1.390   3.821   0.854  0.3072 -1.0133  0.3974
 1397SOL     OW15649   2.272   2.829   2.477  0.5271 -0.8536 -0.1546
 1397SOL    HW115650   2.253   2.745   2.436  1.0792 -1.1930  0.2815
 1397SOL    HW215651   2.195   2.872   2.438  0.2371 -1.0875  0.1606
 1398SOL     OW15652   4.309   2.753  15.478 -0.3230 -0.0849 -0.0257
 1398SOL    HW115653   4.294   2.662  15.500 -0.0196 -0.1507 -0.0796
 1398SOL    HW215654   4.401   2.742  15.453 -0.4484 -2.9244  0.7849
 1399SOL     OW15655   2.747   2.081  16.345  0.4571 -0.3184 -0.1724
 1399SOL    HW115656   2.753   1.996  16.389  0.0302 -0.1464  0.2123
 1399SOL    HW215657   2.662   2.117  16.372  1.1271  0.4060  0.9599
 1400SOL     OW15658   2.119   3.452   6.811 -0.1922  0.0298 -0.6011
 1400SOL    HW115659   2.055   3.498   6.757 -1.8009 -0.8647  0.5071
 1400SOL    HW215660   2.189   3.516   6.821 -0.0041 -0.3268  0.3870
 1401SOL     OW15661   3.302   0.412   4.837 -0.5493  0.9974  0.3820
 1401SOL    HW115662   3.227   0.418   4.896  0.1976 -0.6035  1.4969
 1401SOL    HW215663   3.262   0.454   4.761  1.8206  0.0368 -1.3740
 1402SOL     OW15664   1.527   3.230   8.204  0.5936  0.1047  0.0124
 1402SOL    HW115665   1.604   3.236   8.262  1.9046 -2.0190 -1.4889
 1402SOL    HW215666   1.558   3.276   8.126  0.1495  2.3790  1.2116
 1403SOL     OW15667   3.328   2.645   5.633  0.7433  0.0349  0.0008
 1403SOL    HW115668   3.387   2.632   5.558  1.5589 -2.5334  1.1000
 1403SOL    HW215669   3.334   2.740   5.646 -1.5809 -0.0218  1.4439
 1404SOL     OW15670   0.281   1.695   1.466  0.3752 -0.1575  0.6581
 1404SOL    HW115671   0.346   1.658   1.525  0.3363 -0.5066  0.4791
 1404SOL    HW215672   0.218   1.623   1.462 -1.4054  1.4586 -0.9237
 1405SOL     OW15673   3.251   1.866   8.891 -0.4298 -0.4377 -0.3634
 1405SOL    HW115674   3.332   1.864   8.942  0.4116 -0.6321 -1.7397
 1405SOL    HW215675   3.275   1.898   8.805  1.4268 -0.0653  0.3013
 1406SOL     OW15676   3.088   2.228   2.484  0.4133 -0.0405  0.0365
 1406SOL    HW115677   2.993   2.218   2.474  0.1512 -0.1333  2.5931
 1406SOL    HW215678   3.108   2.299   2.423  0.7133  0.2847  0.5145
 1407SOL     OW15679   0.295   0.753  14.216 -0.2225 -0.8326 -0.6562
 1407SOL    HW115680   0.354   0.818  14.254  0.5236 -1.0103 -1.4904
 1407SOL    HW215681   0.258   0.799  14.141 -0.7412 -0.1221  0.0479
 1408SOL     OW15682   3.582   4.046   4.829 -0.2599 -0.0380 -0.4946
 1408SOL    HW115683   3.607   4.126   4.875 -0.6335 -1.8197  2.8183
 1408SOL    HW215684   3.545   4.069   4.744 -0.8647  0.9831  0.0431
 1409SOL     OW15685   0.213   4.533   7.410  0.2891  0.1969  0.2031
 1409SOL    HW115686   0.262   4.537   7.492  0.2198 -0.2437  0.2643
 1409SOL    HW215687   0.130   4.503   7.447 -1.4739  0.9074 -3.1891
 1410SOL     OW15688   0.232   4.529   0.916 -0.1690  0.3626 -0.4613
 1410SOL    HW115689   0.255   4.437   0.930  0.4443  0.4090 -1.1785
 1410SOL    HW215690   0.236   4.543   0.821  1.4524  0.6286 -0.3423
 1411SOL     OW15691   1.342   0.942   7.266 -0.2207 -0.2465  0.2268
 1411SOL    HW115692   1.371   0.934   7.357  0.3622 -0.4312  0.0283
 1411SOL    HW215693   1.353   0.854   7.232  0.0612  0.1100 -0.6147
 1412SOL     OW15694   0.404   1.586  10.400 -0.1377  0.5804 -0.0343
 1412SOL    HW115695   0.499   1.598  10.400  0.2329 -2.4829 -0.9355
 1412SOL    HW215696   0.398   1.537  10.318  0.8779  0.5661 -0.0984
 1413SOL     OW15697   1.475   0.532   2.233 -0.2993  0.0612  0.6853
 1413SOL    HW115698   1.455   0.548   2.141  1.9924 -0.2227  0.1279
 1413SOL    HW215699   1.550   0.590   2.248  0.0746  0.1637 -1.5485
 1414SOL     OW15700   0.476   4.690  14.995 -0.1134  0.0956  0.0627
 1414SOL    HW115701   0.542   0.032  14.967 -1.3368  1.4299  0.1955
 1414SOL    HW215702   0.390   0.011  14.986 -0.6639 -1.4766 -2.1889
 1415SOL     OW15703   2.521   3.241   3.450  0.2717  0.0922 -0.4501
 1415SOL    HW115704   2.535   3.282   3.365  0.3080 -0.2590 -0.6146
 1415SOL    HW215705   2.580   3.293   3.504 -0.0008 -1.0273  0.9146
 1416SOL     OW15706   0.148   0.756   3.941  0.1937 -0.3619 -0.5539
 1416SOL    HW115707   0.136   0.747   3.847 -1.2354 -0.3186 -0.3810
 1416SOL    HW215708   0.189   0.842   3.948 -1.2395  0.3509 -0.9734
 1417SOL     OW15709   3.419   3.663   6.130  0.3655  0.2234  0.3648
 1417SOL    HW115710   3.417   3.730   6.062 -0.8135  0.3228  0.4950
 1417SOL    HW215711   3.330   3.652   6.165  0.2315  0.3335  0.0602
 1418SOL     OW15712   2.177   4.695   2.235 -0.4139 -0.3636 -0.4293
 1418SOL    HW115713   2.087   4.662   2.236 -0.5156 -0.0776 -0.0989
 1418SOL    HW215714   2.214   4.643   2.164  5.0650  2.7206  0.1252
 1419SOL     OW15715   3.793   3.004  10.656  0.1482  0.1185 -0.1405
 1419SOL    HW115716   3.781   3.060  10.732 -0.1659  1.3461 -1.0991
 1419SOL    HW215717   3.887   2.983  10.659 -0.2358 -1.7382 -1.3551
 1420SOL     OW15718   3.457   0.809   8.735  0.0686 -0.2932  0.1038
 1420SOL    HW115719   3.495   0.802   8.823  0.9924 -1.3127 -0.3807
 1420SOL    HW215720   3.412   0.894   8.733 -0.3375 -0.5321 -0.7758
 1421SOL     OW15721   0.780   3.602   9.400 -0.0837  0.4681  0.1214
 1421SOL    HW115722   0.761   3.541   9.471  1.4297 -1.4181 -1.0865
 1421SOL    HW215723   0.732   3.561   9.327 -1.1342  0.3569  0.8855
 1422SOL     OW15724   2.101   3.892   4.293  1.3376 -0.2572 -0.1857
 1422SOL    HW115725   2.129   3.815   4.244  0.3538  0.5442 -1.9952
 1422SOL    HW215726   2.185   3.931   4.315 -0.0431  1.1947  2.6294
 1423SOL     OW15727   3.728   3.907   4.400 -0.9694 -0.2357  0.6044
 1423SOL    HW115728   3.783   3.956   4.461  0.4682 -0.4028 -0.5612
 1423SOL    HW215729   3.804   3.879   4.349 -0.6706  1.3059  0.2016
 1424SOL     OW15730   0.716   1.864   2.787  0.7807  0.0302 -0.2086
 1424SOL    HW115731   0.790   1.896   2.735 -0.4044  0.2031 -1.7831
 1424SOL    HW215732   0.677   1.817   2.714  3.2060 -0.0473 -1.4703
 1425SOL     OW15733   3.794   2.452   1.505 -0.1996  0.4235  0.2186
 1425SOL    HW115734   3.760   2.366   1.529  1.8990 -0.0507  1.4463
 1425SOL    HW215735   3.722   2.465   1.443 -0.0716 -1.2067 -0.2861
 1426SOL     OW15736   1.793   2.659  14.902 -0.4177 -0.0235  0.5801
 1426SOL    HW115737   1.793   2.692  14.812 -1.6635 -0.9338  0.2500
 1426SOL    HW215738   1.856   2.587  14.898 -0.1647  0.3399 -2.2596
 1427SOL     OW15739   0.761   0.795   2.309  0.0303  0.5653 -0.3080
 1427SOL    HW115740   0.815   0.763   2.237  0.4858  0.0133  0.2821
 1427SOL    HW215741   0.805   0.769   2.389 -1.9538  0.1194  0.6334
 1428SOL     OW15742   0.697   1.748   4.678 -0.3373  0.1746  0.4370
 1428SOL    HW115743   0.784   1.787   4.684 -0.8932  1.4565  0.2254
 1428SOL    HW215744   0.681   1.747   4.772  0.7196 -0.6433  0.6100
 1429SOL     OW15745   3.167   0.373   1.658  0.0012 -0.7260  0.3104
 1429SOL    HW115746   3.219   0.312   1.606  3.3802  0.6346  2.1117
 1429SOL    HW215747   3.239   0.376   1.721  1.0939 -0.6562 -0.9494
 1430SOL     OW15748   3.737   0.571  11.868  0.2694  0.1002  0.3855
 1430SOL    HW115749   3.713   0.494  11.918  0.3376  0.6450  1.2638
 1430SOL    HW215750   3.785   0.526  11.798 -1.1201  0.5454 -0.8636
 1431SOL     OW15751   4.011   1.906   3.058 -0.0953 -0.6108  0.5478
 1431SOL    HW115752   4.026   1.955   3.139  0.9736  1.4297 -0.8808
 1431SOL    HW215753   4.074   1.948   2.999 -0.9798  1.5395  1.1296
 1432SOL     OW15754   3.220   1.916   4.403 -0.8765 -0.2284 -0.4317
 1432SOL    HW115755   3.187   1.937   4.491 -2.3889 -1.7896 -0.6234
 1432SOL    HW215756   3.221   1.997   4.353 -0.3263 -0.7302 -1.2212
 1433SOL     OW15757   0.595   1.770   2.566 -0.2657 -0.7980  0.7296
 1433SOL    HW115758   0.573   1.677   2.570  1.5968 -1.2829 -0.6144
 1433SOL    HW215759   0.521   1.811   2.522  1.1317 -0.4885 -1.3056
 1434SOL     OW15760   1.509   1.353  14.917  0.9326  0.6715  0.1289
 1434SOL    HW115761   1.543   1.350  15.006  2.4995 -1.3220 -0.5255
 1434SOL    HW215762   1.589   1.368  14.866  0.1457  1.0580 -0.9902
 1435SOL     OW15763   0.836   2.654  11.334 -0.0717 -0.4130  0.3221
 1435SOL    HW115764   0.887   2.731  11.358 -2.3651  1.2503 -0.2253
 1435SOL    HW215765   0.860   2.594  11.405  0.4725 -0.6609 -0.0640
 1436SOL     OW15766   2.445   2.991   9.122  0.2608  0.1959 -0.6028
 1436SOL    HW115767   2.352   2.978   9.102  0.0499 -1.1060  1.2169
 1436SOL    HW215768   2.451   2.934   9.198  2.7086  0.8424 -0.3052
 1437SOL     OW15769   1.844   0.982   7.515 -0.4749  0.4538  0.5576
 1437SOL    HW115770   1.883   0.921   7.578  1.2672  1.1576  0.1858
 1437SOL    HW215771   1.782   0.924   7.472  2.6673 -1.0809 -1.9750
 1438SOL     OW15772   1.744   4.045   7.920  0.2923 -0.1545 -0.3356
 1438SOL    HW115773   1.663   4.066   7.967  0.3533 -1.1699  0.2364
 1438SOL    HW215774   1.758   4.124   7.868 -0.0800 -0.1835 -0.4785
 1439SOL     OW15775   4.291   1.088   2.024 -0.2554 -0.6748 -0.1265
 1439SOL    HW115776   4.281   1.013   1.966  0.9596  0.1282 -1.3695
 1439SOL    HW215777   4.351   1.153   1.987 -2.3266  1.1815 -0.3141
 1440SOL     OW15778   2.691   4.189   4.621  0.0469  0.3019 -0.3610
 1440SOL    HW115779   2.619   4.128   4.639  1.1526 -1.0314 -0.5090
 1440SOL    HW215780   2.719   4.198   4.712  3.0279 -0.0987 -1.2429
 1441SOL     OW15781   0.348   4.654   2.862 -0.1538 -0.3079  0.0349
 1441SOL    HW115782   0.260   4.617   2.857  0.4705 -1.8219  0.2974
 1441SOL    HW215783   0.333   0.018   2.820  0.3942 -0.1948  0.0610
 1442SOL     OW15784   1.549   2.948  11.644 -0.1303  0.0429  0.0268
 1442SOL    HW115785   1.539   2.946  11.739 -2.6793  1.7446 -0.2158
 1442SOL    HW215786   1.471   2.902  11.613  0.3878 -1.4664  0.9656
 1443SOL     OW15787   4.250   1.107   3.186  0.2506  0.1094  0.3486
 1443SOL    HW115788   4.237   1.139   3.096  0.9123 -0.5658  0.0155
 1443SOL    HW215789   4.239   1.012   3.176 -1.0726 -0.0245  3.2172
 1444SOL     OW15790   0.305   1.213   2.555 -1.0181  0.0049 -0.0287
 1444SOL    HW115791   0.305   1.173   2.469  1.1543 -1.8259  0.8127
 1444SOL    HW215792   0.251   1.292   2.558  2.0808  2.1353  0.2394
 1445SOL     OW15793   0.796   3.419   5.127 -0.0117  0.7286 -0.1733
 1445SOL    HW115794   0.768   3.430   5.037  3.9539 -1.1325 -1.6469
 1445SOL    HW215795   0.752   3.335   5.141  2.7067 -0.6357  0.2759
 1446SOL     OW15796   0.491   0.496  16.025 -0.6398  0.7550 -0.6357
 1446SOL    HW115797   0.408   0.499  15.979 -1.1200 -0.4173  0.1563
 1446SOL    HW215798   0.515   0.586  16.049  0.8701 -0.0668  0.9321
 1447SOL     OW15799   1.451   3.433   9.451  0.5648  0.1102  0.3550
 1447SOL    HW115800   1.380   3.472   9.401  0.8849  1.5526  1.0270
 1447SOL    HW215801   1.469   3.509   9.506 -2.5940  1.2063 -0.1346
 1448SOL     OW15802   3.250   1.413  11.108  0.0368  0.0792  0.4722
 1448SOL    HW115803   3.168   1.365  11.121 -1.2039  1.8162 -1.0475
 1448SOL    HW215804   3.279   1.373  11.026  0.4661  0.4165  0.4565
 1449SOL     OW15805   2.157   1.945  11.829  0.3868  0.0653  0.1197
 1449SOL    HW115806   2.237   1.951  11.880 -0.3668  0.2595  1.2839
 1449SOL    HW215807   2.170   1.862  11.783  1.0894 -0.2901  0.9628
 1450SOL     OW15808   2.863   4.408   6.189 -0.0098  0.1641 -0.5551
 1450SOL    HW115809   2.927   4.477   6.206 -0.2612  0.5225 -1.0644
 1450SOL    HW215810   2.790   4.455   6.150  0.8514 -1.1056 -3.7081
 1451SOL     OW15811   4.627   4.070  10.505  0.0115 -0.2176  0.0524
 1451SOL    HW115812   4.542   4.062  10.548 -0.4400  2.0549 -0.4065
 1451SOL    HW215813   4.612   4.159  10.472 -0.4052  0.6370  2.5668
 1452SOL     OW15814   0.392   2.537  13.254  0.0620 -0.3942 -0.2965
 1452SOL    HW115815   0.387   2.632  13.265 -0.0004 -0.1871 -2.0942
 1452SOL    HW215816   0.308   2.511  13.292 -0.3948  0.7600 -0.5277
 1453SOL     OW15817   1.775   3.270  17.651  0.0801  0.3720 -0.4594
 1453SOL    HW115818   1.868   3.282  17.669  0.0949  0.4581 -0.5951
 1453SOL    HW215819   1.744   3.257   0.055 -0.8590  1.9822 -0.5472
 1454SOL     OW15820   3.039   3.989   7.463 -0.2854  0.6097 -0.0504
 1454SOL    HW115821   3.024   4.075   7.502  4.0887  0.7303  1.4143
 1454SOL    HW215822   3.004   3.922   7.521  2.1021  0.5139  1.3101
 1455SOL     OW15823   0.090   2.720   4.934  0.4154 -0.4969  0.3715
 1455SOL    HW115824   0.123   2.650   4.878 -0.2824  1.1606 -2.1148
 1455SOL    HW215825   4.718   2.723   4.911  0.0133 -1.0675  1.8744
 1456SOL     OW15826   4.070   2.607   9.635  0.9182 -0.6282 -0.2205
 1456SOL    HW115827   4.153   2.601   9.682  1.4868 -0.3251 -1.1782
 1456SOL    HW215828   4.104   2.602   9.546  1.4846 -0.0175 -0.0380
 1457SOL     OW15829   0.449   2.930   5.409 -0.3365  0.4814 -0.1572
 1457SOL    HW115830   0.544   2.919   5.410 -0.6298 -1.7988  1.2657
 1457SOL    HW215831   0.434   3.019   5.376  0.5596  1.2909  1.6217
 1458SOL     OW15832   2.033   1.735   1.932  0.0088 -0.2710  0.0429
 1458SOL    HW115833   1.955   1.679   1.931 -0.7355  0.7861 -1.7247
 1458SOL    HW215834   2.100   1.688   1.981  0.9370  2.2441  1.1890
 1459SOL     OW15835   0.923   3.779   6.499 -0.0803 -0.0301 -0.8607
 1459SOL    HW115836   0.910   3.687   6.519 -2.6404  1.3487  3.6269
 1459SOL    HW215837   0.978   3.811   6.570  0.0117 -2.2619  0.0628
 1460SOL     OW15838   1.238   0.155   0.146  0.0832  0.3136  0.6469
 1460SOL    HW115839   1.235   0.061   0.130 -1.8038  0.3179  0.9543
 1460SOL    HW215840   1.296   0.177   0.074  2.6701 -1.4643  2.2012
 1461SOL     OW15841   4.143   2.830   9.974 -0.5341  0.3731  0.1758
 1461SOL    HW115842   4.146   2.736   9.958 -0.5919  0.3906  0.0629
 1461SOL    HW215843   4.060   2.837  10.021 -0.4158  3.4018 -0.0659
 1462SOL     OW15844   3.464   4.168  15.768  0.7174 -0.0635 -0.2611
 1462SOL    HW115845   3.455   4.230  15.840 -2.1986  0.0068 -0.6821
 1462SOL    HW215846   3.555   4.181  15.743  0.7868  0.6352  0.3707
 1463SOL     OW15847   2.994   3.176   7.258 -0.8210  0.0368 -0.6600
 1463SOL    HW115848   3.002   3.092   7.214 -0.0807 -1.4988  2.3873
 1463SOL    HW215849   2.941   3.142   7.330 -0.0878  1.9408  0.7792
 1464SOL     OW15850   0.139   3.855   4.673  0.2633 -0.2851  0.3632
 1464SOL    HW115851   0.154   3.858   4.578 -0.8455 -2.2156  0.1163
 1464SOL    HW215852   0.189   3.775   4.688 -1.5092 -1.5629 -0.4626
 1465SOL     OW15853   1.101   0.568  13.253 -0.1641  0.6196  0.4804
 1465SOL    HW115854   1.060   0.483  13.238  1.2323  0.0592 -0.1910
 1465SOL    HW215855   1.110   0.571  13.348  1.1015  1.3070  0.3331
 1466SOL     OW15856   1.193   4.047  11.478 -0.4481  0.3293 -0.7472
 1466SOL    HW115857   1.212   3.989  11.404  2.1267 -0.0330  0.2060
 1466SOL    HW215858   1.151   3.979  11.530 -0.5114  1.1912  0.3332
 1467SOL     OW15859   3.819   4.158   8.055 -0.0539  0.2146  0.7386
 1467SOL    HW115860   3.832   4.068   8.026 -1.1540  0.5800 -0.8525
 1467SOL    HW215861   3.831   4.203   7.972 -0.5423 -1.1692 -0.0701
 1468SOL     OW15862   0.115   0.726  10.810  0.5813  0.0297  0.4538
 1468SOL    HW115863   0.020   0.726  10.810  0.5811  3.9214 -2.6364
 1468SOL    HW215864   0.133   0.677  10.729  1.4463  0.1619  0.5643
 1469SOL     OW15865   2.239   2.014   4.904 -0.4720 -0.6464 -0.2784
 1469SOL    HW115866   2.239   2.100   4.862 -1.6364 -1.0721 -1.1433
 1469SOL    HW215867   2.279   2.049   4.984 -2.8869  1.0392  0.2105
 1470SOL     OW15868   1.425   1.706   5.921  0.0977 -0.7475  0.2023
 1470SOL    HW115869   1.459   1.752   5.998 -2.2561 -2.0597  2.0338
 1470SOL    HW215870   1.507   1.701   5.872 -0.4203 -0.6882 -0.6629
 1471SOL     OW15871   1.187   2.938   6.140 -0.0185  0.5627  0.2815
 1471SOL    HW115872   1.252   2.968   6.076  0.6890 -1.4924  0.0161
 1471SOL    HW215873   1.154   3.022   6.172  0.6111  1.5460 -1.6093
 1472SOL     OW15874   0.060   0.582   4.828 -0.2930  0.2667  0.0385
 1472SOL    HW115875   0.145   0.556   4.793  0.4363  1.4253  0.9406
 1472SOL    HW215876   4.720   0.514   4.799 -1.4183  1.5103 -0.5322
 1473SOL     OW15877   0.978   1.155   3.627 -0.4103 -0.3859  0.4637
 1473SOL    HW115878   0.888   1.136   3.600 -0.7209 -1.0992  2.0003
 1473SOL    HW215879   1.019   1.173   3.542  0.2166 -2.8945  0.2412
 1474SOL     OW15880   1.491   4.639   7.034 -0.0489  0.6113 -0.2039
 1474SOL    HW115881   1.515   4.704   6.967  1.1397 -0.9208 -1.2610
 1474SOL    HW215882   1.396   4.653   7.035 -0.0531  0.5196  0.4122
 1475SOL     OW15883   4.636   1.222   4.195  0.3654 -0.2138 -0.0408
 1475SOL    HW115884   4.586   1.140   4.198 -0.3401  0.0880 -3.2480
 1475SOL    HW215885   4.693   1.214   4.272 -0.0334 -1.2289  0.1613
 1476SOL     OW15886   1.210   3.968  17.041  0.0995 -0.4209 -0.2916
 1476SOL    HW115887   1.212   4.009  16.955 -2.1293 -1.5301 -0.8828
 1476SOL    HW215888   1.124   3.925  17.038  0.1770 -0.6035  0.0277
 1477SOL     OW15889   4.121   0.605   2.673 -0.6557  0.0678 -0.6133
 1477SOL    HW115890   4.186   0.559   2.726 -1.3410  0.2117  0.3451
 1477SOL    HW215891   4.046   0.546   2.682 -1.2296  0.9832  0.5922
 1478SOL     OW15892   2.618   0.469   7.796  0.6933 -0.2252 -0.5461
 1478SOL    HW115893   2.529   0.437   7.808 -0.3746  3.2251  0.8773
 1478SOL    HW215894   2.673   0.414   7.852  1.6830  0.9858 -0.3163
 1479SOL     OW15895   4.406   1.534   4.791 -0.2716 -0.0205  0.1519
 1479SOL    HW115896   4.434   1.624   4.808 -0.0170 -0.5486  2.5888
 1479SOL    HW215897   4.465   1.482   4.846 -0.1630  0.6397  0.6609
 1480SOL     OW15898   4.100   0.687   0.909 -0.0646 -0.1892  1.0401
 1480SOL    HW115899   4.077   0.628   0.982 -3.3045 -1.0158 -0.6349
 1480SOL    HW215900   4.058   0.766   0.944 -0.2724  0.7864 -1.4057
 1481SOL     OW15901   2.550   2.134   2.893  0.2843  0.0733  0.1325
 1481SOL    HW115902   2.548   2.074   2.819 -1.5414 -2.5479  2.3101
 1481SOL    HW215903   2.593   2.082   2.960  2.0104  0.4320 -0.7149
 1482SOL     OW15904   3.802   0.371   6.346  0.0119  0.1839 -0.0463
 1482SOL    HW115905   3.766   0.345   6.431 -0.2833 -2.6524 -1.0194
 1482SOL    HW215906   3.894   0.355   6.367  0.0004 -1.6172 -1.2966
 1483SOL     OW15907   2.934   0.924   7.720 -0.2432 -0.0374  0.6083
 1483SOL    HW115908   3.005   0.983   7.744  0.0227  0.1756 -0.6564
 1483SOL    HW215909   2.911   0.888   7.805 -0.7068 -1.4071 -0.0855
 1484SOL     OW15910   0.496   2.699  16.656  0.3529 -0.3515  0.2990
 1484SOL    HW115911   0.566   2.717  16.593 -0.5107 -1.9473 -1.1074
 1484SOL    HW215912   0.478   2.605  16.650 -3.1181  0.1673  2.5218
 1485SOL     OW15913   2.246   4.594   3.877  0.4821 -0.2004  0.1624
 1485SOL    HW115914   2.260   4.523   3.814 -0.6863 -0.7627  0.5283
 1485SOL    HW215915   2.166   4.570   3.924  0.6308  0.0480  0.5425
 1486SOL     OW15916   3.480   3.694  13.854  0.2292 -0.7352 -0.2549
 1486SOL    HW115917   3.477   3.784  13.821 -0.4095 -0.4899  0.4667
 1486SOL    HW215918   3.510   3.645  13.777 -0.1550 -1.5607  0.1227
 1487SOL     OW15919   1.039   2.375   2.281  0.1201 -0.0849  0.6654
 1487SOL    HW115920   1.038   2.283   2.255 -2.9821  0.8060 -2.4983
 1487SOL    HW215921   1.009   2.415   2.199  0.2810  0.8435  1.0522
 1488SOL     OW15922   0.281   3.936   8.450  0.4055  0.0821  0.1661
 1488SOL    HW115923   0.216   3.867   8.461  1.1816 -0.8302 -0.9761
 1488SOL    HW215924   0.273   3.947   8.355  0.1219 -0.2439  0.1552
 1489SOL     OW15925   2.773   3.008   1.725 -0.3076 -0.7511  0.1460
 1489SOL    HW115926   2.687   3.036   1.756  0.1982 -0.1625  1.0337
 1489SOL    HW215927   2.830   3.019   1.801 -1.1507  0.4756  0.5976
 1490SOL     OW15928   2.052   3.112   4.626  0.3998 -0.2569  0.2476
 1490SOL    HW115929   2.106   3.037   4.649  2.0178  1.5015  2.3255
 1490SOL    HW215930   2.055   3.117   4.531 -0.2987 -0.8126  0.2030
 1491SOL     OW15931   4.408   3.663  16.023  0.6426 -0.2278 -0.1279
 1491SOL    HW115932   4.410   3.594  16.090  0.1474 -1.0334 -0.9443
 1491SOL    HW215933   4.332   3.712  16.053  0.2553 -0.4357 -0.7631
 1492SOL     OW15934   1.236   2.446   7.922 -0.3449 -0.4331  0.4345
 1492SOL    HW115935   1.274   2.374   7.972  3.9232  0.0716 -2.0035
 1492SOL    HW215936   1.159   2.472   7.972 -0.3040  2.2397 -0.8995
 1493SOL     OW15937   1.057   3.235   8.463 -0.0369 -0.0398 -0.0881
 1493SOL    HW115938   1.055   3.177   8.387  4.2354 -0.8268  0.3948
 1493SOL    HW215939   1.144   3.274   8.462 -0.2805  0.5721  1.5746
 1494SOL     OW15940   3.885   3.168   2.894 -0.6164  0.1060 -0.1291
 1494SOL    HW115941   3.971   3.153   2.856  0.3947  1.9580  1.4671
 1494SOL    HW215942   3.891   3.114   2.972  0.2395 -0.4418 -0.5856
 1495SOL     OW15943   0.803   1.369   2.986  0.5848  0.7438  0.0813
 1495SOL    HW115944   0.859   1.317   2.929 -1.2632 -0.3763 -0.7214
 1495SOL    HW215945   0.772   1.307   3.053  0.2977  1.6643  0.8013
 1496SOL     OW15946   0.681   3.933  12.379  0.3188 -0.2790 -0.2509
 1496SOL    HW115947   0.755   3.873  12.367 -0.1336 -1.1127  1.0900
 1496SOL    HW215948   0.720   4.006  12.427  0.7877  0.0212 -1.0884
 1497SOL     OW15949   0.519   3.568   1.377 -0.0590 -0.5893  0.2008
 1497SOL    HW115950   0.475   3.567   1.292  1.1947 -1.3172 -0.4556
 1497SOL    HW215951   0.464   3.505   1.423  1.4871 -1.8171  0.3928
 1498SOL     OW15952   3.011   1.434  13.469  0.3701  0.2363 -0.3506
 1498SOL    HW115953   2.979   1.471  13.387  2.1548 -2.9766 -2.5357
 1498SOL    HW215954   3.011   1.338  13.463  1.6705  0.1163  1.4252
 1499SOL     OW15955   1.945   4.601  14.056  0.0454  0.8903  0.0436
 1499SOL    HW115956   1.929   4.587  14.149 -1.3034 -0.6402 -0.4213
 1499SOL    HW215957   2.034   4.566  14.048  0.3284  1.4568  0.6468
 1500SOL     OW15958   2.836   1.965  17.025  0.2809 -0.1297  0.2446
 1500SOL    HW115959   2.830   1.870  17.020  1.5451 -0.2686  1.2046
 1500SOL    HW215960   2.815   1.983  16.934  3.3294  0.7419 -0.2967
 1501SOL     OW15961   0.710   2.627   2.978 -0.2190  0.0431 -0.7218
 1501SOL    HW115962   0.715   2.583   2.893 -0.6594  1.2685 -1.3816
 1501SOL    HW215963   0.795   2.615   3.019  0.1894 -0.3708 -1.6794
 1502SOL     OW15964   1.550   0.665   3.629  0.2085 -0.3427 -0.0750
 1502SOL    HW115965   1.624   0.646   3.686  1.1091 -2.0835 -1.8360
 1502SOL    HW215966   1.502   0.582   3.630 -0.2791 -0.0637 -1.0590
 1503SOL     OW15967   4.388   2.920   9.466 -0.1653  0.5893  0.2807
 1503SOL    HW115968   4.359   2.905   9.377 -1.8937  1.2471  0.7363
 1503SOL    HW215969   4.408   3.014   9.467  1.7633  0.1922 -2.8314
 1504SOL     OW15970   0.437   3.277   4.448 -0.5428  0.1765  0.3206
 1504SOL    HW115971   0.356   3.238   4.413 -0.0635  0.1457 -0.7566
 1504SOL    HW215972   0.475   3.206   4.498 -3.3851  0.1733  2.4735
 1505SOL     OW15973   1.097   4.282  11.759 -0.4944  0.0544  0.3503
 1505SOL    HW115974   1.171   4.221  11.756 -1.1859 -0.8355  1.0571
 1505SOL    HW215975   1.134   4.369  11.748 -1.9784  0.8070  1.2223
 1506SOL     OW15976   2.895   0.693   2.429  0.2827 -0.1084 -0.0131
 1506SOL    HW115977   2.921   0.619   2.483  0.5153 -0.0329 -0.0212
 1506SOL    HW215978   2.951   0.676   2.354  1.7506 -2.6151  1.6597
 1507SOL     OW15979   4.225   1.777   0.184  0.3317 -0.5941  0.6044
 1507SOL    HW115980   4.293   1.777   0.252 -0.9882 -1.5658  1.9278
 1507SOL    HW215981   4.246   1.690   0.148  1.1157 -0.3736  0.5152
 1508SOL     OW15982   0.151   2.031   6.056  0.0906 -0.3449 -0.6821
 1508SOL    HW115983   0.057   2.014   6.065  0.2373 -0.1683  1.1521
 1508SOL    HW215984   0.142   2.070   5.969  1.0953  1.7139  0.1565
 1509SOL     OW15985   3.893   4.605  12.714 -0.1589  0.4905 -0.0114
 1509SOL    HW115986   3.832   4.535  12.736  0.5656  0.2464  1.2254
 1509SOL    HW215987   3.971   4.560  12.748 -0.5234 -0.8052 -0.8718
 1510SOL     OW15988   2.902   0.587  14.930  0.2215  0.4053 -0.5276
 1510SOL    HW115989   2.991   0.580  14.964  0.0623  1.1468  0.0236
 1510SOL    HW215990   2.912   0.548  14.843  0.4141 -0.2440 -0.2170
 1511SOL     OW15991   4.226   4.233  10.871 -0.5407 -0.3131  0.2463
 1511SOL    HW115992   4.222   4.150  10.823 -0.2107 -0.4589  0.4713
 1511SOL    HW215993   4.148   4.230  10.926  2.0381  0.6342  3.9027
 1512SOL     OW15994   4.434   1.006   1.124  0.2343 -0.1302 -0.1846
 1512SOL    HW115995   4.468   1.047   1.044 -0.3069  3.3082  1.3214
 1512SOL    HW215996   4.345   1.002   1.091  0.0799  1.0327  0.0778
 1513SOL     OW15997   0.524   1.371   1.430 -0.0544 -0.1215  0.2601
 1513SOL    HW115998   0.466   1.362   1.506 -2.1711 -1.3370 -1.4839
 1513SOL    HW215999   0.609   1.341   1.461 -0.2639 -0.0995  0.8630
 1514SOL     OW16000   1.151   4.459   7.191 -0.5356  0.5295 -0.0675
 1514SOL    HW116001   1.131   4.415   7.109 -0.0213  0.2565 -0.0457
 1514SOL    HW216002   1.188   4.546   7.173  0.2667  0.2062 -0.0020
 1515SOL     OW16003   3.095   1.872   3.287 -0.1774  0.7636 -0.0420
 1515SOL    HW116004   3.099   1.828   3.372  1.8967  0.1538 -0.4472
 1515SOL    HW216005   3.160   1.818   3.241  1.1334  1.4903  0.9596
 1516SOL     OW16006   3.119   3.783   5.472 -0.1112 -0.8612 -0.0011
 1516SOL    HW116007   3.206   3.743   5.483  0.0983 -1.0294 -2.3113
 1516SOL    HW216008   3.141   3.863   5.424 -1.4320 -0.0211  0.7799
 1517SOL     OW16009   4.665   2.341  10.716 -0.3865  0.1088 -0.1091
 1517SOL    HW116010   4.610   2.346  10.794 -0.1855 -1.5619  0.1510
 1517SOL    HW216011   0.022   2.382  10.753 -0.9389 -0.0199  1.2131
 1518SOL     OW16012   3.927   0.904   0.994 -0.3069 -0.3690  0.4417
 1518SOL    HW116013   3.862   0.837   0.972 -1.0342  0.9646 -1.4008
 1518SOL    HW216014   3.869   0.978   1.013  0.0318 -0.3009  1.2163
 1519SOL     OW16015   2.667   4.016   6.773 -0.5213  0.1367  0.0129
 1519SOL    HW116016   2.649   4.015   6.679 -1.3673  1.1576  0.1664
 1519SOL    HW216017   2.700   4.106   6.779  0.5859 -0.1610 -1.4859
 1520SOL     OW16018   3.293   3.050  16.298 -0.3343 -0.0788  0.2074
 1520SOL    HW116019   3.220   2.992  16.279 -0.1635  0.3219 -1.6467
 1520SOL    HW216020   3.363   3.046  16.232  2.2170  2.3127  2.7605
 1521SOL     OW16021   0.762   2.899  10.008 -0.0579  0.0718 -0.4820
 1521SOL    HW116022   0.843   2.880  10.055 -0.2836 -1.4026 -0.6931
 1521SOL    HW216023   0.702   2.827  10.028 -0.7840  0.7552 -0.1819
 1522SOL     OW16024   3.998   1.621   4.831  0.5496  0.1239 -0.3699
 1522SOL    HW116025   3.984   1.564   4.906 -1.8752  1.1856 -0.0110
 1522SOL    HW216026   3.947   1.585   4.758  0.9808 -2.5072  0.6180
 1523SOL     OW16027   1.131   3.485  16.466 -0.1789  0.5721 -0.3038
 1523SOL    HW116028   1.099   3.530  16.544 -0.0460 -0.7040  0.4789
 1523SOL    HW216029   1.065   3.517  16.404  0.0563  0.4918 -0.5934
 1524SOL     OW16030   1.964   0.007   8.523  0.6773  0.0199 -0.2342
 1524SOL    HW116031   1.989   0.050   8.605 -1.2302 -0.8724  0.8200
 1524SOL    HW216032   2.039   0.032   8.469 -0.3091  1.0218 -1.1430
 1525SOL     OW16033   2.871   2.693   0.669 -0.4318 -0.1158  0.3120
 1525SOL    HW116034   2.798   2.744   0.633 -0.0340  0.8781  0.9336
 1525SOL    HW216035   2.852   2.610   0.624  3.6278 -0.6921 -0.3541
 1526SOL     OW16036   2.012   1.519   7.400 -0.0343 -0.4785 -0.3557
 1526SOL    HW116037   2.086   1.552   7.451  0.8677 -0.6563 -1.5385
 1526SOL    HW216038   1.932   1.566   7.420 -0.6561 -0.5240 -2.7882
 1527SOL     OW16039   3.934   0.739   9.858 -0.5669 -0.1816  0.0347
 1527SOL    HW116040   3.842   0.725   9.837 -0.6552  0.4623  0.0065
 1527SOL    HW216041   3.942   0.677   9.931  0.1046  0.6427  0.6657
 1528SOL     OW16042   2.214   4.382   9.611 -0.7784 -0.0722 -0.2674
 1528SOL    HW116043   2.173   4.462   9.643  0.2492  0.3647 -0.0355
 1528SOL    HW216044   2.203   4.325   9.687  3.4484  0.1892  0.5559
 1529SOL     OW16045   2.718   3.518   9.092  0.2041  0.2552  0.1483
 1529SOL    HW116046   2.705   3.483   9.180 -1.7461 -0.6458 -0.5040
 1529SOL    HW216047   2.654   3.468   9.041  1.1632  1.6627 -2.4722
 1530SOL     OW16048   0.294   2.004  13.537 -0.5441 -0.1977  0.0652
 1530SOL    HW116049   0.316   1.912  13.547  1.3933  0.5493  2.5562
 1530SOL    HW216050   0.200   1.993  13.520 -0.0551 -1.3256 -1.8239
 1531SOL     OW16051   2.930   2.970   3.813 -0.0936  0.1239 -0.3578
 1531SOL    HW116052   2.884   2.897   3.854 -1.5356  2.2083  1.6694
 1531SOL    HW216053   2.943   3.031   3.886 -2.2690  0.1708 -0.0023
 1532SOL     OW16054   2.142   0.409   8.285  0.1002 -0.1797  0.1596
 1532SOL    HW116055   2.229   0.441   8.261 -0.2083 -1.0503 -2.1427
 1532SOL    HW216056   2.153   0.326   8.330  0.6777 -0.0792  0.2017
 1533SOL     OW16057   3.664   1.715   6.523 -0.4165 -0.2028  0.3898
 1533SOL    HW116058   3.575   1.735   6.552 -0.9759  0.0976 -1.6015
 1533SOL    HW216059   3.708   1.787   6.567 -0.2886 -0.3008  0.4224
 1534SOL     OW16060   0.034   3.949   4.091  0.7083  0.1878  0.0760
 1534SOL    HW116061   0.123   3.940   4.057  1.0686 -2.2227  1.6190
 1534SOL    HW216062   4.703   3.979   4.016 -1.3499 -4.6688 -0.4806
 1535SOL     OW16063   0.434   2.854  14.763 -0.3866  0.3262 -0.0443
 1535SOL    HW116064   0.481   2.906  14.698 -0.5508 -0.9039 -1.1297
 1535SOL    HW216065   0.479   2.880  14.843 -0.0350 -0.1566 -0.0864
 1536SOL     OW16066   1.564   3.378  16.402 -1.1042 -0.3009 -0.3915
 1536SOL    HW116067   1.592   3.326  16.327  1.1655  1.5693 -0.8371
 1536SOL    HW216068   1.511   3.445  16.359  1.1227  1.9088  0.3198
 1537SOL     OW16069   1.172   0.646  12.795 -0.2283  0.3943 -0.3409
 1537SOL    HW116070   1.226   0.722  12.773  1.9106 -0.7550  0.8559
 1537SOL    HW216071   1.172   0.609  12.707  2.4412 -0.1686 -0.0953
 1538SOL     OW16072   1.494   0.742   7.693 -0.4754  0.4614 -0.0830
 1538SOL    HW116073   1.540   0.764   7.775 -0.0052 -3.2194  0.6507
 1538SOL    HW216074   1.520   0.650   7.683 -1.5055  0.0909  0.6389
 1539SOL     OW16075   3.702   0.898  11.888  0.1441 -0.1824 -0.4312
 1539SOL    HW116076   3.719   0.803  11.886 -2.0779 -0.6017  0.3096
 1539SOL    HW216077   3.647   0.901  11.810 -0.3048 -1.1512 -0.1512
 1540SOL     OW16078   3.880   3.354   0.238  0.2201  0.1283  0.5804
 1540SOL    HW116079   3.802   3.303   0.213  0.8279 -1.1121  1.2419
 1540SOL    HW216080   3.869   3.433   0.185 -0.2814  0.2056  0.7931
 1541SOL     OW16081   3.882   2.483   8.121  0.1886 -0.4132 -0.1275
 1541SOL    HW116082   3.970   2.516   8.139 -0.7286  1.0131  1.6702
 1541SOL    HW216083   3.855   2.546   8.054  2.1578  1.8282  1.1896
 1542SOL     OW16084   2.901   0.866   1.875 -0.1085 -0.2517  0.2448
 1542SOL    HW116085   2.840   0.825   1.936 -0.9147  0.6268  0.0213
 1542SOL    HW216086   2.834   0.914   1.828  0.6661 -0.0733 -0.6781
 1543SOL     OW16087   3.121   3.113   2.935 -0.3451 -0.5219 -0.1656
 1543SOL    HW116088   3.165   3.028   2.938  1.1606  0.2099 -1.3673
 1543SOL    HW216089   3.076   3.120   3.019  3.2953  0.2575  1.7307
 1544SOL     OW16090   3.596   3.172   2.195 -0.4046 -0.1153  0.1287
 1544SOL    HW116091   3.601   3.200   2.286  1.2580  0.6569 -0.2056
 1544SOL    HW216092   3.649   3.093   2.188 -1.6197 -0.6892 -2.6747
 1545SOL     OW16093   0.270   0.077  10.319  0.7870  0.0408 -0.2480
 1545SOL    HW116094   0.307   0.014  10.380  0.3812 -0.6315 -0.6833
 1545SOL    HW216095   0.276   0.159  10.367  0.9435 -0.2025  0.1492
 1546SOL     OW16096   1.719   2.672   9.756  0.0845  0.0114  0.0033
 1546SOL    HW116097   1.812   2.695   9.764  0.0965 -0.5356  1.4201
 1546SOL    HW216098   1.699   2.718   9.674  0.4589 -1.0511 -0.6825
 1547SOL     OW16099   0.229   0.393  15.168 -0.1461 -0.3098 -0.1896
 1547SOL    HW116100   0.270   0.380  15.254 -0.3531  0.0178 -0.0435
 1547SOL    HW216101   0.143   0.357  15.188 -0.0834 -0.9651 -1.0974
 1548SOL     OW16102   2.820   3.739  16.589 -0.1382 -0.5694  0.8965
 1548SOL    HW116103   2.898   3.696  16.624  2.1163  2.4458 -0.4504
 1548SOL    HW216104   2.760   3.665  16.594  0.1541 -0.9685 -1.6850
 1549SOL     OW16105   4.696   4.438   7.451  0.1451  0.4744 -0.3475
 1549SOL    HW116106   4.720   4.349   7.427 -1.1145  0.3192 -1.0091
 1549SOL    HW216107   4.630   4.440   7.520 -0.8298 -0.3007 -1.2652
 1550SOL     OW16108   2.105   3.577   7.450 -0.5263  0.3073  0.1996
 1550SOL    HW116109   2.063   3.493   7.465  1.5048 -0.3773  2.0632
 1550SOL    HW216110   2.028   3.634   7.440 -0.2681  1.3169  3.6728
 1551SOL     OW16111   2.415   0.969   6.144  0.0373 -0.2578 -0.0737
 1551SOL    HW116112   2.481   0.905   6.118 -1.3555 -1.4156 -0.7776
 1551SOL    HW216113   2.448   1.044   6.094  3.5753 -1.6068  0.2381
 1552SOL     OW16114   0.725   2.127   3.725 -0.3040  0.5301  0.5593
 1552SOL    HW116115   0.712   2.034   3.708 -0.7176  0.1877  2.7254
 1552SOL    HW216116   0.748   2.167   3.641  3.8697 -1.3250  0.8126
 1553SOL     OW16117   3.825   3.727   3.662  0.1270  0.0040  0.6657
 1553SOL    HW116118   3.914   3.744   3.692 -0.0510  4.9657 -1.7439
 1553SOL    HW216119   3.844   3.748   3.570  1.4439 -0.5369  0.8112
 1554SOL     OW16120   0.593   3.531   3.696  0.2425  0.2509 -0.1199
 1554SOL    HW116121   0.568   3.495   3.611 -0.6191  1.3749 -0.3585
 1554SOL    HW216122   0.508   3.547   3.738  0.0411 -1.0111 -0.0648
 1555SOL     OW16123   1.437   1.512   8.783 -0.1360 -0.0334 -0.0521
 1555SOL    HW116124   1.478   1.426   8.793  1.2800  0.6734  0.2629
 1555SOL    HW216125   1.453   1.557   8.867 -0.0168  1.5963 -0.9392
 1556SOL     OW16126   2.281   0.192   7.636 -0.5017 -0.2063  0.4669
 1556SOL    HW116127   2.233   0.114   7.665 -1.2106 -0.0181 -0.2227
 1556SOL    HW216128   2.274   0.190   7.541  1.3492 -0.5612  0.3281
 1557SOL     OW16129   4.621   0.596   0.268  0.1600 -0.2321  0.3840
 1557SOL    HW116130   4.661   0.643   0.195 -0.3463 -0.1076  0.1836
 1557SOL    HW216131   4.693   0.608   0.329  1.1362 -0.8648 -0.6578
 1558SOL     OW16132   0.054   4.708   5.869  0.0811  0.3350  0.4681
 1558SOL    HW116133   0.006   0.070   5.870 -0.8619 -0.2068  0.7383
 1558SOL    HW216134   4.704   4.644   5.878 -0.4429  0.9505  0.7521
 1559SOL     OW16135   1.255   1.535   8.599  1.0347  0.0026  0.1032
 1559SOL    HW116136   1.326   1.535   8.663  0.6187  0.9497  0.5650
 1559SOL    HW216137   1.190   1.585   8.648  1.1172  1.4934 -1.2902
 1560SOL     OW16138   3.882   2.102   7.809  0.3409 -0.0520 -0.0797
 1560SOL    HW116139   3.868   2.009   7.793  1.3091 -0.3726  0.9019
 1560SOL    HW216140   3.857   2.122   7.899 -0.4177 -1.6887  0.0741
 1561SOL     OW16141   3.457   3.639   9.716  0.0449  0.3133  0.4536
 1561SOL    HW116142   3.442   3.714   9.772 -0.2778 -0.8479  1.9355
 1561SOL    HW216143   3.408   3.572   9.764 -0.3496 -1.4967 -2.4430
 1562SOL     OW16144   2.947   1.844  17.349  0.3448 -0.3532 -0.1427
 1562SOL    HW116145   2.911   1.835  17.261  0.7548  1.1394 -0.4712
 1562SOL    HW216146   3.009   1.772  17.359 -0.8589 -1.1424  1.6345
 1563SOL     OW16147   2.239   0.901   3.021  0.6327 -0.3992 -0.2048
 1563SOL    HW116148   2.189   0.846   2.960  0.2830  0.9022 -1.0872
 1563SOL    HW216149   2.204   0.862   3.101  0.2993 -0.7532 -0.5203
 1564SOL     OW16150   3.526   2.025   2.311 -0.0112  0.3217 -0.3224
 1564SOL    HW116151   3.576   2.074   2.376  2.8435 -0.8249 -1.6620
 1564SOL    HW216152   3.540   1.941   2.353 -2.3686 -0.3119 -0.7565
 1565SOL     OW16153   3.319   0.409   2.366 -0.0855  0.4524  0.1568
 1565SOL    HW116154   3.336   0.485   2.421 -1.8980  1.1818 -0.2851
 1565SOL    HW216155   3.309   0.446   2.279  0.6651  0.5396  0.1098
 1566SOL     OW16156   0.460   1.176   6.968  0.3341 -0.8711  0.1820
 1566SOL    HW116157   0.516   1.099   6.984  0.2081 -0.9378  0.2966
 1566SOL    HW216158   0.511   1.216   6.898 -0.3052 -1.5041 -0.6380
 1567SOL     OW16159   4.563   0.658   2.096 -0.2146 -0.5294  0.2763
 1567SOL    HW116160   4.501   0.724   2.065 -0.2902  0.4590  2.5712
 1567SOL    HW216161   4.601   0.707   2.169  0.1539 -0.8324  0.2899
 1568SOL     OW16162   0.149   0.625   5.979  0.4807 -0.4381  0.2300
 1568SOL    HW116163   0.229   0.676   5.969 -0.5815  0.9110 -1.3833
 1568SOL    HW216164   0.163   0.553   5.917 -0.7512 -1.7054  1.4269
 1569SOL     OW16165   0.839   2.028   8.774 -0.0467 -0.1286  0.5200
 1569SOL    HW116166   0.862   1.935   8.765 -2.1448 -0.6852  0.8996
 1569SOL    HW216167   0.743   2.019   8.776 -0.0556 -0.5479 -1.1562
 1570SOL     OW16168   4.633   4.222   1.814  0.9934  0.2808  0.0021
 1570SOL    HW116169   4.606   4.134   1.789 -1.4125  1.1957 -0.5686
 1570SOL    HW216170   4.660   4.260   1.730 -1.0545 -0.6417 -1.0699
 1571SOL     OW16171   1.908   3.064   6.611 -0.1422  0.2124 -0.1213
 1571SOL    HW116172   1.832   3.094   6.660 -0.5506 -1.0401  0.0315
 1571SOL    HW216173   1.970   3.104   6.672 -0.7612 -1.4504  1.6261
 1572SOL     OW16174   0.030   3.982  15.339 -0.4343 -0.4959  0.0263
 1572SOL    HW116175   0.096   4.049  15.357 -0.9695  0.2112 -0.6321
 1572SOL    HW216176   0.012   3.952  15.428 -0.6075 -1.5111 -0.3617
 1573SOL     OW16177   3.638   3.139   7.970 -0.0725 -0.3908  0.4717
 1573SOL    HW116178   3.590   3.087   8.035 -0.2062  0.0825  0.7459
 1573SOL    HW216179   3.712   3.177   8.018  0.4203 -1.3348  0.4779
 1574SOL     OW16180   2.822   2.347   4.108  0.0144 -0.1859  0.4954
 1574SOL    HW116181   2.736   2.389   4.110  0.5239  0.9029 -0.1867
 1574SOL    HW216182   2.855   2.364   4.196  1.0468  0.9924 -0.1176
 1575SOL     OW16183   3.461   3.019   0.332  0.1830 -0.2207 -0.2018
 1575SOL    HW116184   3.395   3.068   0.282 -0.7125 -0.9253  0.2909
 1575SOL    HW216185   3.406   3.008   0.410  1.5354  1.4484  0.9733
 1576SOL     OW16186   2.690   3.163   9.688 -0.2613  0.3273  0.3531
 1576SOL    HW116187   2.779   3.180   9.718  1.0136  0.0528 -3.2422
 1576SOL    HW216188   2.713   3.157   9.595  1.3431  3.3011  0.5613
 1577SOL     OW16189   0.886   1.614   5.115  0.3438  0.0311  0.0540
 1577SOL    HW116190   0.924   1.688   5.068 -1.4650  0.3504 -0.9114
 1577SOL    HW216191   0.962   1.556   5.108  1.6161  1.6672  0.4234
 1578SOL     OW16192   2.543   3.538  10.841 -0.2998  0.4598 -0.5391
 1578SOL    HW116193   2.469   3.561  10.785  2.4116  2.7276 -3.1965
 1578SOL    HW216194   2.534   3.600  10.913 -0.1498 -2.5398  2.0572
 1579SOL     OW16195   2.602   2.127  16.606 -0.9744 -0.2802 -0.1927
 1579SOL    HW116196   2.663   2.083  16.665 -0.2088  1.2955  0.1901
 1579SOL    HW216197   2.539   2.158  16.670  0.4638 -0.4927  1.3303
 1580SOL     OW16198   0.243   3.606   6.932 -0.0046  0.7832 -0.3312
 1580SOL    HW116199   0.321   3.612   6.877  1.5311 -1.5116  1.5591
 1580SOL    HW216200   0.276   3.648   7.012  0.1912  0.9720 -0.5098
 1581SOL     OW16201   3.249   0.071   8.179  0.1456  0.2922  0.4967
 1581SOL    HW116202   3.331   0.077   8.228  0.6582 -0.4849 -0.2632
 1581SOL    HW216203   3.279   0.029   8.098  3.6814 -0.7291  2.3438
 1582SOL     OW16204   1.904   3.662   7.709  0.0239 -0.2576 -0.3227
 1582SOL    HW116205   1.965   3.736   7.697 -2.2368  1.6494 -0.0349
 1582SOL    HW216206   1.961   3.596   7.748 -0.3345  0.4897  1.4728
 1583SOL     OW16207   3.504   1.200  15.488 -0.3242 -0.3280 -0.3022
 1583SOL    HW116208   3.451   1.224  15.413  0.3434  0.0666 -0.6409
 1583SOL    HW216209   3.587   1.193  15.440  1.2513 -0.5746  2.4489
 1584SOL     OW16210   2.907   2.431   5.467  0.0030  0.2970  0.9672
 1584SOL    HW116211   2.961   2.508   5.451  2.1941 -1.5974 -0.9265
 1584SOL    HW216212   2.851   2.436   5.390  0.5559  0.6877  0.5879
 1585SOL     OW16213   0.025   0.590   6.230  0.0531  0.0967 -0.2564
 1585SOL    HW116214   0.086   0.547   6.291  0.8846  0.7384 -0.6307
 1585SOL    HW216215   0.070   0.601   6.146  0.0553  0.5564 -0.1945
 1586SOL     OW16216   2.473   1.197   2.281  0.3994 -0.1754  0.7392
 1586SOL    HW116217   2.484   1.174   2.373 -3.1624  1.1696  1.5424
 1586SOL    HW216218   2.559   1.192   2.240  1.1122  0.6450  2.1253
 1587SOL     OW16219   2.616   1.712   1.101 -0.5355 -0.1902  0.4524
 1587SOL    HW116220   2.594   1.620   1.088 -0.3903 -0.5312  2.5174
 1587SOL    HW216221   2.675   1.702   1.176  0.8113 -2.4373 -0.9084
 1588SOL     OW16222   0.536   3.405  14.201 -0.5678 -0.2627  0.8014
 1588SOL    HW116223   0.617   3.376  14.244 -0.4528 -1.7625 -0.4321
 1588SOL    HW216224   0.556   3.416  14.108 -0.4824 -1.1071  0.7212
 1589SOL     OW16225   0.841   4.556   3.091 -0.0882 -0.3957 -0.3501
 1589SOL    HW116226   0.865   4.606   3.013  2.5861 -1.7916 -0.4559
 1589SOL    HW216227   0.926   4.534   3.130 -0.5458 -1.8889 -0.1837
 1590SOL     OW16228   1.267   1.595  17.105 -0.2024  0.1825  0.4028
 1590SOL    HW116229   1.287   1.516  17.155  1.4033 -1.1726 -2.4127
 1590SOL    HW216230   1.356   1.616  17.078 -0.5091  2.7818  1.3480
 1591SOL     OW16231   1.297   4.380   7.698 -0.4924 -0.6746 -0.7075
 1591SOL    HW116232   1.207   4.348   7.709 -0.5611  0.0827  0.9667
 1591SOL    HW216233   1.294   4.417   7.610 -0.2839 -1.5782 -1.0941
 1592SOL     OW16234   2.638   2.455   9.725  0.6519  0.5865 -0.1084
 1592SOL    HW116235   2.704   2.519   9.753  0.1509  0.8066  0.5635
 1592SOL    HW216236   2.687   2.375   9.742 -0.3795  1.0493  4.9866
 1593SOL     OW16237   4.071   3.585  10.546  0.1187 -0.2581  0.1109
 1593SOL    HW116238   4.092   3.579  10.453 -1.3112 -2.1779 -0.0888
 1593SOL    HW216239   4.157   3.587  10.589 -0.3176 -1.2101  1.0264
 1594SOL     OW16240   2.551   1.738   2.245 -0.4752  0.1178  0.0747
 1594SOL    HW116241   2.468   1.784   2.262  0.1255  0.4407  2.1058
 1594SOL    HW216242   2.567   1.761   2.153 -1.5900 -0.9687 -0.4040
 1595SOL     OW16243   3.037   3.349   3.137  0.4881  0.1176 -0.4016
 1595SOL    HW116244   3.062   3.344   3.229  0.8299 -1.0999 -0.5688
 1595SOL    HW216245   3.016   3.259   3.113  0.0564  0.3327 -0.8365
 1596SOL     OW16246   0.751   2.637  15.692  0.1384 -0.3403  0.3900
 1596SOL    HW116247   0.772   2.730  15.683  2.1737 -0.7565  0.8632
 1596SOL    HW216248   0.771   2.599  15.606 -1.4698 -0.7005  0.1684
 1597SOL     OW16249   2.005   1.499  11.742 -0.0069 -0.0240  0.1154
 1597SOL    HW116250   1.953   1.419  11.753 -1.9168  1.0449 -1.1301
 1597SOL    HW216251   2.048   1.490  11.827  0.1483  2.1686  0.2638
 1598SOL     OW16252   1.022   0.916  12.177  0.0323 -0.0454  0.2275
 1598SOL    HW116253   0.965   0.990  12.201  0.5125 -0.0658  1.4189
 1598SOL    HW216254   1.081   0.917  12.253  2.3360  2.6879 -1.6004
 1599SOL     OW16255   0.720   3.688   4.139 -0.6559  0.2361  0.2535
 1599SOL    HW116256   0.649   3.625   4.146 -0.5112  0.5098  4.2037
 1599SOL    HW216257   0.697   3.730   4.056 -0.1433 -0.5974 -0.3085
 1600SOL     OW16258   0.420   1.080   8.236  0.3845 -0.6340  0.4913
 1600SOL    HW116259   0.334   1.056   8.271 -0.1100 -1.9900 -1.6665
 1600SOL    HW216260   0.430   1.156   8.294  1.7566 -0.4715  0.0384
 1601SOL     OW16261   0.348   4.486   2.050 -0.5731  0.3407  0.1805
 1601SOL    HW116262   0.253   4.493   2.062 -0.6040 -1.8270  1.2210
 1601SOL    HW216263   0.366   4.433   2.128 -0.7392 -2.3744 -1.6461
 1602SOL     OW16264   0.624   4.600   3.249 -0.2957 -0.4048  0.7623
 1602SOL    HW116265   0.697   4.587   3.189 -0.1649  1.3757  0.5424
 1602SOL    HW216266   0.664   4.650   3.321 -0.0748  0.4378  0.0521
 1603SOL     OW16267   3.281   1.770   5.822 -0.2038  0.2072  0.0987
 1603SOL    HW116268   3.260   1.812   5.739 -0.0068 -0.3552 -0.2328
 1603SOL    HW216269   3.220   1.810   5.885 -1.4343 -0.9021 -0.3943
 1604SOL     OW16270   2.784   0.254   4.881 -0.6024 -0.3856 -0.1209
 1604SOL    HW116271   2.717   0.322   4.889  0.4431  0.9151 -2.3273
 1604SOL    HW216272   2.851   0.291   4.823  0.7282  0.9102  2.2309
 1605SOL     OW16273   1.159   1.144   1.921  0.1236  0.0303 -0.3728
 1605SOL    HW116274   1.078   1.092   1.927  0.7610 -0.9519 -0.2062
 1605SOL    HW216275   1.160   1.156   1.826  0.0480 -2.4445 -0.6961
 1606SOL     OW16276   1.433   3.827  14.684  0.4486 -0.0465  0.4944
 1606SOL    HW116277   1.430   3.816  14.588 -0.0787 -1.0377  0.6179
 1606SOL    HW216278   1.474   3.742  14.702 -0.2608 -1.3713 -4.0165
 1607SOL     OW16279   3.630   0.318   8.753 -0.6260  0.0436  0.5415
 1607SOL    HW116280   3.700   0.341   8.692 -0.2950  0.5605  1.1208
 1607SOL    HW216281   3.555   0.355   8.705  1.4011  0.5642 -2.2649
 1608SOL     OW16282   1.829   4.363   5.442  0.2541  0.4254  0.5185
 1608SOL    HW116283   1.733   4.371   5.435  0.5740  1.7731 -2.0668
 1608SOL    HW216284   1.865   4.441   5.485 -0.5541  1.2079 -0.2148
 1609SOL     OW16285   0.825   2.074   6.564 -0.1524  0.0863  0.7945
 1609SOL    HW116286   0.829   2.144   6.499  0.2152 -1.8733 -1.3357
 1609SOL    HW216287   0.910   2.097   6.601  1.0709 -0.8621 -1.4096
 1610SOL     OW16288   3.385   3.331   2.837 -0.1936  0.3932  0.2560
 1610SOL    HW116289   3.452   3.266   2.859 -1.5308 -0.3551  2.1401
 1610SOL    HW216290   3.427   3.402   2.789 -1.0667  1.0555  0.4747
 1611SOL     OW16291   0.977   2.145   8.202  0.1002  0.2196  0.1397
 1611SOL    HW116292   0.917   2.070   8.201  1.0481 -0.5368 -1.2762
 1611SOL    HW216293   1.034   2.127   8.127  0.0359 -3.9491  1.1012
 1612SOL     OW16294   3.753   0.818   3.920 -0.2961 -0.3905  0.2475
 1612SOL    HW116295   3.767   0.763   3.997  0.8367 -0.8031 -0.2570
 1612SOL    HW216296   3.729   0.752   3.856  1.9305 -1.1185  0.1770
 1613SOL     OW16297   2.604   1.654  14.436 -0.1564  0.5756  0.0078
 1613SOL    HW116298   2.640   1.566  14.444 -1.1270  0.2026  0.1249
 1613SOL    HW216299   2.594   1.667  14.342 -1.1291  0.6780  0.1348
 1614SOL     OW16300   1.542   4.275   5.069 -0.3391  0.1375  0.0745
 1614SOL    HW116301   1.488   4.330   5.012  0.1782  1.0545  0.4689
 1614SOL    HW216302   1.470   4.256   5.129  0.1190  1.9524  1.1907
 1615SOL     OW16303   2.046   0.635   3.409  0.0467 -0.3274  0.6433
 1615SOL    HW116304   2.118   0.572   3.398 -0.7265 -1.0002 -0.5543
 1615SOL    HW216305   1.972   0.575   3.414  0.2743 -0.9369 -2.9288
 1616SOL     OW16306   1.360   0.147   2.557  0.3786 -0.3038 -1.1850
 1616SOL    HW116307   1.423   0.219   2.546 -0.2872  0.5647  0.6617
 1616SOL    HW216308   1.372   0.112   2.469  0.8389  0.6262 -1.4950
 1617SOL     OW16309   2.363   4.123   4.767  0.0414  0.2825 -0.8053
 1617SOL    HW116310   2.408   4.044   4.736 -0.5171 -0.2897 -0.1506
 1617SOL    HW216311   2.322   4.149   4.684 -2.0776  1.6679  0.6922
 1618SOL     OW16312   2.895   2.745   6.756 -0.4388  0.4503  0.7177
 1618SOL    HW116313   2.821   2.763   6.698 -1.4023 -1.3112  1.3786
 1618SOL    HW216314   2.958   2.729   6.685 -0.2019  1.5271  0.6854
 1619SOL     OW16315   2.171   2.360   8.737  0.2694 -0.5066  0.5898
 1619SOL    HW116316   2.124   2.284   8.703 -0.9131  0.9005 -1.0136
 1619SOL    HW216317   2.111   2.384   8.808 -1.6875 -0.7929 -0.9510
 1620SOL     OW16318   0.332   3.376   9.413 -0.5048 -0.1784 -0.2843
 1620SOL    HW116319   0.399   3.325   9.458  0.3178  0.2657 -1.0043
 1620SOL    HW216320   0.326   3.453   9.470 -1.3806  0.5059 -1.3113
 1621SOL     OW16321   4.268   0.391   2.783  0.4280 -0.6738  0.8166
 1621SOL    HW116322   4.244   0.324   2.719 -0.6278 -1.0443  1.6060
 1621SOL    HW216323   4.363   0.390   2.781  0.4190 -0.8343  0.4107
 1622SOL     OW16324   1.666   4.000  13.102 -0.1254  0.1422 -0.4932
 1622SOL    HW116325   1.596   3.972  13.044 -0.8791  1.0598 -0.0187
 1622SOL    HW216326   1.653   4.094  13.091 -0.3467  0.1596 -0.0882
 1623SOL     OW16327   1.330   2.885   7.638 -0.3481 -0.2926 -0.3283
 1623SOL    HW116328   1.246   2.907   7.678 -0.0018 -1.1423  0.8957
 1623SOL    HW216329   1.319   2.801   7.594 -0.9303  0.9530 -2.5332
 1624SOL     OW16330   2.635   3.074  10.246  0.2834  0.1367 -0.0188
 1624SOL    HW116331   2.701   3.049  10.181  1.2911 -1.3232  1.5839
 1624SOL    HW216332   2.687   3.100  10.322 -1.6511 -0.9797  1.6532
 1625SOL     OW16333   4.527   3.428   7.269 -0.2400 -0.0261 -0.1441
 1625SOL    HW116334   4.603   3.425   7.327 -0.8431 -2.4526  0.5113
 1625SOL    HW216335   4.520   3.522   7.285 -0.3351  0.0429 -0.6032
 1626SOL     OW16336   2.048   0.930   7.061 -0.6534  0.0900 -0.4985
 1626SOL    HW116337   2.106   0.893   7.128  1.0877 -0.4214 -2.2721
 1626SOL    HW216338   2.095   0.911   6.980  0.7103 -0.6150  0.4598
 1627SOL     OW16339   4.470   3.793   3.792  0.2584  0.1726  0.4927
 1627SOL    HW116340   4.393   3.841   3.761 -0.0533 -2.5261 -2.9559
 1627SOL    HW216341   4.517   3.857   3.845 -0.7543  1.3387 -0.0314
 1628SOL     OW16342   2.965   1.387   0.069 -0.4814 -0.1976  0.0283
 1628SOL    HW116343   2.945   1.297   0.044  1.7986 -0.9192  0.7654
 1628SOL    HW216344   2.892   1.437   0.034 -0.6976 -0.1786  0.5098
 1629SOL     OW16345   1.312   1.915   1.878  0.2893 -0.3898  0.0058
 1629SOL    HW116346   1.227   1.951   1.904 -0.1921 -0.3078 -1.6934
 1629SOL    HW216347   1.282   1.874   1.797 -0.3492 -0.3779  0.2311
 1630SOL     OW16348   2.143   2.613   0.542 -0.1497  0.4484 -0.8991
 1630SOL    HW116349   2.101   2.683   0.592  0.0490  0.1831 -0.3647
 1630SOL    HW216350   2.184   2.566   0.614 -1.1706 -0.4143 -0.8716
 1631SOL     OW16351   2.726   3.152   2.055  0.0777  0.1905 -0.0513
 1631SOL    HW116352   2.808   3.124   2.094 -0.9881  0.6257  2.5355
 1631SOL    HW216353   2.723   3.241   2.091 -1.2180  0.9577 -2.0049
 1632SOL     OW16354   3.151   1.412   3.236 -0.2007 -0.4265 -0.3770
 1632SOL    HW116355   3.131   1.373   3.321 -0.7001  0.8293  0.0782
 1632SOL    HW216356   3.075   1.470   3.232 -0.7728 -1.1831 -0.4872
 1633SOL     OW16357   2.752   2.631   7.171  0.3013  0.1503  0.2765
 1633SOL    HW116358   2.690   2.633   7.099  1.5157 -0.5655 -0.7946
 1633SOL    HW216359   2.701   2.691   7.227 -0.2538  0.0284 -0.1039
 1634SOL     OW16360   1.650   2.391  17.201 -0.3059 -0.2438 -0.3578
 1634SOL    HW116361   1.563   2.398  17.160 -1.3691 -0.9414  1.7858
 1634SOL    HW216362   1.663   2.486  17.197  1.5400 -0.3781  2.4784
 1635SOL     OW16363   0.737   1.871   3.487 -0.3361  0.8226  0.3837
 1635SOL    HW116364   0.769   1.940   3.428 -1.1051 -0.3069 -1.3603
 1635SOL    HW216365   0.651   1.863   3.445  0.0589 -0.9864 -0.0517
 1636SOL     OW16366   0.195   4.284   3.792 -0.2767 -0.0289 -0.0757
 1636SOL    HW116367   0.170   4.285   3.700  1.5301  0.2586 -0.5652
 1636SOL    HW216368   0.264   4.350   3.790 -0.3780  0.0653 -0.5183
 1637SOL     OW16369   4.305   3.292   6.466 -0.2645 -0.3599  0.0139
 1637SOL    HW116370   4.318   3.198   6.462  0.9804 -0.2224  0.5955
 1637SOL    HW216371   4.392   3.325   6.444 -1.2441 -0.0963 -3.4685
 1638SOL     OW16372   4.138   3.115   2.818  0.6905 -0.3650 -1.4237
 1638SOL    HW116373   4.186   3.143   2.896 -2.3839 -0.5544  0.5141
 1638SOL    HW216374   4.200   3.056   2.775  1.7067  0.3471 -0.9521
 1639SOL     OW16375   2.602   4.359   9.089  0.4151  0.1806 -0.4901
 1639SOL    HW116376   2.660   4.433   9.105 -0.1009  0.2723  0.9119
 1639SOL    HW216377   2.671   4.294   9.104  0.2683 -0.2234 -1.5348
 1640SOL     OW16378   0.504   0.298   4.266 -0.3511  0.1370  0.4608
 1640SOL    HW116379   0.425   0.302   4.211 -0.5077 -0.6057  0.6286
 1640SOL    HW216380   0.493   0.219   4.318 -3.0162  0.9041  1.0691
 1641SOL     OW16381   3.351   2.495   7.770  0.6767 -0.4045  0.0496
 1641SOL    HW116382   3.352   2.562   7.838 -2.4527  1.8538 -2.1293
 1641SOL    HW216383   3.395   2.430   7.825  1.3048 -0.4492 -0.5006
 1642SOL     OW16384   0.164   2.654   6.357 -0.2037 -0.0607 -0.1705
 1642SOL    HW116385   0.149   2.601   6.278  0.2885 -0.0373 -0.2783
 1642SOL    HW216386   0.202   2.589   6.417 -2.2955  0.1756  1.4253
 1643SOL     OW16387   2.403   3.993   2.405 -0.0652  0.0279 -0.4884
 1643SOL    HW116388   2.443   4.078   2.423 -1.6271  0.4200  1.1229
 1643SOL    HW216389   2.474   3.930   2.405 -0.1809 -0.1038 -0.8460
 1644SOL     OW16390   1.658   3.532   1.658  0.3077  0.2104 -0.7818
 1644SOL    HW116391   1.654   3.477   1.736 -3.2328  3.1643  1.1034
 1644SOL    HW216392   1.694   3.615   1.690  0.8122 -0.9641  1.6795
 1645SOL     OW16393   2.614   3.659   7.216 -0.1303  0.2540 -0.3583
 1645SOL    HW116394   2.538   3.710   7.243 -0.8406 -1.0386  0.0800
 1645SOL    HW216395   2.683   3.725   7.204  0.1689  0.4040  2.1487
 1646SOL     OW16396   4.631   3.925   5.227 -0.5227 -0.0674 -0.3186
 1646SOL    HW116397   4.616   3.926   5.132 -1.5182 -1.8769 -0.1800
 1646SOL    HW216398   4.689   3.850   5.241 -2.4253 -1.6761 -0.9645
 1647SOL     OW16399   2.506   1.086   7.131 -0.3802 -0.9549  0.2714
 1647SOL    HW116400   2.554   1.154   7.083 -2.1505 -1.5614 -2.2882
 1647SOL    HW216401   2.566   1.012   7.118 -1.0053 -1.5082  0.5467
 1648SOL     OW16402   1.237   4.219   3.370 -0.1671 -0.8239 -1.1450
 1648SOL    HW116403   1.149   4.248   3.347 -0.4739 -1.0995 -0.2948
 1648SOL    HW216404   1.250   4.266   3.452  0.1099 -2.0184 -0.5030
 1649SOL     OW16405   1.895   0.160   9.911  0.1764  0.0097  0.0839
 1649SOL    HW116406   1.846   0.107   9.848  0.3958 -1.4494  1.1338
 1649SOL    HW216407   1.834   0.232   9.922  0.2011  0.0621 -0.1168
 1650SOL     OW16408   2.350   1.378  17.660 -0.6996  0.0637  0.2046
 1650SOL    HW116409   2.328   1.420   0.057 -1.1476  0.2506 -0.0084
 1650SOL    HW216410   2.445   1.387  17.661 -0.8731  2.0207  0.3666
 1651SOL     OW16411   2.265   1.692  14.221  0.6064 -0.4081  1.0625
 1651SOL    HW116412   2.323   1.637  14.169 -0.2326  1.2977 -1.7037
 1651SOL    HW216413   2.313   1.679  14.303  1.0263 -1.6891  0.6164
 1652SOL     OW16414   3.216   2.959  11.193 -0.1579 -0.1295  0.1485
 1652SOL    HW116415   3.282   2.947  11.262 -0.6910  0.8884  0.8416
 1652SOL    HW216416   3.192   3.051  11.201  1.3486  0.3636 -0.8950
 1653SOL     OW16417   3.334   0.894   6.898  0.1249 -0.2817  0.1275
 1653SOL    HW116418   3.389   0.899   6.976  0.8206 -1.1438 -0.3189
 1653SOL    HW216419   3.350   0.981   6.862  1.7561 -1.4810 -1.9920
 1654SOL     OW16420   0.215   2.339   3.912  0.0841  0.0152 -1.0145
 1654SOL    HW116421   0.136   2.287   3.896 -0.8340  0.2953  2.4738
 1654SOL    HW216422   0.192   2.382   3.995  0.2859 -3.0607  0.6343
 1655SOL     OW16423   2.021   3.426  10.740 -0.0433 -0.0422  0.5371
 1655SOL    HW116424   2.028   3.497  10.804 -1.2508  1.3928 -0.9120
 1655SOL    HW216425   1.937   3.425  10.693  0.7087  0.8311 -0.8140
 1656SOL     OW16426   1.849   2.651   7.769  0.0382 -0.0785 -0.2633
 1656SOL    HW116427   1.767   2.699   7.759  0.3372  0.7703  1.4722
 1656SOL    HW216428   1.857   2.611   7.682 -0.3991  1.9398 -1.2250
 1657SOL     OW16429   1.807   4.105   5.524 -0.5024 -0.2488 -0.4860
 1657SOL    HW116430   1.823   4.200   5.525  0.6856 -0.4669  0.2414
 1657SOL    HW216431   1.895   4.082   5.495  0.6953  2.4306  0.9228
 1658SOL     OW16432   0.941   3.472   4.467 -0.5036  0.2434 -0.3958
 1658SOL    HW116433   0.872   3.464   4.400  0.3791 -1.8721 -1.0635
 1658SOL    HW216434   1.017   3.511   4.424 -1.2991  0.9651 -1.1674
 1659SOL     OW16435   0.502   0.614   4.175 -0.3052  0.1755 -0.8650
 1659SOL    HW116436   0.473   0.548   4.111  1.1252  1.0983 -2.4596
 1659SOL    HW216437   0.557   0.667   4.117 -1.1980 -0.7101 -2.5416
 1660SOL     OW16438   1.856   2.470  13.978 -0.5258  0.2054 -0.1962
 1660SOL    HW116439   1.932   2.460  13.920 -0.4148 -1.2500  0.2071
 1660SOL    HW216440   1.788   2.416  13.939 -1.0775  0.9022 -0.1920
 1661SOL     OW16441   3.981   1.319   8.815  0.3044  0.3353  0.1983
 1661SOL    HW116442   4.008   1.303   8.905  0.2435  0.6212  0.2675
 1661SOL    HW216443   3.904   1.369   8.840 -0.8042 -0.6530 -1.1973
 1662SOL     OW16444   4.270   4.071  11.149  0.3719 -0.0209 -0.6170
 1662SOL    HW116445   4.264   3.979  11.125 -0.8480  0.2318 -1.3217
 1662SOL    HW216446   4.194   4.072  11.208  1.5404  2.1185  0.8546
 1663SOL     OW16447   2.811   2.992   5.958  0.1965  0.2703 -0.1948
 1663SOL    HW116448   2.754   2.978   6.033  1.9489 -0.8826  0.9521
 1663SOL    HW216449   2.798   3.085   5.942 -1.6251  0.3545  1.8654
 1664SOL     OW16450   0.713   2.036   6.160 -0.2530  0.1843 -0.5952
 1664SOL    HW116451   0.733   2.120   6.120  0.6003 -0.4577 -1.5247
 1664SOL    HW216452   0.620   2.020   6.144 -0.2276  1.1525 -1.6979
 1665SOL     OW16453   3.035   1.379   6.225  0.0168 -0.0365  0.1776
 1665SOL    HW116454   2.979   1.302   6.213 -2.7808  1.7826  1.5865
 1665SOL    HW216455   3.076   1.377   6.138  2.2209  0.5485  1.1934
 1666SOL     OW16456   2.921   0.297   9.172 -0.2580 -0.2992 -0.0024
 1666SOL    HW116457   2.978   0.232   9.131  0.2809  0.1191  0.0748
 1666SOL    HW216458   2.858   0.315   9.102  0.2822 -0.5917 -0.5711
 1667SOL     OW16459   1.058   2.273  13.504  0.2173 -0.1497 -0.3023
 1667SOL    HW116460   1.028   2.364  13.502  0.0078 -0.2265 -0.6867
 1667SOL    HW216461   1.096   2.269  13.416 -0.7934 -0.3053 -0.7279
 1668SOL     OW16462   4.217   3.068  12.310 -0.1685 -0.0465  0.1186
 1668SOL    HW116463   4.224   3.053  12.216 -0.2476  1.6617 -0.1550
 1668SOL    HW216464   4.237   2.978  12.334 -1.0681 -0.0388  0.8897
 1669SOL     OW16465   2.745   1.853  13.998 -0.0658  0.4454  0.2014
 1669SOL    HW116466   2.673   1.915  14.001  0.5745  1.2189 -0.2210
 1669SOL    HW216467   2.796   1.888  13.924  0.4539  1.7514  1.1876
 1670SOL     OW16468   4.312   4.074   2.801  0.0831 -0.4969  0.5436
 1670SOL    HW116469   4.217   4.072   2.793 -0.0347 -1.0665  2.1096
 1670SOL    HW216470   4.331   4.167   2.786 -0.1231 -0.4308  0.7093
 1671SOL     OW16471   3.924   0.747  10.722  0.2193 -0.4039  0.5691
 1671SOL    HW116472   3.981   0.691  10.774  0.6244 -0.1058  0.4473
 1671SOL    HW216473   3.957   0.715  10.637 -0.9921  1.2896 -0.5372
 1672SOL     OW16474   4.287   0.763   1.964  0.4351  0.0062  0.2878
 1672SOL    HW116475   4.260   0.691   2.023  1.4010  0.8105  1.7068
 1672SOL    HW216476   4.303   0.714   1.884 -1.0825  0.2077 -0.1332
 1673SOL     OW16477   3.881   1.353   0.156 -0.2821  0.9650 -0.3954
 1673SOL    HW116478   3.860   1.259   0.153  2.7487  0.2690 -0.0626
 1673SOL    HW216479   3.924   1.383   0.076 -0.4833  0.5002 -0.6769
 1674SOL     OW16480   3.550   2.805   5.227 -0.2907 -0.0357 -0.3463
 1674SOL    HW116481   3.490   2.750   5.176 -1.2848  0.3387  0.4172
 1674SOL    HW216482   3.500   2.881   5.198  0.1937  1.0751  1.7724
 1675SOL     OW16483   1.498   1.401   7.430  0.7378  0.1511 -0.1272
 1675SOL    HW116484   1.413   1.357   7.421 -0.0841  1.5910  0.5564
 1675SOL    HW216485   1.536   1.344   7.497  0.6827  1.5458  1.0845
 1676SOL     OW16486   4.334   3.496   8.367  0.1415  0.0595 -0.5249
 1676SOL    HW116487   4.255   3.445   8.351 -1.3323  2.1318  0.0890
 1676SOL    HW216488   4.367   3.496   8.277  2.1569 -0.8915  0.2050
 1677SOL     OW16489   1.454   3.374   0.769  0.1409 -0.3733  0.1190
 1677SOL    HW116490   1.499   3.370   0.685  0.4857 -1.0809  0.3391
 1677SOL    HW216491   1.504   3.303   0.810 -0.7132 -1.9326 -1.5453
 1678SOL     OW16492   3.872   3.501  11.334 -0.2841 -0.0449 -0.7369
 1678SOL    HW116493   3.823   3.580  11.314 -0.0309  0.2929 -0.0226
 1678SOL    HW216494   3.922   3.503  11.253  1.0331  2.1209  0.1346
 1679SOL     OW16495   2.156   3.041   3.553 -0.1731 -0.0397  0.1583
 1679SOL    HW116496   2.152   3.135   3.572 -1.3534  0.0878 -0.7562
 1679SOL    HW216497   2.110   3.045   3.470 -0.9640  0.8602  0.6452
 1680SOL     OW16498   0.720   2.975   5.445  0.0620 -0.2249 -0.3326
 1680SOL    HW116499   0.776   3.034   5.497 -0.7648  0.2180  0.0489
 1680SOL    HW216500   0.769   2.894   5.460  0.1441 -0.4427 -1.8474
 1681SOL     OW16501   0.684   3.899  17.300  0.1739  0.4374 -0.1603
 1681SOL    HW116502   0.708   3.977  17.351 -0.6149  0.2340  0.5292
 1681SOL    HW216503   0.736   3.912  17.221  0.5275 -0.9631 -0.1558
 1682SOL     OW16504   0.092   3.145   0.476  0.2821  0.5119  0.3261
 1682SOL    HW116505   0.018   3.206   0.476  0.1508  0.3529  0.6487
 1682SOL    HW216506   0.087   3.120   0.568 -2.8199 -0.4814 -0.0876
 1683SOL     OW16507   4.041   0.442   5.788  0.6428  0.1204 -0.8953
 1683SOL    HW116508   4.077   0.365   5.745 -0.3206 -2.8296  3.6879
 1683SOL    HW216509   4.077   0.422   5.874 -3.3702 -2.5843  0.1377
 1684SOL     OW16510   0.244   0.249   5.475 -0.6244  0.0276 -0.3913
 1684SOL    HW116511   0.162   0.299   5.477 -0.4773  0.2786 -0.5654
 1684SOL    HW216512   0.237   0.228   5.382  1.2210 -1.6469 -0.1378
 1685SOL     OW16513   3.349   3.758   7.006  0.2078 -0.1100  0.0450
 1685SOL    HW116514   3.417   3.723   6.948  0.6753  2.2533 -0.8546
 1685SOL    HW216515   3.289   3.794   6.941  2.0548 -0.1497 -1.6787
 1686SOL     OW16516   4.640   2.299   3.101  0.0892  0.0762 -0.5240
 1686SOL    HW116517   4.714   2.240   3.089 -0.5461 -1.2605  2.0259
 1686SOL    HW216518   4.685   2.382   3.117  1.0295 -0.3076 -1.1709
 1687SOL     OW16519   3.959   2.470   1.758  0.6475 -0.2826  0.6568
 1687SOL    HW116520   3.914   2.448   1.676 -0.3425  0.4755  0.9976
 1687SOL    HW216521   3.979   2.560   1.733 -0.8360  0.1178  0.8740
 1688SOL     OW16522   3.759   3.460   5.690  0.4437 -0.4238  0.3207
 1688SOL    HW116523   3.774   3.420   5.776  2.2819 -0.0518  0.1874
 1688SOL    HW216524   3.816   3.409   5.633 -0.0105 -0.9957  0.3792
 1689SOL     OW16525   3.962   2.930   4.839  0.8460 -0.5548  0.0107
 1689SOL    HW116526   3.885   2.893   4.883 -0.4381 -1.4023 -2.9242
 1689SOL    HW216527   4.020   2.853   4.842  1.8529  0.1622 -1.0205
 1690SOL     OW16528   0.447   0.049   8.739  0.0723  0.0772 -0.1055
 1690SOL    HW116529   0.389   0.123   8.719 -0.3041  0.3803  2.0879
 1690SOL    HW216530   0.393   4.700   8.703 -1.4224  0.5133  1.2824
 1691SOL     OW16531   1.135   1.503   5.100  0.1883  0.2462  0.4214
 1691SOL    HW116532   1.131   1.439   5.171  2.9618  0.1392  0.5084
 1691SOL    HW216533   1.227   1.528   5.112  1.2231 -2.7707 -1.5259
 1692SOL     OW16534   4.128   3.547   8.715 -0.3587  0.0055 -0.3347
 1692SOL    HW116535   4.085   3.552   8.800 -1.1296  1.4512 -0.8165
 1692SOL    HW216536   4.062   3.584   8.656  1.1981  2.1063 -0.7252
 1693SOL     OW16537   1.331   3.588   7.643  0.1888 -0.1810  0.1088
 1693SOL    HW116538   1.387   3.656   7.681  0.9710  0.5657 -2.4215
 1693SOL    HW216539   1.246   3.618   7.675  0.6120  1.2113 -0.0768
 1694SOL     OW16540   4.538   0.485  11.204  0.1243  0.3771 -0.0575
 1694SOL    HW116541   4.455   0.527  11.184 -1.7382 -2.5039  1.7487
 1694SOL    HW216542   4.570   0.459  11.118 -0.1233 -1.1103  0.3054
 1695SOL     OW16543   2.511   1.539   7.613  0.0796  0.6666 -0.2316
 1695SOL    HW116544   2.596   1.509   7.646  0.3785  0.9316 -0.7779
 1695SOL    HW216545   2.518   1.627   7.652 -0.7545  0.2715  0.8215
 1696SOL     OW16546   3.628   3.027   2.923 -0.4513  0.8732  0.5226
 1696SOL    HW116547   3.664   3.054   2.838 -0.2775 -0.1266  0.2833
 1696SOL    HW216548   3.694   3.074   2.974 -1.5948  3.7244 -0.5716
 1697SOL     OW16549   0.526   0.737   9.692 -0.2115  0.2278 -0.2404
 1697SOL    HW116550   0.515   0.731   9.597 -3.0991  1.2171  0.0133
 1697SOL    HW216551   0.525   0.647   9.723 -0.8950  0.6852  1.0884
 1698SOL     OW16552   1.567   4.624   8.650  0.7028  0.2489 -0.1971
 1698SOL    HW116553   1.584   4.673   8.730 -1.9155 -0.9105  1.0489
 1698SOL    HW216554   1.562   4.691   8.581 -0.5356 -1.5144 -1.8184
 1699SOL     OW16555   1.698   1.192   3.549 -0.0515 -0.0029 -0.2165
 1699SOL    HW116556   1.681   1.102   3.521 -1.1011 -0.3915  1.6809
 1699SOL    HW216557   1.726   1.235   3.468  0.8910  0.7135  0.4868
 1700SOL     OW16558   0.241   1.628   9.220 -0.1950 -0.0572  0.2187
 1700SOL    HW116559   0.165   1.570   9.219  0.2513 -0.4786 -5.3745
 1700SOL    HW216560   0.306   1.565   9.251 -0.2581  0.5323  1.5743
 1701SOL     OW16561   1.067   2.288  10.918  0.1031  0.6072 -0.2241
 1701SOL    HW116562   0.987   2.303  10.867 -0.8652 -2.0577  0.4888
 1701SOL    HW216563   1.053   2.201  10.956  1.2883 -0.7132 -2.8032
 1702SOL     OW16564   4.369   0.224   4.134 -0.4684  0.1484 -1.2482
 1702SOL    HW116565   4.336   0.286   4.068 -0.8396  1.4062  0.1246
 1702SOL    HW216566   4.455   0.205   4.097 -0.3785 -3.1718  0.6641
 1703SOL     OW16567   0.360   4.185   9.613  0.2984  0.2829 -0.1316
 1703SOL    HW116568   0.306   4.122   9.566  1.2986  1.7061 -3.1428
 1703SOL    HW216569   0.444   4.147   9.588  0.0057 -1.2247  1.1198
 1704SOL     OW16570   3.016   0.501   3.479 -0.2408  0.3418 -0.6228
 1704SOL    HW116571   3.092   0.514   3.423  0.3976 -0.1930  0.1076
 1704SOL    HW216572   3.061   0.517   3.562 -1.0000 -2.2566  0.2964
 1705SOL     OW16573   1.509   2.152  11.932  0.1615 -0.7547 -0.2099
 1705SOL    HW116574   1.587   2.204  11.910 -0.6942  1.2351  1.5296
 1705SOL    HW216575   1.536   2.060  11.925  2.1794 -0.1775  0.0346
 1706SOL     OW16576   3.141   0.708   3.992  0.0896  0.4058 -0.3462
 1706SOL    HW116577   3.163   0.759   4.070  1.9226  1.0896 -1.2908
 1706SOL    HW216578   3.212   0.741   3.936  0.4805  0.9925  0.5107
 1707SOL     OW16579   2.004   1.351   5.692  0.5747 -0.4520  0.6820
 1707SOL    HW116580   2.059   1.422   5.724 -2.4271  1.8588  0.7401
 1707SOL    HW216581   1.985   1.290   5.763  1.4528 -1.9561 -0.3744
 1708SOL     OW16582   3.686   4.581   1.361 -0.1158 -0.0831  0.9664
 1708SOL    HW116583   3.748   4.630   1.307  1.3295  1.0744  3.6280
 1708SOL    HW216584   3.665   4.507   1.304 -0.8227  0.3884  0.6214
 1709SOL     OW16585   4.224   2.612   5.438 -0.2705  0.3537 -0.8413
 1709SOL    HW116586   4.218   2.525   5.397  0.8004  0.0284 -0.3234
 1709SOL    HW216587   4.161   2.613   5.511  0.9353 -1.7145  0.2535
 1710SOL     OW16588   1.315   2.632   7.462  0.6414 -0.3082 -0.1824
 1710SOL    HW116589   1.285   2.593   7.544  0.8467 -1.5565 -0.7050
 1710SOL    HW216590   1.240   2.606   7.408  0.1603  1.1256 -0.1892
 1711SOL     OW16591   4.281   1.378   5.739 -0.3619  0.1665 -0.2668
 1711SOL    HW116592   4.225   1.436   5.790  1.8721  1.7935  0.3461
 1711SOL    HW216593   4.337   1.443   5.696 -1.9788  0.8499 -1.3061
 1712SOL     OW16594   3.205   1.815   2.232  0.4874 -0.8553 -0.1613
 1712SOL    HW116595   3.211   1.866   2.151  0.2627  1.0249  0.9915
 1712SOL    HW216596   3.274   1.750   2.220  1.8639  0.4372  0.6867
 1713SOL     OW16597   0.771   2.431   0.557 -0.0988  0.1851  0.3168
 1713SOL    HW116598   0.720   2.499   0.514 -0.6078 -0.9368 -0.8487
 1713SOL    HW216599   0.792   2.477   0.638  2.1060 -0.1725 -0.0525
 1714SOL     OW16600   1.653   3.010   6.515  0.1006 -0.1120  0.1363
 1714SOL    HW116601   1.724   3.040   6.458  0.2989 -1.0135 -0.0837
 1714SOL    HW216602   1.575   3.046   6.473 -0.6605 -1.4451  0.4331
 1715SOL     OW16603   3.340   2.993   5.140  0.7506  0.3372 -0.1120
 1715SOL    HW116604   3.315   2.964   5.052 -0.1878  0.1408  0.2201
 1715SOL    HW216605   3.346   3.086   5.116  2.2008  0.1464 -0.5268
 1716SOL     OW16606   1.722   0.686   2.099 -0.5267  0.0592  0.6599
 1716SOL    HW116607   1.815   0.708   2.092 -0.9584  1.7404  0.2438
 1716SOL    HW216608   1.693   0.685   2.008  1.6172  1.0517 -0.0366
 1717SOL     OW16609   4.611   1.215   3.545 -0.2236  0.9437  0.0152
 1717SOL    HW116610   4.618   1.125   3.516  0.8069  1.3911 -1.1244
 1717SOL    HW216611   4.704   1.236   3.543  0.1615 -0.5656  1.6645
 1718SOL     OW16612   0.158   3.150   4.434 -0.2139 -0.1049 -0.3241
 1718SOL    HW116613   0.157   3.086   4.363  0.8252  0.2823 -0.6930
 1718SOL    HW216614   0.080   3.205   4.422 -1.2569 -1.3881  0.5528
 1719SOL     OW16615   2.371   2.905   5.691 -0.3072  0.4512 -0.2853
 1719SOL    HW116616   2.379   2.894   5.786  0.3721 -0.1440 -0.4135
 1719SOL    HW216617   2.382   2.815   5.660  0.4894  0.7566 -0.8805
 1720SOL     OW16618   1.213   0.980   3.349 -0.7268 -0.0840 -0.3127
 1720SOL    HW116619   1.241   0.943   3.265  1.3441  0.3383  0.1954
 1720SOL    HW216620   1.146   1.042   3.320 -1.9646 -1.6429 -0.8130
 1721SOL     OW16621   1.571   1.453  11.587  0.3471 -0.0093 -0.6746
 1721SOL    HW116622   1.488   1.411  11.565  0.7880 -0.9500 -0.5520
 1721SOL    HW216623   1.554   1.523  11.650  1.0171  1.3860 -2.0135
 1722SOL     OW16624   0.597   4.047   8.766 -1.1496 -0.2854 -0.1611
 1722SOL    HW116625   0.534   3.981   8.737 -0.9746 -0.1433 -0.8572
 1722SOL    HW216626   0.673   4.009   8.722 -0.4610  1.0397 -0.0966
 1723SOL     OW16627   2.787   0.559  16.353 -0.1193 -0.0831  0.0156
 1723SOL    HW116628   2.744   0.473  16.356 -1.5892  0.6289 -0.4950
 1723SOL    HW216629   2.861   0.538  16.296 -0.9184 -1.1230 -0.6673
 1724SOL     OW16630   4.697   1.826   0.781 -0.5668  0.3405  0.4007
 1724SOL    HW116631   4.711   1.869   0.865 -4.3733  0.4327  0.9743
 1724SOL    HW216632   4.672   1.735   0.798  0.1358 -0.2514 -1.6585
 1725SOL     OW16633   0.620   3.605   7.432  0.0077 -1.0244 -0.1014
 1725SOL    HW116634   0.565   3.583   7.356  0.6053 -0.3445 -0.7283
 1725SOL    HW216635   0.695   3.638   7.382 -0.4303 -0.1494 -0.1844
 1726SOL     OW16636   2.169   2.902   6.936 -0.0900  0.0727 -0.0670
 1726SOL    HW116637   2.251   2.938   6.968  0.9890 -0.4073 -2.3084
 1726SOL    HW216638   2.115   2.967   6.981  0.6295  0.9172 -0.4450
 1727SOL     OW16639   4.344   3.068   7.837  0.3788  0.0218 -0.8019
 1727SOL    HW116640   4.421   3.015   7.857  0.0799 -0.4293 -0.8500
 1727SOL    HW216641   4.371   3.153   7.873 -1.5089  0.6107 -0.7407
 1728SOL     OW16642   4.493   4.398   5.831 -0.1563  0.4837  0.0890
 1728SOL    HW116643   4.557   4.405   5.902 -0.1718 -1.1016  0.2446
 1728SOL    HW216644   4.458   4.310   5.841 -0.9752  0.7846 -0.1285
 1729SOL     OW16645   4.532   0.563   3.060 -0.1658 -0.2823 -0.1376
 1729SOL    HW116646   4.511   0.645   3.016 -2.4861 -1.5103 -1.3138
 1729SOL    HW216647   4.534   0.578   3.155  2.5825 -0.3425 -0.1866
 1730SOL     OW16648   0.196   1.829   7.176 -0.0940 -0.0283  0.2686
 1730SOL    HW116649   0.234   1.901   7.227 -0.5950  0.1802  0.3471
 1730SOL    HW216650   0.149   1.771   7.235 -3.0757  0.8629 -1.2463
 1731SOL     OW16651   0.453   4.010   0.268 -0.0759 -0.2088  0.1677
 1731SOL    HW116652   0.439   3.916   0.260  1.8190 -0.4657  0.0143
 1731SOL    HW216653   0.452   4.036   0.176 -0.2569 -0.5281  0.0780
 1732SOL     OW16654   1.712   2.088   5.285 -0.7773  0.2974 -0.1130
 1732SOL    HW116655   1.740   2.161   5.340  0.5561  0.5601 -1.1773
 1732SOL    HW216656   1.665   2.138   5.218 -1.3729  1.1803  0.9495
 1733SOL     OW16657   4.714   0.963   5.170  0.1447 -0.1763 -0.1232
 1733SOL    HW116658   4.644   0.902   5.191  0.1856  0.0125  0.5616
 1733SOL    HW216659   4.678   0.998   5.088 -0.1113  0.2803  0.1835
 1734SOL     OW16660   0.456   1.911   4.629 -0.0538  0.3715 -0.1361
 1734SOL    HW116661   0.417   1.891   4.544  0.2271  1.6600 -0.5732
 1734SOL    HW216662   0.529   1.848   4.626  0.8165  1.4038 -0.7666
 1735SOL     OW16663   3.673   4.492   2.029 -0.5243 -1.0192  0.2928
 1735SOL    HW116664   3.703   4.440   1.955  1.3009  0.1222  0.2215
 1735SOL    HW216665   3.688   4.430   2.101  0.6941  0.3167  1.1876
 1736SOL     OW16666   1.557   4.432   8.155 -0.2873 -0.2676 -0.1188
 1736SOL    HW116667   1.543   4.455   8.063  1.3595  0.5083 -0.1720
 1736SOL    HW216668   1.505   4.500   8.199 -0.8230 -0.3948 -0.5527
 1737SOL     OW16669   2.119   3.502   3.204 -0.1843 -0.0188 -0.0395
 1737SOL    HW116670   2.044   3.553   3.234  0.0151  0.9272 -1.1058
 1737SOL    HW216671   2.121   3.425   3.260 -0.5417  0.6805  0.9374
 1738SOL     OW16672   1.363   4.672   7.864 -0.2476 -0.5281  0.7277
 1738SOL    HW116673   1.380   4.579   7.872 -1.5570 -0.7332  1.1279
 1738SOL    HW216674   1.455   4.695   7.850 -0.4750 -0.4292 -0.5760
 1739SOL     OW16675   3.106   4.342  13.101 -0.3605  0.5282  0.2111
 1739SOL    HW116676   3.064   4.311  13.021  2.5959 -0.4361 -0.9703
 1739SOL    HW216677   3.120   4.262  13.151  0.0771  0.6909  0.3524
 1740SOL     OW16678   1.931   2.323   3.655 -0.6504 -0.9555 -0.0687
 1740SOL    HW116679   2.024   2.303   3.661 -0.4154  0.4470  1.3501
 1740SOL    HW216680   1.947   2.414   3.680  0.9183 -1.7204  1.6980
 1741SOL     OW16681   2.403   1.510   4.611  0.5546  0.2027 -0.2972
 1741SOL    HW116682   2.444   1.597   4.607 -0.5622  0.7678  0.5484
 1741SOL    HW216683   2.478   1.453   4.599  0.7004  0.5040 -0.7938
 1742SOL     OW16684   1.590   2.822   6.073 -0.1518 -0.0237 -0.2343
 1742SOL    HW116685   1.641   2.785   6.145 -0.0099 -2.0594 -1.3880
 1742SOL    HW216686   1.665   2.830   6.014  1.4857  2.6963  2.2012
 1743SOL     OW16687   1.196   3.470   8.972 -0.2500  0.6013 -0.3786
 1743SOL    HW116688   1.208   3.564   8.976 -1.7096  0.7320  0.9644
 1743SOL    HW216689   1.121   3.462   9.032 -0.3481 -1.4062 -0.7558
 1744SOL     OW16690   1.535   1.624  14.731 -0.2397 -0.2599 -0.4790
 1744SOL    HW116691   1.581   1.581  14.659  2.5746  0.8067  0.6614
 1744SOL    HW216692   1.600   1.605  14.798  2.9196  0.0544 -3.4326
 1745SOL     OW16693   0.615   1.251   4.931 -0.4143 -0.0173  0.3169
 1745SOL    HW116694   0.531   1.213   4.905 -0.4452  0.3365 -0.1099
 1745SOL    HW216695   0.651   1.263   4.843 -0.5320  3.0455  0.6642
 1746SOL     OW16696   1.727   0.045   5.861  0.2839  0.3545 -0.6395
 1746SOL    HW116697   1.665   0.094   5.807  0.2363 -0.6502 -1.5029
 1746SOL    HW216698   1.793   0.109   5.886  0.4117 -0.2119  0.4332
 1747SOL     OW16699   2.800   2.986  14.714 -0.1102 -0.3056  0.2884
 1747SOL    HW116700   2.739   2.926  14.671  0.9374 -2.5250  1.8907
 1747SOL    HW216701   2.865   2.988  14.643  0.7778  0.3345  1.1212
 1748SOL     OW16702   2.102   2.347   4.517  0.2632  0.5672  0.7825
 1748SOL    HW116703   2.113   2.329   4.424 -2.0730 -0.2604  0.6419
 1748SOL    HW216704   2.171   2.289   4.550  0.5926 -0.7792 -2.2978
 1749SOL     OW16705   0.441   0.921   1.619 -0.8232 -0.3646  0.1841
 1749SOL    HW116706   0.432   0.991   1.554  1.9001  0.4477  0.6672
 1749SOL    HW216707   0.535   0.907   1.615 -0.5793  1.9256 -2.0431
 1750SOL     OW16708   1.269   1.611   8.244  0.6255  0.0433 -0.7390
 1750SOL    HW116709   1.310   1.686   8.200  1.9751 -1.2715 -1.7197
 1750SOL    HW216710   1.314   1.540   8.199  1.8468  0.3924 -0.0981
 1751SOL     OW16711   0.907   3.571   2.554  0.3442  0.0509 -0.0288
 1751SOL    HW116712   0.976   3.553   2.490 -0.0034  0.3058 -0.4712
 1751SOL    HW216713   0.957   3.572   2.636 -1.4761 -0.8477  1.0793
 1752SOL     OW16714   0.227   1.301   5.033 -0.2379  0.4958  0.0641
 1752SOL    HW116715   0.227   1.395   5.047 -0.6612  0.3704  0.8947
 1752SOL    HW216716   0.191   1.268   5.116  1.3234  0.9284  0.9062
 1753SOL     OW16717   0.113   3.520   5.485 -0.3992  0.3134  0.3887
 1753SOL    HW116718   0.032   3.472   5.503 -0.8649  1.1708  0.5574
 1753SOL    HW216719   0.176   3.447   5.485 -0.0820  0.5970 -2.1554
 1754SOL     OW16720   4.417   3.063  15.230 -0.4055  0.5760 -0.1354
 1754SOL    HW116721   4.460   3.075  15.146 -2.5245  0.7022 -1.1983
 1754SOL    HW216722   4.493   3.086  15.284 -1.3010 -1.4242  1.9837
 1755SOL     OW16723   1.215   0.604  14.341  0.5742  0.3692  0.0582
 1755SOL    HW116724   1.160   0.671  14.299  1.2609  1.3803  0.7673
 1755SOL    HW216725   1.205   0.631  14.432 -0.6508 -0.7017  0.2369
 1756SOL     OW16726   0.163   1.823   0.058 -0.2279 -0.5381  0.3231
 1756SOL    HW116727   0.189   1.904   0.014 -0.3595  1.0897  3.2308
 1756SOL    HW216728   0.149   1.850   0.149  1.2997 -1.0631  0.7233
 1757SOL     OW16729   1.047   0.682   9.693  0.3387  0.2084  0.4108
 1757SOL    HW116730   1.060   0.594   9.729 -1.4567 -0.0636  0.3713
 1757SOL    HW216731   1.137   0.704   9.670 -0.2185 -0.2095 -2.1636
 1758SOL     OW16732   4.070   2.624   5.662  0.3494 -0.0744 -0.0485
 1758SOL    HW116733   4.046   2.578   5.743  0.7519 -1.8095 -0.9215
 1758SOL    HW216734   3.985   2.622   5.617  0.4995 -0.7957 -0.3046
 1759SOL     OW16735   0.529   1.622   3.700 -0.8169 -0.2361  0.2211
 1759SOL    HW116736   0.496   1.563   3.632 -0.7987 -0.2133  0.1922
 1759SOL    HW216737   0.442   1.646   3.730 -0.1857  0.3445  1.5523
 1760SOL     OW16738   0.798   0.638   9.579  0.0725  0.6135  0.4302
 1760SOL    HW116739   0.878   0.660   9.627 -0.1750 -0.1732  1.1878
 1760SOL    HW216740   0.728   0.666   9.638 -0.6705  0.8291 -0.5331
 1761SOL     OW16741   1.250   0.165   8.361  0.1388  0.3450 -0.7313
 1761SOL    HW116742   1.185   0.228   8.330  0.9467  0.7221 -1.6609
 1761SOL    HW216743   1.192   0.092   8.382 -0.8027  1.1156 -0.6613
 1762SOL     OW16744   2.366   1.969   5.954  0.5853 -0.5573  0.5014
 1762SOL    HW116745   2.456   1.938   5.969  0.5879  0.0897  1.7480
 1762SOL    HW216746   2.387   2.052   5.911  0.4159 -0.8960 -0.2435
 1763SOL     OW16747   0.099   2.646   8.349 -0.3239 -0.2200  0.0506
 1763SOL    HW116748   0.150   2.661   8.269 -0.4826 -1.2196 -0.2342
 1763SOL    HW216749   0.094   2.551   8.348 -0.3388 -0.1834 -3.9579
 1764SOL     OW16750   0.044   1.854   5.520 -0.3588  0.3104  0.0691
 1764SOL    HW116751   4.689   1.912   5.526 -0.4080  0.1055  1.5207
 1764SOL    HW216752   0.010   1.767   5.540  0.7736  0.0672  0.9741
 1765SOL     OW16753   3.427   3.498   4.247  0.3709 -0.3205 -0.0298
 1765SOL    HW116754   3.345   3.548   4.252  0.1794 -0.6206 -0.1909
 1765SOL    HW216755   3.405   3.415   4.289 -1.3612 -0.3321 -0.9624
 1766SOL     OW16756   4.125   0.660   4.621  0.4193  0.3847  0.0669
 1766SOL    HW116757   4.064   0.713   4.673  0.0690 -0.1750  0.2191
 1766SOL    HW216758   4.090   0.666   4.532 -0.9228 -6.3318  0.1796
 1767SOL     OW16759   2.249   1.586  13.167 -0.5590  0.1073 -0.1035
 1767SOL    HW116760   2.248   1.495  13.196 -1.0792 -0.7301 -2.7810
 1767SOL    HW216761   2.341   1.603  13.189 -0.4840 -2.6349  1.6789
 1768SOL     OW16762   3.972   2.043   5.100  0.0018 -0.7054  0.1664
 1768SOL    HW116763   3.887   2.051   5.057  0.2614 -1.9270 -0.5848
 1768SOL    HW216764   3.994   2.130   5.132  1.6388 -1.7385  1.8706
 1769SOL     OW16765   2.614   1.871   5.399 -0.2453  0.1851  0.3322
 1769SOL    HW116766   2.650   1.796   5.446  0.8884 -1.0167 -2.4868
 1769SOL    HW216767   2.544   1.893   5.461 -2.4919 -3.3906 -0.9204
 1770SOL     OW16768   1.590   2.804   8.988  0.7190  0.1569 -0.5528
 1770SOL    HW116769   1.656   2.852   9.037  1.2748 -1.9584  0.7967
 1770SOL    HW216770   1.553   2.749   9.058 -0.2360 -0.4660 -1.5297
 1771SOL     OW16771   2.321   2.819   1.766 -0.3081  0.0498  0.0274
 1771SOL    HW116772   2.394   2.876   1.742  0.1057 -1.6231 -2.6671
 1771SOL    HW216773   2.319   2.751   1.699 -0.0073  0.6481 -0.5867
 1772SOL     OW16774   4.458   4.488   6.956  0.4010  0.0415  0.5308
 1772SOL    HW116775   4.434   4.442   6.876 -2.5439  1.2437  0.7321
 1772SOL    HW216776   4.536   4.541   6.937 -0.6230  0.8381 -1.4529
 1773SOL     OW16777   3.652   4.125   3.746  0.3610 -0.0678  0.3697
 1773SOL    HW116778   3.737   4.113   3.706 -0.9595 -0.4793 -2.2969
 1773SOL    HW216779   3.597   4.063   3.698  1.8136 -0.9319 -0.1769
 1774SOL     OW16780   3.229   1.641   5.282 -0.1165  0.0548 -0.8584
 1774SOL    HW116781   3.157   1.697   5.309  0.8377  1.1393 -0.5289
 1774SOL    HW216782   3.183   1.558   5.273 -0.8408  0.2615  1.1299
 1775SOL     OW16783   2.882   1.630   3.992  0.1525 -0.6649 -0.2148
 1775SOL    HW116784   2.847   1.706   3.946 -0.7759 -1.1200 -0.2549
 1775SOL    HW216785   2.965   1.663   4.028 -0.1525  0.8108 -0.8979
 1776SOL     OW16786   3.648   1.153  12.183  0.2045 -0.1541  0.0045
 1776SOL    HW116787   3.611   1.066  12.169 -1.5714  0.5586  0.2707
 1776SOL    HW216788   3.739   1.128  12.167  0.4893  2.2420 -2.0699
 1777SOL     OW16789   0.610   3.706   5.088 -0.2768 -0.0694 -0.0813
 1777SOL    HW116790   0.674   3.774   5.066 -0.8886  0.5863  0.1346
 1777SOL    HW216791   0.639   3.684   5.176  1.1663 -1.3223 -0.8671
 1778SOL     OW16792   1.877   1.815   9.033 -0.4397 -0.3980  0.4762
 1778SOL    HW116793   1.958   1.863   9.016 -0.1433 -1.2522 -0.4663
 1778SOL    HW216794   1.864   1.814   9.128 -0.6799 -0.7061  0.4396
 1779SOL     OW16795   4.526   2.535   5.250 -0.1337 -0.2551  0.0676
 1779SOL    HW116796   4.621   2.535   5.249 -0.1281 -0.6987  0.7371
 1779SOL    HW216797   4.515   2.630   5.242  1.1390 -0.1508 -0.5254
 1780SOL     OW16798   4.584   0.064   2.832  0.2623 -0.0270  0.2972
 1780SOL    HW116799   4.575   0.087   2.739  1.5082  1.3857  0.5165
 1780SOL    HW216800   4.644   0.135   2.858  1.3323 -1.4587  1.7397
 1781SOL     OW16801   1.837   2.604   3.397  0.5182  0.1566  0.5708
 1781SOL    HW116802   1.840   2.569   3.485 -2.9369  0.4470  0.7895
 1781SOL    HW216803   1.923   2.645   3.384 -0.4135  2.6742  2.4042
 1782SOL     OW16804   1.368   0.486   3.410 -0.0935  0.2343 -0.3314
 1782SOL    HW116805   1.314   0.466   3.486 -1.4197  0.8417 -1.1119
 1782SOL    HW216806   1.341   0.419   3.348  0.2964 -1.2716  1.1345
 1783SOL     OW16807   2.122   4.654   9.693  0.1705  0.1955  0.1852
 1783SOL    HW116808   2.037   4.626   9.659  0.5736  0.4338 -1.0160
 1783SOL    HW216809   2.089   4.668   9.782 -2.6484 -1.0379 -0.6903
 1784SOL     OW16810   0.494   3.492   0.348 -0.2290 -0.0338  0.1394
 1784SOL    HW116811   0.481   3.402   0.379  0.9150  0.3208  1.6726
 1784SOL    HW216812   0.587   3.505   0.367 -0.4893  2.2411 -0.2170
 1785SOL     OW16813   0.536   0.501  13.566  0.0948  0.8772  0.4464
 1785SOL    HW116814   0.529   0.594  13.586  1.0470  1.4544 -1.8727
 1785SOL    HW216815   0.516   0.499  13.472 -1.9618  0.8231  0.8756
 1786SOL     OW16816   1.245   1.043   8.015  0.9683 -0.1230 -0.0006
 1786SOL    HW116817   1.159   1.085   8.009  0.3381 -1.3335  0.6074
 1786SOL    HW216818   1.226   0.951   7.997 -0.3899 -0.1504  1.5700
 1787SOL     OW16819   2.330   3.231   3.160 -0.4170 -0.0180 -0.0693
 1787SOL    HW116820   2.266   3.235   3.231  0.3105  1.4855  0.4817
 1787SOL    HW216821   2.398   3.293   3.184 -0.8742  0.5515 -0.2445
 1788SOL     OW16822   0.425   1.487   5.257 -0.1389 -0.1473 -0.5205
 1788SOL    HW116823   0.373   1.524   5.328 -0.9389 -0.3204 -1.0149
 1788SOL    HW216824   0.355   1.496   5.192 -1.4491 -1.0304  0.7718
 1789SOL     OW16825   0.097   0.471  14.220 -0.6044 -0.4052  0.3544
 1789SOL    HW116826   0.015   0.486  14.267 -0.1688  0.2425  0.9188
 1789SOL    HW216827   0.080   0.390  14.172  0.1553 -1.1475  1.3295
 1790SOL     OW16828   3.423   2.600   9.286  0.0534 -0.2157  0.7111
 1790SOL    HW116829   3.434   2.544   9.363 -1.8296 -0.8332  0.5348
 1790SOL    HW216830   3.370   2.672   9.321  0.3284  0.2131  0.2366
 1791SOL     OW16831   0.597   4.450   4.542  0.2446 -0.2089  0.8381
 1791SOL    HW116832   0.536   4.480   4.475 -1.1074  0.6422  2.4408
 1791SOL    HW216833   0.546   4.481   4.618 -0.9162  1.0460 -0.4490
 1792SOL     OW16834   3.412   0.508   3.738 -0.0940 -0.1863  0.1707
 1792SOL    HW116835   3.425   0.427   3.688 -0.7242 -0.5295  0.5657
 1792SOL    HW216836   3.320   0.493   3.759  0.2421 -3.5547 -0.6552
 1793SOL     OW16837   1.281   0.511  14.659  0.0392 -0.8806 -0.2599
 1793SOL    HW116838   1.376   0.512  14.661  0.0304 -0.8608  0.1327
 1793SOL    HW216839   1.259   0.603  14.649 -2.3940 -1.2919  1.2916
 1794SOL     OW16840   2.710   0.191   2.268  0.5943  0.4039 -0.1689
 1794SOL    HW116841   2.639   0.185   2.204 -1.4684 -1.7110  2.3439
 1794SOL    HW216842   2.766   0.234   2.203 -0.5282  0.9135 -0.8105
 1795SOL     OW16843   1.891   3.503  13.331  0.2337 -0.2153 -0.4061
 1795SOL    HW116844   1.896   3.574  13.267  0.8818 -0.9644 -1.2018
 1795SOL    HW216845   1.798   3.482  13.326  0.2229  0.4207 -2.8617
 1796SOL     OW16846   3.677   0.514  12.188  0.3751  0.2863  0.1958
 1796SOL    HW116847   3.671   0.439  12.247  2.3414  0.3001  0.4066
 1796SOL    HW216848   3.590   0.551  12.201 -0.2514 -0.8982 -0.6016
 1797SOL     OW16849   1.599   2.527  11.837 -0.2217  0.3921 -0.1837
 1797SOL    HW116850   1.653   2.595  11.876  0.5123 -0.0055 -0.4990
 1797SOL    HW216851   1.586   2.555  11.746  0.3702 -2.7400 -1.2526
 1798SOL     OW16852   0.199   1.610   6.714  0.8037  0.4757  0.1070
 1798SOL    HW116853   0.129   1.617   6.779 -2.0047  1.6099 -3.0209
 1798SOL    HW216854   0.147   1.654   6.647  1.1815 -0.0894 -0.5570
 1799SOL     OW16855   3.650   4.486  13.994  0.0835  0.4180 -0.0171
 1799SOL    HW116856   3.591   4.420  13.958  2.5219 -1.0412 -1.3749
 1799SOL    HW216857   3.701   4.493  13.913 -1.1754 -1.6504 -0.9898
 1800SOL     OW16858   3.800   0.692   9.257  0.4692  0.1511 -0.2676
 1800SOL    HW116859   3.881   0.743   9.248 -0.3367  1.5598  0.3589
 1800SOL    HW216860   3.765   0.688   9.169 -1.4956  2.8095  0.3930
 1801SOL     OW16861   3.173   4.022   0.190  0.1715 -0.1192 -0.0970
 1801SOL    HW116862   3.214   4.015   0.104 -0.4033 -1.3438 -0.2792
 1801SOL    HW216863   3.099   3.961   0.183  0.6060 -0.6212 -0.3264
 1802SOL     OW16864   1.384   1.427   8.054 -0.2683 -0.3147 -0.1596
 1802SOL    HW116865   1.296   1.388   8.052 -0.7447  0.8244 -1.5714
 1802SOL    HW216866   1.444   1.360   8.086  2.8562  2.1026 -0.9552
 1803SOL     OW16867   4.370   4.223   8.550  0.1159  0.7667  0.2871
 1803SOL    HW116868   4.390   4.187   8.637  1.8188  1.2022  0.0771
 1803SOL    HW216869   4.370   4.145   8.495 -1.3179  0.8297  0.2214
 1804SOL     OW16870   4.587   3.960   6.461  0.3006  0.0955 -0.8443
 1804SOL    HW116871   4.521   3.893   6.478  1.9317 -1.1519  0.6036
 1804SOL    HW216872   4.642   3.923   6.391  1.2036  0.9757 -0.5990
 1805SOL     OW16873   1.020   1.509   6.619  0.8945 -0.8304  0.1261
 1805SOL    HW116874   1.024   1.598   6.653  0.2756  0.1261 -2.3403
 1805SOL    HW216875   0.978   1.523   6.534 -0.0487  0.4491  0.7925
 1806SOL     OW16876   3.303   2.844   1.749  0.1581 -0.8671 -0.0363
 1806SOL    HW116877   3.363   2.836   1.675  0.7031 -4.3858  0.7371
 1806SOL    HW216878   3.288   2.749   1.757 -1.9004 -0.3400  2.2043
 1807SOL     OW16879   2.147   2.425  10.036 -0.1213  0.1043 -0.1207
 1807SOL    HW116880   2.236   2.390  10.033 -0.3759 -0.4564 -1.1828
 1807SOL    HW216881   2.125   2.432   9.943 -0.4599  0.2212 -0.0311
 1808SOL     OW16882   2.694   4.445   5.414  0.4978  0.0283 -0.4055
 1808SOL    HW116883   2.742   4.506   5.358 -0.0105  0.2055 -0.6452
 1808SOL    HW216884   2.754   4.440   5.489 -0.3440  0.1233  0.2779
 1809SOL     OW16885   4.290   4.466   5.167  0.5628 -0.3487 -0.4227
 1809SOL    HW116886   4.208   4.416   5.164 -0.0616  0.6929 -0.4061
 1809SOL    HW216887   4.283   4.508   5.081  1.2129  0.3179 -0.1477
 1810SOL     OW16888   3.270   4.449  10.563 -0.4328 -0.0632  0.4877
 1810SOL    HW116889   3.296   4.358  10.577 -0.4713 -0.3168 -1.0423
 1810SOL    HW216890   3.176   4.434  10.562 -0.2211 -1.4065 -0.2162
 1811SOL     OW16891   3.299   1.081   8.185  0.3579  0.2892  0.3197
 1811SOL    HW116892   3.385   1.104   8.219 -0.4264 -0.7613  2.9603
 1811SOL    HW216893   3.251   1.096   8.266  1.4368 -1.0374  1.1931
 1812SOL     OW16894   0.900   3.257   2.555  0.3776 -0.2547  0.2527
 1812SOL    HW116895   0.866   3.173   2.524  0.4691 -0.0622 -0.3700
 1812SOL    HW216896   0.863   3.312   2.486 -0.8547  1.1880  2.0754
 1813SOL     OW16897   3.272   0.217   5.452 -0.0561  0.1646  0.0336
 1813SOL    HW116898   3.273   0.159   5.527  1.8680  0.8199  0.4976
 1813SOL    HW216899   3.352   0.179   5.416 -0.6665 -1.2373  0.1620
 1814SOL     OW16900   4.142   0.613   1.593  0.2023 -0.4213 -0.6200
 1814SOL    HW116901   4.122   0.628   1.501 -0.5779 -0.2973 -0.4327
 1814SOL    HW216902   4.080   0.545   1.618  0.4238 -0.5658 -0.4624
 1815SOL     OW16903   0.435   0.993  12.284 -0.1480 -0.5413  0.0306
 1815SOL    HW116904   0.490   0.915  12.281 -2.3690 -2.0792 -0.7341
 1815SOL    HW216905   0.419   1.003  12.190 -0.5671  2.1970  0.3726
 1816SOL     OW16906   4.318   3.153   3.592  0.3096  0.2658 -0.2473
 1816SOL    HW116907   4.246   3.126   3.649  1.7529  0.0267  1.4705
 1816SOL    HW216908   4.277   3.216   3.533  2.9512 -0.2087 -2.5873
 1817SOL     OW16909   2.978   0.462   2.530  0.1590 -0.3731 -0.2543
 1817SOL    HW116910   3.021   0.378   2.519  3.0781  1.1971 -0.9602
 1817SOL    HW216911   2.903   0.429   2.579 -0.1842 -1.8724 -1.7777
 1818SOL     OW16912   3.490   0.875  14.097 -0.5398  0.4702 -0.4413
 1818SOL    HW116913   3.506   0.813  14.026  1.1141  0.9760 -0.5100
 1818SOL    HW216914   3.516   0.955  14.051  0.7362 -0.1651 -0.8245
 1819SOL     OW16915   3.971   0.397   1.699 -0.1953 -0.5445 -0.1583
 1819SOL    HW116916   3.886   0.387   1.742 -1.0358  1.2639 -1.4098
 1819SOL    HW216917   4.039   0.353   1.750  0.0348 -0.6331 -0.5334
 1820SOL     OW16918   1.494   0.524  10.062 -0.7151 -0.6192  0.3212
 1820SOL    HW116919   1.471   0.456   9.998  1.0684 -1.2752  0.3792
 1820SOL    HW216920   1.461   0.604  10.020  0.0099  0.1858  1.2801
 1821SOL     OW16921   3.218   1.571   1.326 -0.2975 -0.5481  0.4148
 1821SOL    HW116922   3.202   1.626   1.402 -0.4346  0.1186 -0.1000
 1821SOL    HW216923   3.311   1.591   1.312  0.4338 -2.5447  2.3611
 1822SOL     OW16924   1.672   1.422   0.948  0.5447 -0.0582 -0.2016
 1822SOL    HW116925   1.633   1.441   1.034 -0.9568  1.1272 -1.1352
 1822SOL    HW216926   1.757   1.465   0.959 -1.1997  2.9288  1.5153
 1823SOL     OW16927   0.302   3.354   5.402  0.2949 -0.7205 -0.1803
 1823SOL    HW116928   0.334   3.290   5.339  0.9652 -1.8737  1.3170
 1823SOL    HW216929   0.386   3.376   5.443  1.8227 -1.3416 -2.9507
 1824SOL     OW16930   3.402   0.825  17.534  0.5790 -0.2681 -0.2347
 1824SOL    HW116931   3.392   0.743  17.583  1.2418  0.0408  0.4353
 1824SOL    HW216932   3.443   0.881  17.601  3.9790 -1.5113 -1.2627
 1825SOL     OW16933   4.126   1.639   6.141  0.4872  0.0196 -0.3029
 1825SOL    HW116934   4.155   1.718   6.095  0.6082 -0.1312 -0.4864
 1825SOL    HW216935   4.155   1.658   6.230 -4.4006  1.1853  0.9995
 1826SOL     OW16936   1.170   1.761   4.280 -0.1315 -0.1427  0.4171
 1826SOL    HW116937   1.190   1.683   4.228  2.3382  0.8002 -0.0234
 1826SOL    HW216938   1.161   1.726   4.369  0.0611  2.9799  1.6773
 1827SOL     OW16939   1.703   0.898   2.865  0.4744 -0.7216 -0.0432
 1827SOL    HW116940   1.764   0.850   2.808  1.7213  1.3203 -0.4297
 1827SOL    HW216941   1.743   0.983   2.847 -1.6901  0.1755 -0.6345
 1828SOL     OW16942   2.761   0.689   3.945 -0.3862  0.0324 -0.3465
 1828SOL    HW116943   2.834   0.699   3.884  0.1740  0.3911  0.3832
 1828SOL    HW216944   2.730   0.779   3.945  1.2949  0.6001  0.2749
 1829SOL     OW16945   2.844   2.548   3.869  0.5085 -0.0577  0.1006
 1829SOL    HW116946   2.761   2.524   3.827  1.1139  0.8676 -1.6043
 1829SOL    HW216947   2.822   2.634   3.903  0.7163 -0.4428  1.2046
 1830SOL     OW16948   4.567   4.034   3.603  0.3312  0.4829 -0.1262
 1830SOL    HW116949   4.483   4.052   3.561  0.2859 -1.8632 -1.0847
 1830SOL    HW216950   4.570   3.942   3.576  1.3128 -0.2405  2.3878
 1831SOL     OW16951   2.473   3.721   2.954  0.1377 -0.6880  0.3455
 1831SOL    HW116952   2.439   3.791   2.899  0.7112 -0.0151  0.8475
 1831SOL    HW216953   2.393   3.694   2.999  0.3884 -0.7294  0.7616
 1832SOL     OW16954   3.623   0.549  11.558  0.4023  0.2140  0.5896
 1832SOL    HW116955   3.714   0.552  11.527  0.8167 -0.3739  1.7227
 1832SOL    HW216956   3.630   0.622  11.620  1.1159  0.4846  0.1932
 1833SOL     OW16957   2.266   0.798   5.510 -0.0505 -0.1720  0.2803
 1833SOL    HW116958   2.272   0.709   5.475 -3.5077 -0.3554  0.1508
 1833SOL    HW216959   2.357   0.823   5.498 -0.2242  0.8118  1.0386
 1834SOL     OW16960   2.940   2.774  13.255  0.0133 -0.6791  0.3617
 1834SOL    HW116961   3.025   2.733  13.273  0.2920  0.4723  1.7110
 1834SOL    HW216962   2.915   2.789  13.346  0.1734 -0.7150  0.4121
 1835SOL     OW16963   0.792   4.469   6.963  0.0572 -0.2190 -0.7736
 1835SOL    HW116964   0.747   4.536   6.912 -1.4853 -0.4865  0.2495
 1835SOL    HW216965   0.767   4.394   6.910  0.2860 -0.1336 -1.0032
 1836SOL     OW16966   2.830   0.474   4.159  0.3112  0.2579 -0.3822
 1836SOL    HW116967   2.789   0.551   4.119  0.9595  1.3017  0.9560
 1836SOL    HW216968   2.921   0.472   4.131  0.1786  0.4507 -0.8267
 1837SOL     OW16969   3.851   4.041   7.744  0.4558  0.1283 -0.0683
 1837SOL    HW116970   3.914   4.040   7.672 -1.3439 -0.8983 -1.6599
 1837SOL    HW216971   3.767   4.051   7.700  0.7563  1.1154 -0.4123
 1838SOL     OW16972   0.277   1.102   5.568 -0.2608  0.1287  0.5380
 1838SOL    HW116973   0.322   1.085   5.485 -1.0260 -1.0048  0.3559
 1838SOL    HW216974   0.238   1.189   5.565 -0.8870 -0.2408 -2.9548
 1839SOL     OW16975   3.812   0.123   7.163  0.0939  0.0664 -0.2109
 1839SOL    HW116976   3.728   0.087   7.189  1.0472  1.1282  4.2273
 1839SOL    HW216977   3.823   0.075   7.081 -0.6800  0.2849 -0.4402
 1840SOL     OW16978   0.012   3.849  15.881 -0.1830 -0.3122  0.2715
 1840SOL    HW116979   4.710   3.870  15.971 -0.7833 -3.5020  0.8591
 1840SOL    HW216980   0.104   3.876  15.878  0.0035 -0.9658  0.1198
 1841SOL     OW16981   2.877   2.327   9.933 -0.1852 -0.4717 -0.3919
 1841SOL    HW116982   2.927   2.408   9.930 -0.4138 -0.4297 -2.7919
 1841SOL    HW216983   2.915   2.288  10.012  0.9918  2.1476  0.3276
 1842SOL     OW16984   0.815   0.411   7.153  0.0338  0.5214  0.4061
 1842SOL    HW116985   0.899   0.452   7.175 -0.4620  2.1886 -0.8180
 1842SOL    HW216986   0.834   0.393   7.060  1.2026  2.2853  0.2964
 1843SOL     OW16987   0.584   3.162   0.239  0.2109  0.6193  0.6380
 1843SOL    HW116988   0.496   3.131   0.261 -0.6207  3.0508  0.7223
 1843SOL    HW216989   0.635   3.103   0.294 -0.4014  0.8460  1.4375
 1844SOL     OW16990   2.259   1.492   2.834  0.6318  0.4027 -0.3232
 1844SOL    HW116991   2.283   1.497   2.742  1.2141 -0.6446 -0.2259
 1844SOL    HW216992   2.176   1.539   2.840  0.1687 -0.2891 -1.3500
 1845SOL     OW16993   1.887   4.270  16.257  0.4101 -0.9778  0.0395
 1845SOL    HW116994   1.858   4.209  16.188  0.3088 -0.7719 -0.1001
 1845SOL    HW216995   1.977   4.237  16.263  0.7059 -0.4215 -1.3050
 1846SOL     OW16996   2.868   1.187   6.166  0.1158 -0.0076 -0.0225
 1846SOL    HW116997   2.886   1.142   6.084  1.2526 -0.6879  0.5994
 1846SOL    HW216998   2.828   1.260   6.119 -2.8726 -2.0432 -0.5625
 1847SOL     OW16999   1.398   2.631   2.176  0.7110  0.0726 -0.4473
 1847SOL    HW117000   1.437   2.640   2.089  0.4630  0.4058 -0.5207
 1847SOL    HW217001   1.432   2.548   2.210 -1.9054 -0.2310  1.4298
 1848SOL     OW17002   1.229   2.608   7.727 -0.0171  0.4618  0.7691
 1848SOL    HW117003   1.220   2.555   7.806  0.4722  2.0996  1.9330
 1848SOL    HW217004   1.144   2.652   7.732  1.4328  3.1616  1.3000
 1849SOL     OW17005   3.498   3.252   6.723 -0.1708  0.1042  0.2125
 1849SOL    HW117006   3.547   3.183   6.768 -2.1297 -0.8240  0.9200
 1849SOL    HW217007   3.567   3.310   6.691 -1.2871  0.9230 -0.7050
 1850SOL     OW17008   4.541   3.849   1.698  0.2739  0.3901 -0.4726
 1850SOL    HW117009   4.550   3.892   1.783  0.7630  0.5342 -0.5984
 1850SOL    HW217010   4.447   3.831   1.703  0.3510  0.5064  1.5297
 1851SOL     OW17011   2.723   3.622  14.920 -0.4896 -0.2014  0.3106
 1851SOL    HW117012   2.728   3.554  14.853  2.9028  0.6522 -0.3041
 1851SOL    HW217013   2.668   3.694  14.889 -3.1236 -2.3788 -0.1027
 1852SOL     OW17014   2.053   0.527   8.779 -0.1902  0.5348  0.4118
 1852SOL    HW117015   2.102   0.547   8.700  0.0969  1.6846  0.8702
 1852SOL    HW217016   2.083   0.592   8.843 -0.2043  1.5328 -0.6128
 1853SOL     OW17017   3.193   0.595   3.005 -0.1826 -0.0532  0.3395
 1853SOL    HW117018   3.112   0.636   3.034 -1.1251 -1.2621 -0.5855
 1853SOL    HW217019   3.175   0.564   2.916  0.4185 -3.1285  1.2942
 1854SOL     OW17020   1.966   0.746   7.633 -0.4248  0.3825  0.0537
 1854SOL    HW117021   2.017   0.713   7.707  0.9164 -2.0534 -1.9297
 1854SOL    HW217022   2.033   0.725   7.567  0.3371  0.5541  0.7748
 1855SOL     OW17023   0.059   1.445   5.898  0.0608  0.1243  0.2255
 1855SOL    HW117024   0.092   1.534   5.906  1.6669 -0.4374 -0.0493
 1855SOL    HW217025   0.073   1.399   5.981 -0.8412 -0.3248  0.1327
 1856SOL     OW17026   3.828   1.184   8.627 -0.0018  0.0109  0.7119
 1856SOL    HW117027   3.915   1.221   8.646  0.0549 -1.0150  2.4102
 1856SOL    HW217028   3.839   1.130   8.549  0.8399  1.4110 -0.1379
 1857SOL     OW17029   3.163   1.125  13.123  0.2510  0.1894 -0.2729
 1857SOL    HW117030   3.228   1.195  13.117  0.8341 -0.2770  0.5484
 1857SOL    HW217031   3.161   1.087  13.035  0.5711  0.0240 -0.2082
 1858SOL     OW17032   2.720   3.253   1.529  0.0814 -0.4474  0.6415
 1858SOL    HW117033   2.760   3.318   1.587  0.9422 -0.6091  0.2310
 1858SOL    HW217034   2.747   3.171   1.570 -0.6631 -0.9569  0.1223
 1859SOL     OW17035   2.911   0.850   4.184  0.0054 -0.2392 -0.2761
 1859SOL    HW117036   2.982   0.806   4.231  1.8508  1.3437 -1.6024
 1859SOL    HW217037   2.925   0.819   4.095  1.7107  1.0760 -0.4728
 1860SOL     OW17038   3.688   1.130   7.962 -0.3685 -0.3864 -0.3032
 1860SOL    HW117039   3.750   1.200   7.983 -0.9719 -0.1902  0.7868
 1860SOL    HW217040   3.695   1.085   8.046  0.5020  1.3060  0.5346
 1861SOL     OW17041   3.305   1.631   6.370  0.9456 -0.5678 -0.4010
 1861SOL    HW117042   3.356   1.555   6.396  0.7018 -0.3765  0.6519
 1861SOL    HW217043   3.375   1.685   6.335  0.6812 -0.3076 -0.5279
 1862SOL     OW17044   1.755   2.156   8.792  0.2877 -0.2462  0.1544
 1862SOL    HW117045   1.661   2.177   8.790 -0.0448 -1.3258  3.4787
 1862SOL    HW217046   1.767   2.104   8.713 -0.6763  1.6554 -1.2418
 1863SOL     OW17047   4.093   3.178   5.873  0.3960  0.4848  0.0974
 1863SOL    HW117048   4.184   3.204   5.889  0.9370 -0.8648 -0.7296
 1863SOL    HW217049   4.053   3.185   5.960 -1.7507 -1.7233 -0.7024
 1864SOL     OW17050   2.039   1.878   2.556  0.2559  0.0480 -0.0372
 1864SOL    HW117051   2.033   1.783   2.551 -0.7923  0.1325 -0.2412
 1864SOL    HW217052   2.091   1.906   2.480  1.2129 -1.7325 -0.0390
 1865SOL     OW17053   0.923   0.081   8.766 -0.2594 -0.5001  0.5321
 1865SOL    HW117054   0.920   0.161   8.818 -0.5961 -0.3979  0.3557
 1865SOL    HW217055   0.837   0.043   8.784 -1.3429  1.8386  0.3415
 1866SOL     OW17056   0.554   0.131  15.312  0.4936  0.0141  0.4637
 1866SOL    HW117057   0.469   0.089  15.326  1.8715 -2.7352  0.4818
 1866SOL    HW217058   0.593   0.081  15.240 -3.2571  0.2171 -1.7296
 1867SOL     OW17059   3.334   2.667   5.113 -0.3703 -0.1200 -0.2922
 1867SOL    HW117060   3.361   2.675   5.021  1.4978 -1.2278  0.1602
 1867SOL    HW217061   3.348   2.573   5.114 -1.3772 -0.2389  1.7166
 1868SOL     OW17062   4.354   2.387   1.161 -0.3849  0.0287 -0.0109
 1868SOL    HW117063   4.338   2.305   1.209 -1.5784 -1.2351 -2.5810
 1868SOL    HW217064   4.374   2.357   1.073 -0.5399  2.5695 -0.9061
 1869SOL     OW17065   4.601   2.466   3.982 -0.3076 -0.2071  0.5353
 1869SOL    HW117066   4.577   2.379   3.951  0.1662  0.0864 -0.6696
 1869SOL    HW217067   4.675   2.437   4.036 -0.5447  0.0455  0.9904
 1870SOL     OW17068   2.540   4.205   3.940  0.2245  0.0658  0.1999
 1870SOL    HW117069   2.463   4.254   3.969  0.9943  0.6366  1.2819
 1870SOL    HW217070   2.594   4.281   3.920 -0.6193  1.0994  1.9096
 1871SOL     OW17071   0.796   2.634   4.295  0.2363 -0.0389 -0.2500
 1871SOL    HW117072   0.887   2.659   4.280  0.2132  0.9248  1.1736
 1871SOL    HW217073   0.776   2.575   4.223 -0.0744  0.4581 -0.5758
 1872SOL     OW17074   0.724   1.600   5.765  0.2808 -0.5786  0.0716
 1872SOL    HW117075   0.818   1.604   5.748  0.1273 -1.4367 -1.0123
 1872SOL    HW217076   0.712   1.673   5.825 -0.9441 -0.4046 -0.3968
 1873SOL     OW17077   1.685   3.700   7.553 -0.1748  0.2351  0.2733
 1873SOL    HW117078   1.670   3.616   7.510  1.6204 -0.7950  1.6698
 1873SOL    HW217079   1.761   3.683   7.608 -1.3489  0.3901  1.9343
 1874SOL     OW17080   2.631   4.299   8.419 -0.1516 -0.3252 -0.0970
 1874SOL    HW117081   2.643   4.266   8.330 -0.2464  0.1042 -0.2681
 1874SOL    HW217082   2.587   4.221   8.454  2.9107 -2.2654 -0.6041
 1875SOL     OW17083   2.272   1.425  15.965 -0.3666  0.1278  0.6582
 1875SOL    HW117084   2.181   1.442  15.988 -0.6551  0.9226 -1.1221
 1875SOL    HW217085   2.279   1.330  15.950 -4.0830  0.3797 -2.5289
 1876SOL     OW17086   3.673   0.469  13.562  0.1476  0.1646  0.3153
 1876SOL    HW117087   3.577   0.461  13.561 -0.0600  2.5953 -0.8882
 1876SOL    HW217088   3.684   0.541  13.625 -1.7514 -0.4681  1.3755
 1877SOL     OW17089   4.567   3.404   4.556  0.0669  0.0135  0.1850
 1877SOL    HW117090   4.473   3.412   4.541 -0.0845  1.8152  2.0749
 1877SOL    HW217091   4.592   3.481   4.607  1.5803  0.3348 -1.0256
 1878SOL     OW17092   2.834   2.705   1.973 -0.0354  0.1982  0.0502
 1878SOL    HW117093   2.918   2.749   1.987 -0.7971  1.7498 -0.3230
 1878SOL    HW217094   2.764   2.759   2.009 -0.5179 -1.5238  1.7359
 1879SOL     OW17095   3.616   0.244   7.963 -0.0037 -0.2226 -0.0136
 1879SOL    HW117096   3.567   0.273   8.041  2.7340  1.7347  1.0055
 1879SOL    HW217097   3.699   0.245   8.012  0.8129  1.6890 -1.4271
 1880SOL     OW17098   3.194   3.304   5.343  0.0067 -0.5700 -0.1333
 1880SOL    HW117099   3.282   3.270   5.361  0.7015  1.6167  0.5763
 1880SOL    HW217100   3.205   3.393   5.310  1.6517 -0.8277 -0.2778
 1881SOL     OW17101   4.290   2.132  17.214  0.0635 -0.2133  0.1701
 1881SOL    HW117102   4.265   2.103  17.126  1.3332  2.5280 -1.1151
 1881SOL    HW217103   4.383   2.147  17.226 -0.1093  1.7774 -0.9022
 1882SOL     OW17104   0.820   3.906   8.675  0.1359  0.1401  0.1777
 1882SOL    HW117105   0.842   3.814   8.662 -1.0910 -0.1992  0.4260
 1882SOL    HW217106   0.889   3.932   8.735  0.2451  1.2955 -0.4503
 1883SOL     OW17107   0.720   2.440   3.358  0.8609  0.3430 -0.2887
 1883SOL    HW117108   0.701   2.504   3.427  0.4594  0.4865 -0.5315
 1883SOL    HW217109   0.695   2.357   3.398  3.7791 -0.5303 -0.2680
 1884SOL     OW17110   1.384   3.973  13.360 -0.1891  0.7567  0.8390
 1884SOL    HW117111   1.397   4.061  13.326  0.0090  0.7851  0.9930
 1884SOL    HW217112   1.290   3.958  13.370  0.0252 -0.4325  1.1098
 1885SOL     OW17113   1.482   3.787   2.419 -0.0800 -0.3365 -0.3911
 1885SOL    HW117114   1.488   3.809   2.326  1.2770 -0.2150 -0.2852
 1885SOL    HW217115   1.457   3.870   2.458  1.2874 -0.0415 -0.1451
 1886SOL     OW17116   2.270   3.145   1.927 -0.1151 -0.3514 -0.8144
 1886SOL    HW117117   2.212   3.204   1.975 -0.5005  0.2933 -2.0824
 1886SOL    HW217118   2.209   3.082   1.887 -0.7941  1.6661 -2.9542
 1887SOL     OW17119   2.144   1.954   2.328  0.0087 -0.4471 -0.3989
 1887SOL    HW117120   2.164   2.045   2.304  2.9299 -1.0222 -0.0636
 1887SOL    HW217121   2.077   1.938   2.261 -0.8607  1.5423  0.0023
 1888SOL     OW17122   2.828   1.473   4.193 -0.3593  0.1245 -0.2703
 1888SOL    HW117123   2.839   1.540   4.125 -0.3801  1.4060  1.0061
 1888SOL    HW217124   2.874   1.397   4.155  3.9852  1.6558  1.9620
 1889SOL     OW17125   2.640   4.134   2.411  0.0555  0.2088  0.1206
 1889SOL    HW117126   2.684   4.218   2.421  1.6620 -0.7083  0.6802
 1889SOL    HW217127   2.610   4.123   2.321 -0.6419  0.1348  0.3610
 1890SOL     OW17128   2.718   2.310  11.421  0.2366  0.0190 -0.0638
 1890SOL    HW117129   2.768   2.291  11.500 -1.9598  0.6171  1.4497
 1890SOL    HW217130   2.783   2.273  11.360  0.6161  0.8670 -0.1711
 1891SOL     OW17131   4.324   1.297  12.676 -0.3093 -0.3360 -0.1892
 1891SOL    HW117132   4.338   1.375  12.730 -1.5474 -0.7946  0.8000
 1891SOL    HW217133   4.411   1.259  12.666 -0.3718 -0.4134 -0.4375
 1892SOL     OW17134   2.738   1.855  16.461 -0.2639  0.7354 -0.0574
 1892SOL    HW117135   2.645   1.831  16.459  0.1633 -0.8983 -0.7906
 1892SOL    HW217136   2.782   1.772  16.483  1.4528  1.3513 -1.2033
 1893SOL     OW17137   2.187   1.060   2.076  0.4464 -0.3314 -0.8676
 1893SOL    HW117138   2.242   1.005   2.020  4.6596  0.3592  2.5555
 1893SOL    HW217139   2.232   1.144   2.068  1.2902 -0.6846  0.1875
 1894SOL     OW17140   2.418   2.066   8.973  0.1979  0.4448 -0.2665
 1894SOL    HW117141   2.491   2.041   9.029  0.5401  1.3138 -0.3202
 1894SOL    HW217142   2.370   2.129   9.026 -1.1049 -0.5102 -0.3096
 1895SOL     OW17143   4.223   1.736  10.163 -0.2188 -1.0478 -0.1089
 1895SOL    HW117144   4.309   1.710  10.195  0.7859  1.3969 -0.8021
 1895SOL    HW217145   4.235   1.796  10.089  1.8929  0.5972  1.5697
 1896SOL     OW17146   1.063   4.063  10.816  0.0237  0.2343  0.5396
 1896SOL    HW117147   1.018   4.148  10.818  0.2937  0.3799  0.4446
 1896SOL    HW217148   1.134   4.093  10.760 -0.8963 -0.5884 -1.0594
 1897SOL     OW17149   1.257   1.226   8.631 -0.5350  0.3218 -0.1620
 1897SOL    HW117150   1.209   1.309   8.635 -2.0102 -0.5088 -0.5122
 1897SOL    HW217151   1.239   1.186   8.716  0.6495  0.1528  0.0051
 1898SOL     OW17152   4.429   2.062   0.286 -0.2364 -0.6094 -0.1742
 1898SOL    HW117153   4.501   2.079   0.346 -0.4523  0.5718 -0.2470
 1898SOL    HW217154   4.449   1.977   0.246  2.9153  0.8668 -1.7351
 1899SOL     OW17155   3.693   3.520   3.462 -0.0083 -0.6154 -0.4510
 1899SOL    HW117156   3.642   3.497   3.384 -0.9601 -3.5725  1.0716
 1899SOL    HW217157   3.634   3.514   3.536  1.2646  0.2925  0.6325
 1900SOL     OW17158   3.090   4.116   4.938  0.4944  0.3562 -0.4344
 1900SOL    HW117159   3.162   4.052   4.932  0.5018  0.0701  2.6331
 1900SOL    HW217160   3.124   4.178   4.873  0.0878 -1.1784 -2.1146
 1901SOL     OW17161   0.372   2.426   3.250  0.1252  0.4088  0.2248
 1901SOL    HW117162   0.377   2.502   3.192 -1.7451 -1.5018 -2.4066
 1901SOL    HW217163   0.406   2.364   3.187  0.2436  0.5958  0.1037
 1902SOL     OW17164   4.443   3.765   8.908 -0.6744  0.3715  0.1057
 1902SOL    HW117165   4.426   3.800   8.821  1.1617 -0.5554 -0.6237
 1902SOL    HW217166   4.358   3.785   8.947  0.2846  2.5581  1.1094
 1903SOL     OW17167   2.563   1.904  16.912 -0.5908  0.1427 -0.1550
 1903SOL    HW117168   2.600   1.822  16.878 -0.8799  0.3604 -0.9763
 1903SOL    HW217169   2.478   1.898  16.870  0.4272  0.0923 -2.2135
 1904SOL     OW17170   0.259   2.439   2.516 -0.1222  0.0212  0.2746
 1904SOL    HW117171   0.320   2.510   2.535 -1.8712  1.8857 -1.0877
 1904SOL    HW217172   0.311   2.379   2.462 -2.9767 -1.4468 -0.8358
 1905SOL     OW17173   0.698   4.365   2.947 -0.7055 -0.3832 -0.3044
 1905SOL    HW117174   0.660   4.446   2.915 -0.4006 -0.7049 -1.4733
 1905SOL    HW217175   0.771   4.403   2.996  0.8291 -1.0868 -2.0542
 1906SOL     OW17176   1.391   4.188   0.597  0.1126  0.0080  0.8697
 1906SOL    HW117177   1.405   4.192   0.503 -1.0972  0.9127  0.7336
 1906SOL    HW217178   1.316   4.129   0.603 -0.6010  0.8536  0.1684
 1907SOL     OW17179   3.609   2.031   9.219 -0.0190  0.5436  0.0666
 1907SOL    HW117180   3.637   2.122   9.211 -0.4052  0.6792  0.2196
 1907SOL    HW217181   3.517   2.039   9.244  0.1975 -0.5198  1.2006
 1908SOL     OW17182   1.084   4.220   8.563  0.2483 -0.5577 -0.1554
 1908SOL    HW117183   1.151   4.152   8.569  0.5444 -0.1895  0.6494
 1908SOL    HW217184   1.016   4.165   8.523  0.1467  0.5657 -1.5247
 1909SOL     OW17185   0.441   2.703   8.614  0.7581 -0.7897  0.0099
 1909SOL    HW117186   0.520   2.753   8.633 -0.7793  1.1058  1.3840
 1909SOL    HW217187   0.382   2.760   8.564 -0.4947 -0.7107  1.5920
 1910SOL     OW17188   3.202   2.639   9.095  0.4124  0.3819  0.5988
 1910SOL    HW117189   3.214   2.718   9.043 -2.5056  1.1924  1.1622
 1910SOL    HW217190   3.132   2.668   9.154 -1.3785  2.6757 -2.6840
 1911SOL     OW17191   2.450   3.443   2.324 -0.4836  0.3090 -0.6340
 1911SOL    HW117192   2.495   3.447   2.408  0.8253 -1.2066 -1.2676
 1911SOL    HW217193   2.425   3.352   2.312 -0.2136  0.3389 -1.4921
 1912SOL     OW17194   2.918   2.155   0.381  0.4279 -0.0554  0.3618
 1912SOL    HW117195   2.827   2.160   0.410  0.6498 -0.1432  1.0853
 1912SOL    HW217196   2.948   2.081   0.434 -0.7300  0.5606  1.9056
 1913SOL     OW17197   2.101   2.687   6.234 -0.2295 -0.6527 -0.1370
 1913SOL    HW117198   2.054   2.604   6.236  0.0646 -0.7844  1.1961
 1913SOL    HW217199   2.080   2.714   6.145  0.3937  2.1393  0.5494
 1914SOL     OW17200   3.928   1.010   9.398  0.0002 -0.0018  0.0465
 1914SOL    HW117201   3.970   0.932   9.361  2.3219  1.4650 -0.4299
 1914SOL    HW217202   4.013   1.046   9.424 -0.1844  0.3025  0.2311
 1915SOL     OW17203   3.694   3.648   8.107  0.2037 -0.1180 -0.4755
 1915SOL    HW117204   3.670   3.664   8.199 -1.5348  0.8828 -1.1080
 1915SOL    HW217205   3.711   3.739   8.083  1.5250 -0.7576 -1.9483
 1916SOL     OW17206   4.031   3.712   8.209  0.3927 -0.0675  0.2255
 1916SOL    HW117207   4.086   3.643   8.173 -0.2213 -0.8130  0.7236
 1916SOL    HW217208   3.976   3.740   8.136  1.4582  0.3947 -0.4000
 1917SOL     OW17209   2.446   1.832   8.652 -0.4931 -0.4439  0.2410
 1917SOL    HW117210   2.540   1.834   8.633 -0.5896 -0.5939 -0.2699
 1917SOL    HW217211   2.424   1.888   8.577 -0.3049 -2.7950 -1.6140
 1918SOL     OW17212   2.424   2.054   4.581  0.1530  1.1320  0.6479
 1918SOL    HW117213   2.466   2.093   4.503 -2.5707 -0.2404 -1.5082
 1918SOL    HW217214   2.360   2.123   4.602  1.3824  2.4372  0.1509
 1919SOL     OW17215   4.278   3.993   6.655 -0.4624  0.0989  0.1572
 1919SOL    HW117216   4.256   4.000   6.563  0.8978  1.0573 -0.0988
 1919SOL    HW217217   4.205   4.041   6.694 -1.0964 -0.5614 -0.2415
 1920SOL     OW17218   0.245   4.002  16.036 -0.6947  0.7896 -0.2573
 1920SOL    HW117219   0.185   4.056  16.088 -2.2916 -2.0071  0.8068
 1920SOL    HW217220   0.272   4.069  15.973 -1.1933  0.5411 -0.7354
 1921SOL     OW17221   4.183   3.325   3.415 -0.0960  0.3263  0.0749
 1921SOL    HW117222   4.245   3.383   3.371  2.1340  0.5038  3.5179
 1921SOL    HW217223   4.104   3.379   3.423 -1.1983 -1.2896  0.2628
 1922SOL     OW17224   1.218   0.131  14.770 -0.2079  0.0546  0.5881
 1922SOL    HW117225   1.196   0.224  14.772 -1.6018 -0.2818  1.0871
 1922SOL    HW217226   1.128   0.099  14.778  0.1953 -0.9167  1.3320
 1923SOL     OW17227   3.334   1.522   6.005 -0.1153 -0.3662 -0.2004
 1923SOL    HW117228   3.302   1.588   5.944 -0.1117 -0.7387 -0.5997
 1923SOL    HW217229   3.254   1.483   6.041 -1.3254  1.0895 -1.3340
 1924SOL     OW17230   1.840   2.871   1.541  0.1943  0.2930  0.6253
 1924SOL    HW117231   1.880   2.798   1.588  0.0447 -1.4462 -1.9551
 1924SOL    HW217232   1.885   2.946   1.582 -0.3858  1.1773 -0.3632
 1925SOL     OW17233   2.498   0.506   7.488  0.5678 -0.1035  0.0559
 1925SOL    HW117234   2.470   0.593   7.514 -0.3575 -0.3425 -0.1341
 1925SOL    HW217235   2.589   0.513   7.514  0.2228  0.7718  1.0121
 1926SOL     OW17236   4.533   1.639  17.491  0.2160  0.3730  0.1122
 1926SOL    HW117237   4.488   1.722  17.499  0.4481  0.7430 -2.4519
 1926SOL    HW217238   4.580   1.633  17.575  0.6562 -2.4435 -0.3070
 1927SOL     OW17239   1.486   0.255   2.120 -0.2202 -0.7061 -0.0325
 1927SOL    HW117240   1.496   0.322   2.188  0.0024 -2.2749  1.4782
 1927SOL    HW217241   1.507   0.306   2.042  1.2488 -1.2689  0.0001
 1928SOL     OW17242   3.425   0.392  11.947 -0.7827 -0.4007 -0.0567
 1928SOL    HW117243   3.443   0.481  11.977  1.8024 -1.1771  0.7970
 1928SOL    HW217244   3.433   0.397  11.852  0.7588 -3.1692 -0.0976
 1929SOL     OW17245   4.103   0.856   2.165 -0.2863 -1.1189  0.0462
 1929SOL    HW117246   4.198   0.851   2.174 -0.4888  0.8167  3.0313
 1929SOL    HW217247   4.089   0.844   2.071  1.2213  0.3797 -0.3643
 1930SOL     OW17248   0.833   1.214   5.626  0.2899 -0.0626 -0.2774
 1930SOL    HW117249   0.922   1.181   5.610 -0.0352 -1.8084  1.5355
 1930SOL    HW217250   0.814   1.259   5.544 -0.5974  0.5664  0.2804
 1931SOL     OW17251   4.402   1.201   1.340  0.4017  0.6571 -0.2965
 1931SOL    HW117252   4.320   1.235   1.305 -0.0025 -1.5970 -1.5524
 1931SOL    HW217253   4.436   1.148   1.268  1.4517 -0.0944  0.7360
 1932SOL     OW17254   3.816   0.743   8.360 -0.5225  0.4335 -0.7912
 1932SOL    HW117255   3.878   0.692   8.412 -0.8313  1.3702  0.5191
 1932SOL    HW217256   3.755   0.774   8.428  0.3912 -0.4675  0.4358
 1933SOL     OW17257   2.047   0.136   9.314 -0.4819 -0.2404 -0.1837
 1933SOL    HW117258   2.107   0.062   9.320 -0.6758 -0.5137 -1.4643
 1933SOL    HW217259   2.075   0.174   9.230 -0.8752  1.9056  0.6733
 1934SOL     OW17260   0.385   1.114   1.423 -1.0668 -0.0012 -0.1209
 1934SOL    HW117261   0.407   1.207   1.410 -1.5961  0.1087 -0.1997
 1934SOL    HW217262   0.291   1.114   1.407 -1.2237  1.0347  0.7955
 1935SOL     OW17263   3.651   2.526   3.362  0.1789  0.4727  0.2424
 1935SOL    HW117264   3.607   2.444   3.343 -0.0276  0.6282  0.0561
 1935SOL    HW217265   3.599   2.588   3.311 -2.0911  0.2239  2.2853
 1936SOL     OW17266   3.838   3.309   7.047  0.4843  0.1367  0.0142
 1936SOL    HW117267   3.814   3.220   7.021 -2.6109  0.8129  0.5484
 1936SOL    HW217268   3.779   3.328   7.120  1.5314  0.6912  0.7156
 1937SOL     OW17269   0.422   1.414  15.904  0.3985  0.1632  0.1944
 1937SOL    HW117270   0.477   1.489  15.926  3.6659 -1.2654 -3.1458
 1937SOL    HW217271   0.459   1.334  15.940 -1.2188 -1.0918 -0.9115
 1938SOL     OW17272   1.409   0.410   5.919  0.0707 -0.1804  0.0375
 1938SOL    HW117273   1.376   0.328   5.955  2.4766 -0.4211  1.6971
 1938SOL    HW217274   1.375   0.486   5.966  0.2523  0.3291 -0.6512
 1939SOL     OW17275   3.737   4.115   8.784 -0.1511 -0.3396 -0.0295
 1939SOL    HW117276   3.783   4.199   8.775 -0.7407 -0.0772 -0.5647
 1939SOL    HW217277   3.687   4.134   8.863  0.9387 -0.6848  0.7536
 1940SOL     OW17278   1.255   1.298  15.228  0.1764  0.0350 -0.1354
 1940SOL    HW117279   1.174   1.296  15.176  1.6425  0.5072 -2.3962
 1940SOL    HW217280   1.261   1.204  15.247 -0.5910  0.6517  3.2651
 1941SOL     OW17281   3.293   2.150   2.247  0.5024  0.2617  0.4005
 1941SOL    HW117282   3.378   2.108   2.261  0.3534 -0.0626  0.3438
 1941SOL    HW217283   3.263   2.173   2.335  0.3984  1.8594 -0.0512
 1942SOL     OW17284   0.461   2.912  14.366  0.1019  0.0187  0.3512
 1942SOL    HW117285   0.459   2.979  14.297  2.0485  0.2826  0.5347
 1942SOL    HW217286   0.495   2.839  14.313  0.7878 -0.0884  0.9365
 1943SOL     OW17287   3.685   2.344   8.288  0.0749  0.1164 -0.7222
 1943SOL    HW117288   3.754   2.354   8.353 -1.7427  1.2940  1.0528
 1943SOL    HW217289   3.725   2.397   8.219  2.4676 -0.9030 -0.0884
 1944SOL     OW17290   0.353   2.806   0.370 -0.0314 -0.1481  0.1787
 1944SOL    HW117291   0.333   2.783   0.280  0.4491 -1.0291  0.2982
 1944SOL    HW217292   0.383   2.896   0.359 -0.0241 -0.3423 -1.2664
 1945SOL     OW17293   0.448   0.275  11.010 -0.9051 -0.5444  0.6188
 1945SOL    HW117294   0.439   0.325  10.929 -0.8855 -0.2675  0.7892
 1945SOL    HW217295   0.424   0.185  10.987  2.6334 -0.6199 -2.6626
 1946SOL     OW17296   0.498   3.762   2.396 -0.1312  0.3897 -0.0607
 1946SOL    HW117297   0.439   3.709   2.342 -0.6848  1.6944 -0.7509
 1946SOL    HW217298   0.548   3.694   2.441  0.3213  0.4722 -0.4384
 1947SOL     OW17299   1.946   1.316   9.467  0.2302  0.2952 -0.6030
 1947SOL    HW117300   1.862   1.291   9.504  1.8398  0.4435  3.1619
 1947SOL    HW217301   1.968   1.394   9.518 -2.3093  1.3113 -1.0773
 1948SOL     OW17302   4.068   2.199   2.804 -0.3357  0.4438  0.1300
 1948SOL    HW117303   4.099   2.284   2.773  0.7543  1.5174  4.1908
 1948SOL    HW217304   4.082   2.216   2.897  1.8828  0.2736 -0.1871
 1949SOL     OW17305   3.900   4.128  15.565  0.0816  0.1737 -0.2162
 1949SOL    HW117306   3.982   4.082  15.584 -0.0725 -0.1820 -0.3979
 1949SOL    HW217307   3.851   4.050  15.539  0.3419 -0.5731  1.5389
 1950SOL     OW17308   2.533   0.110   7.992 -0.3229 -0.6986  0.4862
 1950SOL    HW117309   2.449   0.071   8.015  0.0540 -0.6017  2.0348
 1950SOL    HW217310   2.579   0.085   8.071 -0.2351  0.7315  0.8936
 1951SOL     OW17311   3.135   3.579   7.912  0.4973 -0.2166 -0.4193
 1951SOL    HW117312   3.164   3.491   7.888  1.9601  0.2210 -0.2536
 1951SOL    HW217313   3.163   3.627   7.834  0.1904  1.1915  0.3421
 1952SOL     OW17314   3.256   4.599   4.795  0.5180  0.1004  0.0534
 1952SOL    HW117315   3.331   4.599   4.735 -0.0754  1.9241 -0.7043
 1952SOL    HW217316   3.187   4.629   4.735  1.3659 -0.4659 -1.1999
 1953SOL     OW17317   3.108   2.359   2.108  0.2337  0.5693 -0.5582
 1953SOL    HW117318   3.125   2.414   2.184  0.6375  1.4984 -1.3301
 1953SOL    HW217319   3.067   2.416   2.043 -1.8625 -1.0135 -0.6078
 1954SOL     OW17320   2.342   3.711   0.044  0.1515 -0.3885  0.2566
 1954SOL    HW117321   2.330   3.628   0.090 -2.0548  0.0337  0.4517
 1954SOL    HW217322   2.270   3.770   0.069  0.1844 -0.7276  1.1756
 1955SOL     OW17323   1.263   1.892   5.507  0.0980  0.1782 -0.4805
 1955SOL    HW117324   1.305   1.968   5.466  1.3171  0.7569  1.8437
 1955SOL    HW217325   1.292   1.810   5.467  1.4787  0.6852 -0.5177
 1956SOL     OW17326   2.118   0.998   5.393 -0.2898 -0.3916 -0.6263
 1956SOL    HW117327   2.151   0.912   5.421  0.1185 -0.1117 -0.2542
 1956SOL    HW217328   2.176   1.007   5.317  1.0555 -0.6551  0.3804
 1957SOL     OW17329   0.288   1.313  11.781  0.3833  0.3857  0.2472
 1957SOL    HW117330   0.355   1.245  11.780  0.0920  0.1177 -0.8090
 1957SOL    HW217331   0.327   1.372  11.846 -1.3896 -0.6258  2.2014
 1958SOL     OW17332   0.203   2.661   8.101 -0.4316 -0.0780 -0.1353
 1958SOL    HW117333   0.217   2.754   8.087 -2.1299  0.1385 -0.4790
 1958SOL    HW217334   0.192   2.619   8.016 -2.1885  1.2845 -0.5820
 1959SOL     OW17335   4.260   2.680  16.334 -0.0807  0.0300  0.1086
 1959SOL    HW117336   4.250   2.690  16.240  1.5740  2.9636  0.2246
 1959SOL    HW217337   4.208   2.600  16.338 -0.7958  0.4008 -1.8652
 1960SOL     OW17338   2.925   2.912   7.200  0.2035  0.2815 -0.2216
 1960SOL    HW117339   2.835   2.938   7.220 -0.5106 -0.6565 -2.2358
 1960SOL    HW217340   2.963   2.885   7.284 -2.5562 -0.3146  0.8387
 1961SOL     OW17341   1.773   1.579   2.747  0.7802 -0.0798 -0.4136
 1961SOL    HW117342   1.693   1.605   2.792  0.8492  0.3922 -0.5615
 1961SOL    HW217343   1.760   1.615   2.659 -2.2936 -1.0772 -0.3435
 1962SOL     OW17344   2.400   2.495   7.963  0.2760 -0.1266  0.3158
 1962SOL    HW117345   2.337   2.467   8.030  1.6152 -1.4564  1.0140
 1962SOL    HW217346   2.487   2.478   8.000 -0.0012  0.7701  1.3915
 1963SOL     OW17347   0.367   2.346   7.269  0.1358 -0.5044 -0.6528
 1963SOL    HW117348   0.282   2.339   7.225 -0.2907 -1.0287  0.2509
 1963SOL    HW217349   0.428   2.310   7.204  3.1485  1.2944  1.1582
 1964SOL     OW17350   0.622   0.106   6.121  0.3857 -0.0043 -0.1797
 1964SOL    HW117351   0.675   0.176   6.161 -1.9821  0.1187  2.8051
 1964SOL    HW217352   0.555   0.100   6.189  1.4539 -2.4741  0.6343
 1965SOL     OW17353   3.380   1.789   0.444  0.4172  0.1827 -0.2412
 1965SOL    HW117354   3.463   1.785   0.492 -0.0592 -1.4653  0.4538
 1965SOL    HW217355   3.324   1.748   0.510 -0.8448  1.3448 -0.5803
 1966SOL     OW17356   0.452   0.366   3.392 -0.2372 -0.3744 -0.2658
 1966SOL    HW117357   0.485   0.429   3.328 -0.2756 -1.1690 -1.0599
 1966SOL    HW217358   0.526   0.306   3.404 -2.3944 -3.0418 -0.1479
 1967SOL     OW17359   4.028   2.406   5.377  0.1163 -0.2724 -0.0580
 1967SOL    HW117360   4.024   2.376   5.286  0.2086 -0.8517  0.1270
 1967SOL    HW217361   4.058   2.324   5.418 -0.2328  0.4582  1.6666
 1968SOL     OW17362   3.517   1.486   8.122  0.0033 -0.3275  0.2762
 1968SOL    HW117363   3.577   1.526   8.059 -1.8607 -0.8807 -1.8603
 1968SOL    HW217364   3.431   1.480   8.080  1.0953 -1.7317 -1.7687
 1969SOL     OW17365   3.449   0.919   9.105 -0.1867  0.1374 -0.5724
 1969SOL    HW117366   3.482   0.931   9.194 -0.3874 -2.4385 -0.1613
 1969SOL    HW217367   3.525   0.910   9.048  0.0518  0.5738 -0.3271
 1970SOL     OW17368   1.137   3.950   7.743 -0.5474  0.2056  0.0091
 1970SOL    HW117369   1.193   3.976   7.670 -1.0745  0.9674 -0.1262
 1970SOL    HW217370   1.126   3.855   7.742 -1.3757  0.2885  0.8226
 1971SOL     OW17371   1.882   0.730   2.734 -0.1485 -0.3571  0.7079
 1971SOL    HW117372   1.923   0.738   2.648  2.0499 -0.7052  1.7134
 1971SOL    HW217373   1.928   0.656   2.773 -0.0892  0.0594  1.4361
 1972SOL     OW17374   1.857   1.573   3.132 -0.4218  0.5447 -0.1004
 1972SOL    HW117375   1.889   1.568   3.223 -0.6424 -1.6641 -0.1474
 1972SOL    HW217376   1.786   1.509   3.132  0.0201  0.0540  0.9217
 1973SOL     OW17377   0.842   3.182   4.260 -0.3810 -0.1942  0.5502
 1973SOL    HW117378   0.776   3.244   4.290 -0.3281  0.4181 -0.5984
 1973SOL    HW217379   0.926   3.212   4.295 -1.2222  1.6999  0.8780
 1974SOL     OW17380   3.032   4.049   0.541  0.2357  0.1584  0.1831
 1974SOL    HW117381   3.064   3.974   0.490 -1.7052  0.2384 -1.1541
 1974SOL    HW217382   3.115   4.096   0.547  0.1689 -0.1790  3.5445
 1975SOL     OW17383   3.588   3.133   6.977 -0.0307 -0.1765 -0.3523
 1975SOL    HW117384   3.554   3.222   6.981  1.0382  0.1997  0.5116
 1975SOL    HW217385   3.530   3.098   7.044  0.0052 -0.9207 -0.7088
 1976SOL     OW17386   0.554   1.136   5.356 -0.1953  0.3888  0.1612
 1976SOL    HW117387   0.522   1.110   5.270  3.8863 -3.2855 -0.2131
 1976SOL    HW217388   0.573   1.226   5.329  0.1200  0.5119  0.7997
 1977SOL     OW17389   2.048   2.470   5.305  0.6817  0.3422 -0.1076
 1977SOL    HW117390   2.025   2.538   5.369 -0.8580  0.1911 -0.4929
 1977SOL    HW217391   2.010   2.518   5.231 -0.3398 -0.5227 -0.1393
 1978SOL     OW17392   2.755   3.943   9.198 -0.3469  0.3052 -0.3950
 1978SOL    HW117393   2.683   3.997   9.230  0.6344  0.1308  2.1267
 1978SOL    HW217394   2.826   4.006   9.189 -1.1361  1.2777  0.1538
 1979SOL     OW17395   0.014   0.867   6.886  0.3038 -0.7491  0.2938
 1979SOL    HW117396   0.094   0.909   6.855 -0.5661 -0.1490 -1.1627
 1979SOL    HW217397   0.034   0.873   6.980  3.8186 -0.8289 -0.4497
 1980SOL     OW17398   1.339   0.278   3.212 -0.1859 -0.0914  0.5516
 1980SOL    HW117399   1.245   0.293   3.203 -0.1810  0.0279  0.7084
 1980SOL    HW217400   1.356   0.186   3.191  0.1145 -0.3458  1.9198
 1981SOL     OW17401   1.223   4.036   4.989 -0.0027 -0.1611 -0.0802
 1981SOL    HW117402   1.309   3.999   4.970  0.4034  0.0221  1.4201
 1981SOL    HW217403   1.218   4.038   5.085 -0.2794 -0.7288 -0.0823
 1982SOL     OW17404   1.462   3.948  10.401 -0.5632  0.4706 -0.1589
 1982SOL    HW117405   1.494   3.912  10.319 -1.1859 -0.1090 -0.1504
 1982SOL    HW217406   1.375   3.983  10.380 -0.4549  0.4777 -0.5944
 1983SOL     OW17407   3.184   1.167   0.928 -0.3248  0.0275 -0.7614
 1983SOL    HW117408   3.102   1.118   0.919  0.9849 -1.5197 -4.3190
 1983SOL    HW217409   3.174   1.219   1.007  1.7919 -0.1977 -0.3462
 1984SOL     OW17410   4.572   2.765   8.311 -0.6218 -0.1861 -0.5284
 1984SOL    HW117411   4.649   2.709   8.323  0.2894  1.1419 -0.2864
 1984SOL    HW217412   4.511   2.748   8.382  0.1934  1.3698  0.5319
 1985SOL     OW17413   0.114   1.870   4.710  0.0741 -0.7491 -0.0151
 1985SOL    HW117414   0.118   1.965   4.724  1.7750 -0.6203 -1.4215
 1985SOL    HW217415   0.171   1.863   4.634 -1.0949  1.5496 -1.1037
 1986SOL     OW17416   3.578   3.270   8.564 -0.7040  0.3468 -0.1152
 1986SOL    HW117417   3.611   3.310   8.643  1.4471 -1.0300 -0.3052
 1986SOL    HW217418   3.484   3.261   8.583 -0.0730 -4.0817  0.9725
 1987SOL     OW17419   3.055   0.171   4.955  0.2147  0.0261  0.0181
 1987SOL    HW117420   3.038   0.180   4.862 -0.1802 -0.2936  0.0595
 1987SOL    HW217421   3.061   0.262   4.985 -1.1242 -0.4406  1.7165
 1988SOL     OW17422   0.133   3.697   3.666  0.4610 -0.2766  0.1986
 1988SOL    HW117423   0.197   3.707   3.596  1.7960 -1.5725  1.2519
 1988SOL    HW217424   0.060   3.732   3.615 -0.0383 -1.9963 -0.2746
 1989SOL     OW17425   3.880   4.026   7.215 -0.4669  0.5613  0.1141
 1989SOL    HW117426   3.922   3.941   7.226  0.9177  1.0768 -1.0642
 1989SOL    HW217427   3.809   4.004   7.155 -0.0330 -1.1677  0.2290
 1990SOL     OW17428   0.230   2.809   7.704  0.0038  0.3928  0.5992
 1990SOL    HW117429   0.197   2.726   7.739  1.2008 -0.2506  0.1797
 1990SOL    HW217430   0.325   2.803   7.715 -0.1075 -0.2195  1.2775
 1991SOL     OW17431   1.963   2.332   8.900 -0.3423  0.4196  0.6235
 1991SOL    HW117432   1.988   2.286   8.981 -1.3588 -1.3398 -0.0671
 1991SOL    HW217433   1.898   2.268   8.872  0.0495 -0.1737  1.0553
 1992SOL     OW17434   0.358   4.290   4.106  0.5178 -0.3620 -0.2684
 1992SOL    HW117435   0.313   4.280   4.189 -0.3343  0.7227 -0.6053
 1992SOL    HW217436   0.347   4.206   4.062  0.4050 -0.1909 -0.5715
 1993SOL     OW17437   1.890   0.788   3.590 -0.5071 -0.5859 -0.0358
 1993SOL    HW117438   1.946   0.726   3.544  0.1785  0.1588 -0.1992
 1993SOL    HW217439   1.918   0.864   3.540  0.0204 -0.2946  0.6962
 1994SOL     OW17440   3.013   4.148   5.552 -0.3157 -0.3756 -0.2428
 1994SOL    HW117441   3.044   4.222   5.500  1.1390 -0.5126  0.4279
 1994SOL    HW217442   3.084   4.088   5.530 -0.1124  0.4807 -1.9339
 1995SOL     OW17443   2.196   4.158  16.527  0.5448  0.3931  0.2733
 1995SOL    HW117444   2.191   4.076  16.575 -3.6099 -0.2140 -1.1374
 1995SOL    HW217445   2.276   4.200  16.558  1.2654 -0.2623 -0.7390
 1996SOL     OW17446   3.757   4.694   9.346  0.1284 -0.3988  0.9626
 1996SOL    HW117447   3.826   4.668   9.407  0.2763  0.5408  1.1862
 1996SOL    HW217448   3.727   4.612   9.308  1.4765  0.3235 -1.6330
 1997SOL     OW17449   3.563   4.106   5.645 -0.0053  0.2455  0.7545
 1997SOL    HW117450   3.471   4.083   5.635  0.5105 -1.4475 -0.1655
 1997SOL    HW217451   3.594   4.051   5.573 -0.6302  2.0657 -0.8882
 1998SOL     OW17452   0.292   4.496  16.557  0.0029 -0.3167  1.0129
 1998SOL    HW117453   0.360   4.545  16.512 -1.7708  0.4276 -0.8552
 1998SOL    HW217454   0.267   4.560  16.624  1.5835  2.4098 -1.0194
 1999SOL     OW17455   2.316   3.477  16.436  0.1724  0.0990 -0.0750
 1999SOL    HW117456   2.246   3.540  16.420 -0.1931  0.0515  1.3148
 1999SOL    HW217457   2.345   3.498  16.525  0.6509  0.1807 -0.2512
 2000SOL     OW17458   0.159   1.616   4.363  0.2042  0.3867 -0.5094
 2000SOL    HW117459   0.173   1.523   4.378 -1.0485  0.3837  0.5973
 2000SOL    HW217460   0.072   1.620   4.323 -0.7634  0.6286  1.6275
 2001SOL     OW17461   4.131   0.255   5.034  0.0141  0.4870 -0.1724
 2001SOL    HW117462   4.125   0.235   5.127 -2.6506  0.3583 -0.3721
 2001SOL    HW217463   4.068   0.193   4.996  0.0740  0.3783 -0.0937
 2002SOL     OW17464   0.878   0.716   2.542 -0.4487  0.0714  0.1888
 2002SOL    HW117465   0.918   0.633   2.516 -1.4120 -0.1360 -0.6250
 2002SOL    HW217466   0.946   0.750   2.600 -3.0024 -0.1978  3.3632
 2003SOL     OW17467   3.036   0.929   9.003  0.3919 -0.3273  0.7605
 2003SOL    HW117468   3.081   0.883   9.074 -1.1176 -1.8845  0.7151
 2003SOL    HW217469   2.954   0.880   8.994  2.1245 -3.1388  0.2825
 2004SOL     OW17470   2.706   2.788  16.869 -0.5184  0.3991 -0.7464
 2004SOL    HW117471   2.622   2.743  16.876 -0.0255 -0.1327  1.7331
 2004SOL    HW217472   2.691   2.866  16.924 -2.2321  0.8568 -1.8603
 2005SOL     OW17473   0.597   4.128  13.535  0.3860 -0.2697 -0.6147
 2005SOL    HW117474   0.657   4.053  13.543  0.1935 -0.2090  1.5074
 2005SOL    HW217475   0.648   4.182  13.474  2.5415  0.2708  1.6439
 2006SOL     OW17476   2.730   3.420   8.376  0.2740 -0.2024 -0.2000
 2006SOL    HW117477   2.794   3.362   8.416 -1.4878 -0.7399  1.8354
 2006SOL    HW217478   2.669   3.435   8.449  1.0227 -0.8654  0.5626
 2007SOL     OW17479   3.860   3.723   6.311  0.9524 -0.7380 -0.5289
 2007SOL    HW117480   3.820   3.808   6.327 -0.2929 -1.6478  1.2146
 2007SOL    HW217481   3.801   3.660   6.352  0.2289 -2.0265 -3.5361
 2008SOL     OW17482   4.068   3.324   3.085  0.1196 -0.3489  0.1717
 2008SOL    HW117483   4.124   3.248   3.079  1.1522  0.0851  3.9509
 2008SOL    HW217484   4.091   3.368   3.167  0.7389  1.9777 -1.2337
 2009SOL     OW17485   2.552   4.625   3.597  0.1962  0.2487 -0.2385
 2009SOL    HW117486   2.615   4.685   3.636  0.6498 -1.1903  1.2320
 2009SOL    HW217487   2.474   4.681   3.592  0.8197  1.0140 -1.3893
 2010SOL     OW17488   0.808   1.949  15.510  0.0567 -0.1860  0.4878
 2010SOL    HW117489   0.891   1.931  15.554  1.5472 -0.2728 -2.3152
 2010SOL    HW217490   0.846   2.010  15.446 -0.1693  1.1323  1.6038
 2011SOL     OW17491   0.545   0.618   3.255  0.3016  0.1935 -0.7662
 2011SOL    HW117492   0.521   0.684   3.190 -1.2295 -1.2742 -1.6720
 2011SOL    HW217493   0.565   0.673   3.331 -0.8467 -0.5873  0.1017
 2012SOL     OW17494   4.667   0.426   3.617  0.0569 -0.3646 -0.4102
 2012SOL    HW117495   4.701   0.401   3.532 -0.4312 -0.1671 -0.6643
 2012SOL    HW217496   4.675   0.342   3.662  0.7809  0.0498  0.2395
 2013SOL     OW17497   0.142   3.321  10.741 -0.6960 -0.7666 -0.3027
 2013SOL    HW117498   0.138   3.337  10.835 -1.8599 -1.0177 -0.3080
 2013SOL    HW217499   0.123   3.411  10.718 -0.5463 -0.1929  1.8497
 2014SOL     OW17500   1.931   0.107   3.841 -0.1531 -0.0644 -0.1018
 2014SOL    HW117501   1.861   0.164   3.872  0.5273 -0.6498  2.5183
 2014SOL    HW217502   1.895   0.056   3.768 -1.1896 -0.4744  0.6846
 2015SOL     OW17503   2.480   2.230   9.371 -0.4284  0.6709 -0.3286
 2015SOL    HW117504   2.427   2.239   9.292 -0.2996 -1.1820 -0.6342
 2015SOL    HW217505   2.425   2.175   9.426  1.8666 -0.3719  0.9304
 2016SOL     OW17506   2.201   0.358  11.743 -0.6979  0.0354  0.3437
 2016SOL    HW117507   2.296   0.353  11.748 -0.5920  0.1216 -1.8213
 2016SOL    HW217508   2.183   0.438  11.693  4.8562 -0.1650 -1.9012
 2017SOL     OW17509   1.216   3.978   8.568 -0.2538  0.0825 -0.5858
 2017SOL    HW117510   1.295   3.945   8.525  1.4318  1.2166  1.6481
 2017SOL    HW217511   1.160   3.909   8.533 -0.7442  0.4425 -0.5148
 2018SOL     OW17512   4.510   1.123   8.377 -0.2644  0.2747  0.0826
 2018SOL    HW117513   4.479   1.033   8.367  0.9407 -0.2938  1.4701
 2018SOL    HW217514   4.496   1.129   8.471 -0.2290 -0.3209  0.1309
 2019SOL     OW17515   0.664   2.657  15.254  0.6905 -0.3790 -0.3512
 2019SOL    HW117516   0.664   2.730  15.316  0.7561  1.0461 -2.0279
 2019SOL    HW217517   0.597   2.598  15.288 -1.0873  1.4270 -0.7186
 2020SOL     OW17518   1.018   2.526  13.563 -0.0148  0.4820  0.4875
 2020SOL    HW117519   1.085   2.542  13.496 -0.8741  0.9933 -0.2523
 2020SOL    HW217520   1.057   2.577  13.634 -0.1385  1.3003 -0.0248
 2021SOL     OW17521   1.748   2.420   9.155  0.1596 -0.6575 -0.3280
 2021SOL    HW117522   1.700   2.392   9.077 -0.3334  2.0298 -0.9661
 2021SOL    HW217523   1.722   2.345   9.210  0.6674  0.0888  0.9151
 2022SOL     OW17524   4.472   2.886   7.064 -0.2920 -0.2984 -0.5224
 2022SOL    HW117525   4.500   2.799   7.038  1.1963 -0.1655  0.6363
 2022SOL    HW217526   4.390   2.906   7.019  0.0636  0.1267 -0.9886
 2023SOL     OW17527   2.518   2.237   4.858  0.1160 -0.0610 -0.0541
 2023SOL    HW117528   2.526   2.195   4.944  1.3155  0.9399  0.3148
 2023SOL    HW217529   2.592   2.294   4.875  0.0156 -0.2779  1.1425
 2024SOL     OW17530   1.077   1.740   4.618 -0.5858 -0.0404  0.2521
 2024SOL    HW117531   1.093   1.704   4.705  1.6140  1.6823  0.5437
 2024SOL    HW217532   1.130   1.819   4.615  0.4724 -0.7242  0.9248
 2025SOL     OW17533   4.428   0.722   7.869 -0.5333  0.3168  0.2914
 2025SOL    HW117534   4.433   0.627   7.865 -1.3999  0.3240 -0.8777
 2025SOL    HW217535   4.476   0.730   7.952 -3.3878  0.6070  1.9451
 2026SOL     OW17536   1.047   4.404   6.928  0.4382 -0.2555  0.4286
 2026SOL    HW117537   1.086   4.449   6.853 -0.0852  0.5034  0.6136
 2026SOL    HW217538   0.968   4.454   6.948 -1.4820 -2.9813 -0.2853
 2027SOL     OW17539   3.235   2.364   3.394  0.3595  0.3848 -0.9264
 2027SOL    HW117540   3.185   2.303   3.449  2.1825 -0.0895  0.2170
 2027SOL    HW217541   3.313   2.313   3.373 -0.5636 -1.8589  1.0852
 2028SOL     OW17542   0.986   2.566   4.921 -0.3012 -0.1886  0.5672
 2028SOL    HW117543   1.044   2.521   4.860  0.0883  1.1127 -0.0358
 2028SOL    HW217544   0.900   2.549   4.883  0.4258  0.8477 -1.5306
 2029SOL     OW17545   0.039   3.490   7.845  0.4122 -0.5412 -0.2736
 2029SOL    HW117546   0.129   3.490   7.812  0.4531 -0.3287 -0.1642
 2029SOL    HW217547   0.028   3.396   7.863 -0.5042 -0.6580 -1.4825
 2030SOL     OW17548   0.163   4.494   0.464 -0.6937  0.0366  0.0628
 2030SOL    HW117549   0.179   4.424   0.401 -0.8660  0.7192 -0.7384
 2030SOL    HW217550   0.091   4.457   0.516 -0.9350 -0.1430 -0.4060
 2031SOL     OW17551   3.204   3.461  16.969  0.0617 -0.0435 -1.0263
 2031SOL    HW117552   3.211   3.406  17.047  2.5779  0.2528 -1.0456
 2031SOL    HW217553   3.265   3.531  16.994 -1.5436  1.1596 -0.4753
 2032SOL     OW17554   4.386   1.888   9.698 -0.1465 -0.5310 -0.2469
 2032SOL    HW117555   4.413   1.974   9.666 -0.3033 -0.1660  0.5883
 2032SOL    HW217556   4.471   1.844   9.703  0.7745  1.2262 -0.5384
 2033SOL     OW17557   4.665   0.968   3.280  0.0905  0.3113  1.2966
 2033SOL    HW117558   0.008   0.897   3.282 -0.2268 -0.0135 -0.0857
 2033SOL    HW217559   4.635   0.959   3.371  1.6433 -2.9470  1.4639
 2034SOL     OW17560   2.913   4.093  17.527  0.2568 -0.0978  0.6463
 2034SOL    HW117561   2.916   4.095  17.622  0.7536 -1.0686  0.6450
 2034SOL    HW217562   2.878   4.181  17.508 -1.6848 -1.1692 -0.7375
 2035SOL     OW17563   0.425   1.425   8.584 -0.4368  0.3261 -0.3265
 2035SOL    HW117564   0.513   1.411   8.619 -0.7558 -1.2627 -0.1550
 2035SOL    HW217565   0.419   1.521   8.579  0.5706  0.2699 -2.4706
 2036SOL     OW17566   1.196   3.461   3.711  0.0746 -0.5395  0.5980
 2036SOL    HW117567   1.182   3.394   3.778  1.4585 -0.2692  1.1551
 2036SOL    HW217568   1.130   3.527   3.733  2.1207  1.7902 -0.2958
 2037SOL     OW17569   3.045   1.098   2.385 -0.0753  0.5149  0.3633
 2037SOL    HW117570   2.961   1.062   2.413 -0.0658 -0.6522 -1.1101
 2037SOL    HW217571   3.022   1.177   2.336  2.3406 -0.1244 -1.7917
 2038SOL     OW17572   1.268   1.896   7.066 -0.2779  0.4321 -0.1353
 2038SOL    HW117573   1.236   1.824   7.120 -0.9179 -0.3574 -1.5594
 2038SOL    HW217574   1.189   1.925   7.020 -0.8118 -0.5249  0.1858
 2039SOL     OW17575   3.432   4.222   3.369  0.1109  0.1341 -0.3813
 2039SOL    HW117576   3.342   4.225   3.336 -0.5178  1.6641  1.4783
 2039SOL    HW217577   3.480   4.200   3.289 -0.0575  0.6977 -0.6375
 2040SOL     OW17578   3.041   2.864   1.943 -0.1538 -0.3060 -0.1018
 2040SOL    HW117579   3.037   2.960   1.939 -0.9176 -0.3495 -0.2685
 2040SOL    HW217580   3.112   2.848   1.880  0.3129 -0.1173  0.3719
 2041SOL     OW17581   2.838   1.722   8.013 -0.0526  0.2741  0.1779
 2041SOL    HW117582   2.897   1.747   8.084  1.8163  0.8548 -1.5718
 2041SOL    HW217583   2.843   1.800   7.957 -1.4014 -0.0684 -0.4112
 2042SOL     OW17584   4.574   3.043   2.650  0.2516 -0.0230 -0.4787
 2042SOL    HW117585   4.596   2.992   2.573 -0.5722  0.4449 -1.0286
 2042SOL    HW217586   4.660   3.085   2.654  1.2917 -1.9877 -2.9557
 2043SOL     OW17587   2.572   2.176   8.757 -0.4789 -0.7859  0.8329
 2043SOL    HW117588   2.516   2.136   8.823 -1.0303 -0.6176  0.4768
 2043SOL    HW217589   2.558   2.271   8.763  0.2722 -0.6577  0.5319
 2044SOL     OW17590   0.759   4.642  13.647  0.7527  0.0389  0.2845
 2044SOL    HW117591   0.796   4.643  13.735 -1.1172  0.8866  1.0710
 2044SOL    HW217592   0.806   4.716  13.609  1.0542 -1.1800 -1.7135
 2045SOL     OW17593   0.343   2.943   3.296  0.5436 -0.4914  0.2977
 2045SOL    HW117594   0.380   2.860   3.324  1.1830 -0.2036  0.3078
 2045SOL    HW217595   0.404   3.011   3.324 -0.6511  1.4821 -1.8721
 2046SOL     OW17596   2.795   1.597   0.002  0.4605 -0.2603  0.2488
 2046SOL    HW117597   2.734   1.651   0.053  1.4764  0.3752  0.7950
 2046SOL    HW217598   2.858   1.662  17.659  0.7477 -0.0601  1.3368
 2047SOL     OW17599   0.084   4.065   6.058  0.6524 -0.0033 -0.4236
 2047SOL    HW117600   0.151   4.016   6.011  0.1612 -1.0140 -0.0634
 2047SOL    HW217601   0.053   4.123   5.989  0.5370 -0.7396 -0.9784
 2048SOL     OW17602   2.839   3.384   5.147 -0.1726 -0.2218  0.9160
 2048SOL    HW117603   2.786   3.326   5.093  1.5095 -2.2176  1.4197
 2048SOL    HW217604   2.797   3.469   5.131  1.1038 -0.0075 -1.3002
 2049SOL     OW17605   4.335   1.159  15.108 -0.1476  0.5517  0.1073
 2049SOL    HW117606   4.267   1.099  15.139  0.1802 -0.2767 -0.7896
 2049SOL    HW217607   4.299   1.184  15.023 -1.5708 -1.4739  0.0928
 2050SOL     OW17608   2.019   1.275  13.106 -0.4495  0.0050 -0.3301
 2050SOL    HW117609   2.104   1.230  13.109  0.2867  1.4410  0.1463
 2050SOL    HW217610   1.998   1.289  13.014 -1.6277  0.8681  0.0751
 2051SOL     OW17611   3.556   2.261   5.626 -0.4745 -0.4059 -0.0307
 2051SOL    HW117612   3.635   2.223   5.665 -1.4284  0.1978  2.4715
 2051SOL    HW217613   3.567   2.356   5.631 -0.7074 -0.3307 -0.9420
 2052SOL     OW17614   4.081   2.834   5.335  0.3930 -0.0723 -0.1563
 2052SOL    HW117615   4.130   2.752   5.344 -0.4972 -0.3900  1.6191
 2052SOL    HW217616   4.144   2.899   5.302 -0.7539  0.1812 -1.8430
 2053SOL     OW17617   0.547   0.102   5.301  0.1993  0.2323  0.7330
 2053SOL    HW117618   0.584   0.165   5.364  0.8012  0.0328  0.5791
 2053SOL    HW217619   0.599   0.025   5.321  0.0667  0.3880  1.7078
 2054SOL     OW17620   3.316   4.703   6.019 -0.5735 -0.3692 -0.1354
 2054SOL    HW117621   3.354   0.064   6.051 -0.7719  0.2488 -1.4866
 2054SOL    HW217622   3.382   4.641   6.051 -1.0063 -1.2015 -0.8749
 2055SOL     OW17623   3.913   0.063  12.506 -0.1272  0.0065  0.1208
 2055SOL    HW117624   3.997   0.033  12.470 -1.3475 -2.1496 -0.9521
 2055SOL    HW217625   3.896   0.002  12.578 -0.9452  1.3666  1.0720
 2056SOL     OW17626   2.021   3.114  16.354  0.4577  0.0216  0.2193
 2056SOL    HW117627   2.043   3.186  16.413 -0.4897  0.8311 -0.4109
 2056SOL    HW217628   2.104   3.112  16.307  0.1442  2.0098 -0.4345
 2057SOL     OW17629   1.249   2.125  13.644  0.8327 -0.0715  0.1228
 2057SOL    HW117630   1.318   2.191  13.651 -0.0516  0.9310 -0.6038
 2057SOL    HW217631   1.188   2.182  13.597 -1.0089 -1.0657  1.2899
 2058SOL     OW17632   4.012   2.495  11.003  0.1840 -0.0194  0.5965
 2058SOL    HW117633   4.107   2.500  10.998  0.4349 -4.0155  1.1955
 2058SOL    HW217634   3.991   2.402  11.015 -1.4972  0.4541  1.4878
 2059SOL     OW17635   3.997   1.762   3.501 -0.5574  0.4600  0.4388
 2059SOL    HW117636   4.055   1.715   3.440 -1.8692 -0.3860 -0.1517
 2059SOL    HW217637   4.030   1.716   3.578 -0.8607  2.7010  1.8838
 2060SOL     OW17638   1.710   1.851   6.999  0.3578  0.0667 -0.1264
 2060SOL    HW117639   1.631   1.888   7.040  0.2001 -2.0086  1.4615
 2060SOL    HW217640   1.773   1.910   7.041  1.2660 -1.1673  0.2429
 2061SOL     OW17641   3.160   1.572  10.870  0.2613  0.3519  0.3406
 2061SOL    HW117642   3.079   1.532  10.840  0.4179 -2.3915  3.5340
 2061SOL    HW217643   3.172   1.549  10.962  0.0515  2.6821  0.9615
 2062SOL     OW17644   0.077   2.939   8.151 -0.0798 -0.0044  0.6372
 2062SOL    HW117645   0.017   2.879   8.195  1.3700 -0.4615  2.0111
 2062SOL    HW217646   0.039   3.027   8.149  0.7376  0.4215  2.9974
 2063SOL     OW17647   3.004   2.962   1.588 -0.1157 -0.6075 -0.2357
 2063SOL    HW117648   3.014   2.875   1.549  0.2181 -0.1331 -1.2362
 2063SOL    HW217649   2.917   2.956   1.626  0.9936 -1.3183  2.1428
 2064SOL     OW17650   4.555   0.946   0.402 -0.5498  0.5167 -0.3367
 2064SOL    HW117651   4.519   0.869   0.446 -1.7272 -0.1909 -2.5332
 2064SOL    HW217652   4.546   0.922   0.310 -0.3034  1.1606 -0.5299
 2065SOL     OW17653   2.119   1.810   5.806  0.1324  0.3021 -0.2793
 2065SOL    HW117654   2.062   1.873   5.760  1.0239 -1.2718 -3.5223
 2065SOL    HW217655   2.206   1.838   5.779 -0.5469  0.4374 -2.3518
 2066SOL     OW17656   3.502   3.784   7.856 -0.5170  0.3589 -0.5563
 2066SOL    HW117657   3.486   3.719   7.788 -0.4449 -0.5301  0.2782
 2066SOL    HW217658   3.426   3.766   7.911 -0.4722 -0.2857 -0.7132
 2067SOL     OW17659   0.568   1.932   5.330  0.5535  0.5299 -0.0096
 2067SOL    HW117660   0.481   1.926   5.290  1.3346  0.1264 -1.6570
 2067SOL    HW217661   0.579   1.837   5.338 -0.7349  0.2859 -1.0730
 2068SOL     OW17662   2.652   2.553   2.810 -0.2696 -0.0102 -0.7033
 2068SOL    HW117663   2.654   2.496   2.886  0.6499 -0.5590 -1.1357
 2068SOL    HW217664   2.560   2.554   2.786 -0.2688 -0.1339 -0.7100
 2069SOL     OW17665   0.702   1.066  11.012  0.7119  0.4157 -0.1919
 2069SOL    HW117666   0.763   1.024  10.952  0.2500 -1.0413  0.3537
 2069SOL    HW217667   0.761   1.058  11.087 -0.5823  0.2188  0.7987
 2070SOL     OW17668   2.650   4.069   7.716 -0.2949  0.0668  0.7190
 2070SOL    HW117669   2.631   4.127   7.789 -0.1551  0.3012  0.5684
 2070SOL    HW217670   2.586   3.999   7.728  0.6918 -1.0358 -0.4738
 2071SOL     OW17671   0.821   4.377   7.240 -0.3036  0.3155  0.0592
 2071SOL    HW117672   0.897   4.405   7.291 -0.4733 -0.6194  0.8258
 2071SOL    HW217673   0.818   4.449   7.177  0.3530  0.2989  0.0071
 2072SOL     OW17674   1.708   1.781  12.853  0.0943 -0.0855  0.4609
 2072SOL    HW117675   1.654   1.804  12.777 -2.2823 -0.9705  1.8900
 2072SOL    HW217676   1.653   1.800  12.929 -0.1748  2.6512 -0.4176
 2073SOL     OW17677   3.133   4.709   1.846 -0.0086  0.2610  0.7738
 2073SOL    HW117678   3.105   4.665   1.926  0.0371  0.7989  1.0879
 2073SOL    HW217679   3.227   4.691   1.853 -0.2198 -0.6833  1.1977
 2074SOL     OW17680   4.639   3.544   6.027 -0.0000 -0.4642  0.0097
 2074SOL    HW117681   4.619   3.476   5.962 -0.7899 -0.6285  0.4185
 2074SOL    HW217682   4.601   3.619   5.981 -0.5111 -0.8802 -0.2461
 2075SOL     OW17683   3.935   4.284   8.267 -0.3544  0.4019  0.1329
 2075SOL    HW117684   4.026   4.284   8.236 -0.3356  0.8677  0.1920
 2075SOL    HW217685   3.893   4.233   8.197 -0.4079  1.6756 -0.7568
 2076SOL     OW17686   4.209   1.612   4.611  0.1395  0.2818  0.2546
 2076SOL    HW117687   4.143   1.633   4.677  1.5293 -1.4148  2.1787
 2076SOL    HW217688   4.280   1.581   4.668  0.8257 -1.1024 -1.3844
 2077SOL     OW17689   4.500   3.321   3.668  0.4049  0.4347  0.3417
 2077SOL    HW117690   4.447   3.390   3.707  0.7087 -0.3427  2.1734
 2077SOL    HW217691   4.431   3.260   3.643  1.9000 -0.3144 -1.9320
 2078SOL     OW17692   1.746   4.117   5.114 -0.1582  0.0832 -1.0125
 2078SOL    HW117693   1.712   4.041   5.163 -1.8311  1.9621  0.7640
 2078SOL    HW217694   1.666   4.160   5.083 -0.1848  0.2383 -0.7306
 2079SOL     OW17695   0.025   1.212   3.122  0.6945 -0.1090  0.4845
 2079SOL    HW117696   4.684   1.151   3.161  1.2156 -0.0597  1.3942
 2079SOL    HW217697   0.104   1.159   3.113  1.2940  1.2104 -2.0213
 2080SOL     OW17698   3.276   4.674   7.687 -0.4248 -0.4778 -0.2419
 2080SOL    HW117699   3.256   4.592   7.731 -0.0838 -0.5493 -0.2220
 2080SOL    HW217700   3.182   4.692   7.675 -0.0907  0.6914 -1.0415
 2081SOL     OW17701   2.899   3.777  17.619 -0.2287 -0.5344  0.5765
 2081SOL    HW117702   2.856   3.699  17.586 -2.3045  0.6832  0.3939
 2081SOL    HW217703   2.949   3.817  17.548 -1.0562  0.6474  0.6447
 2082SOL     OW17704   3.115   1.915  17.024 -0.1877  0.4416  0.5059
 2082SOL    HW117705   3.020   1.923  17.034 -0.2822  0.5177 -0.4242
 2082SOL    HW217706   3.148   2.005  17.025  2.3257 -0.4194 -2.3142
 2083SOL     OW17707   3.739   3.803   4.792  0.4557 -0.5529 -0.2249
 2083SOL    HW117708   3.700   3.890   4.781 -0.3788 -0.9864 -0.7531
 2083SOL    HW217709   3.767   3.803   4.883  4.9107 -1.2333 -1.5888
 2084SOL     OW17710   1.089   0.017   7.696 -0.9230  0.2060  0.0911
 2084SOL    HW117711   1.030   4.702   7.761  0.4756 -2.4532 -0.1222
 2084SOL    HW217712   1.174   4.698   7.714 -0.9961  0.0643  0.1199
 2085SOL     OW17713   1.710   3.128   2.837 -0.4243 -0.0903  0.0343
 2085SOL    HW117714   1.744   3.149   2.750  0.2307 -2.0997 -0.1909
 2085SOL    HW217715   1.645   3.198   2.849  0.2629  0.3895  0.9638
 2086SOL     OW17716   4.193   1.328   8.088 -0.1095  0.3683  0.0702
 2086SOL    HW117717   4.167   1.242   8.121  1.2937 -0.0445  0.1408
 2086SOL    HW217718   4.243   1.349   8.168 -1.3427 -0.0173  0.9395
 2087SOL     OW17719   0.495   3.295   0.574 -0.4349 -0.4871  0.1714
 2087SOL    HW117720   0.507   3.200   0.567 -1.5158 -0.6423  0.4491
 2087SOL    HW217721   0.577   3.320   0.617  0.4049  2.1548 -3.0289
 2088SOL     OW17722   2.073   1.048  13.741 -0.3718  0.0883 -0.0159
 2088SOL    HW117723   2.115   0.997  13.811 -0.8921 -2.0693 -1.2728
 2088SOL    HW217724   1.995   1.072  13.791  0.7663 -0.6056  2.0901
 2089SOL     OW17725   3.754   0.513  12.886 -0.0968  0.5368 -0.5640
 2089SOL    HW117726   3.700   0.449  12.839 -0.2204  0.8876 -0.8980
 2089SOL    HW217727   3.708   0.587  12.846 -0.6041 -0.7878 -2.4670
 2090SOL     OW17728   1.040   3.322   8.144 -0.5193 -0.3507  0.2466
 2090SOL    HW117729   1.115   3.262   8.141  0.2507  0.4950  2.8116
 2090SOL    HW217730   0.995   3.294   8.223  1.0108 -2.9434  0.2127
 2091SOL     OW17731   4.480   3.201  16.856 -0.2857  0.4891 -0.1483
 2091SOL    HW117732   4.477   3.129  16.919  1.5902 -0.6300 -1.3267
 2091SOL    HW217733   4.574   3.211  16.842  0.1196  1.1102  2.9412
 2092SOL     OW17734   0.234   0.191   5.220 -0.6006 -0.1445  1.0151
 2092SOL    HW117735   0.237   0.203   5.125 -0.1613 -1.8026  0.8180
 2092SOL    HW217736   0.328   0.183   5.236  0.2296  2.4863 -2.4633
 2093SOL     OW17737   1.645   0.049   8.864  0.0436  0.4914 -0.6915
 2093SOL    HW117738   1.686   4.707   8.923  0.4397  0.4295 -1.0373
 2093SOL    HW217739   1.695   0.126   8.892 -1.7912  1.7654 -0.9131
 2094SOL     OW17740   3.069   1.825   3.560 -0.1499  0.0794 -0.2594
 2094SOL    HW117741   3.033   1.886   3.625  0.6804 -2.1773  2.3502
 2094SOL    HW217742   2.997   1.765   3.539 -0.9229 -0.2200  3.1485
 2095SOL     OW17743   3.536   2.410  13.855 -0.1862 -0.0224  1.1368
 2095SOL    HW117744   3.471   2.434  13.789  2.4342  1.6389 -0.8633
 2095SOL    HW217745   3.563   2.497  13.883 -1.2498  1.0576 -1.2295
 2096SOL     OW17746   3.841   2.493   4.213  0.1007 -0.3496 -0.5632
 2096SOL    HW117747   3.762   2.460   4.170 -1.6069 -0.7452  2.8535
 2096SOL    HW217748   3.898   2.516   4.140  3.9486 -0.8183  2.3206
 2097SOL     OW17749   1.587   4.135   2.768 -0.6299 -0.2318 -0.0030
 2097SOL    HW117750   1.534   4.168   2.840  0.1115  1.1190 -0.0636
 2097SOL    HW217751   1.656   4.085   2.811 -0.8736  0.8519  1.6714
 2098SOL     OW17752   2.322   3.403   8.426  0.3976 -0.1362  0.4559
 2098SOL    HW117753   2.374   3.449   8.360  1.1369  0.3377  1.3813
 2098SOL    HW217754   2.291   3.475   8.480  1.0668 -0.3244  1.0893
 2099SOL     OW17755   4.136   1.372   4.446 -0.4096  0.6021  0.0741
 2099SOL    HW117756   4.041   1.371   4.450 -0.3704 -0.9557  0.6601
 2099SOL    HW217757   4.157   1.448   4.499  0.0281 -0.5277  1.5182
 2100SOL     OW17758   1.529   0.914   6.769 -0.4199  0.0210 -0.1193
 2100SOL    HW117759   1.611   0.954   6.800  0.5028 -0.7990 -1.4858
 2100SOL    HW217760   1.505   0.980   6.705 -0.1901 -0.0195 -0.2482
 2101SOL     OW17761   4.371   0.011   6.186  0.0245 -0.0615  0.2738
 2101SOL    HW117762   4.318   0.005   6.265  0.5431 -0.1588  0.6170
 2101SOL    HW217763   4.415   4.647   6.198  0.7795  0.5504  1.8780
 2102SOL     OW17764   2.344   0.254  14.601 -0.1992  0.4555  0.2199
 2102SOL    HW117765   2.271   0.309  14.629 -0.3455 -0.1650  1.0684
 2102SOL    HW217766   2.330   0.237  14.508 -1.1362  1.5380  0.1613
 2103SOL     OW17767   1.351   4.280  15.428  0.3314 -0.3208 -0.3446
 2103SOL    HW117768   1.346   4.313  15.338 -0.5723  1.1692  0.2631
 2103SOL    HW217769   1.377   4.195  15.392  0.1871 -2.1714  3.9149
 2104SOL     OW17770   1.189   4.720  11.970  0.0842 -0.1473 -0.7993
 2104SOL    HW117771   1.116   4.658  11.963 -1.7234  1.6616  2.4808
 2104SOL    HW217772   1.255   4.655  11.944  0.5521  0.6926 -1.7110
 2105SOL     OW17773   2.439   1.095   0.822  0.5253  0.1270  0.0036
 2105SOL    HW117774   2.379   1.169   0.809  1.0413  0.2175 -1.8787
 2105SOL    HW217775   2.386   1.036   0.876  1.8026 -1.6464 -0.6808
 2106SOL     OW17776   0.710   3.948  10.337  0.5991 -0.1347 -0.2937
 2106SOL    HW117777   0.733   4.036  10.308  1.4360  0.0785  1.0066
 2106SOL    HW217778   0.697   3.909  10.250  1.2720  0.1334 -0.5124
 2107SOL     OW17779   3.081   2.791  16.683 -0.1820 -0.3801 -0.0054
 2107SOL    HW117780   3.173   2.804  16.707 -0.5511  0.7800  0.8123
 2107SOL    HW217781   3.065   2.863  16.622  3.9579  1.1997  0.7721
 2108SOL     OW17782   4.522   2.222   5.237 -1.0167 -0.4514  0.6040
 2108SOL    HW117783   4.520   2.316   5.218  0.3282 -0.5608 -0.1365
 2108SOL    HW217784   4.458   2.179   5.180  0.7162 -1.1111 -0.8579
 2109SOL     OW17785   2.852   1.362  16.420 -0.2085 -0.1541 -0.0640
 2109SOL    HW117786   2.924   1.330  16.366  1.0919 -0.7080  1.9810
 2109SOL    HW217787   2.806   1.280  16.438 -0.5987  0.2360  0.7370
 2110SOL     OW17788   1.473   4.186   7.649  0.3136  0.1519  0.1231
 2110SOL    HW117789   1.411   4.254   7.676  1.0099  0.0589  2.0040
 2110SOL    HW217790   1.473   4.128   7.726 -3.0372  1.3197  0.9908
 2111SOL     OW17791   3.553   1.825  15.849 -0.0609 -0.7259 -0.2590
 2111SOL    HW117792   3.606   1.883  15.794 -0.5875  0.8717  0.9029
 2111SOL    HW217793   3.478   1.809  15.793 -1.5059  0.2917  1.3892
 2112SOL     OW17794   2.234   0.868  14.897  0.2707 -0.1759 -0.3627
 2112SOL    HW117795   2.309   0.812  14.878 -0.1261 -1.0844  0.6989
 2112SOL    HW217796   2.231   0.876  14.993  0.0787 -2.8182 -0.1476
 2113SOL     OW17797   3.951   2.902   8.162 -0.1203 -0.5536 -1.1565
 2113SOL    HW117798   4.029   2.855   8.132 -0.5014 -2.0038  0.1087
 2113SOL    HW217799   3.887   2.832   8.173  0.7806 -1.2252 -0.2669
 2114SOL     OW17800   3.866   3.573   4.653 -0.1551  0.4724  0.1568
 2114SOL    HW117801   3.780   3.546   4.623 -0.0924  1.4250 -0.8688
 2114SOL    HW217802   3.844   3.664   4.670  0.0433  0.2929  1.3791
 2115SOL     OW17803   3.840   1.329   8.130 -0.2901  0.0776  0.0357
 2115SOL    HW117804   3.755   1.291   8.153 -0.0621  0.3604  1.3786
 2115SOL    HW217805   3.880   1.334   8.217 -0.4017  1.5279  0.0139
 2116SOL     OW17806   3.491   2.247   3.703  0.2889  0.4177 -0.0751
 2116SOL    HW117807   3.557   2.235   3.634  0.0095  2.3629 -0.6784
 2116SOL    HW217808   3.527   2.329   3.737  0.8609  0.1114  0.0641
 2117SOL     OW17809   2.310   0.946   2.555 -0.2581  0.2299 -0.4381
 2117SOL    HW117810   2.220   0.923   2.577  0.0531 -1.1918 -0.6997
 2117SOL    HW217811   2.338   0.993   2.633  0.2252  0.1124 -0.5450
 2118SOL     OW17812   2.234   2.927  16.540  0.3555  0.1380 -1.0113
 2118SOL    HW117813   2.317   2.913  16.495  0.9574 -1.1283  0.5016
 2118SOL    HW217814   2.240   3.023  16.541  1.0747  0.0876 -0.1510
 2119SOL     OW17815   1.112   4.551  10.595  0.3419 -0.2036  0.1401
 2119SOL    HW117816   1.200   4.519  10.616  0.5916 -0.1573 -0.8317
 2119SOL    HW217817   1.132   4.572  10.503 -0.3576  0.2487  0.0924
 2120SOL     OW17818   3.429   3.689  17.013  0.4254  0.3902 -0.1846
 2120SOL    HW117819   3.433   3.620  17.079  0.6496  2.3584  1.8393
 2120SOL    HW217820   3.403   3.769  17.059 -0.4129 -0.0747  0.1503
 2121SOL     OW17821   0.162   0.851   4.221  0.2005  0.0550 -0.0014
 2121SOL    HW117822   0.169   0.768   4.173  0.4613  1.1992 -1.9255
 2121SOL    HW217823   0.174   0.916   4.152 -1.5570 -1.8932 -2.1702
 2122SOL     OW17824   1.791   1.392   8.270 -0.3291  0.1162  0.3306
 2122SOL    HW117825   1.866   1.357   8.317  0.2209  0.9788  0.1099
 2122SOL    HW217826   1.805   1.487   8.273 -1.8072  0.4635 -3.2643
 2123SOL     OW17827   0.678   1.705   7.096 -0.1680  0.1609  0.1112
 2123SOL    HW117828   0.687   1.612   7.076  0.0807  0.3121 -0.4727
 2123SOL    HW217829   0.593   1.713   7.140 -0.6984 -0.8156 -0.7313
 2124SOL     OW17830   2.159   4.711  13.877  1.0450 -0.2179 -0.6867
 2124SOL    HW117831   2.203   4.626  13.874 -0.0744 -0.7910 -0.6066
 2124SOL    HW217832   2.195   0.029  13.797 -0.0806  0.2547 -0.9524
 2125SOL     OW17833   2.061   1.636  15.724 -0.4275  0.3277  0.5039
 2125SOL    HW117834   2.004   1.661  15.652  0.3580  1.6222  0.3320
 2125SOL    HW217835   1.996   1.598  15.784 -2.4341  0.7221 -1.4397
 2126SOL     OW17836   0.795   1.062   6.874 -0.1127 -0.4416  0.0262
 2126SOL    HW117837   0.838   1.103   6.949 -0.1940 -0.8540  0.3004
 2126SOL    HW217838   0.825   1.108   6.796 -0.6089 -0.4752 -0.1842
 2127SOL     OW17839   0.810   2.541  15.441 -0.0616  0.0683  0.3626
 2127SOL    HW117840   0.779   2.600  15.372  0.6608 -1.2153 -1.0699
 2127SOL    HW217841   0.902   2.532  15.416  0.0117 -2.5681  1.6258
 2128SOL     OW17842   1.523   3.778  12.804 -0.0594  0.4696  0.0863
 2128SOL    HW117843   1.474   3.771  12.886  0.7491 -3.2864  0.2708
 2128SOL    HW217844   1.526   3.873  12.805 -0.5869  0.4842  0.4857
 2129SOL     OW17845   4.321   4.497  14.307  0.2286  0.4786 -0.0651
 2129SOL    HW117846   4.400   4.539  14.273  1.9183 -1.7595  1.0678
 2129SOL    HW217847   4.300   4.438  14.235  1.2610 -0.9407  0.7743
 2130SOL     OW17848   1.982   3.348   7.520 -0.4831 -0.4416  0.0280
 2130SOL    HW117849   1.975   3.329   7.614  0.1850 -1.0963 -0.0577
 2130SOL    HW217850   1.961   3.264   7.479  1.4249 -1.8876  1.9440
 2131SOL     OW17851   1.251   3.225   3.929 -0.2481 -0.6393 -0.5088
 2131SOL    HW117852   1.190   3.162   3.893 -0.5678  0.1035 -1.2762
 2131SOL    HW217853   1.202   3.266   4.001  1.5185 -0.2146  0.4505
 2132SOL     OW17854   1.915   3.083  13.002 -0.2777 -0.2495  0.1647
 2132SOL    HW117855   2.002   3.087  13.041 -0.0059  0.6954 -0.5489
 2132SOL    HW217856   1.863   3.114  13.076 -1.7886 -0.4400 -0.8096
 2133SOL     OW17857   0.850   4.454   4.856 -0.0455  0.3573 -0.1256
 2133SOL    HW117858   0.806   4.533   4.823  1.2058  1.3629  0.6165
 2133SOL    HW217859   0.779   4.402   4.894  0.4625  1.2785  2.0619
 2134SOL     OW17860   1.953   0.994  13.025  0.9788 -0.7727  0.5721
 2134SOL    HW117861   1.975   0.942  13.102  1.2285 -0.2883  0.8294
 2134SOL    HW217862   1.937   1.079  13.067 -0.3255 -0.1923 -1.0988
 2135SOL     OW17863   3.372   1.117   3.251  0.1953 -0.2541  0.1196
 2135SOL    HW117864   3.363   1.210   3.273  1.9542  0.0398 -0.4495
 2135SOL    HW217865   3.284   1.091   3.224  0.0732  0.2397  0.0533
 2136SOL     OW17866   3.573   2.969   6.152 -0.2967  0.0232 -0.3427
 2136SOL    HW117867   3.606   2.925   6.231 -0.1198 -1.9040 -1.4821
 2136SOL    HW217868   3.483   2.974   6.185 -0.7710  0.7982 -1.7356
 2137SOL     OW17869   2.464   4.106  11.545  0.1063  0.5768 -0.3554
 2137SOL    HW117870   2.502   4.064  11.622 -1.7647 -0.5735 -0.0679
 2137SOL    HW217871   2.421   4.182  11.584 -0.6771  0.6268 -1.3306
 2138SOL     OW17872   1.412   0.657   9.038 -0.2186  0.4877 -0.2125
 2138SOL    HW117873   1.448   0.723   9.098 -1.6990  2.2136 -1.2156
 2138SOL    HW217874   1.476   0.673   8.968  0.3524 -0.0083  0.1878
 2139SOL     OW17875   1.133   2.264  13.234 -0.1587  0.2627 -0.4686
 2139SOL    HW117876   1.141   2.180  13.188 -1.3193  0.4528 -1.0079
 2139SOL    HW217877   1.193   2.327  13.194  2.0937 -0.1823  2.1790
 2140SOL     OW17878   3.111   0.537  15.289  0.2146  0.2713 -0.0636
 2140SOL    HW117879   3.079   0.627  15.287 -2.1159 -0.5487  1.2572
 2140SOL    HW217880   3.106   0.510  15.381 -0.5999 -1.6327 -0.6750
 2141SOL     OW17881   1.187   1.829  15.855 -0.1191  0.2922 -0.8474
 2141SOL    HW117882   1.093   1.823  15.873  0.3217 -0.1494  1.2909
 2141SOL    HW217883   1.212   1.737  15.840 -1.7397 -0.2116 -0.4750
 2142SOL     OW17884   2.439   3.492   7.074  0.3879 -0.5409  0.1227
 2142SOL    HW117885   2.425   3.442   7.154 -0.5826  0.6615  0.7062
 2142SOL    HW217886   2.511   3.540   7.116  0.8859 -0.1638 -1.1442
 2143SOL     OW17887   1.935   0.957   0.996  0.2137  0.2584  0.2471
 2143SOL    HW117888   2.002   0.903   1.038 -0.6854  0.5969  2.1201
 2143SOL    HW217889   1.862   0.895   1.001 -1.0215  1.4475 -3.3157
 2144SOL     OW17890   0.810   2.837   4.049 -0.4921 -0.2680 -0.5277
 2144SOL    HW117891   0.798   2.765   3.987 -0.5877 -1.5264  0.9593
 2144SOL    HW217892   0.903   2.831   4.072 -0.6505 -0.5205  0.0535
 2145SOL     OW17893   0.177   2.616  11.479  0.3587 -0.0105  0.1876
 2145SOL    HW117894   0.223   2.539  11.444  0.1189 -0.7094  1.4085
 2145SOL    HW217895   0.140   2.576  11.558  1.1526  0.3365  0.7462
 2146SOL     OW17896   2.387   1.081  17.018  0.1066  0.7089 -0.4193
 2146SOL    HW117897   2.320   1.014  17.032  0.5539  1.0114  3.2451
 2146SOL    HW217898   2.406   1.103  17.109 -0.6904 -3.4711  0.7640
 2147SOL     OW17899   1.819   0.894   7.199 -0.4877  0.7483 -0.3449
 2147SOL    HW117900   1.830   0.799   7.196 -0.5952  0.7364 -0.3625
 2147SOL    HW217901   1.906   0.922   7.172 -0.2746  0.1139 -0.3169
 2148SOL     OW17902   4.041   2.154  17.345  0.3642  0.0189 -0.1071
 2148SOL    HW117903   4.122   2.147  17.294 -0.3394  0.1421 -1.2388
 2148SOL    HW217904   4.007   2.243  17.337 -1.1785 -0.7267 -1.7080
 2149SOL     OW17905   1.951   3.526   2.222  0.1307 -0.2698  0.5780
 2149SOL    HW117906   2.008   3.533   2.298 -1.5340  0.9202  1.7166
 2149SOL    HW217907   2.008   3.574   2.162  0.7015 -0.8281  0.6709
 2150SOL     OW17908   3.095   4.428  10.181  0.3007 -0.2746  0.0993
 2150SOL    HW117909   3.151   4.351  10.172  1.7950  0.9620 -1.2071
 2150SOL    HW217910   3.034   4.409  10.109 -2.1373 -1.4153  2.4783
 2151SOL     OW17911   3.108   1.681   4.295 -0.3444  0.2871 -0.5719
 2151SOL    HW117912   3.037   1.694   4.357  0.3280  0.7695  0.0933
 2151SOL    HW217913   3.143   1.770   4.288  0.9740 -0.1806 -0.0733
 2152SOL     OW17914   3.817   1.291  17.415 -0.1878 -0.4073 -0.0370
 2152SOL    HW117915   3.897   1.282  17.363  1.0977  0.0524  1.8755
 2152SOL    HW217916   3.765   1.350  17.359  0.6616 -0.4452 -0.8622
 2153SOL     OW17917   1.102   3.909   3.072 -0.6002 -0.7348 -0.3643
 2153SOL    HW117918   1.078   3.975   3.138  0.7381  0.7496 -1.3789
 2153SOL    HW217919   1.108   3.829   3.125  0.8053 -1.6783 -1.9797
 2154SOL     OW17920   0.392   1.456   5.768  0.2217 -0.3407 -0.6340
 2154SOL    HW117921   0.452   1.390   5.733  0.2975 -0.6653  0.1125
 2154SOL    HW217922   0.420   1.532   5.717  0.4609 -0.6988 -1.0325
 2155SOL     OW17923   4.295   1.275   2.314  0.1757  0.7910 -0.3052
 2155SOL    HW117924   4.209   1.296   2.351  0.2191  1.5745 -0.6605
 2155SOL    HW217925   4.277   1.209   2.248 -1.7190  1.9078 -0.8840
 2156SOL     OW17926   2.887   4.551   3.636  0.0323 -0.1318 -0.5910
 2156SOL    HW117927   2.846   4.633   3.608  1.7199  1.0844  0.5654
 2156SOL    HW217928   2.873   4.487   3.567  0.2898 -0.4035 -0.3916
 2157SOL     OW17929   2.246   0.640  16.112  0.1281  0.0202  0.0157
 2157SOL    HW117930   2.189   0.717  16.115 -1.2915 -1.0403 -0.1477
 2157SOL    HW217931   2.209   0.595  16.037  1.4327  1.9215 -1.7492
 2158SOL     OW17932   3.667   0.330   2.262  0.7344  0.0824  0.5497
 2158SOL    HW117933   3.611   0.343   2.186 -1.8678  0.8906  2.6035
 2158SOL    HW217934   3.729   0.263   2.233 -1.0844 -0.9734 -0.8884
 2159SOL     OW17935   4.604   0.716   3.983 -0.9199 -0.1923 -0.0314
 2159SOL    HW117936   4.698   0.733   3.983 -0.8880 -0.3824  0.3674
 2159SOL    HW217937   4.575   0.801   3.951 -0.1063 -0.2453 -0.9285
 2160SOL     OW17938   3.412   2.183   8.165  0.1646 -0.3973 -0.1093
 2160SOL    HW117939   3.407   2.088   8.176 -0.1769 -0.3840 -0.1554
 2160SOL    HW217940   3.421   2.213   8.256  0.4154  0.7998 -0.5303
 2161SOL     OW17941   1.604   0.635   8.435 -0.0257  0.6271 -0.2529
 2161SOL    HW117942   1.613   0.653   8.529 -0.8900 -0.6889  0.0876
 2161SOL    HW217943   1.696   0.613   8.422  0.9201  3.1731  2.1669
 2162SOL     OW17944   3.141   2.210   3.652  0.2103 -0.0955 -0.3907
 2162SOL    HW117945   3.108   2.282   3.706 -2.2464 -0.0523 -1.9479
 2162SOL    HW217946   3.095   2.135   3.689  2.4326 -0.4735  1.6181
 2163SOL     OW17947   0.310   3.839   5.051  0.0828  0.2340 -0.1135
 2163SOL    HW117948   0.339   3.760   5.096  0.2122 -0.6267 -1.7211
 2163SOL    HW217949   0.377   3.835   4.984  1.5182 -0.3309  1.3614
 2164SOL     OW17950   3.909   1.786  15.256  0.0021 -0.6093  0.0227
 2164SOL    HW117951   3.957   1.783  15.173  1.2794  0.4773  0.7209
 2164SOL    HW217952   3.929   1.875  15.285  1.8051 -2.0568  3.1904
 2165SOL     OW17953   1.649   2.263   2.124  0.2280 -0.2571  0.3815
 2165SOL    HW117954   1.727   2.246   2.177  2.0780  2.3794 -1.5550
 2165SOL    HW217955   1.635   2.174   2.092 -4.5247 -0.1740  2.2482
 2166SOL     OW17956   0.469   1.632  10.900  0.2356 -0.5522 -0.1467
 2166SOL    HW117957   0.450   1.539  10.911  2.0681 -0.8744  0.3314
 2166SOL    HW217958   0.542   1.630  10.838 -0.0801  1.5597 -0.6042
 2167SOL     OW17959   4.240   1.926  15.856 -0.2801  0.0075 -0.5186
 2167SOL    HW117960   4.309   1.979  15.815 -1.3060 -0.6744 -3.1500
 2167SOL    HW217961   4.280   1.840  15.842 -0.5718  0.0159 -1.3925
 2168SOL     OW17962   2.834   2.093   2.425  0.6104 -0.3375  0.5000
 2168SOL    HW117963   2.905   2.058   2.371  0.0126 -0.5607 -0.1496
 2168SOL    HW217964   2.798   2.021   2.476  1.1791 -1.8638 -1.2307
 2169SOL     OW17965   3.064   2.933   4.191  0.2692  0.0913  0.6413
 2169SOL    HW117966   3.139   2.899   4.141 -0.7815  0.0903 -0.9563
 2169SOL    HW217967   3.015   2.971   4.118  0.2312  0.0685  0.6550
 2170SOL     OW17968   0.684   2.477   2.725  0.0735 -0.0023 -0.6721
 2170SOL    HW117969   0.746   2.467   2.653  1.9835  2.0632  0.6773
 2170SOL    HW217970   0.694   2.403   2.785  2.8624 -0.9824 -2.3475
 2171SOL     OW17971   1.243   1.390  15.555 -0.1419  0.0771 -0.8211
 2171SOL    HW117972   1.174   1.324  15.555  0.0237 -0.0886  0.2241
 2171SOL    HW217973   1.235   1.435  15.471 -0.3473  2.0887  0.2587
 2172SOL     OW17974   3.019   0.313   6.314 -0.5320  0.2415  0.6498
 2172SOL    HW117975   2.965   0.251   6.265  0.1899 -0.7203  1.0566
 2172SOL    HW217976   2.962   0.389   6.322  1.0864  1.6130 -0.8283
 2173SOL     OW17977   3.080   4.546  11.356  0.1160  0.7170  0.3543
 2173SOL    HW117978   3.005   4.575  11.408 -0.6864 -0.2524 -0.2737
 2173SOL    HW217979   3.044   4.469  11.311  2.5375 -0.3279  0.2229
 2174SOL     OW17980   3.738   4.472   4.259  0.2647  0.5635 -0.3266
 2174SOL    HW117981   3.818   4.495   4.306 -0.4360 -2.4821  2.3515
 2174SOL    HW217982   3.769   4.434   4.176  1.4609 -0.2787  0.5068
 2175SOL     OW17983   4.266   0.256   1.453 -0.2854  0.6752  0.1224
 2175SOL    HW117984   4.300   0.264   1.542 -1.0382 -1.0391  0.5806
 2175SOL    HW217985   4.172   0.247   1.472 -0.7852  2.8657 -1.4283
 2176SOL     OW17986   1.858   1.557   4.128  0.4028  0.4526 -0.3052
 2176SOL    HW117987   1.818   1.517   4.205  1.5482  0.8510  0.4943
 2176SOL    HW217988   1.915   1.491   4.088 -0.8461 -0.6613 -0.2304
 2177SOL     OW17989   3.485   1.337  17.233 -0.4952  0.4743 -0.3568
 2177SOL    HW117990   3.449   1.361  17.147 -1.6492 -0.1734 -0.0585
 2177SOL    HW217991   3.579   1.349  17.228 -0.6580  1.8703 -0.2007
 2178SOL     OW17992   1.010   2.503   3.995  0.0704 -0.1713  0.2215
 2178SOL    HW117993   1.044   2.572   3.937  0.1463 -0.6195 -0.2696
 2178SOL    HW217994   0.926   2.487   3.952  0.4500 -2.1489  0.2013
 2179SOL     OW17995   0.967   1.517   4.036  0.0395 -0.2908 -0.2395
 2179SOL    HW117996   0.984   1.534   4.129  0.5827 -0.7246 -0.2558
 2179SOL    HW217997   0.939   1.426   4.045 -0.6208 -0.1070 -0.4045
 2180SOL     OW17998   4.720   1.820   3.795  0.2706  0.3492 -0.1716
 2180SOL    HW117999   4.642   1.783   3.836 -0.4499  1.3634 -0.6365
 2180SOL    HW218000   0.049   1.852   3.869  0.7788 -0.5060 -0.1458
 2181SOL     OW18001   1.089   4.508   3.197 -0.3337 -0.5923  0.1886
 2181SOL    HW118002   1.056   4.469   3.278  1.6234 -0.1741  1.1773
 2181SOL    HW218003   1.129   4.436   3.147  0.4739  0.5230 -0.7744
 2182SOL     OW18004   0.891   2.309  15.562 -0.8881 -0.0428  0.0119
 2182SOL    HW118005   0.838   2.371  15.512 -1.0915 -0.5025 -0.3394
 2182SOL    HW218006   0.902   2.241  15.496 -1.2106  0.4684 -0.5706
 2183SOL     OW18007   2.107   3.357   0.095 -0.2056  0.3566 -0.1410
 2183SOL    HW118008   2.191   3.339   0.137 -0.2333  0.4383 -0.0498
 2183SOL    HW218009   2.068   3.417   0.158  1.9317  2.2340 -0.5876
 2184SOL     OW18010   2.596   4.434   3.788  0.4255  0.0475  0.2621
 2184SOL    HW118011   2.578   4.520   3.751  2.6797  1.3329  2.1315
 2184SOL    HW218012   2.557   4.374   3.725  0.6592 -0.1785  0.3306
 2185SOL     OW18013   3.342   2.591   6.432 -0.0801 -0.4082 -0.1225
 2185SOL    HW118014   3.433   2.564   6.421  0.4518  1.5484 -0.5456
 2185SOL    HW218015   3.319   2.626   6.345  2.2649 -0.5870 -0.8382
 2186SOL     OW18016   4.383   4.628   2.935 -0.0914  0.6631  0.3397
 2186SOL    HW118017   4.433   4.696   2.888  1.4112 -0.7621 -0.1261
 2186SOL    HW218018   4.442   4.601   3.006 -0.3582 -2.1971 -0.5338
 2187SOL     OW18019   2.602   0.952   0.416  0.4123  0.3069 -0.0044
 2187SOL    HW118020   2.627   0.984   0.330 -0.4899 -0.4442 -0.5480
 2187SOL    HW218021   2.632   0.862   0.403 -0.2992 -0.1870  1.6739
 2188SOL     OW18022   4.568   1.826  10.480  0.2786 -0.4703 -0.0328
 2188SOL    HW118023   4.635   1.881  10.439  1.4398 -0.8026  1.4647
 2188SOL    HW218024   4.577   1.740  10.439  1.7885  1.2395 -3.2481
 2189SOL     OW18025   1.881   3.804   8.063  0.3529 -0.2909  0.1883
 2189SOL    HW118026   1.834   3.839   8.139  0.6714 -1.2151  0.8070
 2189SOL    HW218027   1.826   3.838   7.992  0.9378 -2.5151 -1.3146
 2190SOL     OW18028   0.830   0.271   7.538 -0.2583  0.1080  0.4712
 2190SOL    HW118029   0.775   0.347   7.520 -0.4720 -0.3310 -0.7242
 2190SOL    HW218030   0.811   0.211   7.466 -0.3171 -0.3244  0.8452
 2191SOL     OW18031   0.118   1.492   7.101 -0.1709  0.3321 -0.1633
 2191SOL    HW118032   0.141   1.451   7.185  1.9872 -1.0939 -1.4456
 2191SOL    HW218033   0.197   1.533   7.065  0.2010  0.4573  0.7871
 2192SOL     OW18034   1.674   0.383   5.901 -0.3481 -0.4814  0.3764
 2192SOL    HW118035   1.705   0.352   5.986 -1.8127 -2.5797  0.1493
 2192SOL    HW218036   1.581   0.399   5.916 -0.5770  0.5413 -2.2836
 2193SOL     OW18037   2.696   2.159   0.547 -0.0972 -0.4218 -0.0172
 2193SOL    HW118038   2.706   2.068   0.573 -0.6700 -0.8258 -1.2415
 2193SOL    HW218039   2.648   2.196   0.622  0.5362 -0.0901  0.2280
 2194SOL     OW18040   1.579   3.115   1.756 -0.0458  0.6367  0.1455
 2194SOL    HW118041   1.521   3.124   1.680 -0.7991  2.2026  0.8910
 2194SOL    HW218042   1.527   3.127   1.835 -0.1061  2.4759 -0.1597
 2195SOL     OW18043   2.350   0.814   1.278 -0.2426 -0.0694  0.2063
 2195SOL    HW118044   2.445   0.825   1.284  0.0575 -1.3453 -2.0667
 2195SOL    HW218045   2.318   0.860   1.356  0.2086 -1.6268  1.3036
 2196SOL     OW18046   0.423   2.000  15.044  0.1849 -0.0116 -0.0971
 2196SOL    HW118047   0.469   2.049  14.975  3.0128  2.2998  3.4195
 2196SOL    HW218048   0.341   2.047  15.055  1.9662  2.6850  1.5539
 2197SOL     OW18049   1.795   0.607   2.387  0.0201  0.2558  0.0262
 2197SOL    HW118050   1.885   0.627   2.410  0.0958  0.9858 -0.9033
 2197SOL    HW218051   1.786   0.656   2.305  0.5173 -1.3725 -0.9979
 2198SOL     OW18052   3.863   0.402   7.554 -0.1130  0.0956 -0.2413
 2198SOL    HW118053   3.830   0.491   7.541  0.3593  0.0631 -1.7831
 2198SOL    HW218054   3.896   0.402   7.644 -1.5248  3.2361  0.2761
 2199SOL     OW18055   3.862   3.135   7.310  0.0752 -0.3612 -0.1693
 2199SOL    HW118056   3.903   3.073   7.370 -0.0736 -0.3820 -0.0881
 2199SOL    HW218057   3.815   3.198   7.365  3.6136  0.2804  2.1162
 2200SOL     OW18058   2.344   1.296   7.726  0.4871 -0.2257  0.0241
 2200SOL    HW118059   2.321   1.249   7.646 -0.9017  0.2792  0.1204
 2200SOL    HW218060   2.440   1.294   7.720  0.4944 -3.0662  1.3640
 2201SOL     OW18061   0.765   0.433   5.017 -0.3963  0.1060 -0.0289
 2201SOL    HW118062   0.821   0.473   5.083 -0.8394 -1.2437  1.1553
 2201SOL    HW218063   0.759   0.506   4.955  1.3108 -0.2741 -0.6580
 2202SOL     OW18064   0.750   0.723   8.809 -0.0328 -0.6277  0.4462
 2202SOL    HW118065   0.766   0.695   8.900  0.6303 -0.7195  0.3062
 2202SOL    HW218066   0.755   0.639   8.762  1.3917  1.0120 -2.3247
 2203SOL     OW18067   1.117   4.535  14.798 -0.7150 -0.3915 -0.2025
 2203SOL    HW118068   1.180   4.570  14.861  1.1867 -1.8787 -1.2476
 2203SOL    HW218069   1.052   4.605  14.795 -0.5513 -0.3214 -2.5077
 2204SOL     OW18070   3.477   1.893   4.274  0.6908 -0.3869 -0.2442
 2204SOL    HW118071   3.501   1.826   4.210  0.9146  0.8312 -1.4371
 2204SOL    HW218072   3.391   1.857   4.293  0.1064 -0.2972 -2.6810
 2205SOL     OW18073   4.480   0.508   3.813  0.5143 -0.4244  0.1467
 2205SOL    HW118074   4.564   0.492   3.769 -0.1973 -0.1155 -1.3210
 2205SOL    HW218075   4.516   0.564   3.882 -0.0192  1.7052 -1.3020
 2206SOL     OW18076   0.873   2.046   3.321  0.4885 -0.4552  0.4776
 2206SOL    HW118077   0.923   2.118   3.360  0.2796 -0.6817  1.1637
 2206SOL    HW218078   0.933   2.018   3.251  0.3282 -0.4973  0.3586
 2207SOL     OW18079   3.179   0.542   2.730  0.1307 -0.2903 -0.6155
 2207SOL    HW118080   3.265   0.572   2.698  0.9684 -1.4396  0.5852
 2207SOL    HW218081   3.123   0.546   2.652 -0.1374 -0.2321 -0.4163
 2208SOL     OW18082   3.343   0.316   9.840 -0.3728  0.1732 -0.0667
 2208SOL    HW118083   3.356   0.256   9.913  0.1959  1.0727  0.5690
 2208SOL    HW218084   3.250   0.308   9.820 -0.4006 -1.3370  0.6543
 2209SOL     OW18085   1.983   1.505   6.418 -0.0072  0.2130 -1.1107
 2209SOL    HW118086   1.945   1.481   6.333  1.4409  1.3348 -2.0889
 2209SOL    HW218087   1.969   1.600   6.426 -0.0250  0.0994  0.1679
 2210SOL     OW18088   2.828   4.512   3.145 -0.3988 -0.0375 -0.1988
 2210SOL    HW118089   2.782   4.490   3.227 -1.0740 -0.1568 -0.6110
 2210SOL    HW218090   2.791   4.595   3.117  0.1728  0.0447 -0.7009
 2211SOL     OW18091   0.953   0.438   2.505  0.7696  0.0560 -0.2495
 2211SOL    HW118092   0.917   0.356   2.472  3.0163 -0.0038 -2.5870
 2211SOL    HW218093   1.046   0.435   2.482  0.6976 -2.4216 -0.1879
 2212SOL     OW18094   1.371   2.868   2.454  0.0654  0.5945 -0.2040
 2212SOL    HW118095   1.385   2.918   2.374 -0.3899 -0.5540 -0.9864
 2212SOL    HW218096   1.428   2.791   2.456 -0.5046  0.1792 -0.0892
 2213SOL     OW18097   3.359   4.547  10.314  0.5560 -0.1006 -0.1213
 2213SOL    HW118098   3.393   4.494  10.242  1.4495  0.3437 -0.0210
 2213SOL    HW218099   3.269   4.515  10.319  0.0946  1.5471  2.1804
 2214SOL     OW18100   0.527   4.348  15.252 -0.1893  0.0599 -0.4579
 2214SOL    HW118101   0.449   4.336  15.306 -0.7898 -0.7971 -1.5133
 2214SOL    HW218102   0.522   4.284  15.182 -2.3458  1.3842 -1.5150
 2215SOL     OW18103   2.474   2.699  16.507 -0.1092 -0.1681  0.4099
 2215SOL    HW118104   2.516   2.637  16.447 -2.0881  0.4409 -1.6212
 2215SOL    HW218105   2.480   2.785  16.465  2.0834 -0.1403  0.7795
 2216SOL     OW18106   2.834   4.379  10.024 -0.3341 -0.0450 -0.4979
 2216SOL    HW118107   2.801   4.453  10.075 -0.6018  0.3393 -1.2203
 2216SOL    HW218108   2.750   4.338  10.002  0.7708 -2.9587  0.8164
 2217SOL     OW18109   2.819   0.673   8.513  0.3270  0.1744 -0.0744
 2217SOL    HW118110   2.914   0.681   8.513  0.2813  0.7098  1.3577
 2217SOL    HW218111   2.793   0.639   8.599 -0.7148 -0.1444 -0.5216
 2218SOL     OW18112   2.872   4.334   4.334 -0.4178 -0.0611  0.1834
 2218SOL    HW118113   2.935   4.312   4.265 -0.3276  1.8413 -0.3549
 2218SOL    HW218114   2.808   4.380   4.281 -1.4272 -0.9031  0.6801
 2219SOL     OW18115   2.346   0.482   8.081 -0.2270  0.1630 -0.1486
 2219SOL    HW118116   2.360   0.433   8.000 -2.5499 -0.4609 -0.1587
 2219SOL    HW218117   2.381   0.564   8.046 -0.0061  0.4438  0.7175
 2220SOL     OW18118   1.453   3.266  10.688  0.0654  0.0198 -0.6934
 2220SOL    HW118119   1.536   3.223  10.709 -0.5312 -0.6563  0.2860
 2220SOL    HW218120   1.476   3.359  10.688 -1.2592  0.3477 -1.6905
 2221SOL     OW18121   3.796   2.199   8.039  0.4376  0.0983  0.0589
 2221SOL    HW118122   3.776   2.166   8.127 -2.1263 -0.4066 -0.7383
 2221SOL    HW218123   3.849   2.278   8.055 -1.1405  1.0659  0.5457
 2222SOL     OW18124   4.356   2.959   0.397  0.3346 -0.3404  0.5119
 2222SOL    HW118125   4.423   2.890   0.401  1.6051  0.8103 -1.1914
 2222SOL    HW218126   4.392   3.022   0.335  0.2307  0.4010  1.2012
 2223SOL     OW18127   0.677   0.547   8.381 -0.3786 -0.5567  0.6364
 2223SOL    HW118128   0.769   0.521   8.375 -0.2228  0.5592 -1.9746
 2223SOL    HW218129   0.663   0.571   8.290 -0.7351 -1.7394  0.3825
 2224SOL     OW18130   0.520   2.893   5.844  1.0585  0.1052 -0.2379
 2224SOL    HW118131   0.547   2.853   5.926 -1.4581  0.6749  0.8482
 2224SOL    HW218132   0.538   2.986   5.858 -0.9280  0.3726  0.4664
 2225SOL     OW18133   1.308   2.667   5.443 -0.0321  0.0524  0.0753
 2225SOL    HW118134   1.254   2.745   5.436 -0.1090 -0.0032  0.0405
 2225SOL    HW218135   1.285   2.632   5.529  0.9249 -3.9979 -1.2988
 2226SOL     OW18136   0.795   0.173   7.263  0.6760  0.5746  0.2711
 2226SOL    HW118137   0.858   0.145   7.198 -0.5864 -1.1451 -0.2196
 2226SOL    HW218138   0.778   0.265   7.241 -0.9479 -0.0302 -0.9748
 2227SOL     OW18139   2.889   3.443   7.936  0.1157  0.2417  0.5585
 2227SOL    HW118140   2.970   3.493   7.945 -0.5803  2.0689 -3.3727
 2227SOL    HW218141   2.903   3.356   7.973 -0.9411  0.0103  0.4083
 2228SOL     OW18142   2.121   4.542  15.397 -0.2580  0.4281  0.1622
 2228SOL    HW118143   2.047   4.602  15.403  0.6870  1.3915  2.0132
 2228SOL    HW218144   2.081   4.457  15.414 -1.3376  1.5652  3.3165
 2229SOL     OW18145   2.101   4.631   6.674  1.0589  0.3025 -0.1967
 2229SOL    HW118146   2.031   4.697   6.668 -1.1686 -1.7125  3.7124
 2229SOL    HW218147   2.175   4.689   6.691  1.9773 -0.9274 -0.0330
 2230SOL     OW18148   4.325   3.514   4.559 -0.1772  0.1949 -0.2769
 2230SOL    HW118149   4.240   3.494   4.519  0.2308  1.0724 -1.5681
 2230SOL    HW218150   4.310   3.489   4.651 -0.0836  0.8074 -0.0985
 2231SOL     OW18151   0.797   3.102   4.006 -0.0717  0.0901 -0.5423
 2231SOL    HW118152   0.819   3.161   4.078 -0.2936 -0.8636  0.3130
 2231SOL    HW218153   0.789   3.023   4.060  3.6561  0.8600  1.1417
 2232SOL     OW18154   0.306   1.894   2.431  0.0910  0.0417 -0.2498
 2232SOL    HW118155   0.324   1.884   2.337  2.4108  0.0187  0.2020
 2232SOL    HW218156   0.277   1.805   2.452 -1.8015  1.0768  1.5151
 2233SOL     OW18157   4.510   3.268   6.794 -0.0736  0.1235  0.0355
 2233SOL    HW118158   4.421   3.296   6.816 -0.1430  0.7750 -1.0697
 2233SOL    HW218159   4.524   3.187   6.844 -3.1459  0.3581  1.2983
 2234SOL     OW18160   3.086   0.222  14.798  0.0839  0.2517  0.1011
 2234SOL    HW118161   3.050   0.309  14.813  0.1851  0.5863 -1.7053
 2234SOL    HW218162   3.177   0.248  14.785 -0.0170  0.8453  0.6181
 2235SOL     OW18163   4.123   1.738   5.672  0.1323  0.4467  0.0307
 2235SOL    HW118164   4.121   1.664   5.733  0.0245  0.2535 -0.2053
 2235SOL    HW218165   4.031   1.765   5.670 -0.8076 -2.7251 -0.3251
 2236SOL     OW18166   0.146   1.097   0.168 -0.3399 -0.4281  0.3833
 2236SOL    HW118167   0.083   1.050   0.114 -1.0983 -0.2245  1.0911
 2236SOL    HW218168   0.207   1.137   0.105 -1.6088 -1.0883 -1.2640
 2237SOL     OW18169   1.181   0.920   4.899  0.0492 -0.0548 -0.1220
 2237SOL    HW118170   1.169   1.011   4.926  4.6463  0.7385 -0.8169
 2237SOL    HW218171   1.272   0.914   4.869  0.0283  0.1158 -0.2218
 2238SOL     OW18172   4.234   1.481   4.202  0.1008 -0.1421  0.1903
 2238SOL    HW118173   4.209   1.430   4.279  1.0048  0.3230  0.7806
 2238SOL    HW218174   4.323   1.501   4.230 -0.0132 -0.2504  0.6204
 2239SOL     OW18175   2.560   3.059   7.957 -0.2199  0.1298  1.1036
 2239SOL    HW118176   2.608   3.062   7.875 -0.2010 -0.8629  1.0762
 2239SOL    HW218177   2.632   3.055   8.020  0.0798  2.0346  0.8801
 2240SOL     OW18178   0.071   3.108   2.237  0.0206  0.2816  0.0279
 2240SOL    HW118179   0.029   3.191   2.216 -2.1861 -0.9094 -0.2720
 2240SOL    HW218180   0.032   3.055   2.168  0.1859  0.1677  0.0243
 2241SOL     OW18181   3.104   0.140   2.637  0.3586 -0.5159  0.0908
 2241SOL    HW118182   3.095   0.199   2.711 -2.2581 -1.7592  0.7503
 2241SOL    HW218183   3.113   0.058   2.685  1.3656 -0.9575 -0.8353
 2242SOL     OW18184   2.045   3.829  15.452 -0.3172 -0.0552 -0.1675
 2242SOL    HW118185   1.975   3.817  15.388  0.2961  1.6897 -1.1783
 2242SOL    HW218186   1.985   3.851  15.523 -1.4453 -0.2739 -1.0548
 2243SOL     OW18187   4.584   4.320   2.556  0.1688  0.6166  0.1601
 2243SOL    HW118188   4.672   4.285   2.544  0.5428  1.5329  0.2340
 2243SOL    HW218189   4.525   4.253   2.523  0.4338  0.1483  0.6361
 2244SOL     OW18190   0.320   1.728  15.661  0.4257 -0.8005 -0.5807
 2244SOL    HW118191   0.393   1.772  15.618  1.6728 -1.2916  1.0305
 2244SOL    HW218192   0.345   1.754  15.750 -0.9281  0.1239 -0.4778
 2245SOL     OW18193   2.565   0.063   6.280 -0.4099  0.2680 -0.0781
 2245SOL    HW118194   2.542   0.148   6.244  0.3997  0.8327  0.7477
 2245SOL    HW218195   2.481   0.044   6.323 -0.4498 -0.3830 -0.4384
 2246SOL     OW18196   0.996   3.831   4.910  0.3365  0.3867  0.3421
 2246SOL    HW118197   0.984   3.810   4.817  1.1195 -0.4406  0.4260
 2246SOL    HW218198   1.082   3.873   4.906  0.6652 -0.2986  0.1657
 2247SOL     OW18199   2.948   1.123   5.896 -0.0935 -0.4283  0.5973
 2247SOL    HW118200   2.925   1.032   5.912  0.2718 -0.6695 -0.2855
 2247SOL    HW218201   2.899   1.134   5.815  0.5925  1.7595  0.4644
 2248SOL     OW18202   3.847   1.881   6.940  0.2892 -0.1395 -0.0644
 2248SOL    HW118203   3.905   1.919   7.007 -0.1891  2.0327 -0.8813
 2248SOL    HW218204   3.813   1.800   6.977  2.1124 -0.2012  1.5146
 2249SOL     OW18205   0.320   3.640   5.264  0.1391 -0.2626 -0.0582
 2249SOL    HW118206   0.247   3.635   5.325  2.6429  0.9807  3.0134
 2249SOL    HW218207   0.390   3.603   5.318 -0.2960 -2.2809 -0.8842
 2250SOL     OW18208   0.457   1.916   3.941  0.1126  0.3376 -0.6754
 2250SOL    HW118209   0.384   1.948   3.887  1.0025  1.1619 -1.3917
 2250SOL    HW218210   0.526   1.886   3.881  0.8385 -2.0046  1.3105
 2251SOL     OW18211   0.320   0.289   8.760  0.0652 -0.2069 -0.0096
 2251SOL    HW118212   0.345   0.274   8.851  1.2563  1.2355 -0.0971
 2251SOL    HW218213   0.367   0.371   8.745 -1.1931  0.7136  1.0329
 2252SOL     OW18214   2.422   1.378   3.126  0.2409 -0.5023  0.7273
 2252SOL    HW118215   2.387   1.391   3.037  1.0134  1.4824  0.7311
 2252SOL    HW218216   2.344   1.349   3.173 -0.1172 -1.2280 -0.2930
 2253SOL     OW18217   0.985   2.372  16.886 -0.3958  0.6608 -0.6017
 2253SOL    HW118218   0.964   2.390  16.977  1.3737 -0.0394 -0.0578
 2253SOL    HW218219   1.080   2.372  16.893 -0.2789 -1.4319 -2.2007
 2254SOL     OW18220   2.444   1.210   4.844  1.0461 -0.3581  0.0806
 2254SOL    HW118221   2.447   1.237   4.752 -1.1838 -2.1308 -0.5179
 2254SOL    HW218222   2.503   1.276   4.879 -0.6319  0.9755  0.3764
 2255SOL     OW18223   1.420   1.662   1.959 -0.2443  0.3483 -0.3078
 2255SOL    HW118224   1.369   1.743   1.961 -0.7439  0.0323 -0.3592
 2255SOL    HW218225   1.357   1.602   1.998 -0.3015 -0.5677 -1.8074
 2256SOL     OW18226   2.606   1.746   0.134 -0.1663 -0.2669  0.0329
 2256SOL    HW118227   2.584   1.691   0.209  0.9624 -0.5650  0.1530
 2256SOL    HW218228   2.541   1.815   0.146 -2.1365 -2.1736  0.3380
 2257SOL     OW18229   0.883   1.577   4.313 -0.6767  0.4862  0.4145
 2257SOL    HW118230   0.880   1.550   4.405  2.6309  1.3208  0.7750
 2257SOL    HW218231   0.859   1.669   4.318  2.0264  1.2924 -1.1109
 2258SOL     OW18232   1.721   1.805   4.668 -0.3464 -1.0543 -0.2991
 2258SOL    HW118233   1.758   1.735   4.613 -4.1446 -1.5837 -2.1606
 2258SOL    HW218234   1.694   1.858   4.593 -3.5216  0.4644  1.9271
 2259SOL     OW18235   3.103   1.792   6.550  0.2349 -0.3725  0.7351
 2259SOL    HW118236   3.191   1.813   6.580  0.8490 -0.1933 -1.1849
 2259SOL    HW218237   3.090   1.698   6.562  0.1833 -0.6944 -1.8487
 2260SOL     OW18238   0.249   2.275  16.700  0.0745  0.7403  0.2853
 2260SOL    HW118239   0.174   2.288  16.642  0.5609  2.4765  0.0195
 2260SOL    HW218240   0.317   2.321  16.651  0.6163  0.2296  0.5561
 2261SOL     OW18241   3.849   2.571   5.455 -0.1601 -0.1500  0.3790
 2261SOL    HW118242   3.915   2.507   5.429 -1.1286 -0.2777 -1.7687
 2261SOL    HW218243   3.846   2.616   5.371  0.6934 -2.1191 -0.6916
 2262SOL     OW18244   0.350   4.057   8.916 -0.3101  0.6716 -0.7560
 2262SOL    HW118245   0.443   4.069   8.897 -0.9752  3.4066 -2.2947
 2262SOL    HW218246   0.343   4.067   9.011  1.5823  0.2133 -0.5728
 2263SOL     OW18247   4.447   3.866   8.661 -0.1622 -0.0776  0.1835
 2263SOL    HW118248   4.380   3.852   8.594 -0.7415 -1.7839  1.1224
 2263SOL    HW218249   4.519   3.912   8.617 -1.9744  3.0568  0.4897
 2264SOL     OW18250   3.935   1.584   9.593  0.4293  0.2879 -0.7020
 2264SOL    HW118251   3.980   1.527   9.655 -0.3473  3.0086  2.3856
 2264SOL    HW218252   3.957   1.666   9.638 -0.2478  0.9799 -1.6276
 2265SOL     OW18253   2.758   1.469   4.468  0.2211  0.0894 -0.5487
 2265SOL    HW118254   2.792   1.478   4.379  1.3313 -1.8081 -0.3318
 2265SOL    HW218255   2.665   1.485   4.455  0.5126  0.9557 -1.5514
 2266SOL     OW18256   4.265   4.706  10.313  0.3537 -0.4219 -0.0124
 2266SOL    HW118257   4.305   4.649  10.247  0.4737 -0.4445  0.0815
 2266SOL    HW218258   4.243   0.060  10.256  0.3562 -0.5223 -0.1458
 2267SOL     OW18259   0.456   1.905   7.517 -0.1135  0.3492 -0.2367
 2267SOL    HW118260   0.516   1.964   7.562  2.3079 -2.0406 -0.3063
 2267SOL    HW218261   0.483   1.818   7.549  1.3390  0.6788 -0.5741
 2268SOL     OW18262   2.668   4.526   8.785 -0.0333 -0.3692 -0.0410
 2268SOL    HW118263   2.584   4.546   8.826  0.8758  1.6469  0.8368
 2268SOL    HW218264   2.720   4.562   8.857  1.0991  1.0209 -1.5645
 2269SOL     OW18265   2.134   0.023   2.538 -0.4312 -0.3579  0.0343
 2269SOL    HW118266   2.143   4.704   2.452 -0.3070 -1.2824  0.4818
 2269SOL    HW218267   2.052   0.069   2.520 -0.3981 -0.2935  0.0474
 2270SOL     OW18268   0.802   0.015   3.516  0.4193 -0.1381  0.6174
 2270SOL    HW118269   0.880   4.708   3.564  1.1249 -0.3637 -0.6563
 2270SOL    HW218270   0.734   0.020   3.583  0.6439 -0.4367  0.8690
 2271SOL     OW18271   3.745   0.112   4.220 -1.3499  0.3153  0.0867
 2271SOL    HW118272   3.773   0.051   4.152 -2.3654 -0.5336  0.4291
 2271SOL    HW218273   3.824   0.157   4.250 -0.0880  0.1226 -2.9823
 2272SOL     OW18274   2.781   0.113   6.963  0.0902 -0.4775 -0.1291
 2272SOL    HW118275   2.780   0.165   7.043  0.1958 -1.1067  0.2780
 2272SOL    HW218276   2.806   0.174   6.894 -1.4975 -0.2105 -0.4637
 2273SOL     OW18277   2.990   0.872   5.128 -0.3764  0.0509  0.5911
 2273SOL    HW118278   3.045   0.888   5.052 -1.2612  1.1235  0.1833
 2273SOL    HW218279   3.036   0.792   5.155  0.8339  1.2465  2.1106
 2274SOL     OW18280   3.158   4.652   9.489 -0.2653  0.1174  0.0090
 2274SOL    HW118281   3.177   4.633   9.397 -1.7376  1.5113 -0.5887
 2274SOL    HW218282   3.076   4.605   9.502 -0.9399  1.9116  2.3345
 2275SOL     OW18283   2.614   1.240   0.239  0.2645  0.3443  0.2984
 2275SOL    HW118284   2.642   1.258   0.329  1.3769 -1.6133  0.3359
 2275SOL    HW218285   2.693   1.216   0.191 -0.7465 -0.8261 -0.7983
 2276SOL     OW18286   3.419   1.071   0.795  0.1225  0.1484  0.4078
 2276SOL    HW118287   3.391   1.153   0.753  2.9266  0.5491 -0.6305
 2276SOL    HW218288   3.356   1.054   0.865  1.1327 -0.7959  1.0729
 2277SOL     OW18289   0.585   3.993   5.204  0.5566 -0.2419 -0.3300
 2277SOL    HW118290   0.518   3.924   5.200 -0.1654  0.3576  1.4175
 2277SOL    HW218291   0.636   3.960   5.129  0.6942 -0.1228 -0.2873
 2278SOL     OW18292   0.401   1.026   1.137  0.1041  0.0088  0.3496
 2278SOL    HW118293   0.390   1.108   1.187 -0.0404 -0.5435  1.2297
 2278SOL    HW218294   0.381   0.964   1.207  1.4074 -1.5348 -0.6755
 2279SOL     OW18295   2.471   2.060   7.646  0.4974  0.2858 -0.1917
 2279SOL    HW118296   2.394   2.095   7.691 -0.6127 -0.4570 -1.5018
 2279SOL    HW218297   2.492   2.126   7.580 -1.0263  2.3279  1.3525
 2280SOL     OW18298   1.893   3.941  16.577  0.2736 -0.2555 -0.4389
 2280SOL    HW118299   1.905   4.018  16.632 -2.0634  0.1344 -0.4981
 2280SOL    HW218300   1.985   3.934  16.549  0.1924  1.3320 -1.0692
 2281SOL     OW18301   0.435   0.213   0.963 -0.1225 -0.9383 -0.0285
 2281SOL    HW118302   0.372   0.284   0.953  0.4399 -0.1292  2.2684
 2281SOL    HW218303   0.419   0.175   0.876 -1.2140  2.7632 -1.4481
 2282SOL     OW18304   1.743   4.346  14.207  0.0595 -0.1277  0.6687
 2282SOL    HW118305   1.786   4.420  14.249  0.4273 -1.0424  1.9150
 2282SOL    HW218306   1.745   4.282  14.278  0.3919 -1.8189 -0.8682
 2283SOL     OW18307   1.352   3.761   2.876  0.1223  0.0000 -0.2661
 2283SOL    HW118308   1.257   3.762   2.888 -0.1226 -4.6391 -1.8405
 2283SOL    HW218309   1.370   3.694   2.810  2.2865  0.7732 -0.4382
 2284SOL     OW18310   3.949   1.049   7.458  0.3646  0.6843  0.0600
 2284SOL    HW118311   4.009   1.029   7.387  1.8866  1.5564  1.1016
 2284SOL    HW218312   4.003   1.051   7.537  0.8005 -1.6059 -0.1629
 2285SOL     OW18313   0.342   1.901   4.195  0.3047 -0.9111 -0.0711
 2285SOL    HW118314   0.393   1.965   4.146 -2.1608  1.2314  0.1755
 2285SOL    HW218315   0.305   1.843   4.128 -0.5942  1.6077 -1.7521
 2286SOL     OW18316   2.862   0.358   2.123  0.1171 -0.0028 -0.6414
 2286SOL    HW118317   2.917   0.429   2.157 -1.3749 -0.5827  3.0613
 2286SOL    HW218318   2.904   0.336   2.040 -0.3663  3.6196 -1.8525
 2287SOL     OW18319   2.260   0.527  16.400 -0.3470 -0.4387 -0.2023
 2287SOL    HW118320   2.175   0.553  16.437  0.6001  0.8735  1.1037
 2287SOL    HW218321   2.252   0.564  16.312  1.2475  0.0613 -0.1441
 2288SOL     OW18322   2.548   3.664   6.693 -0.1351  0.2781  0.0313
 2288SOL    HW118323   2.579   3.721   6.763 -0.0665 -0.2553  0.4307
 2288SOL    HW218324   2.571   3.710   6.612 -0.5555 -0.1073 -0.3094
 2289SOL     OW18325   4.113   0.022   2.942  0.0138  0.9246 -0.8140
 2289SOL    HW118326   4.092   0.023   2.848  2.4960 -0.6283 -1.4012
 2289SOL    HW218327   4.178   4.672   2.936 -0.4810  0.4811 -1.0046
 2290SOL     OW18328   3.547   0.511   0.801  0.2431 -0.2216 -0.0667
 2290SOL    HW118329   3.597   0.581   0.758 -1.2951  0.8461 -0.1483
 2290SOL    HW218330   3.618   0.472   0.852  0.0208 -0.8994 -0.2817
 2291SOL     OW18331   3.086   2.341  10.919 -0.4956  0.1160 -0.3074
 2291SOL    HW118332   3.119   2.389  10.843 -1.1898  0.9371 -0.1009
 2291SOL    HW218333   3.119   2.394  10.992 -3.9269 -0.4362  1.6012
 2292SOL     OW18334   3.066   0.575   9.133 -0.5912  0.0319 -0.0931
 2292SOL    HW118335   3.074   0.668   9.152  0.5089 -0.0223 -0.3315
 2292SOL    HW218336   3.006   0.544   9.202  0.0215 -1.4574 -0.2360
 2293SOL     OW18337   1.311   0.342  13.834 -0.0465  0.1865 -0.1786
 2293SOL    HW118338   1.386   0.299  13.795 -0.2595  1.1320 -1.6315
 2293SOL    HW218339   1.257   0.269  13.866  1.5765 -0.8412  0.1729
 2294SOL     OW18340   3.168   0.264   2.860 -0.2791  0.7645 -0.4841
 2294SOL    HW118341   3.258   0.234   2.872 -0.8573 -0.6053  0.3455
 2294SOL    HW218342   3.196   0.354   2.841 -2.9390  1.3378 -1.7029
 2295SOL     OW18343   1.534   4.494   6.080 -0.2647  0.2335  0.4108
 2295SOL    HW118344   1.611   4.484   6.023 -0.4647 -0.3621  0.2538
 2295SOL    HW218345   1.537   4.588   6.100  1.8136  0.1597  0.5142
 2296SOL     OW18346   2.551   4.096  12.217 -0.2643  0.4891 -0.1049
 2296SOL    HW118347   2.581   4.116  12.306 -1.6319 -0.9311  0.6617
 2296SOL    HW218348   2.570   4.183  12.181  3.0622 -0.1993 -0.0181
 2297SOL     OW18349   3.774   2.740   3.175  0.2481  0.5346 -0.5623
 2297SOL    HW118350   3.845   2.792   3.137 -3.2286  3.7710 -2.6629
 2297SOL    HW218351   3.814   2.654   3.164  1.1796  0.7071  1.6098
 2298SOL     OW18352   2.595   1.569   4.104 -0.6646 -0.4045  0.4855
 2298SOL    HW118353   2.615   1.658   4.132 -0.1445 -0.8344  1.4755
 2298SOL    HW218354   2.659   1.521   4.157  3.1990  1.9610 -1.9861
 2299SOL     OW18355   0.704   3.792  12.768 -0.2925  0.3385  0.3104
 2299SOL    HW118356   0.729   3.873  12.813  3.7932 -0.5572 -0.3241
 2299SOL    HW218357   0.609   3.791  12.777 -0.3035 -2.0560 -0.0040
 2300SOL     OW18358   1.925   2.882   2.927 -0.0925 -0.1311 -0.0633
 2300SOL    HW118359   1.920   2.937   2.849  1.4427  0.1718  0.0504
 2300SOL    HW218360   2.003   2.831   2.907  0.8614  1.0422  0.6804
 2301SOL     OW18361   1.782   3.734   6.247 -0.0817 -0.4692  0.4814
 2301SOL    HW118362   1.866   3.716   6.289  0.1174 -0.6043  0.0229
 2301SOL    HW218363   1.796   3.820   6.209 -0.4520 -0.0676  1.2370
 2302SOL     OW18364   1.501   2.333   7.811  0.1239 -0.5523 -0.0958
 2302SOL    HW118365   1.462   2.420   7.822 -0.7229 -0.9486  0.0271
 2302SOL    HW218366   1.523   2.295   7.896 -3.2998  0.9288  1.4734
 2303SOL     OW18367   3.721   3.636   0.259  0.4804 -0.0351 -0.3016
 2303SOL    HW118368   3.762   3.595   0.335  1.1130  2.3486  0.6282
 2303SOL    HW218369   3.648   3.578   0.235  1.3354 -0.2338 -2.4092
 2304SOL     OW18370   3.868   4.303   9.035 -0.1659  0.1415  0.2745
 2304SOL    HW118371   3.784   4.282   9.075  0.1480 -0.9932  0.3289
 2304SOL    HW218372   3.929   4.234   9.062  1.3721  1.5003  0.3170
 2305SOL     OW18373   2.601   0.181   5.069  0.2960  0.0730  0.5070
 2305SOL    HW118374   2.628   0.228   5.148  0.9654  0.5243  0.0082
 2305SOL    HW218375   2.685   0.157   5.028 -1.4629 -1.4948 -2.1559
 2306SOL     OW18376   2.137   1.766   7.188 -0.3644 -0.1798  0.4088
 2306SOL    HW118377   2.052   1.751   7.229 -0.7638 -0.2248 -0.4252
 2306SOL    HW218378   2.191   1.755   7.266 -0.4411 -1.0574  0.3351
 2307SOL     OW18379   1.048   2.963   1.695 -0.0902  0.2360 -0.1668
 2307SOL    HW118380   1.037   3.053   1.725 -1.8510 -1.2249  3.4283
 2307SOL    HW218381   0.977   2.973   1.631  0.2636 -0.2184 -0.6349
 2308SOL     OW18382   4.074   2.034   6.617  0.0725  0.6628  0.0534
 2308SOL    HW118383   4.040   2.122   6.598  1.2972  1.2174  0.4119
 2308SOL    HW218384   4.155   2.053   6.664 -1.2303  1.7186  1.8796
 2309SOL     OW18385   3.692   1.296  10.696  0.8841 -0.1222 -0.5912
 2309SOL    HW118386   3.662   1.226  10.754 -0.8446 -1.5473 -3.2208
 2309SOL    HW218387   3.654   1.377  10.731  1.8083 -0.1198  0.4018
 2310SOL     OW18388   0.493   0.296  15.026 -0.1722  0.1329 -0.0569
 2310SOL    HW118389   0.449   0.339  14.953 -0.7272  1.1728  0.8855
 2310SOL    HW218390   0.418   0.271  15.080  0.2593 -1.2372 -0.1160
 2311SOL     OW18391   4.395   2.225   3.175 -0.5351  0.1368  0.0903
 2311SOL    HW118392   4.393   2.301   3.233 -3.2231  0.8189 -0.8672
 2311SOL    HW218393   4.480   2.237   3.134  0.1732 -1.9639  0.9477
 2312SOL     OW18394   2.433   1.615   5.941  0.4559 -0.5397 -0.0680
 2312SOL    HW118395   2.493   1.685   5.965 -0.1129 -0.3068  0.6583
 2312SOL    HW218396   2.352   1.638   5.986  0.7024  0.0231  0.0850
 2313SOL     OW18397   3.605   0.060   1.659  0.5411 -0.2475  0.0949
 2313SOL    HW118398   3.647   4.707   1.616  0.7706 -0.4436  0.6623
 2313SOL    HW218399   3.555   0.014   1.727  1.8351  2.0350  2.5691
 2314SOL     OW18400   0.461   1.019   3.932 -0.0543 -0.3141  0.0562
 2314SOL    HW118401   0.490   1.042   3.843 -0.0634  0.8086  0.3435
 2314SOL    HW218402   0.530   1.064   3.981 -0.6909  0.2705  0.3960
 2315SOL     OW18403   1.952   0.570   8.199 -0.0244 -0.3130 -0.2534
 2315SOL    HW118404   1.874   0.533   8.240 -0.3792  1.9476  1.1106
 2315SOL    HW218405   2.020   0.504   8.211  3.3551  3.3975  0.9595
 2316SOL     OW18406   2.495   4.290   3.573 -0.4866 -0.0005 -0.3261
 2316SOL    HW118407   2.402   4.312   3.564 -0.5981  0.7418  2.6278
 2316SOL    HW218408   2.526   4.367   3.526  0.6999 -0.7358 -0.7340
 2317SOL     OW18409   0.079   3.403   4.875  0.3592 -0.6979 -0.3722
 2317SOL    HW118410   0.093   3.320   4.829  1.9428  0.0696 -1.2711
 2317SOL    HW218411   0.013   3.446   4.821 -1.9932  0.6883  3.5912
 2318SOL     OW18412   4.604   1.575  14.169 -0.1508 -0.2146 -0.0774
 2318SOL    HW118413   4.637   1.607  14.085  1.2818 -1.4697 -0.0071
 2318SOL    HW218414   4.678   1.523  14.201 -0.6066  0.7660  2.5328
 2319SOL     OW18415   3.886   3.342   3.342 -0.4755 -0.0498  0.1944
 2319SOL    HW118416   3.836   3.406   3.394  0.9750 -0.3128  1.8908
 2319SOL    HW218417   3.819   3.293   3.295  1.4849 -0.8350 -1.7443
 2320SOL     OW18418   1.288   3.260  13.109 -0.2261 -0.8533  0.0505
 2320SOL    HW118419   1.224   3.257  13.181 -0.1138 -0.3477  0.1762
 2320SOL    HW218420   1.362   3.300  13.156  0.3503 -2.4087  0.4538
 2321SOL     OW18421   1.427   3.880   1.956  0.4447  0.2294 -1.0171
 2321SOL    HW118422   1.416   3.975   1.963 -1.8761  0.0807 -2.7987
 2321SOL    HW218423   1.481   3.885   1.877  0.0509 -1.4692 -1.3804
 2322SOL     OW18424   4.563   2.176   1.616  0.9808  0.1849  0.0277
 2322SOL    HW118425   4.610   2.200   1.537 -0.0268 -0.3334 -0.7270
 2322SOL    HW218426   4.506   2.253   1.615  1.8838  0.8548  0.4021
 2323SOL     OW18427   1.784   2.308   8.226 -0.5195  0.2466 -0.6305
 2323SOL    HW118428   1.768   2.308   8.131  3.1358  0.7408 -1.2688
 2323SOL    HW218429   1.780   2.403   8.239  2.8260  0.2216  0.5954
 2324SOL     OW18430   1.402   4.391   4.813 -0.7575  0.3725  0.4720
 2324SOL    HW118431   1.323   4.408   4.864 -1.1727 -0.6778  0.1592
 2324SOL    HW218432   1.361   4.327   4.755 -1.5957  1.0437  0.3269
 2325SOL     OW18433   1.365   0.665  15.640  0.4153 -0.4589  0.3500
 2325SOL    HW118434   1.271   0.681  15.635 -0.0089 -2.6989  1.2496
 2325SOL    HW218435   1.377   0.629  15.728  2.1868  1.1284  0.7652
 2326SOL     OW18436   2.732   3.515   1.215 -0.1965  0.1952  0.0451
 2326SOL    HW118437   2.818   3.499   1.253  0.1864 -1.1357 -1.3942
 2326SOL    HW218438   2.768   3.581   1.155  0.6543 -0.0873  0.2348
 2327SOL     OW18439   1.098   1.788  17.351 -0.1940 -0.2772  0.3190
 2327SOL    HW118440   1.057   1.719  17.299 -1.4976  0.6792  0.0850
 2327SOL    HW218441   1.165   1.733  17.391 -0.9688 -2.0044 -0.7662
 2328SOL     OW18442   0.148   0.073   1.764 -0.3789 -0.0003  0.1363
 2328SOL    HW118443   0.167   0.016   1.690  2.8912  2.1031 -0.6346
 2328SOL    HW218444   0.053   0.087   1.756 -0.2875  2.0618  2.4336
 2329SOL     OW18445   0.205   1.982   5.070 -0.2399 -0.3447 -0.3151
 2329SOL    HW118446   0.272   1.974   5.002 -0.4284 -0.0791 -0.5294
 2329SOL    HW218447   0.195   1.888   5.085 -2.9402 -0.5391 -3.1974
 2330SOL     OW18448   1.326   2.815  11.586 -0.4502 -0.0403  0.0846
 2330SOL    HW118449   1.307   2.857  11.502  1.4064 -0.6769 -0.6655
 2330SOL    HW218450   1.270   2.737  11.582 -1.3470  0.6475 -0.8190
 2331SOL     OW18451   4.467   2.402   9.666 -0.0586 -0.1764 -0.1829
 2331SOL    HW118452   4.406   2.368   9.601 -0.3116 -1.8392  0.9040
 2331SOL    HW218453   4.422   2.482   9.692  0.1040 -0.5259  1.1936
 2332SOL     OW18454   2.678   3.391  10.283  0.6798 -0.3105 -0.3232
 2332SOL    HW118455   2.683   3.306  10.239 -1.6527  0.0479 -1.2868
 2332SOL    HW218456   2.629   3.382  10.364 -0.3456 -0.2638 -0.9430
 2333SOL     OW18457   4.584   3.547  12.985 -0.0955  0.2789 -0.1823
 2333SOL    HW118458   4.572   3.562  12.891  1.1922 -1.5867 -0.6421
 2333SOL    HW218459   4.623   3.630  13.012 -0.0141 -0.1220  0.9268
 2334SOL     OW18460   3.007   1.881   3.972 -0.3262  0.0587 -0.1430
 2334SOL    HW118461   2.986   1.933   4.049 -0.0329 -1.3889  0.9120
 2334SOL    HW218462   3.101   1.891   3.986 -0.7318  1.6211  1.4515
 2335SOL     OW18463   0.937   3.924   7.961 -0.3161  0.4019  0.5928
 2335SOL    HW118464   0.979   3.965   7.885  1.1533  0.5868  1.4953
 2335SOL    HW218465   0.869   3.879   7.912  1.6793  0.6591 -2.4245
 2336SOL     OW18466   2.958   0.679   3.771 -0.3071  0.2382 -0.1274
 2336SOL    HW118467   2.965   0.707   3.680  1.3800  1.3629  0.3449
 2336SOL    HW218468   3.027   0.723   3.820 -0.1201  0.3149 -0.4582
 2337SOL     OW18469   0.061   1.963  11.351 -0.4462 -0.2813 -0.1912
 2337SOL    HW118470   0.106   1.910  11.416  1.7255 -0.3864 -1.7645
 2337SOL    HW218471   4.706   1.994  11.401  0.0855  0.0242  0.4320
 2338SOL     OW18472   4.566   3.623   2.665  0.0904 -0.8135 -0.4467
 2338SOL    HW118473   4.492   3.572   2.699 -0.2473  1.4577  2.1715
 2338SOL    HW218474   4.546   3.707   2.705 -0.4376  0.7926 -4.1042
 2339SOL     OW18475   4.076   1.864   4.883 -0.2214  0.3545  0.4610
 2339SOL    HW118476   3.985   1.892   4.889 -0.2766  0.0136  1.1618
 2339SOL    HW218477   4.067   1.776   4.846 -2.9173  0.9898 -0.4211
 2340SOL     OW18478   2.111   4.013   2.818 -0.5477  0.3061 -0.0666
 2340SOL    HW118479   2.160   4.095   2.818 -1.8099  1.0590  0.5021
 2340SOL    HW218480   2.177   3.946   2.800  0.1391  0.8136  0.6248
 2341SOL     OW18481   0.666   4.698  11.377 -0.5054  0.5535 -0.0326
 2341SOL    HW118482   0.657   4.675  11.469  2.0410 -0.5569 -0.0480
 2341SOL    HW218483   0.581   0.017  11.361  0.2095  2.1797  0.1897
 2342SOL     OW18484   4.397   1.376   8.573  0.1799 -0.4986 -0.3043
 2342SOL    HW118485   4.479   1.335   8.601  0.7121 -0.3297 -1.6377
 2342SOL    HW218486   4.380   1.443   8.639 -1.1456 -1.1435  0.0021
 2343SOL     OW18487   2.349   3.047   7.071 -0.3623  0.0986  0.1760
 2343SOL    HW118488   2.374   3.081   7.157  1.9803 -0.5893 -0.2510
 2343SOL    HW218489   2.330   3.126   7.021  1.1207  0.7129  0.5801
 2344SOL     OW18490   4.639   2.992   9.244  0.6273  0.5039  0.4016
 2344SOL    HW118491   4.619   2.988   9.150 -1.6613  1.2977  0.8426
 2344SOL    HW218492   4.585   3.065   9.276 -0.1186 -0.1847  0.7291
 2345SOL     OW18493   0.089   1.362   8.334 -0.8527 -0.6858  0.9499
 2345SOL    HW118494   0.026   1.430   8.310  0.9063  0.7171  0.3043
 2345SOL    HW218495   0.073   1.292   8.272 -4.3467 -0.7344  1.8847
 2346SOL     OW18496   4.657   1.331   1.651 -0.3154 -0.0916 -0.4683
 2346SOL    HW118497   4.586   1.393   1.636  0.7033  0.9483 -1.0098
 2346SOL    HW218498   4.610   1.259   1.608  1.0846 -1.0813 -0.3618
 2347SOL     OW18499   0.648   2.154  12.920  0.2282 -0.1424 -0.3747
 2347SOL    HW118500   0.608   2.223  12.973  0.9180 -2.0835  2.6927
 2347SOL    HW218501   0.741   2.175  12.926 -0.0917  1.7808 -2.0586
 2348SOL     OW18502   2.186   3.309   7.168  0.2087  0.1102  0.5419
 2348SOL    HW118503   2.098   3.335   7.194  1.2548  3.4096  0.7590
 2348SOL    HW218504   2.243   3.354   7.230  2.7944 -2.2327 -0.1450
 2349SOL     OW18505   2.586   0.772   0.917 -0.2648 -0.6472  0.0611
 2349SOL    HW118506   2.492   0.756   0.930 -0.5425  0.2818 -0.7997
 2349SOL    HW218507   2.577   0.779   0.822 -0.6295  1.1289  0.2258
 2350SOL     OW18508   1.083   2.786   4.390 -0.0196 -0.3812  0.1384
 2350SOL    HW118509   1.108   2.851   4.324  3.7557 -1.6046  0.4133
 2350SOL    HW218510   1.101   2.702   4.348  0.3703 -1.1951  1.9399
 2351SOL     OW18511   4.107   0.007   4.062 -0.3357 -0.0328 -0.4079
 2351SOL    HW118512   4.140   0.049   4.141 -1.0191 -2.7528  1.3356
 2351SOL    HW218513   4.173   0.032   3.997  2.5175  1.4729  3.0524
 2352SOL     OW18514   1.985   2.832   5.996  0.3108 -0.4594  0.0540
 2352SOL    HW118515   2.003   2.923   6.022  0.0705 -0.4343  0.1330
 2352SOL    HW218516   1.914   2.848   5.935 -0.1572 -3.3594 -0.1702
 2353SOL     OW18517   3.407   0.584  12.876 -0.1602 -0.9659  0.7678
 2353SOL    HW118518   3.396   0.490  12.892  3.8296 -1.4612  0.5297
 2353SOL    HW218519   3.316   0.613  12.873  0.4561  1.1855  2.7393
 2354SOL     OW18520   0.300   3.710  10.397 -0.0218 -0.0889 -0.4937
 2354SOL    HW118521   0.249   3.762  10.336 -4.8536 -1.2032  2.5317
 2354SOL    HW218522   0.258   3.722  10.482  0.0617 -1.0196 -0.3152
 2355SOL     OW18523   0.901   1.290   5.067 -0.3492  0.2351  0.1449
 2355SOL    HW118524   0.839   1.310   4.996  1.2008 -0.1950 -1.3173
 2355SOL    HW218525   0.840   1.294   5.141 -0.3313 -0.8185  0.2212
 2356SOL     OW18526   0.554   3.942   1.971  0.2788  0.0104  0.5584
 2356SOL    HW118527   0.591   3.986   1.895 -0.7109 -1.3486 -0.7032
 2356SOL    HW218528   0.473   3.901   1.940  2.2957 -2.9422 -0.7428
 2357SOL     OW18529   2.589   3.468   2.563  0.0437  0.1452  0.0858
 2357SOL    HW118530   2.675   3.510   2.569 -0.4814  1.1278  0.6602
 2357SOL    HW218531   2.556   3.458   2.652  0.3134  1.2122  0.3076
 2358SOL     OW18532   4.493   3.571   6.755  0.3006 -0.2538 -0.6500
 2358SOL    HW118533   4.556   3.580   6.826  1.2896  1.5243 -1.7387
 2358SOL    HW218534   4.442   3.495   6.781 -0.4829 -0.0675 -1.6252
 2359SOL     OW18535   3.005   0.990  13.297 -0.0624 -0.4976  0.7597
 2359SOL    HW118536   2.979   0.909  13.253 -2.2767  1.0541 -0.8466
 2359SOL    HW218537   3.047   1.037  13.226  1.0920 -1.1102  1.0461
 2360SOL     OW18538   1.706   0.437   4.388  0.5303 -0.1801 -0.5240
 2360SOL    HW118539   1.774   0.382   4.348 -0.1516 -1.2057 -0.2634
 2360SOL    HW218540   1.673   0.376   4.453  0.0168 -1.1908 -1.7322
 2361SOL     OW18541   4.017   3.022   8.586 -0.0367 -0.2901 -0.5292
 2361SOL    HW118542   3.927   3.050   8.603  0.0574  0.3804 -1.1398
 2361SOL    HW218543   4.054   3.042   8.672  1.6409 -1.3183 -1.0047
 2362SOL     OW18544   0.636   0.416  10.376  0.4399 -0.6919 -0.4419
 2362SOL    HW118545   0.610   0.414  10.284  0.6836 -0.7457 -0.5101
 2362SOL    HW218546   0.666   0.505  10.394 -0.2938 -0.8489  1.5780
 2363SOL     OW18547   0.775   0.658  11.659  0.0423 -0.0967  0.0904
 2363SOL    HW118548   0.825   0.638  11.738  0.7621  2.7369  0.3551
 2363SOL    HW218549   0.815   0.741  11.632  1.8352 -1.1856 -0.5473
 2364SOL     OW18550   4.545   0.057   2.546  0.3442  0.2846  0.4074
 2364SOL    HW118551   4.479   4.711   2.524  0.4019  0.6171 -0.7480
 2364SOL    HW218552   4.514   0.128   2.491 -2.3761 -2.6308 -1.8536
 2365SOL     OW18553   2.341   0.180  14.045  0.6507  0.4892  0.1519
 2365SOL    HW118554   2.392   0.253  14.009  1.5952 -0.0988  0.2958
 2365SOL    HW218555   2.381   0.102  14.007  0.8081  1.1827 -1.0810
 2366SOL     OW18556   3.463   0.614  10.516  0.6219 -0.3107 -0.1716
 2366SOL    HW118557   3.439   0.694  10.563  1.3890 -1.0712  1.5137
 2366SOL    HW218558   3.558   0.622  10.526  0.6238  0.1808 -0.5879
 2367SOL     OW18559   2.254   1.115  13.139 -0.1197 -0.5268 -0.2041
 2367SOL    HW118560   2.294   1.062  13.071  2.0675 -2.1470  2.3872
 2367SOL    HW218561   2.202   1.051  13.187  0.0225 -0.2237  0.3642
 2368SOL     OW18562   0.518   0.990   6.716  0.0352 -0.1019 -0.3214
 2368SOL    HW118563   0.505   1.081   6.687 -1.3535 -0.5031 -0.9641
 2368SOL    HW218564   0.609   1.005   6.741 -0.4322  0.6311  0.9675
 2369SOL     OW18565   3.792   2.532   9.393 -0.0707  0.0892 -0.5432
 2369SOL    HW118566   3.721   2.570   9.445 -1.0012 -2.3067 -0.0672
 2369SOL    HW218567   3.856   2.603   9.401 -2.4846  2.1269  0.5423
 2370SOL     OW18568   0.119   1.733  14.345 -0.1643  0.2453 -0.4763
 2370SOL    HW118569   0.212   1.755  14.338  0.3498 -2.1322 -0.8949
 2370SOL    HW218570   0.109   1.688  14.429 -1.8306  0.6254 -0.4689
 2371SOL     OW18571   2.584   4.296   0.776 -0.3254 -0.9540  0.5655
 2371SOL    HW118572   2.559   4.232   0.844  2.2056 -2.0389  0.4796
 2371SOL    HW218573   2.661   4.251   0.741  2.1631  3.2612  0.5840
 2372SOL     OW18574   0.646   2.637   0.424 -0.1228 -0.2492  0.5630
 2372SOL    HW118575   0.683   2.646   0.336  0.4585 -3.0637  0.5406
 2372SOL    HW218576   0.679   2.719   0.462 -2.3735  0.4807  0.9862
 2373SOL     OW18577   2.599   0.011   6.699 -0.2449  0.3114  0.0918
 2373SOL    HW118578   2.555   4.647   6.688  1.5656 -0.9166  2.5918
 2373SOL    HW218579   2.671   0.008   6.636  0.0005  0.1839  0.3774
 2374SOL     OW18580   2.492   2.272   3.269  0.0451  0.1834  0.0655
 2374SOL    HW118581   2.555   2.207   3.236  0.9512  0.9738  0.2571
 2374SOL    HW218582   2.424   2.215   3.304  1.5028 -0.9208  1.0772
 2375SOL     OW18583   2.942   4.125  10.102 -0.0802  0.4188 -0.0915
 2375SOL    HW118584   3.000   4.089  10.035  0.1934 -2.5738  1.7493
 2375SOL    HW218585   2.914   4.202  10.052  0.7664  0.0903 -1.0828
 2376SOL     OW18586   0.072   3.093   8.880  0.0941 -0.6853 -0.3207
 2376SOL    HW118587   0.080   3.187   8.896  0.3132 -0.4159 -1.9456
 2376SOL    HW218588   4.718   3.060   8.930 -0.0774  0.8864  0.4712
 2377SOL     OW18589   0.327   3.068  15.735 -0.6562 -0.1465  0.3562
 2377SOL    HW118590   0.269   3.136  15.702 -0.3792  0.9493  2.0977
 2377SOL    HW218591   0.286   3.042  15.818 -0.8985 -1.3368 -0.1253
 2378SOL     OW18592   2.059   2.961   2.682  0.0788 -0.1138  0.3765
 2378SOL    HW118593   2.141   2.913   2.689  0.8192  0.8970 -1.3551
 2378SOL    HW218594   2.082   3.053   2.668 -3.5343  0.8564  0.6888
 2379SOL     OW18595   1.986   1.244  14.626  0.2749  0.1799  0.0639
 2379SOL    HW118596   2.059   1.228  14.686 -1.4292  0.8147  2.3120
 2379SOL    HW218597   1.976   1.155  14.591  1.8550  0.1620 -0.3526
 2380SOL     OW18598   3.942   3.227  15.960  0.1378  0.1023 -0.5922
 2380SOL    HW118599   4.016   3.282  15.987 -0.5853 -0.4525  2.5641
 2380SOL    HW218600   3.971   3.137  15.947  0.4379  0.1622 -0.3393
 2381SOL     OW18601   0.852   0.000   1.168  0.4175  0.5544  0.2022
 2381SOL    HW118602   0.786   4.709   1.235 -0.0302 -1.4629 -0.6069
 2381SOL    HW218603   0.813   0.072   1.118 -0.4867  0.1395  0.3227
 2382SOL     OW18604   1.539   3.387   2.709 -1.0535 -0.4770  0.0188
 2382SOL    HW118605   1.576   3.312   2.662 -1.6202 -0.9360  0.2949
 2382SOL    HW218606   1.538   3.462   2.649  1.5790 -0.5569 -0.0865
 2383SOL     OW18607   3.546   2.652   7.304 -0.1565  0.1037 -0.1093
 2383SOL    HW118608   3.501   2.616   7.228  2.1103  0.2381 -1.5173
 2383SOL    HW218609   3.535   2.586   7.372  2.4474 -0.3974 -0.1724
 2384SOL     OW18610   1.304   3.566   8.254 -0.9540 -0.2622  0.1119
 2384SOL    HW118611   1.327   3.589   8.164 -1.3692  1.5955  0.4826
 2384SOL    HW218612   1.259   3.641   8.293  0.6157  0.4547  0.5698
 2385SOL     OW18613   1.515   1.400  14.119  0.2819  0.2256  0.5080
 2385SOL    HW118614   1.506   1.478  14.066  0.7283  0.6570  1.0614
 2385SOL    HW218615   1.428   1.364  14.102 -0.5763  1.4245  2.4191
 2386SOL     OW18616   4.270   2.001   1.835 -0.1627  0.0570 -0.0903
 2386SOL    HW118617   4.213   2.079   1.832  1.1540  1.1302  2.4739
 2386SOL    HW218618   4.218   1.942   1.781  0.4392 -0.8474  0.3340
 2387SOL     OW18619   3.180   2.583   2.610 -0.1539 -0.6665  0.0859
 2387SOL    HW118620   3.112   2.533   2.656  1.4313 -0.3138  2.7834
 2387SOL    HW218621   3.236   2.611   2.683 -1.1279 -0.0787  0.6126
 2388SOL     OW18622   3.610   0.824   7.889  0.2763 -0.5759 -0.3596
 2388SOL    HW118623   3.586   0.828   7.981  1.4852  0.0129 -0.0695
 2388SOL    HW218624   3.670   0.749   7.878 -0.7606 -1.4912  0.2129
 2389SOL     OW18625   3.235   0.687  15.911 -0.4186  0.3118  0.2638
 2389SOL    HW118626   3.286   0.660  15.988 -0.2120  0.3995  0.1562
 2389SOL    HW218627   3.144   0.698  15.939 -0.0998  0.9872  1.0511
 2390SOL     OW18628   2.761   3.640   5.081 -0.3326 -0.1949  0.6169
 2390SOL    HW118629   2.669   3.654   5.058  0.2379 -0.4757 -1.8965
 2390SOL    HW218630   2.784   3.727   5.114 -1.7544 -0.8914  3.4124
 2391SOL     OW18631   1.318   3.894   7.505  0.4733 -0.6095 -0.6509
 2391SOL    HW118632   1.384   3.953   7.467  1.0375 -0.1878  0.9897
 2391SOL    HW218633   1.372   3.834   7.556  0.9986 -0.7577 -1.3852
 2392SOL     OW18634   0.753   3.627   2.161 -0.6834  1.1682 -0.3867
 2392SOL    HW118635   0.804   3.681   2.220  2.0084 -3.2921  1.3276
 2392SOL    HW218636   0.803   3.647   2.082  2.9513 -1.6674  1.2023
 2393SOL     OW18637   4.409   0.417   2.116  0.1574 -0.1740 -0.1454
 2393SOL    HW118638   4.463   0.496   2.113 -0.1122 -0.0372 -1.7371
 2393SOL    HW218639   4.318   0.447   2.115  0.6407  1.2995 -1.6039
 2394SOL     OW18640   2.510   0.113   2.463 -0.1930  0.5090  0.0865
 2394SOL    HW118641   2.528   0.020   2.470 -1.4855  0.2853  0.4936
 2394SOL    HW218642   2.576   0.148   2.404 -1.3423 -1.5858 -2.3963
 2395SOL     OW18643   0.498   4.417   9.043 -0.3928  0.1484  0.1792
 2395SOL    HW118644   0.565   4.356   9.012 -0.1801  1.1768 -1.3847
 2395SOL    HW218645   0.544   4.498   9.022 -1.1173  0.2879 -0.8549
 2396SOL     OW18646   3.966   3.116   8.000 -0.0712 -0.0300  0.1186
 2396SOL    HW118647   3.996   3.058   7.929  0.6720  0.3987  0.0856
 2396SOL    HW218648   3.968   3.062   8.079 -1.8292  1.0442  0.8867
 2397SOL     OW18649   3.020   3.473   1.282 -0.5359 -0.1830 -0.7390
 2397SOL    HW118650   3.112   3.447   1.293  0.3534  1.7040 -3.7706
 2397SOL    HW218651   3.006   3.461   1.188 -2.1199 -0.3759 -0.4765
 2398SOL     OW18652   3.142   3.165   4.304 -0.0018  0.0771 -0.5203
 2398SOL    HW118653   3.128   3.112   4.382  1.0956 -0.3650 -0.6227
 2398SOL    HW218654   3.102   3.110   4.237  0.8883  2.3198 -2.8982
 2399SOL     OW18655   4.445   3.775   6.603 -0.2749  0.1565 -0.5875
 2399SOL    HW118656   4.473   3.730   6.682  0.0928 -1.3595 -1.5894
 2399SOL    HW218657   4.385   3.846   6.628 -1.6446 -0.9360 -0.7455
 2400SOL     OW18658   2.031   3.398   6.334 -0.0958 -0.2658 -0.0691
 2400SOL    HW118659   1.978   3.375   6.258 -1.7957 -0.2411  1.1077
 2400SOL    HW218660   2.065   3.308   6.342  2.2367  0.8593  2.5597
 2401SOL     OW18661   4.458   0.843  13.765 -0.6918 -0.0924  0.1136
 2401SOL    HW118662   4.536   0.796  13.732 -0.7846  0.5888 -1.0938
 2401SOL    HW218663   4.492   0.925  13.800 -1.8536  0.4233  0.0193
 2402SOL     OW18664   1.385   0.861  16.767 -0.7939 -0.2349  0.1733
 2402SOL    HW118665   1.423   0.774  16.782  0.4703  0.5652  1.5395
 2402SOL    HW218666   1.384   0.905  16.851 -2.2997 -0.5797  0.3527
 2403SOL     OW18667   3.762   2.653   7.954  0.1825  0.1269  0.0858
 2403SOL    HW118668   3.738   2.678   7.865 -0.0142  2.4395  0.7912
 2403SOL    HW218669   3.689   2.693   8.000 -1.6108 -2.5697 -0.3794
 2404SOL     OW18670   4.370   4.147   5.851  0.4498  0.2220 -0.2826
 2404SOL    HW118671   4.365   4.062   5.808 -1.4600  0.4948 -0.6104
 2404SOL    HW218672   4.366   4.125   5.944  2.3026  1.1185  0.0091
 2405SOL     OW18673   0.259   1.453  10.666 -0.4625  0.3280  0.1883
 2405SOL    HW118674   0.327   1.403  10.621  0.8139  1.8298  0.4434
 2405SOL    HW218675   0.302   1.447  10.752  1.5527  0.4610 -0.7979
 2406SOL     OW18676   3.431   3.845   7.488 -0.5257 -0.2151 -0.2620
 2406SOL    HW118677   3.515   3.889   7.497 -0.3677  0.0660 -2.9186
 2406SOL    HW218678   3.411   3.843   7.394 -1.7124  2.8168 -0.0486
 2407SOL     OW18679   0.289   1.500   2.020  0.0280  0.0803  0.7966
 2407SOL    HW118680   0.250   1.550   1.948  1.1401 -0.7258 -0.3587
 2407SOL    HW218681   0.229   1.522   2.091 -1.5932  1.5951 -1.0410
 2408SOL     OW18682   4.557   3.871  17.426  0.0738  0.7182  0.1673
 2408SOL    HW118683   4.544   3.952  17.376  0.6127  2.2202  2.4952
 2408SOL    HW218684   4.469   3.833  17.426  0.9232 -1.2258  0.6651
 2409SOL     OW18685   1.344   3.988   0.340  0.1979 -0.2649 -0.0320
 2409SOL    HW118686   1.426   3.939   0.350 -0.3722 -0.9024  1.5106
 2409SOL    HW218687   1.294   3.950   0.412  0.7612  0.7832  0.9177
 2410SOL     OW18688   1.888   3.135  11.407  0.1349  0.1685  0.3551
 2410SOL    HW118689   1.827   3.209  11.414 -0.3657 -0.1985 -0.0828
 2410SOL    HW218690   1.909   3.143  11.314  0.9791 -1.0355  0.4354
 2411SOL     OW18691   3.064   3.017   8.628 -0.2974 -0.0320  0.0071
 2411SOL    HW118692   3.028   2.942   8.676 -2.5300  0.5729 -0.7266
 2411SOL    HW218693   3.024   3.085   8.681 -0.0282  1.8948 -2.2662
 2412SOL     OW18694   2.810   2.016   1.273  0.5630 -0.3132 -0.0229
 2412SOL    HW118695   2.898   2.036   1.241 -0.0035 -1.2358 -2.1807
 2412SOL    HW218696   2.812   1.921   1.268 -0.4048 -0.3275 -0.1290
 2413SOL     OW18697   1.704   0.477   4.118 -0.1808 -0.0509  0.4328
 2413SOL    HW118698   1.792   0.513   4.116 -0.4793  0.6931  0.5917
 2413SOL    HW218699   1.703   0.448   4.209 -0.7231 -2.7507 -0.4250
 2414SOL     OW18700   0.532   1.397   8.950 -0.5291  0.1002 -0.4818
 2414SOL    HW118701   0.538   1.303   8.932  1.5664  0.4953 -1.8208
 2414SOL    HW218702   0.438   1.405   8.935 -0.2810  2.5865 -0.6060
 2415SOL     OW18703   3.527   3.276   7.767  0.0756 -0.3933  0.3078
 2415SOL    HW118704   3.557   3.229   7.846 -0.1919  0.1961  0.7535
 2415SOL    HW218705   3.504   3.362   7.802 -0.3095 -0.6835  0.7645
 2416SOL     OW18706   3.945   1.038  15.487 -0.3221 -0.1876 -0.0327
 2416SOL    HW118707   3.892   0.969  15.448 -2.0037  0.5416  0.9588
 2416SOL    HW218708   3.904   1.115  15.448  0.1548  0.3355  0.4944
 2417SOL     OW18709   4.699   0.494  14.520 -0.0501  0.2038 -0.3825
 2417SOL    HW118710   4.662   0.578  14.492  1.5422  0.6886 -1.0311
 2417SOL    HW218711   4.649   0.444  14.455  1.5534  0.8253 -2.0920
 2418SOL     OW18712   4.340   1.763   1.478 -0.1588  0.0973 -0.1440
 2418SOL    HW118713   4.416   1.803   1.519  0.3219  0.8899 -1.8165
 2418SOL    HW218714   4.274   1.783   1.544 -0.0645 -0.6307  0.1701
 2419SOL     OW18715   4.067   2.720   4.026  0.0793 -0.3206 -0.0162
 2419SOL    HW118716   4.089   2.762   3.943 -0.6218  1.0552  0.4939
 2419SOL    HW218717   4.020   2.646   3.985 -0.2815  0.3775 -0.8611
 2420SOL     OW18718   1.745   1.480   5.085 -0.1981 -0.9086 -0.2437
 2420SOL    HW118719   1.803   1.509   5.156  0.9412 -0.9116 -1.1738
 2420SOL    HW218720   1.693   1.417   5.136 -0.0757 -0.7240  0.1095
 2421SOL     OW18721   0.888   2.988   2.775 -0.3525 -0.4381  0.2668
 2421SOL    HW118722   0.793   2.978   2.782 -0.7571  2.3686 -1.3796
 2421SOL    HW218723   0.925   2.900   2.782 -0.0105 -0.2246  1.2536
 2422SOL     OW18724   2.074   4.649  12.669 -0.5334  0.2991 -0.1097
 2422SOL    HW118725   2.008   4.579  12.662  0.9939 -1.0017 -1.6679
 2422SOL    HW218726   2.120   4.645  12.585  0.2519 -0.9428  0.3777
 2423SOL     OW18727   1.414   4.001   2.566 -0.4805  0.2032  0.6060
 2423SOL    HW118728   1.473   4.003   2.642 -1.7115 -1.8269  1.6205
 2423SOL    HW218729   1.446   4.076   2.517 -0.2134 -0.6393 -0.5161
 2424SOL     OW18730   2.502   3.205  16.899  0.3823 -0.2461  0.2606
 2424SOL    HW118731   2.494   3.119  16.941 -2.4666 -0.3911 -0.5693
 2424SOL    HW218732   2.481   3.164  16.815 -0.8537 -0.6833  0.7815
 2425SOL     OW18733   3.155   0.268   6.731 -1.2452 -0.3278 -0.0869
 2425SOL    HW118734   3.248   0.254   6.715 -0.8294 -0.0439  2.0051
 2425SOL    HW218735   3.138   0.340   6.671  0.7634 -1.1873 -1.6614
 2426SOL     OW18736   3.433   1.912   8.108 -0.3195  0.3841  0.0073
 2426SOL    HW118737   3.378   1.852   8.058 -0.6494  0.4305  0.3124
 2426SOL    HW218738   3.497   1.944   8.044  0.7528  0.3745  1.0712
 2427SOL     OW18739   1.346   0.366   7.419 -0.3286  0.4298  0.1978
 2427SOL    HW118740   1.412   0.432   7.441 -0.5256  1.1808 -1.5067
 2427SOL    HW218741   1.319   0.334   7.505 -0.2117 -3.0431 -1.0524
 2428SOL     OW18742   0.139   2.133   2.407  0.7259  0.4060 -0.0733
 2428SOL    HW118743   0.146   2.181   2.490  0.0077 -0.8620  0.7028
 2428SOL    HW218744   0.199   2.062   2.430  0.1845  1.1437  3.6838
 2429SOL     OW18745   2.445   1.400   3.677 -0.0087  0.1611 -0.2577
 2429SOL    HW118746   2.457   1.305   3.682  2.5005  0.6365  2.6475
 2429SOL    HW218747   2.431   1.424   3.769 -2.3556 -3.3813  0.3258
 2430SOL     OW18748   0.743   4.598   9.724  0.3794  0.2969 -0.3085
 2430SOL    HW118749   0.697   4.681   9.720 -1.3428 -0.4824  3.0299
 2430SOL    HW218750   0.796   4.608   9.804  0.1134 -2.7304  0.2475
 2431SOL     OW18751   2.995   0.316   4.706 -0.0391 -0.0215  0.0931
 2431SOL    HW118752   2.999   0.402   4.747 -3.3454 -0.0431  0.4235
 2431SOL    HW218753   2.936   0.344   4.637 -1.1450  0.3885  1.1978
 2432SOL     OW18754   1.983   1.359   7.072 -0.3356  0.2347  0.2305
 2432SOL    HW118755   2.004   1.404   6.990  0.5939 -1.9449 -0.7058
 2432SOL    HW218756   1.896   1.327   7.050 -0.4849  0.3572  0.6408
 2433SOL     OW18757   1.599   4.316  11.508 -0.5590  0.1378 -0.1479
 2433SOL    HW118758   1.600   4.392  11.450 -1.3097 -1.0126 -1.6733
 2433SOL    HW218759   1.512   4.317  11.548  0.6896  1.0736  2.5381
 2434SOL     OW18760   3.039   2.574   4.711 -0.1231 -0.7155 -0.2922
 2434SOL    HW118761   2.962   2.563   4.654 -0.4895 -0.5201  0.1636
 2434SOL    HW218762   3.073   2.654   4.671  0.1591  0.2200  1.8195
 2435SOL     OW18763   0.780   2.864   1.310 -0.1276 -0.5832 -0.3714
 2435SOL    HW118764   0.787   2.900   1.221 -2.3877 -1.1676 -0.7682
 2435SOL    HW218765   0.818   2.940   1.354 -1.0798 -0.0575 -0.4612
 2436SOL     OW18766   2.904   4.216   7.758  0.4115 -0.1081 -0.4778
 2436SOL    HW118767   2.831   4.161   7.731 -0.1124  1.3894 -2.2079
 2436SOL    HW218768   2.950   4.160   7.819 -1.0501 -0.9966 -0.2153
 2437SOL     OW18769   2.644   2.412   8.047 -0.0823  0.5069 -0.3858
 2437SOL    HW118770   2.686   2.466   8.114 -2.4805  1.3622  0.4141
 2437SOL    HW218771   2.655   2.319   8.070  3.0097  0.5836 -1.5761
 2438SOL     OW18772   3.614   4.420  10.413 -0.1561  0.2791  0.0341
 2438SOL    HW118773   3.685   4.359  10.430  0.6415  1.4159  0.8294
 2438SOL    HW218774   3.635   4.421  10.320 -0.0552  0.7543  0.0588
 2439SOL     OW18775   4.190   0.976   8.319  0.2083  0.5983  0.4358
 2439SOL    HW118776   4.148   0.897   8.354  1.0712 -0.6989 -1.4966
 2439SOL    HW218777   4.278   0.947   8.297  0.2294  0.7810  0.2739
 2440SOL     OW18778   0.439   3.364  14.452 -0.6233 -0.0939  0.1317
 2440SOL    HW118779   0.419   3.390  14.363  1.3492  0.1517 -0.2184
 2440SOL    HW218780   0.504   3.430  14.475 -2.1490  1.4712 -0.0871
 2441SOL     OW18781   2.011   1.581   2.897  0.2248  0.5773 -0.4903
 2441SOL    HW118782   1.974   1.597   2.984 -0.1164 -0.7519 -0.3922
 2441SOL    HW218783   1.929   1.564   2.851 -0.0212  0.2978  0.0520
 2442SOL     OW18784   1.023   3.578   6.866  0.5367 -0.0430  0.1270
 2442SOL    HW118785   0.945   3.529   6.843 -0.4703  1.1740  0.9179
 2442SOL    HW218786   1.077   3.529   6.804  0.8276 -2.1841  2.0933
 2443SOL     OW18787   4.388   2.586   9.163  0.0223 -0.3572  0.4112
 2443SOL    HW118788   4.344   2.646   9.224 -0.4580  0.9375 -1.2157
 2443SOL    HW218789   4.314   2.542   9.121  1.8609 -1.6400 -1.4436
 2444SOL     OW18790   3.358   3.240   8.800  0.1639  0.0585 -0.6811
 2444SOL    HW118791   3.383   3.179   8.870 -1.5868  1.1976  0.9420
 2444SOL    HW218792   3.367   3.328   8.835  1.3529  0.0090 -0.8854
 2445SOL     OW18793   0.617   1.905   5.635  0.5625 -0.3851 -0.3583
 2445SOL    HW118794   0.689   1.888   5.695 -1.5229  0.3079  2.3138
 2445SOL    HW218795   0.626   1.825   5.582  0.9969  0.6373 -1.8513
 2446SOL     OW18796   2.556   0.118   5.968  0.0949 -0.6740  0.0022
 2446SOL    HW118797   2.596   0.123   6.055  2.1003 -2.0872 -0.8338
 2446SOL    HW218798   2.552   0.024   5.953 -0.4465 -0.3586 -1.8044
 2447SOL     OW18799   1.108   4.668   4.490 -0.2309  0.1273  0.7523
 2447SOL    HW118800   1.021   4.646   4.457  0.5075 -1.3649 -0.2311
 2447SOL    HW218801   1.150   4.584   4.510  2.6656  1.3980 -0.0789
 2448SOL     OW18802   3.083   0.474   4.102 -0.1500  0.1745 -0.1523
 2448SOL    HW118803   3.120   0.535   4.039 -0.2367  0.1266 -0.2492
 2448SOL    HW218804   3.142   0.470   4.177  0.1603 -0.4525 -0.4315
 2449SOL     OW18805   2.475   2.920   8.607 -0.1103 -0.1165 -0.5132
 2449SOL    HW118806   2.412   2.941   8.676 -0.9054  0.7109 -1.4942
 2449SOL    HW218807   2.482   3.008   8.569  0.3080  0.0860  0.0309
 2450SOL     OW18808   3.932   1.148   6.774  0.2296  0.0680 -0.6205
 2450SOL    HW118809   3.865   1.215   6.781  0.0929 -0.0098 -1.1637
 2450SOL    HW218810   3.993   1.204   6.725 -0.5712  2.0701  0.6906
 2451SOL     OW18811   3.116   4.329   8.576  0.5979  0.3602  0.2739
 2451SOL    HW118812   3.117   4.382   8.497 -0.8306 -0.3145 -0.1953
 2451SOL    HW218813   3.024   4.308   8.587  0.6964 -1.4935 -2.6117
 2452SOL     OW18814   1.057   2.320   2.698  0.2812 -0.1216  0.2516
 2452SOL    HW118815   1.133   2.277   2.661  0.3770  0.1169  0.1747
 2452SOL    HW218816   1.067   2.410   2.668 -2.2771 -0.7244 -2.4187
 2453SOL     OW18817   3.196   4.138   9.684 -0.0664  0.5961 -0.1684
 2453SOL    HW118818   3.108   4.160   9.656  0.4518  2.6336 -0.2170
 2453SOL    HW218819   3.192   4.141   9.780 -1.7022  1.8206 -0.2822
 2454SOL     OW18820   1.889   0.274   4.270 -0.5184  0.3166 -0.1033
 2454SOL    HW118821   1.978   0.306   4.254 -0.5901  0.2274 -0.7065
 2454SOL    HW218822   1.908   0.184   4.245 -2.2217 -0.2140  0.5120
 2455SOL     OW18823   3.898   0.800   3.363  0.0804 -0.0135  0.8127
 2455SOL    HW118824   3.884   0.886   3.403  3.1697  0.3604  1.0916
 2455SOL    HW218825   3.904   0.742   3.439 -0.3377 -1.3436 -0.1610
 2456SOL     OW18826   1.158   3.966  16.773  0.0264 -0.1132 -0.2988
 2456SOL    HW118827   1.202   4.016  16.704  0.4243  0.3818  0.3184
 2456SOL    HW218828   1.145   3.880  16.733  1.3226 -0.8728  0.9083
 2457SOL     OW18829   0.662   1.662  13.413  0.8911  0.1760 -0.3493
 2457SOL    HW118830   0.676   1.568  13.426  4.2319  0.7756  0.3721
 2457SOL    HW218831   0.756   1.678  13.403  0.6632  1.3319 -0.6699
 2458SOL     OW18832   3.514   3.092   6.422  0.4384 -0.0274 -0.4586
 2458SOL    HW118833   3.435   3.118   6.374 -0.1459  0.1200  0.5821
 2458SOL    HW218834   3.496   3.127   6.510 -1.4474 -1.2712 -0.3335
 2459SOL     OW18835   1.173   1.382   4.737 -0.1180 -0.1354 -0.0343
 2459SOL    HW118836   1.269   1.386   4.735 -0.1035 -0.4716  0.0239
 2459SOL    HW218837   1.158   1.459   4.792 -3.5832 -1.5715  1.0266
 2460SOL     OW18838   0.991   3.677   8.796  0.0558  0.4247  0.1218
 2460SOL    HW118839   1.044   3.645   8.870  0.4783  0.3854 -0.1958
 2460SOL    HW218840   0.980   3.597   8.745  1.8954 -0.7910  1.6212
 2461SOL     OW18841   4.027   0.060   7.545 -0.2668 -0.0340  0.3601
 2461SOL    HW118842   4.035   0.124   7.474 -0.4689  1.6045  1.8080
 2461SOL    HW218843   3.951   0.011   7.514  0.1214 -0.4951  0.1467
 2462SOL     OW18844   2.658   0.879   6.226 -0.0339  0.7151 -0.1875
 2462SOL    HW118845   2.600   0.882   6.302 -0.0488  0.5299 -0.1901
 2462SOL    HW218846   2.722   0.811   6.250 -1.1843 -0.7195 -1.1561
 2463SOL     OW18847   4.272   2.964   9.213  0.0541  0.2597  0.2693
 2463SOL    HW118848   4.216   2.956   9.136  0.8097 -0.2051 -0.2288
 2463SOL    HW218849   4.344   3.019   9.182  0.1905  1.6169  3.0186
 2464SOL     OW18850   2.151   4.645   7.667  0.1668 -0.0959 -0.6890
 2464SOL    HW118851   2.226   4.590   7.646 -0.0293 -0.4425 -0.4795
 2464SOL    HW218852   2.103   4.620   7.746  1.4107 -1.5601 -0.4179
 2465SOL     OW18853   1.409   3.479   4.540 -0.4511  0.1611  0.1092
 2465SOL    HW118854   1.458   3.469   4.622 -0.8595 -0.7704  0.2426
 2465SOL    HW218855   1.410   3.388   4.511  1.2525 -0.9030  3.5217
 2466SOL     OW18856   2.581   3.313   5.502 -0.0684 -0.1732 -0.3478
 2466SOL    HW118857   2.576   3.402   5.537  1.3374 -0.2978  0.1539
 2466SOL    HW218858   2.673   3.301   5.481 -0.3247 -0.7916 -1.1244
 2467SOL     OW18859   1.477   2.207   3.898  0.0436 -0.3007  0.0070
 2467SOL    HW118860   1.482   2.220   3.804 -0.3630 -1.2075 -0.1425
 2467SOL    HW218861   1.390   2.248   3.906 -0.2847 -1.5110  2.7310
 2468SOL     OW18862   2.722   3.966  10.159 -0.0347  0.3352 -0.0104
 2468SOL    HW118863   2.748   3.923  10.241 -0.4954 -0.2962 -0.1860
 2468SOL    HW218864   2.780   4.041  10.160  1.7801 -1.0599  0.0115
 2469SOL     OW18865   3.493   4.528   9.516  0.6291  0.1473  0.0332
 2469SOL    HW118866   3.434   4.459   9.547  0.3513 -1.1025 -3.3115
 2469SOL    HW218867   3.533   4.556   9.598 -0.7199  1.8270  0.1104
 2470SOL     OW18868   4.203   3.075   2.424  0.0552 -0.5805  0.6025
 2470SOL    HW118869   4.150   3.003   2.459 -0.2349 -0.6874 -0.0646
 2470SOL    HW218870   4.257   3.105   2.497 -0.3012  1.1198  0.1608
 2471SOL     OW18871   3.595   4.437  14.463  0.1239 -0.1095 -0.3388
 2471SOL    HW118872   3.567   4.386  14.539  1.5520 -1.3493 -0.6351
 2471SOL    HW218873   3.680   4.394  14.452  0.4344  0.9890 -2.1005
 2472SOL     OW18874   1.287   2.202  11.785 -0.6859 -0.6112 -0.1881
 2472SOL    HW118875   1.341   2.173  11.712 -0.6959  0.3145 -0.5550
 2472SOL    HW218876   1.346   2.171  11.854  1.0672  0.4930 -1.1633
 2473SOL     OW18877   1.493   0.708   4.972  0.0044  0.2913  0.2434
 2473SOL    HW118878   1.520   0.674   4.887 -1.4727 -1.1812  0.3559
 2473SOL    HW218879   1.493   0.803   4.970  2.7404  0.2887  0.8047
 2474SOL     OW18880   0.574   3.325   5.430  0.0614  0.6382  0.3155
 2474SOL    HW118881   0.631   3.394   5.397  1.8655 -0.2591  1.5752
 2474SOL    HW218882   0.614   3.246   5.393  0.3567  1.4671 -1.0994
 2475SOL     OW18883   3.758   1.648  16.672 -0.5109  0.0903 -0.7484
 2475SOL    HW118884   3.794   1.707  16.738 -0.8466  2.2680 -2.5142
 2475SOL    HW218885   3.740   1.717  16.608  0.0019  1.1153  0.2164
 2476SOL     OW18886   2.457   1.020   7.381 -0.4382  0.3019 -0.1780
 2476SOL    HW118887   2.468   1.032   7.287  0.3817  0.6896 -0.0335
 2476SOL    HW218888   2.548   1.012   7.409  0.3782  0.7799 -2.7538
 2477SOL     OW18889   0.891   2.979   2.100 -0.4729 -0.2246  0.0504
 2477SOL    HW118890   0.823   2.959   2.036 -0.2997  0.5836 -0.3930
 2477SOL    HW218891   0.952   2.913   2.066  0.5859  0.5214  0.4864
 2478SOL     OW18892   1.376   0.370   9.649  0.4797  0.3511  0.0026
 2478SOL    HW118893   1.444   0.433   9.673 -0.6410  1.7114 -0.4178
 2478SOL    HW218894   1.421   0.293   9.615 -0.0211  0.0194  0.0988
 2479SOL     OW18895   3.880   1.846   7.449  0.0699  0.3198 -0.2771
 2479SOL    HW118896   3.948   1.785   7.421  1.5830  1.9362 -0.1017
 2479SOL    HW218897   3.843   1.868   7.364  0.4598  1.7014 -0.0881
 2480SOL     OW18898   3.561   0.891  12.105 -0.1168  0.1469 -0.3678
 2480SOL    HW118899   3.619   0.896  12.030  1.1872  0.3799  0.6609
 2480SOL    HW218900   3.609   0.843  12.172 -1.4539 -1.3403 -0.4646
 2481SOL     OW18901   3.436   3.808   4.166 -0.2922  0.1743 -0.0725
 2481SOL    HW118902   3.480   3.724   4.152 -1.7543 -0.7974  1.1141
 2481SOL    HW218903   3.452   3.835   4.075 -0.3392  0.2648 -0.0534
 2482SOL     OW18904   2.395   3.415   6.607  0.1355  0.0339 -0.7013
 2482SOL    HW118905   2.409   3.376   6.520  0.5202 -0.1330 -0.5665
 2482SOL    HW218906   2.474   3.469   6.615 -0.7864  0.9035  2.3280
 2483SOL     OW18907   1.987   2.042  12.794 -0.2566 -0.1055 -0.7973
 2483SOL    HW118908   1.984   2.137  12.796 -0.3744 -0.1135 -0.6118
 2483SOL    HW218909   1.897   2.017  12.771 -1.2143  2.9469 -0.3064
 2484SOL     OW18910   0.222   0.686   0.075  0.2116  0.0649  0.5979
 2484SOL    HW118911   0.266   0.607   0.043 -0.8533 -0.9784  1.7411
 2484SOL    HW218912   0.231   0.740  17.682  1.1819  1.1624  1.4662
 2485SOL     OW18913   4.177   1.846   3.848  0.4067  0.7078  0.0314
 2485SOL    HW118914   4.158   1.914   3.912  1.0230 -0.6005  1.5885
 2485SOL    HW218915   4.186   1.771   3.907 -1.2257  0.9100  0.5361
 2486SOL     OW18916   2.213   0.862   7.274 -0.2312  0.2692  0.1067
 2486SOL    HW118917   2.298   0.903   7.289  0.3298 -0.8120 -0.0903
 2486SOL    HW218918   2.209   0.781   7.325 -1.2687  0.4365  0.3036
 2487SOL     OW18919   1.850   3.388  11.198  0.3283 -0.1672  0.2782
 2487SOL    HW118920   1.910   3.319  11.169  0.7491  0.5491 -0.5916
 2487SOL    HW218921   1.843   3.429  11.112 -0.5258 -0.4045  0.2349
 2488SOL     OW18922   3.772   3.761   1.796 -0.0165  0.0729  0.1614
 2488SOL    HW118923   3.680   3.775   1.815 -0.2936 -2.6226  0.7480
 2488SOL    HW218924   3.747   3.699   1.727  0.4021  0.2611 -0.1636
 2489SOL     OW18925   0.094   1.860   3.002  0.0338  1.2980  0.0667
 2489SOL    HW118926   0.063   1.838   3.089  0.5206 -3.3799 -0.9203
 2489SOL    HW218927   0.159   1.790   3.006 -0.2939  0.7440 -3.7814
 2490SOL     OW18928   4.398   3.429  13.953  0.8332  0.5896 -0.3768
 2490SOL    HW118929   4.324   3.372  13.975  0.7620  0.7063 -0.3151
 2490SOL    HW218930   4.477   3.375  13.944  0.3484 -0.5478  1.9776
 2491SOL     OW18931   4.667   3.963  16.120  0.3374  0.1125  0.4212
 2491SOL    HW118932   4.618   3.936  16.198 -1.4362 -0.3912 -0.8731
 2491SOL    HW218933   4.667   4.053  16.152 -0.9476 -0.2574  1.4877
 2492SOL     OW18934   3.467   2.481   7.500 -0.9980  0.1019 -0.1106
 2492SOL    HW118935   3.489   2.388   7.491  1.5709  0.7571 -0.7794
 2492SOL    HW218936   3.437   2.483   7.591  0.0215 -1.0521  0.2580
 2493SOL     OW18937   4.111   3.115   8.297  0.1613 -0.9008 -0.0920
 2493SOL    HW118938   4.086   3.039   8.349  0.0904 -1.9926 -1.7302
 2493SOL    HW218939   4.046   3.175   8.335  3.0200  2.2594 -0.1161
 2494SOL     OW18940   1.397   0.125  15.203 -0.1472  0.1171 -0.4778
 2494SOL    HW118941   1.405   0.055  15.268 -1.7107  0.5775  0.2148
 2494SOL    HW218942   1.382   0.199  15.261 -1.0274 -0.9391  0.6514
 2495SOL     OW18943   2.549   3.912   4.646 -0.0163 -0.1483 -0.1503
 2495SOL    HW118944   2.614   3.922   4.715  0.3902 -0.9272 -0.4260
 2495SOL    HW218945   2.526   3.823   4.672  0.1184 -0.0879  0.1773
 2496SOL     OW18946   2.021   1.278   2.599  0.4620  0.0542  0.7823
 2496SOL    HW118947   2.078   1.298   2.525  0.8821 -3.1716  0.2286
 2496SOL    HW218948   2.037   1.345   2.666  0.3381 -0.1701  1.0355
 2497SOL     OW18949   2.609   0.496   6.943  0.0763  0.5452 -0.2141
 2497SOL    HW118950   2.598   0.512   7.037 -1.7136  3.2218 -0.8877
 2497SOL    HW218951   2.697   0.524   6.918  0.1204 -0.7664 -1.5629
 2498SOL     OW18952   1.421   3.424  17.073  0.0807 -0.8921  0.1755
 2498SOL    HW118953   1.418   3.332  17.101  0.0131 -1.0627 -0.3825
 2498SOL    HW218954   1.363   3.466  17.137 -0.7435 -2.9146  0.7795
 2499SOL     OW18955   1.895   0.124   2.467 -0.2415 -0.5886 -0.1400
 2499SOL    HW118956   1.868   0.188   2.401 -0.5514 -1.6559 -1.0278
 2499SOL    HW218957   1.834   0.052   2.453  0.6459 -1.7663  1.9844
 2500SOL     OW18958   4.345   4.344   1.421  0.4771 -0.4028 -0.2048
 2500SOL    HW118959   4.359   4.432   1.457  0.0267 -0.9565  1.2935
 2500SOL    HW218960   4.296   4.311   1.496  1.4049 -0.6591  0.2921
 2501SOL     OW18961   0.447   2.249   4.773  0.2994 -0.0113  0.2038
 2501SOL    HW118962   0.514   2.316   4.780 -1.2528  1.5681 -0.1377
 2501SOL    HW218963   0.467   2.225   4.683  1.3109  1.0725  0.1442
 2502SOL     OW18964   2.378   4.341  11.654 -0.5772  0.3934  0.2625
 2502SOL    HW118965   2.380   4.406  11.584 -0.0573 -0.6517 -0.6863
 2502SOL    HW218966   2.292   4.353  11.696 -0.9852  1.0374 -0.7481
 2503SOL     OW18967   1.913   1.038  17.641  0.1689 -0.4993  0.2136
 2503SOL    HW118968   1.986   1.074   0.007  0.1463  1.0827 -0.8592
 2503SOL    HW218969   1.901   0.955   0.001 -0.8319 -1.2813 -1.4917
 2504SOL     OW18970   2.977   4.288   4.094  0.5289  0.6037  0.0607
 2504SOL    HW118971   3.070   4.277   4.074  0.5672 -1.6863  1.5021
 2504SOL    HW218972   2.948   4.339   4.018  0.8790  2.2343  1.0365
 2505SOL     OW18973   2.221   3.547   2.160 -0.6674  0.4956  0.1979
 2505SOL    HW118974   2.262   3.629   2.131  0.6550 -0.9756 -2.0525
 2505SOL    HW218975   2.300   3.505   2.192 -0.5596 -0.0931 -0.8502
 2506SOL     OW18976   2.511   2.170  16.872 -0.3898 -0.2115 -0.2535
 2506SOL    HW118977   2.425   2.193  16.907  0.3228 -0.2895  1.5219
 2506SOL    HW218978   2.518   2.081  16.906  3.4437 -0.5615 -1.9305
 2507SOL     OW18979   1.236   2.006  12.025  0.0830 -0.8811 -0.3668
 2507SOL    HW118980   1.272   2.059  11.954 -0.1959  1.9733  1.6549
 2507SOL    HW218981   1.270   2.039  12.108 -1.6419 -0.5031  0.1794
 2508SOL     OW18982   3.907   3.469   3.778  0.3183  0.1335  0.2470
 2508SOL    HW118983   3.987   3.520   3.789  0.9172 -0.5971 -0.8591
 2508SOL    HW218984   3.856   3.535   3.731  1.5800  0.1825 -1.0350
 2509SOL     OW18985   4.030   3.095   3.348  0.1200  0.1237 -0.0360
 2509SOL    HW118986   3.960   3.160   3.358 -1.2376 -1.1492 -1.1264
 2509SOL    HW218987   4.109   3.148   3.350 -0.7865  1.5144 -1.3890
 2510SOL     OW18988   1.191   0.502  11.863  0.0029  0.0544  0.2393
 2510SOL    HW118989   1.222   0.435  11.924  1.3745 -0.1282 -0.6598
 2510SOL    HW218990   1.098   0.486  11.850  0.0631  1.1968 -1.6173
 2511SOL     OW18991   4.376   0.997  17.427  0.3360 -0.3067 -0.6104
 2511SOL    HW118992   4.325   0.950  17.361 -0.5973 -0.9666  0.5790
 2511SOL    HW218993   4.436   0.928  17.458 -0.2224 -0.0953  0.9747
 2512SOL     OW18994   4.402   4.158   8.830 -0.0314 -0.3735  0.1935
 2512SOL    HW118995   4.425   4.075   8.873 -0.6657 -0.3918  0.4963
 2512SOL    HW218996   4.327   4.182   8.884  1.1694  0.5388  1.4619
 2513SOL     OW18997   2.516   3.897   5.506  0.3754  0.2199 -0.0641
 2513SOL    HW118998   2.603   3.926   5.535  0.1108  2.0299 -1.1105
 2513SOL    HW218999   2.485   3.839   5.576 -0.6651 -0.1305 -0.8170
 2514SOL     OW19000   4.183   3.386  15.982  0.5375 -0.1287  0.4147
 2514SOL    HW119001   4.194   3.417  16.072  1.8115  1.9481 -0.4429
 2514SOL    HW219002   4.274   3.376  15.952  0.1707 -2.3833  0.0451
 2515SOL     OW19003   2.930   3.138   0.880  0.1993 -0.0150  0.0032
 2515SOL    HW119004   2.918   3.144   0.785  0.7171 -1.2157 -0.1352
 2515SOL    HW219005   2.893   3.052   0.901 -0.0616  0.1713  0.3162
 2516SOL     OW19006   1.791   4.063   5.818 -0.0994  0.4781 -0.4763
 2516SOL    HW119007   1.757   4.150   5.838  2.5688  2.0511 -2.8006
 2516SOL    HW219008   1.791   4.062   5.722 -1.8777  0.3990 -0.4619
 2517SOL     OW19009   0.625   1.667   5.330 -0.4020  0.1681  0.2568
 2517SOL    HW119010   0.559   1.597   5.321 -0.1248 -0.1986  1.0176
 2517SOL    HW219011   0.704   1.639   5.285 -0.6590  0.9266 -0.6550
 2518SOL     OW19012   1.472   4.351  14.159  0.0252  0.3710 -0.0612
 2518SOL    HW119013   1.564   4.324  14.169 -0.2399 -1.3578 -2.1576
 2518SOL    HW219014   1.458   4.413  14.231  2.0022  1.4921 -0.6326
 2519SOL     OW19015   2.104   1.592   8.654 -0.0859  0.1649 -0.5381
 2519SOL    HW119016   2.164   1.583   8.728  1.1549 -2.3360 -1.8566
 2519SOL    HW219017   2.139   1.525   8.595  1.1389  0.2393  0.1135
 2520SOL     OW19018   0.964   1.633  13.667  0.1524 -0.1943  0.4241
 2520SOL    HW119019   0.911   1.634  13.746  0.5221  2.1371  0.6409
 2520SOL    HW219020   0.987   1.726  13.664  0.2643 -0.3073 -2.2371
 2521SOL     OW19021   4.547   3.383  13.540  0.3215 -0.5814  0.1629
 2521SOL    HW119022   4.529   3.474  13.564 -0.9755 -1.5889  2.9305
 2521SOL    HW219023   4.626   3.393  13.486  0.8226 -0.1821  0.9608
 2522SOL     OW19024   1.660   4.281  13.446  0.4180 -0.2606  0.2676
 2522SOL    HW119025   1.714   4.301  13.369  1.5767  1.5175  1.5401
 2522SOL    HW219026   1.693   4.337  13.516 -0.1734  0.5110 -0.0660
 2523SOL     OW19027   1.973   3.869   2.473  0.3501 -0.2713 -0.4444
 2523SOL    HW119028   2.034   3.830   2.410  1.3540  0.1504  0.2687
 2523SOL    HW219029   2.001   3.960   2.473  0.6869 -0.3766 -0.8217
 2524SOL     OW19030   0.308   4.555   3.696 -0.2619  0.4642 -0.6144
 2524SOL    HW119031   0.260   4.520   3.621  0.3903 -1.4388 -0.1402
 2524SOL    HW219032   0.398   4.534   3.671 -0.8681 -2.3419 -0.4730
 2525SOL     OW19033   2.538   2.729  12.950  0.2824  0.1253 -0.3213
 2525SOL    HW119034   2.599   2.703  13.019  1.1005 -0.7889 -1.3943
 2525SOL    HW219035   2.599   2.784  12.902  2.5776 -0.4679  1.8920
 2526SOL     OW19036   0.460   3.708   7.055 -0.1456  0.0276 -0.2367
 2526SOL    HW119037   0.465   3.613   7.038  0.2890  0.4203 -2.3214
 2526SOL    HW219038   0.538   3.740   7.011  0.3892  0.8823  1.3659
 2527SOL     OW19039   0.569   0.463  16.419 -0.3182 -0.1604  0.3114
 2527SOL    HW119040   0.616   0.460  16.336 -1.4118  0.5768 -0.3310
 2527SOL    HW219041   0.480   0.451  16.387 -0.8423  2.5897  0.6906
 2528SOL     OW19042   2.811   3.135   0.029  0.0094 -0.6155  0.0045
 2528SOL    HW119043   2.871   3.115  17.642 -2.5972 -0.7685 -2.1079
 2528SOL    HW219044   2.782   3.045   0.046  0.6879 -0.5988  1.2700
 2529SOL     OW19045   2.530   2.792   3.112 -0.5078 -0.4859 -0.6067
 2529SOL    HW119046   2.573   2.832   3.036  3.4444 -1.1413  1.3053
 2529SOL    HW219047   2.539   2.699   3.094  1.9566 -0.6631  1.5678
 2530SOL     OW19048   3.519   2.822   8.946  0.0914  0.8203  0.2716
 2530SOL    HW119049   3.480   2.909   8.949  0.6680  1.1497 -1.9435
 2530SOL    HW219050   3.438   2.774   8.962  1.3173 -2.2412 -2.4951
 2531SOL     OW19051   2.221   0.474  17.028  0.3899  0.1616  0.0096
 2531SOL    HW119052   2.222   0.468  17.124 -1.1711 -0.3720 -0.0081
 2531SOL    HW219053   2.282   0.545  17.006 -0.0420  0.9797  1.4660
 2532SOL     OW19054   2.751   4.470  11.278  0.0943 -0.0204 -0.0105
 2532SOL    HW119055   2.790   4.527  11.344  0.1583  0.2182 -0.2557
 2532SOL    HW219056   2.830   4.431  11.240  0.7856  0.3730  1.0228
 2533SOL     OW19057   0.435   0.881   0.563  0.4348 -0.1873  0.0955
 2533SOL    HW119058   0.386   0.881   0.480 -0.0133  1.2313  0.3574
 2533SOL    HW219059   0.457   0.974   0.564  1.9609 -0.5465  0.3065
 2534SOL     OW19060   0.834   1.108   7.135 -0.0037 -0.3442  0.5790
 2534SOL    HW119061   0.929   1.115   7.139  0.0437  1.0472 -2.8537
 2534SOL    HW219062   0.828   1.035   7.196  0.1889  0.1043  1.1412
 2535SOL     OW19063   3.720   2.618   3.609  0.0547  0.2005 -0.4579
 2535SOL    HW119064   3.703   2.545   3.668 -0.0354  0.0378 -0.6846
 2535SOL    HW219065   3.712   2.582   3.520 -1.0374  2.1363 -1.1407
 2536SOL     OW19066   4.569   2.188  17.305  0.1739  0.6980  0.3446
 2536SOL    HW119067   4.628   2.115  17.324  0.0931  0.3322 -0.8254
 2536SOL    HW219068   4.617   2.223  17.230  0.3395  1.5137  0.8325
 2537SOL     OW19069   4.416   4.322   3.385  0.1365  0.4655  0.3425
 2537SOL    HW119070   4.481   4.314   3.315  0.3769 -3.1382  0.9778
 2537SOL    HW219071   4.403   4.229   3.404  0.9075  0.0734 -1.0567
 2538SOL     OW19072   3.944   3.974   8.942 -0.0111 -0.3749  0.5190
 2538SOL    HW119073   4.009   4.017   8.998 -1.6104  2.5249  0.1709
 2538SOL    HW219074   3.914   4.050   8.892  1.4315 -0.6688 -0.7854
 2539SOL     OW19075   3.060   3.266   5.605  0.2802  0.4345  0.2707
 2539SOL    HW119076   2.999   3.294   5.536  2.9379  1.1370 -1.7793
 2539SOL    HW219077   3.134   3.253   5.546  0.0443  0.6995 -0.0875
 2540SOL     OW19078   1.491   1.229  16.917 -0.1090 -0.4560  0.8391
 2540SOL    HW119079   1.453   1.240  17.004  1.5396 -0.0235  1.5000
 2540SOL    HW219080   1.410   1.245  16.868  0.7465 -0.1713 -0.4795
 2541SOL     OW19081   2.830   1.597   8.411 -0.0271 -0.0203 -0.2643
 2541SOL    HW119082   2.863   1.600   8.500 -2.0139 -0.3221  0.4844
 2541SOL    HW219083   2.880   1.666   8.367 -0.4734  0.2254 -0.3876
 2542SOL     OW19084   0.264   3.361   3.678  0.3479  0.9483  0.0250
 2542SOL    HW119085   0.302   3.396   3.597  0.2893  1.1899  0.1030
 2542SOL    HW219086   0.256   3.274   3.639  1.4446  0.0927  1.7045
 2543SOL     OW19087   4.096   1.781   9.738  0.1668  0.6040  0.1210
 2543SOL    HW119088   4.125   1.808   9.826 -0.2913  0.2326  0.3865
 2543SOL    HW219089   4.025   1.844   9.724 -1.1918 -0.7524  0.9428
 2544SOL     OW19090   4.560   2.849   1.602  0.2899  0.1552 -0.4382
 2544SOL    HW119091   4.644   2.825   1.640  1.4829  0.1558 -3.0384
 2544SOL    HW219092   4.571   2.921   1.539  0.1243  1.3843  0.9496
 2545SOL     OW19093   2.762   3.707   4.048 -0.4184 -0.2335  0.1255
 2545SOL    HW119094   2.684   3.733   4.097 -0.3773  0.5354 -0.2126
 2545SOL    HW219095   2.733   3.729   3.959 -0.8622 -0.3869  0.2336
 2546SOL     OW19096   2.613   1.933  15.703 -0.7314 -0.7755  0.4278
 2546SOL    HW119097   2.651   1.949  15.790 -0.2581 -5.1202  0.9898
 2546SOL    HW219098   2.546   2.002  15.704  1.5566  1.4931 -1.1580
 2547SOL     OW19099   4.404   0.278   1.693  0.0197  0.2761  0.1104
 2547SOL    HW119100   4.443   0.363   1.714 -0.2586  0.3531  0.3152
 2547SOL    HW219101   4.480   0.220   1.692 -1.8703 -2.2192  1.5496
 2548SOL     OW19102   2.660   2.895   2.865  0.3345 -0.9797  0.7583
 2548SOL    HW119103   2.727   2.827   2.871  0.4942 -0.9376 -0.4618
 2548SOL    HW219104   2.626   2.869   2.779 -0.3068 -0.8223  0.9670
 2549SOL     OW19105   4.197   3.778  16.096 -0.0476 -0.1038  0.0538
 2549SOL    HW119106   4.110   3.740  16.104 -0.1601 -0.4866 -2.9353
 2549SOL    HW219107   4.193   3.856  16.152  0.5186 -0.6233  0.8262
 2550SOL     OW19108   2.791   0.569   4.957  0.0015 -0.3828  0.3049
 2550SOL    HW119109   2.722   0.580   4.892  1.1515  0.3303 -0.7945
 2550SOL    HW219110   2.744   0.549   5.038  1.2296 -0.5651  0.9768
 2551SOL     OW19111   3.745   2.189  16.170  0.4185  0.0587  0.5904
 2551SOL    HW119112   3.681   2.123  16.196 -0.7604  0.2363 -1.8742
 2551SOL    HW219113   3.701   2.214  16.089 -2.9518 -3.0152  1.5171
 2552SOL     OW19114   3.545   2.603   1.359  0.1268  0.4549 -0.3770
 2552SOL    HW119115   3.454   2.602   1.328  0.4115 -1.9553 -1.1211
 2552SOL    HW219116   3.543   2.511   1.384  0.5618  0.6213  0.2516
 2553SOL     OW19117   4.043   3.712   3.814 -0.0053  0.6839 -0.4764
 2553SOL    HW119118   4.127   3.753   3.795  0.2235  0.0443 -0.8329
 2553SOL    HW219119   4.070   3.698   3.904 -2.9886  0.3275  0.3528
 2554SOL     OW19120   0.939   4.017   4.507 -0.4183  0.5167  0.8055
 2554SOL    HW119121   0.957   3.989   4.418 -0.8630  1.8673  0.2990
 2554SOL    HW219122   0.874   4.086   4.495  0.3959  1.4653  1.9111
 2555SOL     OW19123   1.655   2.368  11.067 -0.4985  0.2517  0.1822
 2555SOL    HW119124   1.656   2.461  11.044 -0.6913  0.2592  0.1976
 2555SOL    HW219125   1.688   2.382  11.156 -1.6017  0.5084  0.5526
 2556SOL     OW19126   3.209   4.399   6.546 -0.1592  0.1157 -0.8641
 2556SOL    HW119127   3.158   4.319   6.557 -0.1894  0.1858 -0.5220
 2556SOL    HW219128   3.211   4.403   6.450 -0.3411 -2.9544 -1.0072
 2557SOL     OW19129   1.774   0.186  11.548 -0.2559  0.0078 -0.4026
 2557SOL    HW119130   1.749   0.259  11.605  1.3037 -1.2766  1.9268
 2557SOL    HW219131   1.868   0.179  11.566 -0.5649 -0.1100  1.1648
 2558SOL     OW19132   2.042   2.447  12.334 -0.5683  0.0501 -0.3628
 2558SOL    HW119133   1.997   2.366  12.356 -2.1758  0.8554 -0.7104
 2558SOL    HW219134   2.133   2.418  12.322 -0.4573  0.6689 -1.0829
 2559SOL     OW19135   1.686   2.369  16.399  0.1977 -0.2422  0.3449
 2559SOL    HW119136   1.684   2.281  16.364 -3.0325  0.3856 -0.9941
 2559SOL    HW219137   1.747   2.420  16.345 -0.9908  1.6421  0.7583
 2560SOL     OW19138   2.652   1.035   0.693 -0.1947 -0.0725 -0.1938
 2560SOL    HW119139   2.615   1.035   0.605  3.5938  2.4100 -1.7886
 2560SOL    HW219140   2.567   1.046   0.734 -0.3172  0.7185 -0.6769
 2561SOL     OW19141   2.520   1.257   4.560  0.1388 -0.4673 -0.6744
 2561SOL    HW119142   2.587   1.190   4.574  0.7552  0.2063 -0.3465
 2561SOL    HW219143   2.529   1.262   4.465 -1.5434 -0.4654 -0.8185
 2562SOL     OW19144   4.391   3.924   2.470  0.3110  0.1536 -0.0029
 2562SOL    HW119145   4.408   3.914   2.564  1.3674  0.5211 -0.1544
 2562SOL    HW219146   4.462   3.881   2.423  0.1669  0.2242 -0.2821
 2563SOL     OW19147   0.498   0.672   1.931 -0.0636 -0.2763 -0.6387
 2563SOL    HW119148   0.468   0.585   1.959  4.1198 -1.4588  0.2695
 2563SOL    HW219149   0.423   0.725   1.957 -0.4583 -0.6026 -1.1216
 2564SOL     OW19150   1.497   1.532   3.675  0.5394 -0.1372  0.5654
 2564SOL    HW119151   1.581   1.555   3.637 -0.5450  2.5226 -0.2121
 2564SOL    HW219152   1.500   1.594   3.748  0.7602 -0.7437  1.0721
 2565SOL     OW19153   0.488   3.034   8.406 -0.0023 -0.9538 -0.1019
 2565SOL    HW119154   0.411   2.978   8.412 -0.3114 -0.4291  0.7826
 2565SOL    HW219155   0.444   3.107   8.450 -0.2048 -1.3401  0.3340
 2566SOL     OW19156   2.823   0.188   2.914  0.2631 -0.7074  0.9109
 2566SOL    HW119157   2.816   0.269   2.965 -2.5921 -0.1436 -0.3746
 2566SOL    HW219158   2.801   0.218   2.826  1.2050  0.3475  1.0393
 2567SOL     OW19159   0.235   2.972  17.219 -0.1620  0.3484 -0.1633
 2567SOL    HW119160   0.159   3.029  17.221  0.3153  0.9731  0.0119
 2567SOL    HW219161   0.202   2.885  17.195  0.6103 -0.5218  1.8117
 2568SOL     OW19162   1.487   0.133   5.398  0.7134  0.3298 -0.4610
 2568SOL    HW119163   1.480   0.223   5.365  1.5912  0.2851 -0.7733
 2568SOL    HW219164   1.411   0.091   5.357  0.3142  0.1966  0.4205
 2569SOL     OW19165   0.237   0.430  13.297 -0.9465  0.1342 -0.4984
 2569SOL    HW119166   0.157   0.456  13.344  0.5293 -0.6019  2.3828
 2569SOL    HW219167   0.302   0.493  13.326 -1.5302  0.9692 -0.9701
 2570SOL     OW19168   3.060   0.260   1.892 -0.0153  0.3531  0.4066
 2570SOL    HW119169   3.104   0.324   1.835 -0.2366 -0.7540 -0.9934
 2570SOL    HW219170   3.098   0.182   1.852 -1.0102  0.2508 -0.3456
 2571SOL     OW19171   1.447   3.764   5.403 -0.7272 -0.1495  0.0003
 2571SOL    HW119172   1.428   3.678   5.366  1.8178  0.0420 -1.7993
 2571SOL    HW219173   1.455   3.747   5.497  2.9176 -1.2272 -0.4843
 2572SOL     OW19174   2.012   4.166   7.738  0.0044  0.5549  0.2302
 2572SOL    HW119175   2.054   4.212   7.666  0.6133 -0.1955  0.1039
 2572SOL    HW219176   2.088   4.173   7.796  0.9194  0.3811 -0.9675
 2573SOL     OW19177   0.443   3.625  14.624  0.3050 -0.3795  0.6381
 2573SOL    HW119178   0.451   3.720  14.626  0.0767 -0.3534  0.3244
 2573SOL    HW219179   0.525   3.596  14.584 -0.1443  0.9360 -1.2370
 2574SOL     OW19180   0.638   4.573  15.159 -0.4586  0.1711  0.1459
 2574SOL    HW119181   0.604   4.491  15.195  0.1668 -0.7291 -1.2808
 2574SOL    HW219182   0.577   4.607  15.094  0.9813  1.8913 -0.2824
 2575SOL     OW19183   3.179   1.069   1.281  0.1417  0.0720 -0.0685
 2575SOL    HW119184   3.169   1.119   1.362  0.3267  1.2978 -0.7920
 2575SOL    HW219185   3.155   1.130   1.211  2.7036 -2.2781 -2.9968
 2576SOL     OW19186   0.703   0.525   7.811  0.2976  0.1239  0.0399
 2576SOL    HW119187   0.670   0.437   7.797  0.5019  0.3024 -1.6476
 2576SOL    HW219188   0.750   0.540   7.729  2.7586 -1.3049  1.1951
 2577SOL     OW19189   4.146   1.851  16.530  0.3065 -0.0718 -0.1572
 2577SOL    HW119190   4.125   1.899  16.450 -1.3261  0.1709  0.4181
 2577SOL    HW219191   4.137   1.761  16.500 -0.9871  0.3981 -1.1464
 2578SOL     OW19192   1.278   3.760  12.719 -0.6771 -0.2677  0.6368
 2578SOL    HW119193   1.374   3.767  12.720 -0.6142 -1.1422 -0.8489
 2578SOL    HW219194   1.261   3.837  12.774  0.8822  0.4791  0.0843
 2579SOL     OW19195   4.544   0.660   7.006 -0.0803 -0.5289 -0.3867
 2579SOL    HW119196   4.635   0.673   6.977 -0.0036  1.5777  0.7661
 2579SOL    HW219197   4.565   0.598   7.076  1.2767  0.6565  0.2678
 2580SOL     OW19198   0.366   4.007   2.201 -0.4052 -0.4581  0.2627
 2580SOL    HW119199   0.338   4.036   2.114 -3.4059 -2.0416  0.7081
 2580SOL    HW219200   0.455   3.972   2.194  1.0904  3.2737  0.6126
 2581SOL     OW19201   3.874   4.096   9.286 -0.1712 -0.3865 -0.1877
 2581SOL    HW119202   3.925   4.103   9.205  1.1651 -1.1266  0.5809
 2581SOL    HW219203   3.836   4.008   9.279 -0.1396 -0.4791  0.7895
 2582SOL     OW19204   4.622   2.363   0.010  0.2836  0.7181  0.7095
 2582SOL    HW119205   4.561   2.362  17.622 -1.5886 -1.2721  2.2770
 2582SOL    HW219206   4.680   2.293  17.666 -0.6543  0.4742 -0.5508
 2583SOL     OW19207   2.659   1.519   3.134 -0.0391 -0.0792 -0.0687
 2583SOL    HW119208   2.696   1.452   3.076  1.6679  0.4755  0.3828
 2583SOL    HW219209   2.576   1.481   3.162  0.9542 -0.4376  2.3869
 2584SOL     OW19210   3.870   0.537   5.127 -0.0936  0.0431 -0.2101
 2584SOL    HW119211   3.844   0.449   5.153 -0.4542  0.7825  1.9580
 2584SOL    HW219212   3.787   0.585   5.133 -0.2006  0.0191 -1.4271
 2585SOL     OW19213   3.755   3.431   6.353 -0.6226  0.4047  0.0010
 2585SOL    HW119214   3.851   3.437   6.350 -0.5230 -1.4154  0.0758
 2585SOL    HW219215   3.730   3.394   6.268 -1.8356 -0.0851  0.5807
 2586SOL     OW19216   4.061   3.616   4.868  0.1757  0.0037  0.1995
 2586SOL    HW119217   4.010   3.602   4.788  2.1373 -0.3195 -1.0028
 2586SOL    HW219218   4.079   3.710   4.869  1.0086 -0.1280 -1.6538
 2587SOL     OW19219   0.129   0.250  16.006 -0.3871 -0.2299 -0.0737
 2587SOL    HW119220   0.185   0.326  15.993 -0.9851 -0.2204 -2.5894
 2587SOL    HW219221   0.053   0.276  15.954 -0.9360  1.3636  1.5166
 2588SOL     OW19222   4.599   3.784   3.472  0.3883  0.5071  0.4763
 2588SOL    HW119223   4.658   3.723   3.427  0.9270 -1.4429  3.8581
 2588SOL    HW219224   4.522   3.728   3.480 -0.4551  1.5035 -0.6541
 2589SOL     OW19225   2.270   1.093   8.391  0.8274 -0.1239  0.5170
 2589SOL    HW119226   2.256   1.172   8.340  0.4304 -0.6615 -0.2008
 2589SOL    HW219227   2.353   1.108   8.436  1.2163 -1.1426  0.1530
 2590SOL     OW19228   0.731   3.921   9.192 -0.2563 -0.8724 -0.4640
 2590SOL    HW119229   0.637   3.914   9.181 -0.3360 -0.7130  0.1159
 2590SOL    HW219230   0.760   3.874   9.114  0.6431  0.3507 -0.8696
 2591SOL     OW19231   4.102   1.956   7.659  0.3618  0.6601 -0.6104
 2591SOL    HW119232   4.052   1.909   7.593  0.5204 -0.1204 -0.1757
 2591SOL    HW219233   4.031   1.999   7.707 -0.4091 -0.6716 -0.5801
 2592SOL     OW19234   2.730   4.235   4.876 -0.0889 -0.0758 -0.4602
 2592SOL    HW119235   2.773   4.320   4.865 -0.0108 -0.1237 -0.5238
 2592SOL    HW219236   2.799   4.182   4.916  0.7102  1.0247 -0.3809
 2593SOL     OW19237   4.049   3.474   6.957 -0.3970  0.5347 -0.1071
 2593SOL    HW119238   4.008   3.540   7.013 -0.7375  0.2089  0.0354
 2593SOL    HW219239   3.986   3.402   6.968  0.1500 -0.2025 -1.8357
 2594SOL     OW19240   2.105   1.870   8.782  0.3976  0.1211  0.6549
 2594SOL    HW119241   2.169   1.866   8.710 -1.4170  2.3230 -1.0500
 2594SOL    HW219242   2.026   1.837   8.740  1.3948  2.4761 -3.0462
 2595SOL     OW19243   3.350   4.065  16.740  0.0171  0.5726  0.5447
 2595SOL    HW119244   3.261   4.096  16.721  0.4982  1.2164 -0.6341
 2595SOL    HW219245   3.337   3.972  16.760  2.2136 -0.1319 -1.3624
 2596SOL     OW19246   1.583   3.512  10.787  0.2316 -0.4355 -0.5724
 2596SOL    HW119247   1.558   3.456  10.860 -1.2490 -0.4801 -1.1174
 2596SOL    HW219248   1.594   3.601  10.820 -0.6521 -0.1009 -1.1878
 2597SOL     OW19249   3.240   3.061  11.584 -0.0219  0.0920  0.4209
 2597SOL    HW119250   3.305   2.991  11.589 -0.7532 -0.7088 -1.2341
 2597SOL    HW219251   3.296   3.138  11.589  0.4846 -0.2754  0.4800
 2598SOL     OW19252   1.778   2.196   5.949  0.2600 -0.3342  0.5968
 2598SOL    HW119253   1.860   2.153   5.974 -0.5461 -1.4222  1.3075
 2598SOL    HW219254   1.754   2.231   6.035 -1.9108  1.8682 -0.8927
 2599SOL     OW19255   3.383   1.838  10.706  0.1729  0.3191 -0.0304
 2599SOL    HW119256   3.435   1.783  10.648 -0.7195 -0.1427 -0.3848
 2599SOL    HW219257   3.381   1.786  10.786  0.6640 -1.1215 -0.9571
 2600SOL     OW19258   1.208   3.961   5.281 -0.2641  0.0708 -0.2435
 2600SOL    HW119259   1.113   3.965   5.270 -0.3837  0.1103  0.7910
 2600SOL    HW219260   1.215   3.895   5.350  2.1393 -0.8847 -1.4231
 2601SOL     OW19261   3.890   1.848   0.942  0.4177 -0.4352  0.3488
 2601SOL    HW119262   3.828   1.874   0.874  1.2327 -1.3753 -0.7618
 2601SOL    HW219263   3.862   1.916   1.002 -1.5503  0.7752 -1.9571
 2602SOL     OW19264   0.899   0.445   1.478  0.2604  0.1824  0.4992
 2602SOL    HW119265   0.962   0.474   1.545 -1.1622  0.8005  1.5640
 2602SOL    HW219266   0.957   0.410   1.410 -0.8782  0.7734 -0.7623
 2603SOL     OW19267   2.537   4.205  10.721 -0.2306 -0.4290 -0.0928
 2603SOL    HW119268   2.567   4.195  10.811  1.6765  0.7817 -0.5851
 2603SOL    HW219269   2.498   4.292  10.712 -0.5158 -0.4734  0.7708
 2604SOL     OW19270   2.174   0.910   8.611  0.0061  0.3082 -0.0705
 2604SOL    HW119271   2.214   0.949   8.689  0.3564 -0.1229 -0.0349
 2604SOL    HW219272   2.193   0.980   8.549 -4.0427  0.3234 -1.2810
 2605SOL     OW19273   2.350   4.093   1.567  0.0299  0.6893  0.0411
 2605SOL    HW119274   2.386   4.120   1.652 -0.1930  1.6072 -0.1563
 2605SOL    HW219275   2.346   4.174   1.517  2.3545  0.3359 -0.7555
 2606SOL     OW19276   0.592   3.770   9.636  0.4464  0.0583 -0.6283
 2606SOL    HW119277   0.629   3.817   9.711 -0.0270  0.3396 -0.5718
 2606SOL    HW219278   0.665   3.770   9.574 -0.1942 -0.5187 -1.3783
 2607SOL     OW19279   4.120   2.887   5.796 -0.0213 -0.3251  0.8358
 2607SOL    HW119280   4.051   2.839   5.749  0.6072  0.1531 -0.5723
 2607SOL    HW219281   4.072   2.966   5.823 -1.0628 -0.3285 -1.0015
 2608SOL     OW19282   0.136   2.032   1.597  0.3667  0.2861  0.2954
 2608SOL    HW119283   0.085   1.954   1.617 -0.5535  1.5312  2.8421
 2608SOL    HW219284   0.067   2.094   1.573 -0.7495 -0.3351  1.9080
 2609SOL     OW19285   3.181   0.817   9.192 -0.4700 -0.6773 -0.1683
 2609SOL    HW119286   3.264   0.857   9.167  0.5654 -1.9871  1.1559
 2609SOL    HW219287   3.217   0.771   9.267  0.4035 -2.8781 -1.9497
 2610SOL     OW19288   1.555   4.681   9.898 -0.0824 -0.2190  0.4079
 2610SOL    HW119289   1.620   4.666   9.830 -0.7458  0.1976 -0.3136
 2610SOL    HW219290   1.572   0.052   9.921 -0.5690 -0.0206 -0.0351
 2611SOL     OW19291   1.844   2.092   7.149  0.1135 -0.2206 -0.1500
 2611SOL    HW119292   1.927   2.108   7.104  0.9604  2.4771  2.4503
 2611SOL    HW219293   1.790   2.170   7.134  1.3126  0.7977  0.8798
 2612SOL     OW19294   0.551   1.665   7.616 -0.0136 -0.0477 -0.1013
 2612SOL    HW119295   0.515   1.651   7.704  1.9139 -2.0316  0.3490
 2612SOL    HW219296   0.576   1.576   7.594  2.0009  0.6657 -0.6799
 2613SOL     OW19297   1.679   0.576   3.022 -0.2297  0.1333 -0.4720
 2613SOL    HW119298   1.618   0.601   3.091  1.1734  0.8475  0.5184
 2613SOL    HW219299   1.694   0.491   3.065 -1.3382 -0.0456 -0.4510
 2614SOL     OW19300   4.268   1.185   6.331  0.2977  0.0485  0.3455
 2614SOL    HW119301   4.222   1.210   6.251  0.6458 -1.0932 -0.2178
 2614SOL    HW219302   4.361   1.200   6.312 -0.7669  2.1973 -3.0425
 2615SOL     OW19303   3.072   3.151   5.156  0.0896  0.2509  0.4569
 2615SOL    HW119304   3.096   3.209   5.228  0.6460  0.5471  0.0265
 2615SOL    HW219305   3.102   3.203   5.082 -0.4949 -0.7432 -0.4785
 2616SOL     OW19306   2.124   0.375   4.458  0.2051  0.4180 -0.3045
 2616SOL    HW119307   2.123   0.383   4.362 -0.5083  2.7790 -0.0977
 2616SOL    HW219308   2.101   0.464   4.483 -2.2428 -0.0678 -0.8238
 2617SOL     OW19309   1.682   0.057   8.336 -0.0323 -0.0961  0.1616
 2617SOL    HW119310   1.599   0.043   8.290 -0.0925 -1.4219  0.6746
 2617SOL    HW219311   1.642   0.092   8.415 -3.3242 -0.1368 -1.5124
 2618SOL     OW19312   4.336   4.580   2.539 -0.0998 -0.4770 -0.0520
 2618SOL    HW119313   4.314   4.508   2.480 -1.4123 -0.5893  0.5890
 2618SOL    HW219314   4.252   4.590   2.583  0.2298  0.4264  0.3710
 2619SOL     OW19315   1.813   1.463   6.629  0.1166  0.5971 -0.4016
 2619SOL    HW119316   1.866   1.445   6.552 -0.8438  0.1387 -0.9557
 2619SOL    HW219317   1.732   1.502   6.595 -2.7582 -2.7930  2.5619
 2620SOL     OW19318   0.550   0.379   0.443 -0.1271  0.7526 -0.2245
 2620SOL    HW119319   0.537   0.298   0.394  0.1663  0.5518  0.0295
 2620SOL    HW219320   0.635   0.398   0.406  0.7434  0.7113  1.7533
 2621SOL     OW19321   0.702   2.362   5.569 -0.2820 -0.7125  0.4308
 2621SOL    HW119322   0.696   2.271   5.539  0.6375 -0.3016 -0.9731
 2621SOL    HW219323   0.795   2.380   5.559 -0.1978 -0.3123  1.8797
 2622SOL     OW19324   2.883   0.801   7.943  0.1916  0.3646  1.4225
 2622SOL    HW119325   2.932   0.861   7.999 -1.3630  0.1606  2.9900
 2622SOL    HW219326   2.829   0.757   8.008  1.1643 -0.4891  1.6437
 2623SOL     OW19327   1.644   4.377   3.808 -0.4373  0.3747  0.5091
 2623SOL    HW119328   1.686   4.456   3.775 -0.4674 -0.5313 -1.6868
 2623SOL    HW219329   1.570   4.402   3.863 -0.5042  0.5295  0.3470
 2624SOL     OW19330   1.024   0.048   8.482  0.2473 -0.8048 -0.0343
 2624SOL    HW119331   0.961   4.698   8.468 -0.8885  0.2202 -0.1286
 2624SOL    HW219332   1.034   0.048   8.577  0.1481 -2.5416 -0.0195
 2625SOL     OW19333   2.120   4.250   1.179  0.4000  0.4778  0.4264
 2625SOL    HW119334   2.044   4.309   1.177  0.1302  0.0050 -3.9900
 2625SOL    HW219335   2.155   4.266   1.267 -0.4198  0.9545  0.6703
 2626SOL     OW19336   2.106   2.556   8.182 -0.3361 -0.5491  0.0197
 2626SOL    HW119337   2.064   2.528   8.100  0.3947 -2.6942  0.3935
 2626SOL    HW219338   2.038   2.605   8.228  0.2343 -1.6385  2.0120
 2627SOL     OW19339   3.712   0.326  12.367  0.1732 -0.6628  0.0314
 2627SOL    HW119340   3.684   0.320  12.458 -0.8898 -0.2123 -0.2618
 2627SOL    HW219341   3.801   0.290  12.364 -0.1834 -1.4919 -0.9271
 2628SOL     OW19342   1.185   4.248   7.374 -0.0062  0.5079 -0.0024
 2628SOL    HW119343   1.180   4.314   7.305  3.3600  0.7220 -0.0300
 2628SOL    HW219344   1.262   4.286   7.415  0.8660 -2.3010  0.9468
 2629SOL     OW19345   2.040   3.051   3.312  0.1026 -0.0913  0.8754
 2629SOL    HW119346   2.001   2.969   3.283  0.1636 -0.1069  0.8349
 2629SOL    HW219347   1.969   3.097   3.356  0.0894  0.2642  0.4865
 2630SOL     OW19348   1.908   1.033   2.205  0.1965  0.6912 -0.0016
 2630SOL    HW119349   1.893   1.019   2.298 -0.1999 -0.8418 -0.3015
 2630SOL    HW219350   2.003   1.024   2.211  0.0952  0.2729  0.8365
 2631SOL     OW19351   3.928   4.114  11.096 -0.2468 -0.3971 -0.6240
 2631SOL    HW119352   3.863   4.115  11.026 -0.6008 -0.3504 -0.2904
 2631SOL    HW219353   3.934   4.024  11.129 -2.1640  0.0143  0.8227
 2632SOL     OW19354   0.148   2.743   2.832 -0.3289 -0.5947 -0.2122
 2632SOL    HW119355   0.217   2.677   2.835 -0.4851 -0.7224  0.7783
 2632SOL    HW219356   0.194   2.803   2.774 -2.6773  1.1087 -0.3138
 2633SOL     OW19357   0.116   2.158   5.282  0.2325  0.0448  0.0157
 2633SOL    HW119358   0.117   2.094   5.210  1.3356 -2.7024  2.4705
 2633SOL    HW219359   0.059   2.108   5.340  1.7608 -2.3098 -0.4885
 2634SOL     OW19360   0.549   0.611  15.018 -0.3567 -0.2266  0.0072
 2634SOL    HW119361   0.593   0.556  15.083  0.4599 -0.4448 -0.7286
 2634SOL    HW219362   0.580   0.564  14.941  1.1953 -1.2902  1.2680
 2635SOL     OW19363   4.329   3.671   5.628  0.4244 -0.1634 -0.1269
 2635SOL    HW119364   4.347   3.640   5.539  0.7591 -0.1160 -0.0751
 2635SOL    HW219365   4.259   3.610   5.653  1.6899 -1.4938  0.2156
 2636SOL     OW19366   3.190   4.417   6.269 -0.0615 -0.0982  0.0813
 2636SOL    HW119367   3.184   4.340   6.213  0.7372 -0.5968  0.6876
 2636SOL    HW219368   3.127   4.476   6.228  0.5404  0.4638 -0.0447
 2637SOL     OW19369   3.662   2.026   5.154  0.0444 -0.2985  0.2141
 2637SOL    HW119370   3.623   2.067   5.232 -0.3945  0.3479 -0.3495
 2637SOL    HW219371   3.654   2.103   5.097 -1.1740 -0.4213  0.2223
 2638SOL     OW19372   1.958   0.636   4.114 -0.1004  0.7342  0.0839
 2638SOL    HW119373   1.956   0.713   4.171 -0.5662  0.1148  0.8973
 2638SOL    HW219374   2.047   0.605   4.131 -0.1932  0.0802 -0.6130
 2639SOL     OW19375   4.068   1.687   7.309 -0.1587  0.8678  0.0044
 2639SOL    HW119376   4.161   1.667   7.301 -0.3121  1.3012 -2.8539
 2639SOL    HW219377   4.030   1.617   7.256 -0.0089  0.2008  0.7841
 2640SOL     OW19378   2.815   1.166   8.365 -0.0940  0.0147  0.2841
 2640SOL    HW119379   2.885   1.138   8.423 -2.3787 -2.6716  1.7622
 2640SOL    HW219380   2.854   1.249   8.337  0.8296 -1.1713 -1.9459
 2641SOL     OW19381   3.725   2.390   0.767  0.5350 -0.3420 -0.1654
 2641SOL    HW119382   3.751   2.298   0.761  1.3649 -0.1984  1.2486
 2641SOL    HW219383   3.759   2.429   0.686  0.4684  0.6728  0.2960
 2642SOL     OW19384   1.313   1.888   3.655  0.5358  0.4369 -0.0508
 2642SOL    HW119385   1.293   1.913   3.745  2.2537  0.4390  0.3262
 2642SOL    HW219386   1.400   1.850   3.665  1.2393  1.7812 -1.1856
 2643SOL     OW19387   2.232   0.704   0.719  0.1385  0.0871 -0.4267
 2643SOL    HW119388   2.234   0.782   0.775 -1.8018  2.4990 -3.7487
 2643SOL    HW219389   2.195   0.641   0.782 -3.7828  1.6378 -1.2228
 2644SOL     OW19390   3.924   0.251   5.506  0.2725 -0.4951 -0.1051
 2644SOL    HW119391   3.894   0.175   5.555  2.1302 -0.9828  0.2525
 2644SOL    HW219392   3.843   0.300   5.490  0.2911 -0.4512 -0.0645
 2645SOL     OW19393   2.524   3.543   5.618 -0.3805  0.2250  0.0220
 2645SOL    HW119394   2.479   3.617   5.660 -1.7016 -0.7184  0.2794
 2645SOL    HW219395   2.593   3.516   5.678 -1.0665 -2.1216 -0.2791
 2646SOL     OW19396   2.720   2.419   5.227  0.1492  0.3126 -0.4232
 2646SOL    HW119397   2.697   2.491   5.170  0.3002  0.1820 -0.6477
 2646SOL    HW219398   2.664   2.430   5.304  0.7331  0.9903 -0.0912
 2647SOL     OW19399   4.138   0.679   3.651  0.0271 -0.5380 -0.0444
 2647SOL    HW119400   4.102   0.757   3.692  0.5552 -0.1222 -0.3682
 2647SOL    HW219401   4.060   0.627   3.668  0.9180 -1.5226  1.0570
 2648SOL     OW19402   4.706   1.335  11.730 -0.0885  0.2095 -0.9477
 2648SOL    HW119403   0.041   1.263  11.700 -0.9692 -0.9949  0.3606
 2648SOL    HW219404   4.632   1.281  11.758  0.0688 -0.5978 -2.1094
 2649SOL     OW19405   3.090   4.195   5.195 -0.0350  0.1981  0.1094
 2649SOL    HW119406   3.085   4.146   5.113  1.9851  1.5683 -0.8451
 2649SOL    HW219407   3.151   4.264   5.170  0.0749  0.3259  0.7176
 2650SOL     OW19408   4.162   3.862   4.702  0.5295 -0.9692  0.2806
 2650SOL    HW119409   4.095   3.928   4.722  1.0283 -0.0178 -1.2164
 2650SOL    HW219410   4.209   3.862   4.786  2.3182 -0.0357 -0.7174
 2651SOL     OW19411   0.834   3.300   9.464  0.3367  0.0505  0.2770
 2651SOL    HW119412   0.921   3.304   9.505  0.0010  0.3471  0.9562
 2651SOL    HW219413   0.780   3.246   9.522 -0.5883  1.8237  1.0851
 2652SOL     OW19414   2.510   2.905   4.720  0.0703  0.2236 -0.2894
 2652SOL    HW119415   2.562   2.900   4.801 -0.0995 -2.1110 -0.3019
 2652SOL    HW219416   2.569   2.915   4.646  0.4974 -3.1400 -0.4338
 2653SOL     OW19417   0.064   2.512   0.698 -0.0045 -0.0216 -0.8415
 2653SOL    HW119418   0.018   2.595   0.712 -0.0724 -0.4599  1.4774
 2653SOL    HW219419   0.021   2.488   0.616  0.7311  0.2792 -1.3170
 2654SOL     OW19420   1.246   0.533  15.158  0.3751  0.0027 -1.0548
 2654SOL    HW119421   1.229   0.514  15.250  0.6531 -0.4464 -1.0959
 2654SOL    HW219422   1.160   0.560  15.126 -0.1973  0.8484  1.2196
 2655SOL     OW19423   0.242   3.872   5.939  0.4011 -0.4836 -0.0741
 2655SOL    HW119424   0.291   3.793   5.962  0.9975 -0.1608 -0.2339
 2655SOL    HW219425   0.311   3.906   5.882  0.0111  2.5642  1.2486
 2656SOL     OW19426   2.512   4.218   5.943 -0.7916 -0.6241 -0.1117
 2656SOL    HW119427   2.539   4.249   5.856 -1.7703 -0.0491 -0.2095
 2656SOL    HW219428   2.436   4.275   5.955 -1.0092 -0.1413 -3.6046
 2657SOL     OW19429   2.253   0.556   1.001 -0.0606 -0.1411  0.0788
 2657SOL    HW119430   2.241   0.485   1.064 -0.6796 -0.0056  0.1128
 2657SOL    HW219431   2.192   0.533   0.930  0.7894  1.0334 -1.0319
 2658SOL     OW19432   3.754   1.955   7.228 -0.7134  0.2979  0.1455
 2658SOL    HW119433   3.684   2.005   7.270 -1.0223 -0.1301  0.1388
 2658SOL    HW219434   3.712   1.870   7.223  2.2138 -1.1855  0.4964
 2659SOL     OW19435   1.488   2.417   2.283  0.6603  0.0158 -0.0893
 2659SOL    HW119436   1.546   2.358   2.234 -0.7873 -1.5623  0.0925
 2659SOL    HW219437   1.537   2.421   2.365  1.2016  1.2367 -0.4777
 2660SOL     OW19438   4.435   1.434  13.937  0.9504 -0.8928 -0.0993
 2660SOL    HW119439   4.450   1.502  14.002 -1.2234  0.4155 -0.9626
 2660SOL    HW219440   4.351   1.472  13.911 -0.1604 -3.1285  0.2488
 2661SOL     OW19441   3.065   2.106   9.349  0.2792  0.2070  0.6038
 2661SOL    HW119442   3.133   2.168   9.377  2.2011 -1.3982 -0.5653
 2661SOL    HW219443   2.991   2.166   9.339  0.2790  0.8090  4.0907
 2662SOL     OW19444   1.393   0.980   1.711  0.3045  0.5170 -0.4700
 2662SOL    HW119445   1.328   1.048   1.727 -0.5792 -0.1636 -1.1589
 2662SOL    HW219446   1.365   0.958   1.622  0.8725  0.8803 -0.7410
 2663SOL     OW19447   1.912   1.560   5.301 -0.0242 -0.4608 -0.1082
 2663SOL    HW119448   1.928   1.618   5.375  3.7580  2.1663 -2.9542
 2663SOL    HW219449   2.000   1.546   5.265  0.4462  0.0973  0.8593
 2664SOL     OW19450   1.211   1.512  11.710  0.6139 -0.0832 -0.2237
 2664SOL    HW119451   1.246   1.452  11.644  1.2120 -0.6005  0.5712
 2664SOL    HW219452   1.291   1.554  11.741  0.1012  0.7351 -0.0097
 2665SOL     OW19453   1.731   4.307   9.255 -0.2204  0.1683 -0.2332
 2665SOL    HW119454   1.702   4.252   9.328 -1.3371  2.4406  1.0091
 2665SOL    HW219455   1.824   4.286   9.253 -0.0398  0.8316  1.1948
 2666SOL     OW19456   3.869   2.641  16.681  0.0787  0.1177  0.5129
 2666SOL    HW119457   3.909   2.638  16.768  2.3915 -1.1125 -0.6082
 2666SOL    HW219458   3.824   2.726  16.682  2.5377  1.4358  0.6460
 2667SOL     OW19459   0.990   2.809  12.797  0.1233 -0.4871  0.0964
 2667SOL    HW119460   0.902   2.777  12.778 -0.0242  1.0866 -1.7946
 2667SOL    HW219461   0.979   2.864  12.874 -2.4106 -1.8389  0.6923
 2668SOL     OW19462   0.052   1.240  10.667 -0.0318 -0.3397 -0.2422
 2668SOL    HW119463   0.088   1.326  10.646 -0.0963  0.0826  1.3327
 2668SOL    HW219464   4.708   1.262  10.734  0.5335 -1.5040  0.6815
 2669SOL     OW19465   1.479   3.911  15.054 -0.0208 -0.2903 -0.0194
 2669SOL    HW119466   1.441   3.861  14.983 -0.1241 -2.2974  1.4407
 2669SOL    HW219467   1.546   3.954  15.000  0.6856 -0.8223  0.4221
 2670SOL     OW19468   2.360   3.766   7.172  0.0890  0.1074 -0.0404
 2670SOL    HW119469   2.379   3.852   7.136  0.2353 -0.0085 -0.2376
 2670SOL    HW219470   2.270   3.766   7.139 -0.4563  0.8337  1.4449
 2671SOL     OW19471   0.829   4.296  15.045 -0.2198  0.7273  0.7817
 2671SOL    HW119472   0.734   4.284  15.053 -0.4474  2.3128  0.4055
 2671SOL    HW219473   0.849   4.202  15.046 -0.5907  0.6403  0.0497
 2672SOL     OW19474   2.456   1.581  11.765 -0.6961 -0.1274  0.0305
 2672SOL    HW119475   2.523   1.572  11.697 -1.3961  0.5282 -0.7468
 2672SOL    HW219476   2.467   1.501  11.816 -0.5625  1.6802  2.8057
 2673SOL     OW19477   0.580   1.797   0.676 -0.1467 -0.2268 -0.0314
 2673SOL    HW119478   0.636   1.721   0.688 -0.7609 -0.8468 -1.0306
 2673SOL    HW219479   0.565   1.819   0.768  0.5048 -1.3882  0.3501
 2674SOL     OW19480   3.303   4.286   2.748 -0.1770  0.1036 -0.2530
 2674SOL    HW119481   3.372   4.242   2.797 -0.3035  0.4728  0.2617
 2674SOL    HW219482   3.240   4.213   2.746  2.2663 -1.8818 -4.3775
 2675SOL     OW19483   2.842   3.863   7.612 -0.4279 -0.2245 -0.1826
 2675SOL    HW119484   2.822   3.782   7.657 -0.9680  1.7565  3.1589
 2675SOL    HW219485   2.794   3.925   7.668  1.7660  1.6888 -0.3842
 2676SOL     OW19486   3.513   2.938   4.398 -0.0783 -0.5617  0.0350
 2676SOL    HW119487   3.479   2.988   4.324 -1.9155 -0.0847  1.2089
 2676SOL    HW219488   3.535   2.855   4.355 -0.9138 -1.5736  1.5726
 2677SOL     OW19489   2.908   2.717   8.476 -0.1086 -0.1104  0.0662
 2677SOL    HW119490   2.962   2.638   8.465  2.8518  2.0544 -1.1172
 2677SOL    HW219491   2.973   2.787   8.485  0.0741 -0.2892  0.1454
 2678SOL     OW19492   0.583   0.776   5.988 -0.0226  0.6722  0.1233
 2678SOL    HW119493   0.496   0.814   5.998 -1.4976 -2.7597  0.1306
 2678SOL    HW219494   0.561   0.711   5.922  2.2661 -1.1038  1.1034
 2679SOL     OW19495   3.334   3.791  16.781  0.2469  0.1069 -0.1648
 2679SOL    HW119496   3.399   3.744  16.728  0.1909  1.3934 -1.3953
 2679SOL    HW219497   3.355   3.751  16.865  1.1121  0.7174 -0.0945
 2680SOL     OW19498   3.630   1.938   3.759  0.1317 -0.4017 -0.3405
 2680SOL    HW119499   3.616   1.935   3.854 -0.9616  1.2631 -0.4266
 2680SOL    HW219500   3.594   2.026   3.747  0.5093  0.1669  2.6183
 2681SOL     OW19501   1.121   1.076   7.162 -0.0391 -0.0161 -0.3725
 2681SOL    HW119502   1.166   1.144   7.112  2.4929 -1.5858 -0.2467
 2681SOL    HW219503   1.191   1.035   7.212  0.2690  2.4330  1.2151
 2682SOL     OW19504   3.930   2.969   3.829 -0.6379  0.1824 -0.1938
 2682SOL    HW119505   3.878   3.002   3.756  0.7904  1.2843 -0.7164
 2682SOL    HW219506   3.891   2.883   3.844  0.8303 -0.4584 -0.0560
 2683SOL     OW19507   0.984   1.002   1.731  0.4753  0.5071  0.0054
 2683SOL    HW119508   0.991   1.088   1.689 -1.8020  2.1803  3.0224
 2683SOL    HW219509   1.045   0.949   1.680  1.3069 -0.9322  2.5034
 2684SOL     OW19510   0.580   0.081   4.621 -0.4685  0.6158 -0.4186
 2684SOL    HW119511   0.574   0.163   4.670 -0.1779  0.2412  0.2399
 2684SOL    HW219512   0.668   0.048   4.639 -1.6355 -0.8646  2.5397
 2685SOL     OW19513   1.157   4.217  17.195 -0.0793  0.3362  0.0978
 2685SOL    HW119514   1.216   4.278  17.151  0.8582 -1.9777 -1.8472
 2685SOL    HW219515   1.183   4.134  17.154 -0.1197  0.6161 -0.4922
 2686SOL     OW19516   2.029   3.789  12.953  0.4315 -0.2291 -0.0242
 2686SOL    HW119517   1.958   3.829  12.904  2.2931  0.2660 -2.3317
 2686SOL    HW219518   2.095   3.784  12.884  1.8932 -0.6448  1.4039
 2687SOL     OW19519   2.529   3.138   5.724 -0.3898 -0.0115 -0.2571
 2687SOL    HW119520   2.541   3.194   5.647 -0.6498  0.3135 -0.0580
 2687SOL    HW219521   2.484   3.065   5.682  1.2004  0.3259 -2.5498
 2688SOL     OW19522   2.896   4.030   3.051  0.2251  0.5633 -0.5858
 2688SOL    HW119523   2.860   4.118   3.059  0.2208  0.3398  1.8211
 2688SOL    HW219524   2.831   3.990   2.993  0.7385  0.5033 -1.1267
 2689SOL     OW19525   0.381   1.369  10.890 -0.2624  0.5551 -0.5168
 2689SOL    HW119526   0.446   1.301  10.909 -0.2695  1.6480  3.4466
 2689SOL    HW219527   0.315   1.349  10.956  0.3099  1.4320  0.3117
 2690SOL     OW19528   1.357   0.932   0.291 -0.0713  0.0781  0.2913
 2690SOL    HW119529   1.281   0.902   0.341  1.5133 -0.9181  2.0685
 2690SOL    HW219530   1.395   0.851   0.259 -3.2017 -1.5306  0.6501
 2691SOL     OW19531   1.768   0.299   2.269  0.1670  0.1302  0.3601
 2691SOL    HW119532   1.804   0.335   2.188 -2.4059  1.3728 -0.2446
 2691SOL    HW219533   1.747   0.384   2.309 -0.4248  0.2441 -0.1864
 2692SOL     OW19534   1.989   1.372   0.809 -0.4544 -0.0878 -0.3838
 2692SOL    HW119535   2.005   1.356   0.902 -3.4545  0.1802  0.1678
 2692SOL    HW219536   1.986   1.280   0.779 -0.5442 -0.4451  0.7406
 2693SOL     OW19537   3.055   2.117  10.498  0.1087 -0.1828  0.0780
 2693SOL    HW119538   3.128   2.094  10.441  0.0198  0.1168 -0.1571
 2693SOL    HW219539   3.090   2.084  10.581 -3.3631 -4.0273 -0.0259
 2694SOL     OW19540   1.937   0.069   0.954 -0.5041 -0.4038 -0.2445
 2694SOL    HW119541   1.926   0.069   0.859  0.1275  1.3118 -0.3104
 2694SOL    HW219542   1.996   4.716   0.969 -2.7698 -2.4440 -1.4726
 2695SOL     OW19543   0.862   2.708   0.960 -0.0054 -0.0698  0.0979
 2695SOL    HW119544   0.790   2.671   1.011 -0.6967  0.2442 -0.6490
 2695SOL    HW219545   0.854   2.800   0.983  0.7992  0.4411 -1.7013
 2696SOL     OW19546   1.342   2.866   8.835  0.3947  0.2300 -0.7347
 2696SOL    HW119547   1.361   2.950   8.876 -1.0987  0.8998 -1.4451
 2696SOL    HW219548   1.421   2.815   8.856 -1.5279 -1.9019  1.2685
 2697SOL     OW19549   2.108   0.945   6.047 -0.5100  0.1463  0.5630
 2697SOL    HW119550   2.114   0.851   6.065  1.2601  0.0203 -0.7401
 2697SOL    HW219551   2.041   0.965   6.113  0.3069  0.9503  1.1674
 2698SOL     OW19552   3.529   2.261  10.778 -0.6000  0.4060  0.0726
 2698SOL    HW119553   3.502   2.217  10.858 -0.3267  1.0768  0.5341
 2698SOL    HW219554   3.558   2.182  10.733  1.4092  1.0774  0.1481
 2699SOL     OW19555   3.000   1.751   5.393 -0.4708 -0.0296  0.5077
 2699SOL    HW119556   2.995   1.838   5.432 -2.8258 -0.4745  1.2154
 2699SOL    HW219557   2.915   1.720   5.424 -0.7071 -0.6158 -0.7191
 2700SOL     OW19558   1.855   2.841   7.118  0.0535 -0.0678 -0.1044
 2700SOL    HW119559   1.845   2.933   7.097  1.9215  0.2357  0.3268
 2700SOL    HW219560   1.818   2.801   7.039 -0.4573  0.9450 -0.3745
 2701SOL     OW19561   1.827   1.701   7.192  0.0901  0.3032 -0.1437
 2701SOL    HW119562   1.785   1.617   7.210 -0.7056  0.6273 -0.5024
 2701SOL    HW219563   1.811   1.708   7.098 -0.4749 -1.1965 -0.1617
 2702SOL     OW19564   2.034   0.706  15.367 -0.2527  0.2633 -0.4462
 2702SOL    HW119565   2.073   0.781  15.324  1.1548  1.2160  2.5059
 2702SOL    HW219566   1.964   0.683  15.305 -3.3217  2.5417  2.1800
 2703SOL     OW19567   2.794   0.091   7.596 -0.2153  0.4591 -0.4090
 2703SOL    HW119568   2.855   0.150   7.553 -0.6725  0.3957 -1.1473
 2703SOL    HW219569   2.714   0.132   7.562 -1.6016  0.2062  2.4858
 2704SOL     OW19570   0.952   3.755   2.292 -0.7841 -0.2378 -0.0983
 2704SOL    HW119571   0.992   3.668   2.284 -1.8961 -0.5530 -2.1539
 2704SOL    HW219572   1.009   3.804   2.352 -1.0074 -0.6117  0.4217
 2705SOL     OW19573   1.099   3.100  12.213  0.3918  0.0975  0.3024
 2705SOL    HW119574   1.023   3.159  12.205 -1.3133 -2.2667 -1.0311
 2705SOL    HW219575   1.084   3.064  12.126  0.8806  1.4667 -0.3611
 2706SOL     OW19576   1.700   0.348   9.917  0.1170 -0.6067 -0.3825
 2706SOL    HW119577   1.688   0.431   9.963 -0.5116 -1.4715  1.0108
 2706SOL    HW219578   1.606   0.332   9.906 -0.1025 -0.7786  1.8965
 2707SOL     OW19579   2.971   4.451   9.623  0.0916 -0.2893  0.6323
 2707SOL    HW119580   2.966   4.374   9.680  1.0755 -0.6201  0.2751
 2707SOL    HW219581   2.889   4.452   9.574  0.0613 -1.3302  0.6607
 2708SOL     OW19582   2.980   3.214   8.024  0.4069  0.0657 -0.0224
 2708SOL    HW119583   2.998   3.181   8.112 -1.2408 -0.2899  0.1901
 2708SOL    HW219584   3.068   3.209   7.987  0.3924  0.9168 -0.1908
 2709SOL     OW19585   1.223   0.234   6.883 -0.1611 -0.1711  0.4028
 2709SOL    HW119586   1.249   0.251   6.973 -1.6276 -1.4348  1.0712
 2709SOL    HW219587   1.208   0.322   6.849 -0.9146 -1.9828 -3.9871
 2710SOL     OW19588   2.356   3.110   5.927  0.5539 -0.0353 -0.3282
 2710SOL    HW119589   2.296   3.176   5.894 -1.3853 -1.9828 -0.7044
 2710SOL    HW219590   2.429   3.128   5.868  0.4610  1.0243 -0.1200
 2711SOL     OW19591   2.618   0.243   5.744  0.0957 -0.3156  0.1124
 2711SOL    HW119592   2.601   0.199   5.827 -1.1967  0.6622  0.3682
 2711SOL    HW219593   2.623   0.165   5.689 -5.2895  0.3841 -1.3830
 2712SOL     OW19594   3.252   0.987  16.054 -0.5240  0.4415  0.2045
 2712SOL    HW119595   3.187   0.931  16.012  1.9209  0.6959 -3.9329
 2712SOL    HW219596   3.328   0.943  16.016 -2.0071 -1.2984 -0.7727
 2713SOL     OW19597   0.959   4.315   1.319  0.0963  0.1096  0.1438
 2713SOL    HW119598   0.999   4.326   1.233 -1.1871 -2.4352 -0.7734
 2713SOL    HW219599   1.023   4.250   1.351 -0.8672 -1.4732 -1.1575
 2714SOL     OW19600   4.071   0.369   8.780 -0.2921 -0.5029 -0.0161
 2714SOL    HW119601   4.047   0.289   8.827 -1.2658 -0.5599 -0.6104
 2714SOL    HW219602   4.155   0.348   8.741  0.3840 -0.6219  1.4858
 2715SOL     OW19603   0.190   0.694   8.946  0.1287 -0.1182  0.1184
 2715SOL    HW119604   0.274   0.720   8.908 -0.3522 -1.3284 -1.7446
 2715SOL    HW219605   0.209   0.606   8.977  2.4675  0.2815 -0.1780
 2716SOL     OW19606   2.495   4.090  14.841 -0.0338  0.1800 -0.5351
 2716SOL    HW119607   2.467   4.179  14.820  2.2644  1.5519  2.2706
 2716SOL    HW219608   2.587   4.105  14.859 -0.5501  0.2191  2.1230
 2717SOL     OW19609   2.577   3.231   0.672 -0.0967  0.1919  0.6516
 2717SOL    HW119610   2.671   3.240   0.656  0.2200  1.2931  3.0750
 2717SOL    HW219611   2.532   3.270   0.597  1.8258 -0.2953 -0.7597
 2718SOL     OW19612   0.456   2.179   0.996  0.1127 -0.6276 -0.4668
 2718SOL    HW119613   0.383   2.140   0.949  0.4814 -0.8352 -0.8682
 2718SOL    HW219614   0.413   2.248   1.046  0.0926  0.5817 -2.1561
 2719SOL     OW19615   1.413   2.014  12.722  0.2239 -0.5933 -0.1044
 2719SOL    HW119616   1.443   1.932  12.681 -0.1810 -1.3436  1.0935
 2719SOL    HW219617   1.324   1.992  12.750 -0.0216 -0.2910 -0.6387
 2720SOL     OW19618   0.970   2.144   5.708 -0.2137  0.1836 -0.5288
 2720SOL    HW119619   0.961   2.050   5.691 -0.0568  0.2971 -1.2270
 2720SOL    HW219620   1.028   2.142   5.784 -1.3626 -0.4847  0.3298
 2721SOL     OW19621   2.310   3.007   4.982 -0.5056 -0.0664 -0.5876
 2721SOL    HW119622   2.363   2.989   4.904  1.2961  0.1886  0.5811
 2721SOL    HW219623   2.293   3.101   4.976 -0.1070  0.0127 -0.4111
 2722SOL     OW19624   1.451   0.457  13.441 -0.6070  0.8540 -0.2836
 2722SOL    HW119625   1.518   0.476  13.376 -0.9714 -2.2033 -1.5388
 2722SOL    HW219626   1.393   0.398  13.393 -0.8324  0.1384  0.8739
 2723SOL     OW19627   3.832   0.034   5.921  0.2303  0.1765  0.0049
 2723SOL    HW119628   3.908   0.032   5.979  0.6555 -2.8139 -0.6517
 2723SOL    HW219629   3.778   0.099   5.967  0.9101  1.8332 -1.5274
 2724SOL     OW19630   3.168   1.395   3.880  0.1272  0.1333 -0.0655
 2724SOL    HW119631   3.234   1.328   3.896 -1.4947 -1.4140  0.1683
 2724SOL    HW219632   3.193   1.461   3.945 -0.4371  1.2881 -1.0292
 2725SOL     OW19633   1.769   0.354   5.226 -1.0243  0.6857  0.2513
 2725SOL    HW119634   1.832   0.384   5.160  0.0103 -1.4584  0.2510
 2725SOL    HW219635   1.698   0.415   5.206 -0.1454  1.0262 -1.9147
 2726SOL     OW19636   0.269   1.156   0.408  0.2269 -0.7409 -0.5906
 2726SOL    HW119637   0.189   1.137   0.457  0.5985  0.5186  0.5042
 2726SOL    HW219638   0.232   1.122   0.327  0.3247  0.4537 -1.1343
 2727SOL     OW19639   2.589   4.569   8.439  0.1864 -0.2261 -0.0241
 2727SOL    HW119640   2.586   4.473   8.436  2.1249 -0.2781 -0.0528
 2727SOL    HW219641   2.512   4.581   8.494  1.0096 -1.1694  1.3140
 2728SOL     OW19642   2.540   3.862  14.483 -0.5880  0.3474 -0.3876
 2728SOL    HW119643   2.492   3.845  14.402 -1.2358 -0.2081  0.1228
 2728SOL    HW219644   2.467   3.899  14.532 -1.2826 -2.1220  0.4244
 2729SOL     OW19645   0.772   2.686   5.671  0.2994  0.6577 -0.8985
 2729SOL    HW119646   0.816   2.700   5.587 -1.3902 -0.4987 -1.9590
 2729SOL    HW219647   0.796   2.770   5.711 -0.2581  1.4772 -2.3147
 2730SOL     OW19648   1.436   3.230   5.202 -0.2374 -0.1537  0.3151
 2730SOL    HW119649   1.443   3.325   5.192  1.3963 -0.0157  2.8210
 2730SOL    HW219650   1.343   3.222   5.180 -0.0647  2.7775 -1.4138
 2731SOL     OW19651   1.085   2.732  14.962 -0.0461  0.1232 -0.7422
 2731SOL    HW119652   1.007   2.742  14.908 -1.3712  3.6972  1.8088
 2731SOL    HW219653   1.151   2.762  14.900 -1.1902  0.3711 -1.8159
 2732SOL     OW19654   2.898   0.454  12.513 -0.0496  0.3361  0.3778
 2732SOL    HW119655   2.834   0.488  12.451 -1.4907  0.2568  1.8148
 2732SOL    HW219656   2.983   0.489  12.487 -0.6853  0.3305 -1.7112
 2733SOL     OW19657   4.712   1.659   5.181  0.4683  0.3163 -1.1452
 2733SOL    HW119658   4.637   1.718   5.180  0.4317  0.3066  3.1198
 2733SOL    HW219659   0.003   1.623   5.269  1.1165  1.2679 -0.8502
 2734SOL     OW19660   3.056   4.559   8.339 -0.5494 -0.5630 -0.6484
 2734SOL    HW119661   3.031   4.640   8.296  1.3647  1.2988  1.6922
 2734SOL    HW219662   3.049   4.494   8.270 -0.7519 -0.8877 -0.3254
 2735SOL     OW19663   1.629   3.934   6.486 -0.1842  0.4247 -0.5119
 2735SOL    HW119664   1.648   3.886   6.566 -1.6344 -0.3966 -0.6682
 2735SOL    HW219665   1.702   3.995   6.488 -1.9176  2.3775  2.1199
 2736SOL     OW19666   2.960   3.106   2.688  0.1809  0.0818  0.5181
 2736SOL    HW119667   2.878   3.143   2.720 -0.9465 -0.4790 -1.7443
 2736SOL    HW219668   2.990   3.114   2.778 -0.8519  0.4547  0.8283
 2737SOL     OW19669   0.703   3.021   6.020  0.4601  0.2365 -0.2567
 2737SOL    HW119670   0.734   3.081   6.088  0.2698 -0.4018  0.3917
 2737SOL    HW219671   0.668   3.090   5.963 -0.9958 -0.3389 -0.0733
 2738SOL     OW19672   0.703   1.951   5.055  0.0050  0.2197 -0.1344
 2738SOL    HW119673   0.775   1.940   5.117 -0.2271  1.2654  0.3218
 2738SOL    HW219674   0.684   2.044   5.063 -0.6784  0.0394  0.3909
 2739SOL     OW19675   2.989   3.476   7.401  0.2939 -0.4780  0.1185
 2739SOL    HW119676   2.900   3.477   7.365  0.1503  1.9627  0.5160
 2739SOL    HW219677   3.021   3.404   7.346 -1.5213 -0.7719 -0.5549
 2740SOL     OW19678   0.205   2.995   5.934 -0.0285 -0.2196  0.1844
 2740SOL    HW119679   0.265   3.069   5.946 -1.0782  0.5917  0.3600
 2740SOL    HW219680   0.260   2.917   5.940 -1.7511 -1.4181  0.3071
 2741SOL     OW19681   1.338   0.453   4.494  0.0721  0.1120 -0.3425
 2741SOL    HW119682   1.411   0.393   4.483  1.0247  0.9326  1.4382
 2741SOL    HW219683   1.298   0.440   4.408  1.4578  0.2704 -1.0062
 2742SOL     OW19684   2.465   4.492   6.693  0.1426 -0.8708  0.6275
 2742SOL    HW119685   2.469   4.489   6.788 -0.2018  1.6915  0.7171
 2742SOL    HW219686   2.378   4.455   6.679  0.2442 -0.8515 -0.0546
 2743SOL     OW19687   0.802   4.461  15.366  0.4223  0.3251 -0.3210
 2743SOL    HW119688   0.707   4.451  15.374  0.5992  0.8164  2.2910
 2743SOL    HW219689   0.808   4.452  15.271  0.4760 -0.6017 -0.2263
 2744SOL     OW19690   0.196   0.333  13.627 -0.3538  0.1753  0.4087
 2744SOL    HW119691   0.185   0.249  13.582 -1.9324  0.5279  0.1333
 2744SOL    HW219692   0.120   0.386  13.601  0.6094  2.2845  1.9487
 2745SOL     OW19693   2.727   2.633  13.128  0.3490  0.1762 -0.5684
 2745SOL    HW119694   2.802   2.691  13.114  1.2690 -0.6981  0.7372
 2745SOL    HW219695   2.746   2.542  13.105 -2.0360 -0.6288  0.5975
 2746SOL     OW19696   2.150   4.462  15.988  0.4581  0.6291  0.0844
 2746SOL    HW119697   2.165   4.448  15.894 -1.5603 -1.1461  0.0324
 2746SOL    HW219698   2.234   4.493  16.020  1.0384  1.3865 -2.1200
 2747SOL     OW19699   3.447   4.210  11.950  0.4094  0.4525 -0.1114
 2747SOL    HW119700   3.407   4.219  12.037  0.0237 -2.6422  0.0204
 2747SOL    HW219701   3.375   4.251  11.903 -1.3814 -1.0113  1.3708
 2748SOL     OW19702   1.957   1.833   7.844  0.6482  0.0650  0.2427
 2748SOL    HW119703   1.894   1.842   7.773  2.5115  0.2328 -1.4052
 2748SOL    HW219704   2.039   1.860   7.802  0.0808  0.7201 -0.4320
 2749SOL     OW19705   4.586   1.110  13.617 -0.1756 -0.4676  0.3620
 2749SOL    HW119706   4.600   1.079  13.528 -1.8486 -1.8845  0.5805
 2749SOL    HW219707   4.668   1.082  13.657 -0.2651 -4.2851 -2.1138
 2750SOL     OW19708   0.647   4.627   6.770  0.4108 -0.2786 -0.5746
 2750SOL    HW119709   0.704   4.698   6.738  0.4308  0.3367  0.8240
 2750SOL    HW219710   0.592   4.606   6.695  1.0800  0.4874 -1.2841
 2751SOL     OW19711   1.516   4.048   5.476 -0.3317 -0.3235 -0.2196
 2751SOL    HW119712   1.599   4.096   5.474  0.2453 -1.4021 -2.2864
 2751SOL    HW219713   1.538   3.964   5.436  0.1665 -0.4262  0.2610
 2752SOL     OW19714   1.517   2.197   5.787  0.1627 -0.8885  0.8211
 2752SOL    HW119715   1.522   2.126   5.723  0.4494 -0.6075  0.5254
 2752SOL    HW219716   1.587   2.167   5.845  0.1053  0.6342  1.6770
 2753SOL     OW19717   2.602   4.250   9.911  0.0581  0.6006  0.1332
 2753SOL    HW119718   2.562   4.272   9.827 -0.1431  0.3799  0.1726
 2753SOL    HW219719   2.570   4.160   9.915  1.7881  0.0521  1.6385
 2754SOL     OW19720   4.709   0.772  17.211  0.3429 -0.8868 -0.5208
 2754SOL    HW119721   4.686   0.852  17.164  2.2847 -2.2942 -3.8108
 2754SOL    HW219722   4.626   0.744  17.250  0.5077  0.6065  0.9387
 2755SOL     OW19723   2.131   3.222   6.543  0.1105 -0.4581 -0.1550
 2755SOL    HW119724   2.101   3.216   6.634  0.2831  0.4795 -0.0319
 2755SOL    HW219725   2.203   3.284   6.546  0.0523 -0.4865  1.6006
 2756SOL     OW19726   2.334   0.987   1.482  0.1594 -0.1702  0.9588
 2756SOL    HW119727   2.283   1.039   1.544 -0.3136  1.7434 -1.0344
 2756SOL    HW219728   2.415   0.975   1.532 -0.2500 -1.0613  1.4100
 2757SOL     OW19729   3.840   4.359   7.570 -0.6973 -0.4488  0.5042
 2757SOL    HW119730   3.800   4.319   7.493  0.1643 -0.6953  0.1830
 2757SOL    HW219731   3.886   4.427   7.521 -0.5426 -0.9096  0.0095
 2758SOL     OW19732   4.638   1.805   0.525  0.0091  0.3897 -0.4870
 2758SOL    HW119733   4.669   1.817   0.615 -2.3389 -1.9177  0.6252
 2758SOL    HW219734   4.546   1.802   0.552 -0.0574 -1.8099 -0.9454
 2759SOL     OW19735   2.419   1.908  16.273  0.0029 -0.0505 -0.0544
 2759SOL    HW119736   2.498   1.879  16.228  0.3879  0.7147  0.1330
 2759SOL    HW219737   2.377   1.823  16.279 -2.1294  0.9425 -0.7459
 2760SOL     OW19738   0.283   3.380  11.292 -0.6672  0.0899 -0.5881
 2760SOL    HW119739   0.230   3.436  11.349 -0.7576 -1.4837  0.8814
 2760SOL    HW219740   0.342   3.333  11.350  0.6749  4.0510  1.2601
 2761SOL     OW19741   2.163   3.722   4.078 -0.5888  0.3284  0.5985
 2761SOL    HW119742   2.164   3.736   3.983 -1.3850  0.5628  0.6232
 2761SOL    HW219743   2.234   3.660   4.097  0.1345  1.1365  0.5185
 2762SOL     OW19744   2.953   0.424   7.476 -0.0733 -0.0610  0.2675
 2762SOL    HW119745   2.888   0.456   7.539  1.4228 -0.3216  1.9246
 2762SOL    HW219746   2.974   0.503   7.427 -2.3227  0.9296  0.8759
 2763SOL     OW19747   3.078   2.030   9.014  0.1759 -0.1082 -0.2551
 2763SOL    HW119748   3.129   2.111   9.019  1.1717 -0.9015  2.2534
 2763SOL    HW219749   3.142   1.967   8.980 -1.3913 -2.1914  0.6728
 2764SOL     OW19750   1.568   0.890   7.451 -0.3832  0.2277  0.5040
 2764SOL    HW119751   1.576   0.805   7.407 -0.1029  0.9612 -0.8313
 2764SOL    HW219752   1.561   0.859   7.542 -1.0096  0.5673  0.5669
 2765SOL     OW19753   0.540   2.134   2.596  0.4452  0.2601 -0.6509
 2765SOL    HW119754   0.606   2.131   2.664 -0.5801 -1.8807  0.2563
 2765SOL    HW219755   0.587   2.128   2.513 -1.1749 -1.4430 -1.4703
 2766SOL     OW19756   2.242   4.391   7.336 -0.0902 -0.1745  0.1261
 2766SOL    HW119757   2.222   4.360   7.424  0.1278 -2.7702 -0.7474
 2766SOL    HW219758   2.161   4.436   7.315  1.0158  0.6446 -2.4575
 2767SOL     OW19759   3.087   0.200   8.802 -1.1529  0.4485  0.0716
 2767SOL    HW119760   3.002   0.157   8.811 -0.3205 -1.3748 -0.8653
 2767SOL    HW219761   3.141   0.133   8.761  0.3003  1.1748  0.7986
 2768SOL     OW19762   4.634   3.580   9.008 -0.1915  0.1290  0.2485
 2768SOL    HW119763   4.556   3.625   8.976 -0.6979 -0.6910  0.3262
 2768SOL    HW219764   4.694   3.584   8.934  0.4885  0.7549  0.8313
 2769SOL     OW19765   1.478   2.187   2.689  0.4853 -0.2651 -0.1143
 2769SOL    HW119766   1.558   2.206   2.739  1.5523 -1.2805 -1.4207
 2769SOL    HW219767   1.417   2.182   2.762  2.3674 -0.1834  1.4612
 2770SOL     OW19768   4.279   0.536   5.565  0.0735  0.0275  0.0323
 2770SOL    HW119769   4.199   0.557   5.517  0.0583  1.0433  0.5004
 2770SOL    HW219770   4.250   0.467   5.623  0.7152 -0.1787  0.1090
 2771SOL     OW19771   0.732   4.058   3.682  0.7421  0.1644 -0.5152
 2771SOL    HW119772   0.730   4.075   3.777 -0.0814  1.3652 -0.7414
 2771SOL    HW219773   0.645   4.093   3.664 -1.3658 -3.9972  1.6404
 2772SOL     OW19774   1.906   4.512   2.740 -0.0644  0.0250 -0.3090
 2772SOL    HW119775   1.866   4.427   2.721 -0.3605  0.1608 -0.3010
 2772SOL    HW219776   1.992   4.482   2.768  0.4033  2.1845  0.6108
 2773SOL     OW19777   1.978   0.896   6.475 -0.8290 -1.0069  0.2744
 2773SOL    HW119778   1.942   0.815   6.512 -0.9441 -0.0607  2.2030
 2773SOL    HW219779   1.966   0.872   6.383  0.9405 -1.7295  0.2293
 2774SOL     OW19780   2.942   2.947   8.288  0.0500 -0.1742 -0.5457
 2774SOL    HW119781   2.999   3.024   8.299  1.8172 -1.6243  0.5004
 2774SOL    HW219782   3.005   2.877   8.304 -1.6466 -0.9182  2.9066
 2775SOL     OW19783   2.445   0.577   6.350  0.0516 -0.1105  0.7283
 2775SOL    HW119784   2.385   0.612   6.416  0.1301  1.4746 -0.0333
 2775SOL    HW219785   2.527   0.616   6.379  0.1363 -0.3038  0.7457
 2776SOL     OW19786   4.082   3.326   7.482 -0.5420 -0.0929 -0.0652
 2776SOL    HW119787   4.101   3.332   7.388  0.9565 -1.3613  0.1519
 2776SOL    HW219788   3.995   3.366   7.479 -0.1652  0.9215  2.9415
 2777SOL     OW19789   1.856   2.260   5.681  0.0389  0.6360 -0.0067
 2777SOL    HW119790   1.772   2.296   5.652  1.6752  2.5959 -2.3443
 2777SOL    HW219791   1.845   2.253   5.776  1.2188 -1.2222 -0.0108
 2778SOL     OW19792   0.544   3.488   8.001 -0.7909 -0.0872  0.3145
 2778SOL    HW119793   0.638   3.475   7.986 -0.8274  0.2054 -0.1804
 2778SOL    HW219794   0.501   3.410   7.967  0.9312 -2.0904  2.7514
 2779SOL     OW19795   1.100   2.320  16.310  0.1248  0.0692 -0.3624
 2779SOL    HW119796   1.034   2.363  16.255  2.2774  0.8211 -2.3700
 2779SOL    HW219797   1.154   2.395  16.333  1.8488 -1.6249  1.0524
 2780SOL     OW19798   1.954   0.181  16.502  0.0790 -0.0553 -0.7353
 2780SOL    HW119799   1.973   0.275  16.505  0.3001 -0.1286  0.1468
 2780SOL    HW219800   1.871   0.177  16.549 -0.2057 -2.6952 -1.4534
 2781SOL     OW19801   1.215   3.997  12.845  0.4618 -0.3238  0.4091
 2781SOL    HW119802   1.158   3.977  12.919 -1.4580 -1.2220 -1.2956
 2781SOL    HW219803   1.182   4.085  12.828  1.3539 -0.4739 -2.1136
 2782SOL     OW19804   0.213   0.778   5.406 -0.2128  0.6081 -0.2388
 2782SOL    HW119805   0.131   0.738   5.434  0.5270 -0.8515 -0.1999
 2782SOL    HW219806   0.275   0.718   5.448 -1.4995  0.4699  1.4997
 2783SOL     OW19807   0.148   0.771   7.715  0.0064  0.0170 -0.3548
 2783SOL    HW119808   0.068   0.784   7.664  0.4820  1.0277 -0.8464
 2783SOL    HW219809   0.113   0.730   7.794 -2.5038 -1.5009 -2.2399
 2784SOL     OW19810   2.455   4.614   8.943 -0.0300 -0.0568  0.1617
 2784SOL    HW119811   2.478   4.700   8.977 -0.3030 -0.0328  0.2883
 2784SOL    HW219812   2.414   4.573   9.019  0.0978  1.1248  0.8653
 2785SOL     OW19813   2.846   0.417  13.922  0.0826 -0.6297  0.1306
 2785SOL    HW119814   2.932   0.387  13.892 -0.5270 -3.1255  0.8705
 2785SOL    HW219815   2.827   0.482  13.854 -1.1738 -0.5611  0.5494
 2786SOL     OW19816   2.361   2.623   0.327  0.2278  0.1527  0.1103
 2786SOL    HW119817   2.290   2.641   0.265 -0.1086  0.5869  0.6313
 2786SOL    HW219818   2.308   2.621   0.406 -1.4921 -1.4681 -1.0776
 2787SOL     OW19819   2.884   0.417   4.442 -0.2638 -0.6793 -0.2154
 2787SOL    HW119820   2.857   0.442   4.354  2.6124  0.2458 -0.8517
 2787SOL    HW219821   2.979   0.423   4.427  0.0219  1.6708  2.5482
 2788SOL     OW19822   3.083   2.559   3.720 -0.2880  0.1061 -0.3542
 2788SOL    HW119823   3.107   2.651   3.725 -0.7060  0.1466  1.0806
 2788SOL    HW219824   3.000   2.561   3.767 -1.0468 -2.0639 -1.5866
 2789SOL     OW19825   3.958   2.913  13.620 -0.6849 -0.6992 -0.3387
 2789SOL    HW119826   4.012   2.949  13.549 -0.6582 -1.0173 -0.4790
 2789SOL    HW219827   3.975   2.820  13.604  2.0780 -0.0053 -1.5568
 2790SOL     OW19828   3.432   3.159   5.436  0.1391 -0.2250 -0.8368
 2790SOL    HW119829   3.487   3.204   5.372  1.5897  0.2097  0.7125
 2790SOL    HW219830   3.492   3.088   5.461 -1.5613 -1.9777 -1.7744
 2791SOL     OW19831   4.614   2.735   4.092 -0.5276  0.0394 -0.2302
 2791SOL    HW119832   4.607   2.644   4.064  0.0858 -0.2907  0.7215
 2791SOL    HW219833   4.611   2.723   4.187 -0.5258 -0.8645 -0.3493
 2792SOL     OW19834   3.397   3.677   5.440 -0.2292  0.1029 -0.1884
 2792SOL    HW119835   3.432   3.615   5.504 -0.4603  0.3004  0.1298
 2792SOL    HW219836   3.357   3.620   5.374  0.5727 -0.8721  0.1582
 2793SOL     OW19837   1.247   4.501   6.091 -0.5357  0.5837  0.0558
 2793SOL    HW119838   1.235   4.418   6.136  0.0759  0.1249 -0.6268
 2793SOL    HW219839   1.338   4.488   6.065 -0.4991  1.5592 -0.3103
 2794SOL     OW19840   2.262   2.292  16.903 -0.0908 -0.0442 -0.1722
 2794SOL    HW119841   2.203   2.261  16.833 -2.0660  0.9846  1.0407
 2794SOL    HW219842   2.328   2.344  16.858  1.0225 -0.6486  0.7682
 2795SOL     OW19843   1.067   2.598  16.642  0.2768 -0.3155  0.1952
 2795SOL    HW119844   1.095   2.522  16.693  0.9716 -0.2363 -0.0765
 2795SOL    HW219845   1.015   2.547  16.580  1.4383 -0.5167 -0.6047
 2796SOL     OW19846   2.221   4.315   1.893 -0.1926 -0.1377 -0.1590
 2796SOL    HW119847   2.172   4.338   1.814 -0.1251 -1.2354 -0.5269
 2796SOL    HW219848   2.240   4.223   1.874 -1.0240 -0.1931 -0.7187
 2797SOL     OW19849   1.639   4.146  14.362 -0.5742 -0.1200  0.3988
 2797SOL    HW119850   1.585   4.114  14.290  1.4198  1.2264 -1.7210
 2797SOL    HW219851   1.575   4.174  14.427 -1.4632 -0.0274 -0.5251
 2798SOL     OW19852   0.772   2.870   3.183 -0.0960  0.4170  0.1043
 2798SOL    HW119853   0.841   2.805   3.171 -2.4465 -2.4911  2.5664
 2798SOL    HW219854   0.830   2.945   3.201  0.8241 -0.6893  1.7108
 2799SOL     OW19855   0.783   3.815   5.722 -0.3116  0.1146 -0.5731
 2799SOL    HW119856   0.841   3.791   5.794 -1.1531 -0.8267 -0.2097
 2799SOL    HW219857   0.715   3.747   5.728 -0.3189  0.1774  0.0291
 2800SOL     OW19858   2.335   4.042   9.093  0.5442  0.3964 -0.3518
 2800SOL    HW119859   2.321   3.969   9.153 -1.7760  0.3122 -0.9696
 2800SOL    HW219860   2.393   4.095   9.147 -0.9873 -0.0972  1.7706
 2801SOL     OW19861   4.519   0.581   7.303 -0.0234  0.3597 -0.1607
 2801SOL    HW119862   4.540   0.656   7.358  2.0538 -2.4002  2.8504
 2801SOL    HW219863   4.576   0.511   7.336 -0.3041  0.4294  0.4768
 2802SOL     OW19864   0.208   2.468   1.880  0.0593 -0.6161 -0.1946
 2802SOL    HW119865   0.131   2.521   1.860 -0.0799 -0.6828  0.1679
 2802SOL    HW219866   0.173   2.384   1.852  0.6498 -0.9183 -0.0218
 2803SOL     OW19867   3.715   3.029   8.589  0.4412  0.0706  0.3043
 2803SOL    HW119868   3.691   3.113   8.549 -1.0629 -0.2884  0.4622
 2803SOL    HW219869   3.659   2.973   8.536  1.8403 -2.0321  1.0863
 2804SOL     OW19870   4.700   2.962  13.434 -0.1393  0.0643  0.3547
 2804SOL    HW119871   4.676   3.030  13.372  0.6648  1.6219  1.7660
 2804SOL    HW219872   4.659   3.000  13.511 -2.3119 -1.5470 -0.0229
 2805SOL     OW19873   1.393   4.066   2.241  0.3952 -0.1387  0.1854
 2805SOL    HW119874   1.354   4.151   2.260 -0.8388 -0.6879  0.1243
 2805SOL    HW219875   1.425   4.073   2.151  2.3285  1.4649  0.9936
 2806SOL     OW19876   0.618   1.378   6.509 -0.1311  0.3839 -0.0865
 2806SOL    HW119877   0.627   1.341   6.421  1.6530  3.6747 -1.2890
 2806SOL    HW219878   0.610   1.469   6.481 -1.6398  0.7153  1.4623
 2807SOL     OW19879   2.267   1.125  15.061  0.4283 -0.6104 -0.1574
 2807SOL    HW119880   2.312   1.192  15.113  1.0654 -1.9309  0.9828
 2807SOL    HW219881   2.271   1.158  14.971 -1.5224  0.5220  0.1768
 2808SOL     OW19882   2.613   1.198   3.254  0.5216 -0.3198  0.4368
 2808SOL    HW119883   2.536   1.218   3.200  0.4679 -0.0882  0.5984
 2808SOL    HW219884   2.682   1.187   3.189  2.8758 -0.5368  3.0174
 2809SOL     OW19885   4.480   2.366   6.513  0.0063  0.2672  0.4237
 2809SOL    HW119886   4.466   2.391   6.422  0.0719 -0.2412  0.2706
 2809SOL    HW219887   4.567   2.326   6.513 -0.2215 -0.2303  0.0658
 2810SOL     OW19888   0.466   3.428   5.666 -0.4100  0.0785 -0.8025
 2810SOL    HW119889   0.419   3.363   5.718  0.6353  2.5067  3.1695
 2810SOL    HW219890   0.505   3.366   5.604 -2.1912 -4.1702  2.3608
 2811SOL     OW19891   0.658   0.844  15.057  0.5557 -0.2696  0.4564
 2811SOL    HW119892   0.619   0.764  15.022 -0.1079  0.7921 -1.2299
 2811SOL    HW219893   0.731   0.803  15.105 -1.5118 -3.7166  0.6470
 2812SOL     OW19894   4.197   2.201  12.184  0.3670 -0.0108  0.1278
 2812SOL    HW119895   4.281   2.238  12.210  0.1328  0.8834 -0.4093
 2812SOL    HW219896   4.191   2.210  12.088  1.3370 -1.6289 -0.0974
 2813SOL     OW19897   1.769   3.698  12.680  0.1568  0.4323  0.2459
 2813SOL    HW119898   1.681   3.722  12.711  0.3218 -0.2377  1.2431
 2813SOL    HW219899   1.822   3.769  12.716  1.0556  0.6106 -1.4578
 2814SOL     OW19900   0.065   2.342   8.030 -0.1976  0.2126 -0.1590
 2814SOL    HW119901   0.103   2.423   7.997  0.2767 -0.2250 -0.6761
 2814SOL    HW219902   0.030   2.374   8.113  1.0709  3.5178 -0.9140
 2815SOL     OW19903   0.801   1.969   7.033  0.3129 -0.3325 -0.2361
 2815SOL    HW119904   0.755   1.894   7.071  0.5982  0.0266  0.8067
 2815SOL    HW219905   0.807   2.033   7.104 -0.1732 -0.4978 -0.0454
 2816SOL     OW19906   3.460   0.516   3.018 -0.2682  0.0485 -0.2726
 2816SOL    HW119907   3.455   0.425   2.990  0.3742 -0.4064  1.0909
 2816SOL    HW219908   3.369   0.546   3.007  0.1893  2.6980  2.9317
 2817SOL     OW19909   3.428   2.302   6.402  0.4527  0.7324  0.5315
 2817SOL    HW119910   3.387   2.298   6.489  1.8413 -1.7069  1.0795
 2817SOL    HW219911   3.430   2.207   6.386 -0.0464  0.8079  0.0087
 2818SOL     OW19912   1.066   0.360  13.624  0.5825 -0.4307  0.3463
 2818SOL    HW119913   1.144   0.351  13.679  1.9434 -1.6644 -1.7199
 2818SOL    HW219914   1.080   0.449  13.592 -2.0868  0.2443  1.1168
 2819SOL     OW19915   1.753   3.742   9.258 -0.2774  0.9750 -0.5083
 2819SOL    HW119916   1.809   3.664   9.265 -2.1360 -0.3964 -0.9634
 2819SOL    HW219917   1.791   3.779   9.179  1.2118  0.2843 -0.1146
 2820SOL     OW19918   2.326   2.483  15.806 -0.0355  0.4916 -0.2653
 2820SOL    HW119919   2.278   2.438  15.875  1.3637 -0.8492 -0.1654
 2820SOL    HW219920   2.267   2.539  15.756 -0.9007  1.5345  1.9098
 2821SOL     OW19921   0.069   3.794   9.435 -0.2886  0.3177 -0.3385
 2821SOL    HW119922   0.162   3.782   9.457 -0.3728  0.4399  0.0908
 2821SOL    HW219923   0.034   3.783   9.524  1.1600 -1.1007  0.0567
 2822SOL     OW19924   0.804   3.368   3.056 -0.1562 -0.2180 -0.4215
 2822SOL    HW119925   0.843   3.344   2.972 -1.5861 -0.6219 -0.9496
 2822SOL    HW219926   0.770   3.283   3.083 -0.9824  0.2010 -0.1441
 2823SOL     OW19927   2.262   1.898  13.100 -0.0409  0.0984  0.5472
 2823SOL    HW119928   2.238   1.959  13.169  1.6010  1.5439 -0.1681
 2823SOL    HW219929   2.268   1.813  13.143 -1.5991 -0.0421  0.4723
 2824SOL     OW19930   3.200   0.271   7.009 -0.2592 -0.9640  0.1315
 2824SOL    HW119931   3.240   0.192   7.046 -0.1558 -1.3102 -0.7186
 2824SOL    HW219932   3.171   0.232   6.926  0.3695  3.5767 -2.2325
 2825SOL     OW19933   0.702   0.201   1.037  0.4120 -0.4541 -0.1793
 2825SOL    HW119934   0.609   0.221   1.047  0.2064 -0.2947 -2.2629
 2825SOL    HW219935   0.702   0.186   0.942 -1.7356  4.2527 -0.9251
 2826SOL     OW19936   0.129   1.095  11.441  0.0223 -0.2184 -0.7009
 2826SOL    HW119937   0.151   1.119  11.351 -1.0378  0.7137 -0.7123
 2826SOL    HW219938   0.213   1.079  11.483 -0.3170 -2.5250 -0.8904
 2827SOL     OW19939   4.478   4.006   2.992  0.2115 -0.4005  0.3526
 2827SOL    HW119940   4.390   3.973   3.012 -0.8800  1.5936 -1.1684
 2827SOL    HW219941   4.456   4.070   2.924 -1.8210  0.1136  1.4843
 2828SOL     OW19942   1.512   2.060  12.984  0.0323  0.1531 -0.6431
 2828SOL    HW119943   1.489   2.016  12.902 -2.1102 -0.5680  0.3718
 2828SOL    HW219944   1.548   1.983  13.026 -0.0594  1.5520  1.9772
 2829SOL     OW19945   0.079   0.219   9.753  1.1003 -0.0808 -0.2759
 2829SOL    HW119946   0.085   0.152   9.821 -0.8211 -0.4370 -0.4734
 2829SOL    HW219947   0.148   0.181   9.698  0.9239  1.5532 -1.6409
 2830SOL     OW19948   0.787   0.735  15.411  0.2719 -0.2315  0.6914
 2830SOL    HW119949   0.830   0.733  15.326  2.0142 -0.6797  1.5966
 2830SOL    HW219950   0.710   0.782  15.380  0.7668 -0.2549 -0.5627
 2831SOL     OW19951   1.514   2.535   8.432  0.2141  0.5089  0.2101
 2831SOL    HW119952   1.533   2.443   8.452  0.3992  1.0043  2.4002
 2831SOL    HW219953   1.450   2.525   8.362  0.0749 -0.6600  0.5044
 2832SOL     OW19954   2.768   2.069   4.019 -0.3895  0.2352  0.7811
 2832SOL    HW119955   2.738   2.044   3.932  0.3989 -2.5616  1.2983
 2832SOL    HW219956   2.761   2.164   4.023  0.7155  0.4392 -2.2984
 2833SOL     OW19957   0.898   4.471   4.545  0.3218 -0.0650  0.0651
 2833SOL    HW119958   0.805   4.449   4.545  0.2579  0.2123  0.0025
 2833SOL    HW219959   0.921   4.477   4.638  1.7144  0.8297 -0.3402
 2834SOL     OW19960   4.185   1.599   3.947  0.5036  0.2644  0.0732
 2834SOL    HW119961   4.108   1.546   3.966  0.3347  0.1753 -0.8858
 2834SOL    HW219962   4.212   1.602   4.039  2.8292  1.6160 -0.6481
 2835SOL     OW19963   4.191   3.391   8.992  0.0180  0.3649 -0.1914
 2835SOL    HW119964   4.193   3.410   9.085 -0.4797 -1.0821  0.1233
 2835SOL    HW219965   4.216   3.468   8.942 -0.4174 -0.3977 -1.6012
 2836SOL     OW19966   1.536   2.703  12.937 -0.7477 -0.3032  0.3371
 2836SOL    HW119967   1.575   2.732  13.020 -1.5296 -1.3569  1.0747
 2836SOL    HW219968   1.475   2.774  12.919  1.7780  2.1493  1.4362
 2837SOL     OW19969   0.884   2.534  14.228 -0.5453 -0.2382  0.1286
 2837SOL    HW119970   0.861   2.443  14.210 -0.0196  0.0044 -1.7355
 2837SOL    HW219971   0.951   2.529  14.297 -1.3970  0.9989  1.0386
 2838SOL     OW19972   2.950   1.832   5.781  0.5506 -0.2082 -0.2217
 2838SOL    HW119973   2.942   1.737   5.767  0.2230 -0.1514 -0.4040
 2838SOL    HW219974   3.015   1.845   5.850  0.9683 -1.7052 -0.3329
 2839SOL     OW19975   4.684   3.580   8.348  0.1424  0.3523 -0.0210
 2839SOL    HW119976   4.717   3.647   8.408  2.2455  0.0260 -0.8424
 2839SOL    HW219977   0.003   3.499   8.381 -1.2366  0.5267  2.0906
 2840SOL     OW19978   3.280   4.410   7.848  0.1716 -0.5535 -0.6245
 2840SOL    HW119979   3.188   4.390   7.834  0.3662 -0.8717 -1.4772
 2840SOL    HW219980   3.288   4.369   7.934  1.0951  0.8194 -0.0509
 2841SOL     OW19981   3.696   3.224   9.665 -0.7876  0.1494 -0.0359
 2841SOL    HW119982   3.740   3.210   9.749  0.3362  0.8323 -0.5108
 2841SOL    HW219983   3.710   3.318   9.666  1.6582 -0.2212  2.0444
 2842SOL     OW19984   2.666   2.861   8.396  0.0334  0.2769 -0.4580
 2842SOL    HW119985   2.618   2.860   8.480  0.6367  1.1896 -0.1013
 2842SOL    HW219986   2.758   2.838   8.407  0.4420  1.0452 -2.3914
 2843SOL     OW19987   3.856   0.103   5.018  0.3417 -0.1394  0.0574
 2843SOL    HW119988   3.902   0.019   5.014  3.0894  1.4743 -2.7523
 2843SOL    HW219989   3.765   0.074   5.018  0.4515 -0.5152  2.5965
 2844SOL     OW19990   0.022   4.449   3.977  0.0748 -0.2139 -0.1430
 2844SOL    HW119991   0.024   4.493   4.062  0.1831 -3.4526  1.5120
 2844SOL    HW219992   0.079   4.373   3.979  1.0587  0.5348  0.0117
 2845SOL     OW19993   4.180   4.097  16.856  0.0836 -0.2633  0.3520
 2845SOL    HW119994   4.124   4.113  16.932  0.7567 -2.0814  1.2438
 2845SOL    HW219995   4.157   4.010  16.821  2.2840 -0.5894 -0.2897
 2846SOL     OW19996   0.363   0.068   1.942 -0.1366 -0.0182  0.2857
 2846SOL    HW119997   0.285   0.077   1.886  0.2698 -0.2758 -0.3325
 2846SOL    HW219998   0.402   0.154   1.929  0.5571 -0.2619  0.7523
 2847SOL     OW19999   1.894   0.128   3.266 -0.5155  0.4043 -0.1068
 2847SOL    HW120000   1.975   0.177   3.256 -0.4351  0.2657 -0.1389
 2847SOL    HW220001   1.909   0.046   3.218  0.0742 -0.7782  2.0822
 2848SOL     OW20002   3.002   2.501   5.136 -0.1043 -0.3576 -0.4629
 2848SOL    HW120003   2.967   2.412   5.151 -3.8222  0.8831 -1.7880
 2848SOL    HW220004   3.086   2.500   5.183 -0.3765 -0.3718  0.0275
 2849SOL     OW20005   0.256   1.630   5.916  0.0812 -0.4518 -0.3401
 2849SOL    HW120006   0.320   1.573   5.873 -0.3957 -1.4753  0.3142
 2849SOL    HW220007   0.272   1.709   5.864  0.6397 -0.2346  0.1593
 2850SOL     OW20008   0.937   2.274   1.868  0.2304 -0.1934 -0.6287
 2850SOL    HW120009   0.991   2.352   1.864 -0.2071  0.1864  0.9599
 2850SOL    HW220010   0.852   2.315   1.879  0.0887 -0.5769 -0.2914
 2851SOL     OW20011   0.287   0.132   7.541 -0.0890  0.1539  0.3566
 2851SOL    HW120012   0.336   0.172   7.613 -2.4271 -1.0172  2.5970
 2851SOL    HW220013   0.357   0.130   7.476 -2.3867  0.9914 -2.1413
 2852SOL     OW20014   3.086   0.541   7.776  0.6910  0.4167  0.2993
 2852SOL    HW120015   3.039   0.624   7.786  0.8269  0.7047 -1.4992
 2852SOL    HW220016   3.049   0.485   7.845  1.4837  0.0712  0.4343
 2853SOL     OW20017   2.423   4.654  14.405 -0.3158 -0.2620  0.1836
 2853SOL    HW120018   2.401   0.017  14.364  0.8673 -1.3543 -2.7131
 2853SOL    HW220019   2.344   4.644  14.458  0.5846  1.4681  1.8087
 2854SOL     OW20020   4.026   2.617   0.168 -0.4723 -0.4341  0.7983
 2854SOL    HW120021   4.049   2.542   0.223 -0.4078 -1.9546 -1.3049
 2854SOL    HW220022   3.936   2.636   0.197 -0.0234 -0.6020  2.3039
 2855SOL     OW20023   2.411   1.804   8.924 -0.2336  0.5436 -0.7353
 2855SOL    HW120024   2.430   1.824   8.832 -0.0625  1.1712 -0.5588
 2855SOL    HW220025   2.383   1.889   8.956 -0.8312  0.8446 -2.0706
 2856SOL     OW20026   3.751   4.031  15.334 -0.2775 -0.2034  0.1452
 2856SOL    HW120027   3.658   4.049  15.347  0.1067  3.0363 -1.6690
 2856SOL    HW220028   3.767   4.060  15.245 -1.5157  1.4350  0.4666
 2857SOL     OW20029   1.345   2.907  13.060 -0.1907  0.4075 -0.6137
 2857SOL    HW120030   1.288   2.980  13.034 -2.1569 -0.9224 -0.0123
 2857SOL    HW220031   1.417   2.950  13.104 -0.2106 -1.5956  1.3480
 2858SOL     OW20032   3.776   3.342   2.077 -0.0244  0.4930  0.0559
 2858SOL    HW120033   3.719   3.270   2.101 -1.1821  1.1531 -0.7039
 2858SOL    HW220034   3.786   3.366   2.169 -0.7231 -0.2509  0.3233
 2859SOL     OW20035   1.341   3.871  14.074  0.8466 -0.0090 -0.4442
 2859SOL    HW120036   1.302   3.853  13.989 -2.8695 -0.0489  1.2870
 2859SOL    HW220037   1.415   3.923  14.043  0.3232  0.0984 -1.5097
 2860SOL     OW20038   2.433   2.693  12.170 -0.5081 -0.2066  0.2133
 2860SOL    HW120039   2.342   2.687  12.142 -0.0236  1.5462 -1.7838
 2860SOL    HW220040   2.429   2.765  12.232 -0.7794  1.4357 -1.7188
 2861SOL     OW20041   3.500   4.263   7.241 -0.4703 -0.2773 -0.0345
 2861SOL    HW120042   3.446   4.341   7.233 -1.0291 -0.7434 -0.8152
 2861SOL    HW220043   3.526   4.249   7.150  3.1049 -0.1998  0.9725
 2862SOL     OW20044   1.858   0.939   5.360 -0.0920 -0.2093 -0.1452
 2862SOL    HW120045   1.828   0.946   5.450  1.8418  1.6675  0.3596
 2862SOL    HW220046   1.954   0.935   5.361 -0.0784 -0.1432 -2.5154
 2863SOL     OW20047   1.879   1.097   4.897  0.0492 -0.2803  0.0895
 2863SOL    HW120048   1.860   1.053   4.980  1.3982 -2.4277 -0.7250
 2863SOL    HW220049   1.933   1.169   4.928 -0.5744  0.2362 -0.0328
 2864SOL     OW20050   0.113   4.160   4.678 -0.0339  0.0677  0.2786
 2864SOL    HW120051   0.108   4.067   4.657 -0.1803  0.7915 -2.8927
 2864SOL    HW220052   0.202   4.181   4.651  0.0541 -2.3724 -1.2542
 2865SOL     OW20053   1.943   0.020   7.265 -0.0570  0.7593 -0.4081
 2865SOL    HW120054   1.965   0.009   7.357  1.3341 -0.2167 -0.8593
 2865SOL    HW220055   1.848   0.014   7.277  0.0835  0.3985  0.4749
 2866SOL     OW20056   0.056   2.718   8.663 -0.0927  0.1926  0.0138
 2866SOL    HW120057   0.067   2.633   8.622 -0.0091 -0.3317  1.1270
 2866SOL    HW220058   0.075   2.695   8.754  0.1781 -0.7327 -0.2758
 2867SOL     OW20059   3.192   3.762   9.889 -0.0807 -0.7229 -0.0383
 2867SOL    HW120060   3.262   3.777   9.952  0.4757 -0.6268 -0.6857
 2867SOL    HW220061   3.115   3.791   9.938 -0.2648 -1.1401 -0.0812
 2868SOL     OW20062   0.368   0.538   7.508  0.1090 -0.2578 -0.3151
 2868SOL    HW120063   0.339   0.492   7.587  4.2351 -3.6158 -0.8092
 2868SOL    HW220064   0.289   0.523   7.457  1.0603 -1.3435 -1.4527
 2869SOL     OW20065   1.423   1.453  12.049 -0.1304 -0.0567  0.0875
 2869SOL    HW120066   1.329   1.468  12.062 -0.4916 -2.1152 -0.1390
 2869SOL    HW220067   1.433   1.359  12.033 -1.3545 -0.1655 -0.0617
 2870SOL     OW20068   3.400   2.892   2.054  0.0093  0.3006  0.7377
 2870SOL    HW120069   3.451   2.945   1.993 -0.0027  0.0283  0.4958
 2870SOL    HW220070   3.435   2.806   2.030 -1.1611  0.1846 -0.5707
 2871SOL     OW20071   1.369   0.622  13.097  0.3269  0.2230 -0.0359
 2871SOL    HW120072   1.326   0.575  13.168 -1.8263  0.3317 -1.2566
 2871SOL    HW220073   1.382   0.713  13.123 -2.8765  0.4491  0.8042
 2872SOL     OW20074   1.696   4.355   2.263  0.3764 -0.5604  0.3489
 2872SOL    HW120075   1.618   4.317   2.302 -0.3497  0.2389 -0.3234
 2872SOL    HW220076   1.744   4.273   2.252 -2.2469 -2.1442  0.6221
 2873SOL     OW20077   3.092   1.556   4.657  1.5596 -0.0121 -0.4181
 2873SOL    HW120078   3.038   1.631   4.681  0.4351 -0.9939  0.0949
 2873SOL    HW220079   3.114   1.526   4.745 -1.3628  0.5751  0.4966
 2874SOL     OW20080   4.162   2.520   2.991 -0.0717 -0.0542 -0.3107
 2874SOL    HW120081   4.216   2.549   3.065 -2.2086 -1.6043  1.8611
 2874SOL    HW220082   4.147   2.430   3.018 -0.4590  0.6175  1.7677
 2875SOL     OW20083   3.687   3.924   8.010  0.2000  0.1692  0.1687
 2875SOL    HW120084   3.612   3.897   7.958  1.0359  0.0479 -0.9848
 2875SOL    HW220085   3.654   3.993   8.068 -1.3072 -0.8232  0.4560
 2876SOL     OW20086   0.733   1.789   8.568 -0.2635 -0.3862  0.2629
 2876SOL    HW120087   0.807   1.761   8.513  0.7512  0.0314  1.4010
 2876SOL    HW220088   0.781   1.792   8.651 -1.9072 -1.3652  1.2425
 2877SOL     OW20089   3.410   2.172   6.011 -0.0887  0.4110  0.0286
 2877SOL    HW120090   3.501   2.182   6.036 -0.4944 -0.4537  1.8157
 2877SOL    HW220091   3.377   2.254   6.047 -1.2187 -0.1471  0.2599
 2878SOL     OW20092   3.967   1.935  15.947 -0.7406  0.0585 -0.1795
 2878SOL    HW120093   3.967   2.011  16.006 -1.4178 -0.7808  0.9079
 2878SOL    HW220094   4.052   1.947  15.905 -1.1512 -0.2897 -1.1096
 2879SOL     OW20095   3.734   1.055   7.312 -0.6694  0.2336  0.6561
 2879SOL    HW120096   3.812   1.041   7.366 -1.5184  1.5027  2.1986
 2879SOL    HW220097   3.782   1.047   7.230  0.8474  4.0963  1.1801
 2880SOL     OW20098   1.550   4.365   5.447 -0.4228  0.5467  0.0641
 2880SOL    HW120099   1.514   4.411   5.523  1.9718  2.3727  0.1107
 2880SOL    HW220100   1.498   4.286   5.433  0.2933  0.4991 -2.3693
 2881SOL     OW20101   1.305   0.683   6.081  0.2175 -0.2403 -0.3791
 2881SOL    HW120102   1.357   0.726   6.149  0.2520 -0.4372 -0.2799
 2881SOL    HW220103   1.305   0.745   6.008 -2.2233  1.8382  1.4076
 2882SOL     OW20104   3.924   2.174   0.749 -0.4553  0.2866  0.6105
 2882SOL    HW120105   3.999   2.172   0.690 -0.1101  0.7280  1.0267
 2882SOL    HW220106   3.949   2.226   0.826 -1.7092  1.0698  0.4902
 2883SOL     OW20107   0.281   0.640  14.997 -0.1299  0.7340  0.2614
 2883SOL    HW120108   0.276   0.552  15.032 -0.7112  0.5820 -0.2009
 2883SOL    HW220109   0.376   0.654  15.003 -0.1462  2.7085 -3.8395
 2884SOL     OW20110   0.918   1.758   6.075  0.3161  0.4749  0.3309
 2884SOL    HW120111   0.979   1.816   6.120  0.0348  1.6403 -0.7684
 2884SOL    HW220112   0.979   1.686   6.059  0.4691  0.1139  2.6232
 2885SOL     OW20113   1.897   2.995   5.071  0.3385  0.4819  0.4619
 2885SOL    HW120114   1.814   3.042   5.061 -1.0112 -1.7819  1.0776
 2885SOL    HW220115   1.886   2.965   5.161 -1.7487 -1.2658 -0.3856
 2886SOL     OW20116   3.167   0.488   8.198 -0.2961 -0.4051  0.8207
 2886SOL    HW120117   3.094   0.465   8.141  0.0660  0.5948 -0.0424
 2886SOL    HW220118   3.153   0.582   8.211  2.3371 -0.1228  1.6711
 2887SOL     OW20119   3.831   2.786   6.602  0.2326  0.2808  0.2821
 2887SOL    HW120120   3.797   2.721   6.664  2.2681  0.0316  1.1506
 2887SOL    HW220121   3.925   2.771   6.592  0.1452  1.1171 -1.7226
 2888SOL     OW20122   0.165   3.070   4.723 -0.3714 -0.1530 -0.5206
 2888SOL    HW120123   0.257   3.047   4.733 -1.2335 -3.5410 -0.2170
 2888SOL    HW220124   0.146   3.075   4.630  0.1868  0.5628 -0.5937
 2889SOL     OW20125   0.634   1.708   1.161 -0.1552  0.3733  0.2029
 2889SOL    HW120126   0.604   1.700   1.252 -0.0976 -0.6682  0.1275
 2889SOL    HW220127   0.706   1.771   1.166  0.1926 -0.1990  2.3773
 2890SOL     OW20128   2.166   4.498   2.071  0.1726  0.1005 -0.3908
 2890SOL    HW120129   2.192   4.427   2.012  2.2238 -1.1627  2.0208
 2890SOL    HW220130   2.082   4.538   2.046  0.9049  0.8007 -1.7229
 2891SOL     OW20131   2.667   0.949   3.892  0.6252  0.7868  0.0231
 2891SOL    HW120132   2.698   1.040   3.895 -0.2977  1.1052 -0.2554
 2891SOL    HW220133   2.701   0.922   3.807  0.2446  1.1906 -0.2617
 2892SOL     OW20134   0.243   1.994   7.399  0.3142 -0.0565 -0.0140
 2892SOL    HW120135   0.326   1.956   7.428 -0.1022 -1.3661 -0.5094
 2892SOL    HW220136   0.184   1.958   7.465 -0.7475  0.7407 -0.5263
 2893SOL     OW20137   0.104   1.394   2.566 -0.8178  0.0713 -0.0288
 2893SOL    HW120138   0.084   1.391   2.659  0.2282  0.6016  0.2128
 2893SOL    HW220139   0.033   1.449   2.534 -1.4492 -0.1272  1.0560
 2894SOL     OW20140   2.886   0.147   5.223  0.1552  0.4973 -0.1679
 2894SOL    HW120141   2.920   0.178   5.139  0.1926  1.0749  0.0601
 2894SOL    HW220142   2.910   0.213   5.289  0.1101 -1.1797  1.5214
 2895SOL     OW20143   0.992   1.600   1.946 -0.3543 -0.7383 -0.0723
 2895SOL    HW120144   1.075   1.553   1.952  0.2498  0.2868 -0.5099
 2895SOL    HW220145   0.953   1.564   2.026 -0.8517  1.5184  0.6903
 2896SOL     OW20146   4.097   2.602   5.994 -0.4213 -0.4050  0.1543
 2896SOL    HW120147   4.028   2.648   6.043  0.7220  1.8295 -0.3754
 2896SOL    HW220148   4.065   2.514   6.014  0.2434 -1.0307 -1.5795
 2897SOL     OW20149   0.066   1.841   6.613  0.2286  0.3438 -0.4218
 2897SOL    HW120150   0.058   1.866   6.705  0.0889 -0.3963 -0.2328
 2897SOL    HW220151   4.695   1.848   6.588 -0.0818 -2.6413 -0.0925
 2898SOL     OW20152   0.173   0.378   5.843  0.2785 -0.0257  0.2231
 2898SOL    HW120153   0.095   0.324   5.826  0.4850  0.6015 -2.7606
 2898SOL    HW220154   0.207   0.344   5.926  1.5102 -0.9183 -0.6478
 2899SOL     OW20155   4.641   4.656   9.702 -0.2531  0.2995 -0.9483
 2899SOL    HW120156   4.575   4.590   9.722  0.8238 -0.4308  0.2411
 2899SOL    HW220157   4.681   4.655   9.789 -2.9220  2.9508  0.3088
 2900SOL     OW20158   2.684   0.755   4.275 -0.0191 -0.2100  0.0385
 2900SOL    HW120159   2.661   0.817   4.344 -1.3215  0.4185 -0.9727
 2900SOL    HW220160   2.758   0.805   4.239 -0.1675  1.8691  2.7072
 2901SOL     OW20161   0.868   1.887   8.268  0.1794  0.1590 -0.1187
 2901SOL    HW120162   0.920   1.857   8.342 -1.9987  1.1126  1.8228
 2901SOL    HW220163   0.893   1.818   8.207  1.3090  0.3649  0.1127
 2902SOL     OW20164   0.409   3.461   2.551 -0.5376  0.5540 -0.1279
 2902SOL    HW120165   0.499   3.482   2.529 -0.4022 -1.8895 -1.8705
 2902SOL    HW220166   0.419   3.466   2.646  0.8930 -1.2583 -0.1962
 2903SOL     OW20167   1.424   1.805   8.128 -0.1672  0.1154  0.1450
 2903SOL    HW120168   1.464   1.759   8.054  0.5156  0.5134  0.2670
 2903SOL    HW220169   1.478   1.884   8.132  0.0679  0.0352 -1.3664
 2904SOL     OW20170   1.339   2.049   3.093 -0.5795  0.3963 -0.5354
 2904SOL    HW120171   1.358   1.993   3.168 -1.5079  1.8541  0.7652
 2904SOL    HW220172   1.372   1.995   3.021  0.4260 -1.2308  1.1389
 2905SOL     OW20173   1.469   3.214   4.490  0.2093  0.4703 -0.2502
 2905SOL    HW120174   1.496   3.166   4.411  2.3867 -0.1429  0.8663
 2905SOL    HW220175   1.427   3.140   4.534  1.2228 -0.4952 -0.8833
 2906SOL     OW20176   0.151   2.737   8.967  0.2526 -0.0028  0.7897
 2906SOL    HW120177   0.198   2.820   8.963 -0.7852  0.6008  0.9805
 2906SOL    HW220178   0.215   2.677   8.928  1.2115 -0.0258  2.3988
 2907SOL     OW20179   1.735   1.834   3.125 -0.0631 -0.6598 -0.2378
 2907SOL    HW120180   1.796   1.761   3.112 -0.8328 -1.6330  1.5633
 2907SOL    HW220181   1.658   1.806   3.075  0.0033  0.9089 -1.1908
 2908SOL     OW20182   4.499   4.448  15.276 -0.0645  0.3873 -0.2791
 2908SOL    HW120183   4.404   4.452  15.285 -0.0214 -0.4231  0.5827
 2908SOL    HW220184   4.520   4.501  15.199  1.6913 -1.7552 -1.3159
 2909SOL     OW20185   1.382   1.048   2.907 -0.2617 -0.1957 -0.6132
 2909SOL    HW120186   1.401   1.009   2.992 -1.4504 -0.3360 -0.4006
 2909SOL    HW220187   1.336   0.977   2.863 -0.9512 -0.9610  1.3245
 2910SOL     OW20188   2.329   3.020  12.100 -0.1934 -0.6025 -0.0191
 2910SOL    HW120189   2.241   2.983  12.096 -0.4682  0.2184 -1.3862
 2910SOL    HW220190   2.340   3.006  12.194 -1.7107 -0.4158  0.1892
 2911SOL     OW20191   0.828   0.242  11.502 -0.4587 -0.1816  0.2739
 2911SOL    HW120192   0.808   0.168  11.445  0.1312  0.0493 -0.2315
 2911SOL    HW220193   0.913   0.256  11.460 -1.2727  0.7509 -1.0325
 2912SOL     OW20194   2.260   2.168   7.803 -0.0173 -0.3045 -0.4104
 2912SOL    HW120195   2.178   2.145   7.846  0.7665 -1.0328  0.7038
 2912SOL    HW220196   2.231   2.243   7.751  2.3973  0.0073 -1.3113
 2913SOL     OW20197   0.565   2.718   8.943  0.0110  0.0744 -0.8295
 2913SOL    HW120198   0.484   2.682   8.907  0.1544  1.1250 -2.2053
 2913SOL    HW220199   0.635   2.655   8.929 -0.5326 -1.6028  3.9467
 2914SOL     OW20200   4.103   1.403   7.525 -0.1223  0.3822  0.1033
 2914SOL    HW120201   4.167   1.339   7.559  0.4606  0.2877 -1.1818
 2914SOL    HW220202   4.159   1.438   7.456 -2.5202 -0.8989 -2.4523
 2915SOL     OW20203   4.378   2.622   6.702 -0.2777 -0.1324  0.2636
 2915SOL    HW120204   4.450   2.658   6.651  0.8114 -2.9448 -0.1921
 2915SOL    HW220205   4.430   2.598   6.778 -0.5683  0.6279  0.7018
 2916SOL     OW20206   3.612   3.100  11.972 -0.5062  0.0398 -0.0856
 2916SOL    HW120207   3.628   3.072  11.882  2.1829 -0.5678  0.5798
 2916SOL    HW220208   3.663   3.180  11.982 -1.3136  0.6457 -0.8198
 2917SOL     OW20209   0.532   0.538   1.190  0.1389  0.0753 -0.3709
 2917SOL    HW120210   0.512   0.598   1.262  0.3890  1.4270 -1.4451
 2917SOL    HW220211   0.626   0.530   1.205 -0.5037 -0.6069  3.5235
 2918SOL     OW20212   1.076   4.102   2.676 -0.2699  0.4353 -0.0019
 2918SOL    HW120213   1.001   4.159   2.661  0.2056  1.3997  1.2464
 2918SOL    HW220214   1.148   4.152   2.715  1.5309 -1.9055 -0.3598
 2919SOL     OW20215   3.931   1.924   8.301  0.2496 -0.3147 -0.2184
 2919SOL    HW120216   3.864   1.991   8.312  0.5386  0.0134 -0.4639
 2919SOL    HW220217   4.002   1.973   8.341 -1.5916  1.4906  0.8044
 2920SOL     OW20218   3.447   0.530   7.217 -0.2270  0.1813 -0.2171
 2920SOL    HW120219   3.464   0.599   7.281  0.4693 -0.6556  0.5139
 2920SOL    HW220220   3.458   0.444   7.257  0.6034 -0.8826 -2.7356
 2921SOL     OW20221   1.728   4.224   6.256  0.0820 -0.5830  0.3121
 2921SOL    HW120222   1.785   4.147   6.256  1.4578  0.4454 -2.6147
 2921SOL    HW220223   1.713   4.248   6.165  1.8917 -1.7932 -0.3026
 2922SOL     OW20224   3.336   1.893  15.635  1.2141  0.0275 -0.3207
 2922SOL    HW120225   3.254   1.942  15.643  0.2869 -1.5375 -0.3844
 2922SOL    HW220226   3.340   1.876  15.541 -3.2160  0.5316 -0.5882
 2923SOL     OW20227   4.136   3.096   5.493 -1.0448 -0.0242 -0.2285
 2923SOL    HW120228   4.175   3.087   5.406 -0.5767  2.0122 -0.2348
 2923SOL    HW220229   4.211   3.085   5.551 -0.7930 -2.7047 -1.0710
 2924SOL     OW20230   0.549   1.829  15.217 -0.2556  0.0407  0.1983
 2924SOL    HW120231   0.487   1.896  15.187 -0.2267  0.0124  0.0769
 2924SOL    HW220232   0.546   1.772  15.140 -0.0480  0.0426  0.1894
 2925SOL     OW20233   1.982   2.982   7.778 -0.0693 -0.0469  0.1809
 2925SOL    HW120234   2.001   2.910   7.719 -3.7545 -0.4795 -0.5011
 2925SOL    HW220235   1.887   2.992   7.771  0.1683  1.3057 -1.1226
 2926SOL     OW20236   2.505   0.540   2.335 -0.1076 -0.2003  0.2028
 2926SOL    HW120237   2.461   0.596   2.399  0.6187 -0.4977  0.9678
 2926SOL    HW220238   2.464   0.456   2.360  1.9905 -1.4934 -0.6813
 2927SOL     OW20239   0.460   3.055   7.615 -0.7374  0.0281 -0.0040
 2927SOL    HW120240   0.462   3.065   7.711  0.3882 -1.9298  0.1737
 2927SOL    HW220241   0.520   3.124   7.589  0.2526 -1.5901 -1.9553
 2928SOL     OW20242   3.000   4.402  10.471 -1.1906  0.2445  0.2870
 2928SOL    HW120243   3.017   4.308  10.463 -2.5449 -0.0059  0.2476
 2928SOL    HW220244   3.014   4.442  10.385  2.1111 -1.1874  0.1631
 2929SOL     OW20245   4.230   4.372   4.528 -0.8531  0.2134 -0.8409
 2929SOL    HW120246   4.231   4.468   4.520 -0.5994  0.3994  1.3989
 2929SOL    HW220247   4.199   4.347   4.441  0.9675 -0.7333 -1.2092
 2930SOL     OW20248   4.073   0.463   7.406 -0.8366 -0.2971  0.1357
 2930SOL    HW120249   3.991   0.438   7.450 -1.4256  0.0794 -0.7696
 2930SOL    HW220250   4.098   0.371   7.407  0.9321  0.2114  2.1335
 2931SOL     OW20251   2.255   4.405   4.471  0.1873  0.2139  0.4210
 2931SOL    HW120252   2.337   4.397   4.520 -0.3510  1.6619  1.5471
 2931SOL    HW220253   2.258   4.495   4.439 -0.2057  0.0688 -0.0164
 2932SOL     OW20254   0.665   0.965  14.050 -0.4332  1.6049  0.4192
 2932SOL    HW120255   0.673   0.871  14.033  0.4488  1.7295  0.1562
 2932SOL    HW220256   0.678   0.953  14.145 -1.4540  0.6927  0.4421
 2933SOL     OW20257   4.244   1.707  12.345  0.1534 -0.2508 -0.5108
 2933SOL    HW120258   4.166   1.745  12.305 -0.3316 -2.6954 -1.8344
 2933SOL    HW220259   4.272   1.654  12.271  0.6517 -0.4682 -0.1672
 2934SOL     OW20260   0.412   1.442  11.377  0.0610 -0.0764  0.1385
 2934SOL    HW120261   0.456   1.378  11.433 -0.3554  0.5321  1.1516
 2934SOL    HW220262   0.345   1.471  11.439 -0.1201  1.5709 -0.8377
 2935SOL     OW20263   2.212   3.215  10.675  0.0684  0.5660  0.2536
 2935SOL    HW120264   2.153   3.290  10.675 -1.2533 -0.4829 -0.4689
 2935SOL    HW220265   2.237   3.216  10.583 -3.4375 -1.1112 -0.7038
 2936SOL     OW20266   4.719   0.988  13.834  0.2730  0.3951  0.3915
 2936SOL    HW120267   4.701   1.071  13.877  0.7552 -0.2669  1.8831
 2936SOL    HW220268   4.704   0.925  13.904 -0.9867  4.2855  3.5917
 2937SOL     OW20269   2.245   1.142   7.482 -0.1796  0.8193 -0.6690
 2937SOL    HW120270   2.331   1.107   7.459 -0.2666  1.0224 -1.3163
 2937SOL    HW220271   2.183   1.088   7.434 -1.5962 -0.0328  2.1305
 2938SOL     OW20272   4.491   0.443   5.426  0.3021 -0.3136  0.4223
 2938SOL    HW120273   4.436   0.465   5.351  3.2409 -1.6873 -2.0883
 2938SOL    HW220274   4.452   0.500   5.493  0.7485  0.5780 -0.0815
 2939SOL     OW20275   1.954   3.440   2.759 -0.7163  0.5211 -0.1614
 2939SOL    HW120276   1.940   3.516   2.702  0.8964 -0.3216 -1.6905
 2939SOL    HW220277   1.871   3.438   2.806 -0.7903  1.2437 -0.2631
 2940SOL     OW20278   0.494   0.817  13.185 -0.4339  0.5812 -0.5285
 2940SOL    HW120279   0.421   0.817  13.123 -0.7724  0.5883 -0.1375
 2940SOL    HW220280   0.449   0.765  13.253  2.8311 -0.4961  0.8096
 2941SOL     OW20281   3.652   1.192   6.282 -0.4144 -0.0024  0.0257
 2941SOL    HW120282   3.633   1.237   6.200 -0.3422 -0.7528 -0.4086
 2941SOL    HW220283   3.695   1.259   6.334  0.3709  0.5183 -1.3025
 2942SOL     OW20284   3.152   4.387   5.453  0.0133  0.4740  0.1202
 2942SOL    HW120285   3.227   4.344   5.494 -0.8103  0.0070  1.1109
 2942SOL    HW220286   3.168   4.480   5.436  0.6755  0.0830 -1.3838
 2943SOL     OW20287   4.342   1.177   6.972 -0.2158 -0.2187 -0.2697
 2943SOL    HW120288   4.363   1.260   7.015  1.4978 -1.4562  1.2708
 2943SOL    HW220289   4.415   1.124   7.004  1.3698 -0.3778 -4.1216
 2944SOL     OW20290   2.998   1.380   5.566 -0.0761 -0.4627  0.2426
 2944SOL    HW120291   3.088   1.371   5.537 -0.5878 -2.4744 -0.7146
 2944SOL    HW220292   2.951   1.303   5.535 -0.6067  0.1512 -0.5143
 2945SOL     OW20293   1.085   3.706   3.489 -0.7020 -0.4019  0.4064
 2945SOL    HW120294   0.997   3.695   3.524 -0.6530  2.5591  1.4942
 2945SOL    HW220295   1.125   3.772   3.545 -0.4525 -0.9091  0.8315
 2946SOL     OW20296   2.558   0.280   3.143  0.7572  0.1501  1.0910
 2946SOL    HW120297   2.562   0.271   3.239  0.1871 -2.5154  0.8590
 2946SOL    HW220298   2.467   0.308   3.131  1.0235  0.8910  0.8082
 2947SOL     OW20299   1.208   0.004   7.153  0.1129  0.2902 -0.4480
 2947SOL    HW120300   1.250   0.040   7.231 -0.7856  0.7126 -0.1563
 2947SOL    HW220301   1.152   0.072   7.116  0.1290  0.3629 -0.3377
 2948SOL     OW20302   1.913   0.418   4.981  0.0216 -0.1820  0.2102
 2948SOL    HW120303   1.938   0.494   4.929  2.3326  0.4468  2.2588
 2948SOL    HW220304   1.867   0.367   4.915 -1.8467  1.1372  0.4806
 2949SOL     OW20305   2.571   0.928  13.656  0.5073  0.0552 -0.0928
 2949SOL    HW120306   2.610   0.867  13.594  0.1851 -0.0000 -0.2413
 2949SOL    HW220307   2.637   0.993  13.679 -2.2192  1.6480  3.2589
 2950SOL     OW20308   0.746   2.181   0.662  0.5831 -0.0487  0.0464
 2950SOL    HW120309   0.722   2.196   0.753 -0.8820 -0.5622 -0.2605
 2950SOL    HW220310   0.740   2.267   0.621  1.4211  0.3607  0.7694
 2951SOL     OW20311   0.305   2.691  17.372  0.1513  0.3249  0.2793
 2951SOL    HW120312   0.241   2.643  17.425  0.8198  0.0266  0.8100
 2951SOL    HW220313   0.254   2.688  17.291  0.7877  2.4696 -0.2029
 2952SOL     OW20314   2.094   3.098  11.752 -0.5203  0.5847 -0.1474
 2952SOL    HW120315   2.107   3.176  11.807 -0.6238 -0.2402  1.0399
 2952SOL    HW220316   2.142   3.128  11.675 -1.1918  0.6587 -0.5370
 2953SOL     OW20317   4.464   1.493   3.958  0.9249 -0.9927  0.0642
 2953SOL    HW120318   4.473   1.419   3.898  0.8228  0.0374 -1.2347
 2953SOL    HW220319   4.395   1.477   4.022  0.9505 -1.7784 -0.1037
 2954SOL     OW20320   1.686   0.319   3.632  0.2891  0.6090 -0.2782
 2954SOL    HW120321   1.763   0.357   3.589  0.9552 -0.2524  0.1429
 2954SOL    HW220322   1.716   0.320   3.723  1.5112  1.4966 -0.6869
 2955SOL     OW20323   2.838   3.939   8.068 -0.0846 -0.4175 -0.2817
 2955SOL    HW120324   2.920   3.986   8.052 -1.3656  1.9250  0.0652
 2955SOL    HW220325   2.812   3.973   8.154  0.4996 -0.2461 -0.1759
 2956SOL     OW20326   3.454   0.614   2.597 -0.0994  0.4830 -0.0537
 2956SOL    HW120327   3.482   0.650   2.681  2.3442  1.8964 -1.4818
 2956SOL    HW220328   3.514   0.541   2.582 -0.6419  0.4315 -2.0190
 2957SOL     OW20329   4.033   0.211   2.088  0.5497 -0.3242  0.2172
 2957SOL    HW120330   4.057   0.253   2.006 -2.0172  0.3971 -0.1603
 2957SOL    HW220331   3.961   0.154   2.062 -0.9929  1.4894  0.5584
 2958SOL     OW20332   1.583   3.357  14.576 -0.2044 -0.5345 -0.1519
 2958SOL    HW120333   1.540   3.282  14.618  2.7630 -1.9887  0.3216
 2958SOL    HW220334   1.545   3.348  14.489 -1.8062 -0.5405  0.5624
 2959SOL     OW20335   1.617   2.244   7.014  0.0524 -0.4575 -0.2598
 2959SOL    HW120336   1.575   2.159   7.025 -0.0829 -0.4736 -0.8530
 2959SOL    HW220337   1.543   2.302   7.028  1.2381  0.1627  3.2152
 2960SOL     OW20338   0.914   0.409  11.866  0.7903  0.4638  0.2706
 2960SOL    HW120339   0.922   0.422  11.960 -0.5794 -1.7264  0.6904
 2960SOL    HW220340   0.847   0.342  11.852  0.3734  0.8468  0.4440
 2961SOL     OW20341   0.688   1.109  13.819  0.4791  0.1415  0.2938
 2961SOL    HW120342   0.679   1.061  13.901 -1.6157  1.8391  1.0512
 2961SOL    HW220343   0.632   1.182  13.847 -1.5308 -1.6643  0.9972
 2962SOL     OW20344   3.581   0.079   4.999 -0.1418 -0.5645 -0.0812
 2962SOL    HW120345   3.501   0.052   5.045  0.4870 -1.0784  0.7009
 2962SOL    HW220346   3.543   0.087   4.912  1.3725  0.2928 -0.6514
 2963SOL     OW20347   1.890   0.825   8.456 -0.3447  0.3846 -0.2035
 2963SOL    HW120348   1.951   0.878   8.405 -1.6196 -1.7645 -3.9380
 2963SOL    HW220349   1.824   0.816   8.387 -0.1802 -1.9807 -0.0466
 2964SOL     OW20350   0.371   1.287   3.713 -0.1533 -0.1054  0.2902
 2964SOL    HW120351   0.290   1.303   3.663 -0.3948  0.5527  0.8926
 2964SOL    HW220352   0.423   1.259   3.638  0.9135  1.6545  0.3868
 2965SOL     OW20353   0.234   2.176   2.154  0.2942  0.2393 -0.0449
 2965SOL    HW120354   0.259   2.257   2.199 -0.5353  1.0991 -1.1233
 2965SOL    HW220355   0.187   2.140   2.230  2.3326 -1.6043  0.3647
 2966SOL     OW20356   4.120   3.513   5.711 -0.4369 -0.0472  0.3438
 2966SOL    HW120357   4.070   3.437   5.680 -2.6488  2.5317 -2.3262
 2966SOL    HW220358   4.160   3.477   5.790  0.8901 -1.6581 -1.0527
 2967SOL     OW20359   4.631   4.178   7.407  0.7466  0.7061  0.1798
 2967SOL    HW120360   4.557   4.161   7.465  1.6993 -0.8695  0.9272
 2967SOL    HW220361   4.594   4.169   7.319  2.0258 -0.2468 -0.2486
 2968SOL     OW20362   1.012   0.219   9.165  0.1557 -0.7987 -0.3850
 2968SOL    HW120363   1.060   0.284   9.217  1.9232 -1.0764 -1.6716
 2968SOL    HW220364   1.090   0.174   9.134  0.8844 -0.1158  0.4504
 2969SOL     OW20365   0.805   0.309   3.986  0.2247 -0.1512 -0.1195
 2969SOL    HW120366   0.857   0.363   4.045  1.1568 -2.0377  0.7948
 2969SOL    HW220367   0.754   0.249   4.041 -2.0602  1.3659 -0.6291
 2970SOL     OW20368   1.098   2.323  11.638  0.3248 -0.0752  0.1452
 2970SOL    HW120369   1.144   2.268  11.701 -0.3752  0.8443  1.4470
 2970SOL    HW220370   1.120   2.274  11.558  1.5328  1.4904 -0.5003
 2971SOL     OW20371   3.783   3.945   5.019  0.5329 -0.5048 -0.0728
 2971SOL    HW120372   3.754   3.993   4.942 -0.8513  1.3134  1.6010
 2971SOL    HW220373   3.844   4.008   5.056 -0.7249  0.9917 -0.5704
 2972SOL     OW20374   0.690   2.671  10.146 -0.3745 -0.6703  0.1771
 2972SOL    HW120375   0.651   2.586  10.166 -0.8036 -0.1213  1.6054
 2972SOL    HW220376   0.764   2.660  10.205 -0.2811  0.4631  0.2633
 2973SOL     OW20377   1.667   3.332   9.304  0.0823 -0.4757  0.0384
 2973SOL    HW120378   1.601   3.370   9.362  0.6893  0.2081  0.2796
 2973SOL    HW220379   1.670   3.245   9.345 -0.9391 -1.2758 -1.5897
 2974SOL     OW20380   4.465   0.361  15.704 -0.3794  0.2780  0.4297
 2974SOL    HW120381   4.457   0.430  15.638 -0.6450  1.3413  1.5676
 2974SOL    HW220382   4.375   0.332  15.718 -0.5574  1.0044  0.7556
 2975SOL     OW20383   3.746   0.262   6.060 -0.1900  0.1995 -0.4007
 2975SOL    HW120384   3.760   0.332   5.996  0.3505  0.4253 -0.0337
 2975SOL    HW220385   3.763   0.308   6.142 -2.4854  0.4286 -0.0414
 2976SOL     OW20386   3.396   0.855  10.693  0.4629 -0.0261 -0.1050
 2976SOL    HW120387   3.470   0.894  10.741 -1.0518  2.5415  0.1191
 2976SOL    HW220388   3.350   0.804  10.759  0.8856 -1.2077 -0.7259
 2977SOL     OW20389   0.688   3.260   8.431 -0.1654 -0.2209 -0.3687
 2977SOL    HW120390   0.763   3.246   8.372  0.1399  1.7437 -0.4592
 2977SOL    HW220391   0.679   3.173   8.469  0.2625 -0.2111 -0.2458
 2978SOL     OW20392   3.288   0.307  13.034  0.0965 -0.0709  0.1898
 2978SOL    HW120393   3.279   0.257  13.115 -1.8944 -0.1502 -0.0883
 2978SOL    HW220394   3.196   0.330  13.022  0.3500  1.5739  1.3388
 2979SOL     OW20395   2.476   3.871   7.740  0.7566  0.2570 -0.0710
 2979SOL    HW120396   2.429   3.791   7.716  1.4169 -0.3342  0.6293
 2979SOL    HW220397   2.525   3.828   7.809 -0.5755 -1.6579 -0.3161
 2980SOL     OW20398   3.043   1.338   8.754  0.0297  0.5410 -0.1785
 2980SOL    HW120399   2.995   1.350   8.836  1.7630 -0.0897  0.9275
 2980SOL    HW220400   3.134   1.338   8.783 -0.0341  0.3916  0.0239
 2981SOL     OW20401   4.409   0.106   8.567 -0.0114  0.3934  0.0562
 2981SOL    HW120402   4.322   0.071   8.550 -0.0666 -0.4085  2.0981
 2981SOL    HW220403   4.467   0.068   8.501 -1.4044  0.0592 -0.9756
 2982SOL     OW20404   2.726   2.353   6.080  0.0608  0.1417 -0.5362
 2982SOL    HW120405   2.767   2.313   6.004 -0.3750  0.1708 -0.7876
 2982SOL    HW220406   2.711   2.443   6.050 -1.3258  0.1939  0.3136
 2983SOL     OW20407   2.559   2.563   6.563 -0.1121 -0.0951  0.1466
 2983SOL    HW120408   2.479   2.591   6.607 -0.9013  0.1089 -1.4258
 2983SOL    HW220409   2.571   2.477   6.605 -0.8924 -0.3724 -0.1874
 2984SOL     OW20410   3.174   4.370   3.042 -0.0837  0.2518 -0.0472
 2984SOL    HW120411   3.242   4.339   2.982 -1.6008 -0.8757 -1.1941
 2984SOL    HW220412   3.092   4.368   2.992  0.6733  0.3838 -1.2856
 2985SOL     OW20413   0.407   1.053   1.905 -0.7333  0.0429 -0.4387
 2985SOL    HW120414   0.416   0.965   1.867  2.2931  0.3658 -0.4553
 2985SOL    HW220415   0.458   1.099   1.838 -2.3020  0.0222 -1.6675
 2986SOL     OW20416   3.884   3.656   9.438 -0.0579 -1.0542  0.5650
 2986SOL    HW120417   3.928   3.662   9.353 -1.1157 -2.0456 -0.0562
 2986SOL    HW220418   3.957   3.617   9.486 -0.4045 -1.2991  0.8856
 2987SOL     OW20419   0.731   1.412   3.303  0.8720  0.1189 -0.0180
 2987SOL    HW120420   0.822   1.410   3.331  1.2077 -1.7231 -1.2468
 2987SOL    HW220421   0.732   1.499   3.263  0.7005 -0.1264 -0.5562
 2988SOL     OW20422   4.041   2.338   1.001 -0.2153  0.6243 -0.3373
 2988SOL    HW120423   4.038   2.414   0.943 -1.3350 -0.5478 -1.8025
 2988SOL    HW220424   4.062   2.389   1.079 -0.8541  0.4132 -0.0348
 2989SOL     OW20425   2.857   4.401   8.621 -0.8453  0.0235 -0.4492
 2989SOL    HW120426   2.814   4.461   8.682 -1.2951  0.1840 -0.9180
 2989SOL    HW220427   2.787   4.395   8.556 -0.2712 -0.6158 -1.0031
 2990SOL     OW20428   4.105   2.230   1.797 -0.1933 -0.3074  0.2448
 2990SOL    HW120429   4.126   2.237   1.704  1.7898 -0.6702  0.6679
 2990SOL    HW220430   4.047   2.306   1.808 -1.4061 -1.1413 -0.3664
 2991SOL     OW20431   3.188   4.203   3.934  0.2808 -0.3335 -0.4912
 2991SOL    HW120432   3.250   4.131   3.930  0.1656 -0.4616  0.0336
 2991SOL    HW220433   3.241   4.281   3.924  1.0857 -0.7477  0.5790
 2992SOL     OW20434   4.240   2.202  13.969 -0.2340 -0.1925 -0.2110
 2992SOL    HW120435   4.218   2.221  14.060 -1.0845  0.9121 -0.6489
 2992SOL    HW220436   4.314   2.260  13.951 -1.3295  0.8567 -1.3312
 2993SOL     OW20437   4.251   3.159   4.502  0.6741  0.6476 -0.3418
 2993SOL    HW120438   4.205   3.242   4.514 -1.5389 -0.2979 -2.4332
 2993SOL    HW220439   4.278   3.154   4.411 -2.2377  1.7196 -1.2801
 2994SOL     OW20440   3.869   2.832  16.428 -0.4120  0.4102 -0.7900
 2994SOL    HW120441   3.908   2.785  16.502 -3.2617 -1.3215 -0.3675
 2994SOL    HW220442   3.885   2.771  16.356 -1.4652 -1.1380  0.2723
 2995SOL     OW20443   2.930   1.155   6.628 -0.0110  0.0034 -0.7551
 2995SOL    HW120444   2.877   1.127   6.553  0.5353 -1.1067 -0.7164
 2995SOL    HW220445   3.018   1.137   6.595  0.4408  0.9563 -0.0595
 2996SOL     OW20446   2.651   1.204   6.649 -0.6601  0.6564  0.4427
 2996SOL    HW120447   2.744   1.209   6.627 -0.7496  0.5722  0.0468
 2996SOL    HW220448   2.614   1.249   6.573 -1.2677 -0.7811 -0.0975
 2997SOL     OW20449   3.490   4.231  10.595 -0.0241 -0.0548  1.1322
 2997SOL    HW120450   3.509   4.276  10.513 -1.0259  0.0479  0.9473
 2997SOL    HW220451   3.433   4.157  10.571 -0.1342  0.8883 -1.5530
 2998SOL     OW20452   3.143   1.381   4.393  0.0615 -0.0873 -0.4640
 2998SOL    HW120453   3.077   1.417   4.334 -0.1497  0.8806  0.3540
 2998SOL    HW220454   3.141   1.450   4.460  1.0047  0.0756 -0.5991
 2999SOL     OW20455   2.154   1.789   8.448  0.4148  0.0857  0.5621
 2999SOL    HW120456   2.122   1.743   8.525  2.8467 -0.1348  1.4553
 2999SOL    HW220457   2.194   1.726   8.387 -1.3352  0.8800 -1.3980
 3000SOL     OW20458   1.103   2.398   6.150 -0.2250  0.5207  0.2314
 3000SOL    HW120459   1.061   2.427   6.069  0.3600 -1.0909 -0.6434
 3000SOL    HW220460   1.193   2.400   6.117 -0.6015 -2.5749 -0.9859
 3001SOL     OW20461   2.568   3.890  15.997 -0.0079 -0.2183 -0.1129
 3001SOL    HW120462   2.541   3.801  16.020  0.5851 -0.4788 -0.4214
 3001SOL    HW220463   2.550   3.946  16.073 -1.0674 -0.3093 -0.2943
 3002SOL     OW20464   4.406   2.040  12.328 -0.7322 -0.0124 -0.0282
 3002SOL    HW120465   4.329   2.084  12.364  1.0112  2.7441  0.3668
 3002SOL    HW220466   4.418   2.111  12.265 -3.7417  0.8889  0.4143
 3003SOL     OW20467   2.907   4.043   8.635  0.1667 -0.0864 -0.3026
 3003SOL    HW120468   2.896   4.071   8.726 -2.0250 -3.7555  0.5652
 3003SOL    HW220469   2.829   3.987   8.633 -0.5426  0.8789  0.5369
 3004SOL     OW20470   2.270   4.148   4.509 -0.0307  0.7349 -0.2265
 3004SOL    HW120471   2.247   4.236   4.482 -2.0762  0.2049 -0.1902
 3004SOL    HW220472   2.180   4.118   4.524  0.4399 -1.0209 -0.8772
 3005SOL     OW20473   1.540   2.538   6.303  0.1751 -0.3538  0.9927
 3005SOL    HW120474   1.455   2.577   6.320  0.0615 -0.7118  1.2254
 3005SOL    HW220475   1.605   2.609   6.305 -1.6086  1.2948  0.3497
 3006SOL     OW20476   3.241   0.489  15.713 -0.1103  0.7314  0.2353
 3006SOL    HW120477   3.228   0.544  15.790  0.4044  1.1641  0.0099
 3006SOL    HW220478   3.172   0.525  15.658  1.0609  2.3190 -0.1836
 3007SOL     OW20479   0.838   2.785   8.247  0.0067  0.0516 -0.1273
 3007SOL    HW120480   0.757   2.742   8.274 -0.4447  2.0414  1.6403
 3007SOL    HW220481   0.879   2.800   8.332 -0.5064 -0.0613  0.1373
 3008SOL     OW20482   2.470   2.463  11.979  0.4274  0.0339 -0.1201
 3008SOL    HW120483   2.376   2.446  11.985  0.4782 -0.7868 -1.4934
 3008SOL    HW220484   2.478   2.537  12.039 -0.8753 -0.9619  1.2746
 3009SOL     OW20485   3.677   2.330   5.012 -0.0535  0.1705 -0.6807
 3009SOL    HW120486   3.750   2.284   4.971 -0.8174  0.9344 -2.9040
 3009SOL    HW220487   3.720   2.411   5.039 -1.0074 -0.7824  3.5885
 3010SOL     OW20488   4.396   3.286   5.412 -0.2365  0.3734 -0.6890
 3010SOL    HW120489   4.374   3.296   5.319 -3.0843  1.2880  0.0691
 3010SOL    HW220490   4.308   3.283   5.449 -0.1831  0.1003 -0.5854
 3011SOL     OW20491   2.293   1.589   1.924 -0.5967  0.1348 -0.5415
 3011SOL    HW120492   2.300   1.520   1.857 -0.3919 -0.9170  0.5530
 3011SOL    HW220493   2.383   1.578   1.956 -0.3444 -0.8830 -1.5617
 3012SOL     OW20494   3.024   2.090   2.190 -0.5788 -0.6273  0.1063
 3012SOL    HW120495   3.112   2.072   2.222  0.0321  0.1468 -1.1252
 3012SOL    HW220496   3.030   2.182   2.163  0.5544 -0.7573 -0.0575
 3013SOL     OW20497   1.178   1.597   6.068  0.2180 -0.2153  0.2005
 3013SOL    HW120498   1.213   1.515   6.103  0.3398  0.4623  1.6555
 3013SOL    HW220499   1.262   1.634   6.038 -0.7841  0.2581 -2.0595
 3014SOL     OW20500   0.932   4.468   4.275  0.4036 -0.4299  0.1961
 3014SOL    HW120501   0.928   4.444   4.367 -2.0539  1.7261  0.6493
 3014SOL    HW220502   1.009   4.522   4.258  0.5976 -0.3614  1.2752
 3015SOL     OW20503   1.579   0.541   5.171 -0.7096 -0.3605  0.3734
 3015SOL    HW120504   1.599   0.586   5.253  0.5087  1.3881 -0.8918
 3015SOL    HW220505   1.571   0.614   5.110  0.2464  0.6164  1.4201
 3016SOL     OW20506   1.261   0.018   3.172 -0.1365  0.5415 -0.1925
 3016SOL    HW120507   1.326   4.706   3.234  0.1077  0.1640 -0.6423
 3016SOL    HW220508   1.194   4.671   3.176 -1.2312  1.5317 -1.5542
 3017SOL     OW20509   3.344   3.773   0.189  0.1633 -0.6688 -0.8960
 3017SOL    HW120510   3.385   3.842   0.242  0.0783 -2.3700  1.4251
 3017SOL    HW220511   3.408   3.757   0.120  0.4082 -0.1460 -0.7915
 3018SOL     OW20512   4.291   3.921  10.275  0.1210 -0.3661 -0.0731
 3018SOL    HW120513   4.239   3.939  10.354  1.2281 -0.8610  0.7633
 3018SOL    HW220514   4.246   3.839  10.251 -0.4948  0.2340 -0.9771
 3019SOL     OW20515   2.176   1.064   1.727 -0.7020 -0.4637 -0.2183
 3019SOL    HW120516   2.097   1.038   1.773 -1.3538 -1.1138 -1.7120
 3019SOL    HW220517   2.151   1.157   1.723 -0.8026 -0.4873 -0.1528
 3020SOL     OW20518   3.175   1.617   8.161 -0.0631  0.4340 -0.6367
 3020SOL    HW120519   3.203   1.537   8.116  1.1155  0.2358  0.4370
 3020SOL    HW220520   3.243   1.677   8.131  0.8263 -0.7023 -0.8774
 3021SOL     OW20521   1.864   4.001   6.885 -0.0017  0.1143 -0.2474
 3021SOL    HW120522   1.776   4.016   6.850  1.1083 -0.0082 -3.0213
 3021SOL    HW220523   1.854   3.930   6.949  0.7901 -0.4960 -0.8022
 3022SOL     OW20524   4.173   2.410  16.249  0.2633  0.2578  0.6817
 3022SOL    HW120525   4.185   2.322  16.283  0.0629 -0.5587 -1.3670
 3022SOL    HW220526   4.164   2.385  16.157  0.2971  1.6710  0.2943
 3023SOL     OW20527   1.761   2.172   7.706 -0.1233  0.2550 -0.7574
 3023SOL    HW120528   1.726   2.232   7.640  1.1148 -2.0517 -3.4916
 3023SOL    HW220529   1.678   2.138   7.741 -0.2468  2.5289  1.1285
 3024SOL     OW20530   0.382   0.481   8.005 -0.1382  0.4594  0.1343
 3024SOL    HW120531   0.445   0.509   8.072 -1.1191  2.1382  0.3630
 3024SOL    HW220532   0.313   0.532   8.048 -0.4957  0.2159 -0.1435
 3025SOL     OW20533   3.525   2.686   1.643  0.2565  0.6387  0.3641
 3025SOL    HW120534   3.607   2.734   1.654  1.4586 -1.8808  2.4442
 3025SOL    HW220535   3.523   2.676   1.548 -0.8595  2.5291  0.2000
 3026SOL     OW20536   4.560   4.325  11.800  0.7021  0.1038 -0.9305
 3026SOL    HW120537   4.574   4.299  11.709  0.9563 -1.4501 -0.4451
 3026SOL    HW220538   4.518   4.245  11.830  0.3167  0.4174 -0.6396
 3027SOL     OW20539   3.449   3.982   5.311  0.0306 -0.1708 -0.7258
 3027SOL    HW120540   3.528   3.954   5.357 -1.1188 -0.1227  1.3198
 3027SOL    HW220541   3.477   4.039   5.240  0.7413  0.9015  0.4156
 3028SOL     OW20542   1.274   4.259   2.764 -0.1452 -0.0249  0.0154
 3028SOL    HW120543   1.338   4.317   2.805 -0.1656 -0.5088  0.7425
 3028SOL    HW220544   1.240   4.322   2.700 -2.4095 -0.9190  0.3108
 3029SOL     OW20545   0.111   1.297   6.175  0.3744 -0.1711  0.3711
 3029SOL    HW120546   0.181   1.340   6.127 -1.4596  2.5502  0.1705
 3029SOL    HW220547   0.078   1.364   6.236 -0.3635 -0.2747  0.0870
 3030SOL     OW20548   0.169   2.216   6.266  0.0456  0.8348  0.2287
 3030SOL    HW120549   0.083   2.250   6.241 -0.0879  0.4514  0.1567
 3030SOL    HW220550   0.170   2.151   6.195  1.4367  0.7070  0.3708
 3031SOL     OW20551   2.873   1.106   0.916 -0.5992 -0.2587  0.3466
 3031SOL    HW120552   2.842   1.077   0.830  1.9375  0.6239 -0.8589
 3031SOL    HW220553   2.809   1.070   0.978  0.2550  1.2248  2.1106
 3032SOL     OW20554   0.870   2.128  11.038  0.2723 -0.2182  0.1624
 3032SOL    HW120555   0.802   2.191  11.015  1.0438 -0.2289 -2.1857
 3032SOL    HW220556   0.900   2.167  11.120  2.9727 -1.2601 -0.3368
 3033SOL     OW20557   3.304   0.408  14.717 -0.3845 -0.4652  0.3105
 3033SOL    HW120558   3.398   0.425  14.718 -0.5952  0.6757  0.6955
 3033SOL    HW220559   3.271   0.492  14.750  1.5554  0.9531 -1.3370
 3034SOL     OW20560   4.647   2.469   6.772 -0.3604  0.2904 -0.0758
 3034SOL    HW120561   4.678   2.425   6.693  0.6220  1.1805 -0.1928
 3034SOL    HW220562   4.625   2.402   6.837  2.1369  1.4330  1.9859
 3035SOL     OW20563   1.351   4.174   3.655 -0.0434  0.3802  0.3771
 3035SOL    HW120564   1.373   4.263   3.631 -3.0093  0.7010 -1.1985
 3035SOL    HW220565   1.262   4.186   3.690 -1.3982 -2.2693 -2.1443
 3036SOL     OW20566   3.496   0.871  11.713 -0.6263  1.0214 -0.1718
 3036SOL    HW120567   3.484   0.886  11.619 -0.7401  0.1850 -0.2856
 3036SOL    HW220568   3.420   0.818  11.736  2.9683 -3.9295  0.2868
 3037SOL     OW20569   4.522   0.104   9.969 -0.3814  0.3268 -0.2085
 3037SOL    HW120570   4.505   0.166   9.898  0.0129  1.2001  0.4631
 3037SOL    HW220571   4.499   0.153  10.048 -0.9196  0.5591 -0.5071
 3038SOL     OW20572   1.670   0.065   3.443  0.0954  0.3989  0.4507
 3038SOL    HW120573   1.741   0.105   3.392 -0.9906  3.7750  1.6015
 3038SOL    HW220574   1.635   0.146   3.479 -0.4269 -0.0926  1.0485
 3039SOL     OW20575   0.932   4.649  10.793  0.2248  0.0105 -0.5222
 3039SOL    HW120576   1.008   4.625  10.739  0.4523  0.4905 -0.4157
 3039SOL    HW220577   0.944   4.612  10.880  0.7781 -0.8908 -0.9711
 3040SOL     OW20578   0.113   0.525   5.121  0.4094  0.1734 -0.2485
 3040SOL    HW120579   0.118   0.594   5.055 -0.8519 -0.9129 -1.4915
 3040SOL    HW220580   0.030   0.480   5.102 -1.0741  2.6053  0.4401
 3041SOL     OW20581   3.295   0.926  10.428  0.7651 -0.3373  0.0001
 3041SOL    HW120582   3.357   0.921  10.355 -1.1993 -3.4933 -1.4621
 3041SOL    HW220583   3.354   0.916  10.503  1.0553 -1.6790 -0.4024
 3042SOL     OW20584   2.723   3.058  17.294  0.7667  0.3866  0.6990
 3042SOL    HW120585   2.670   3.006  17.354  0.0675  0.0301 -0.2357
 3042SOL    HW220586   2.689   3.044  17.206  0.2595  2.5781  0.5547
 3043SOL     OW20587   4.310   2.513  14.285  0.3639  0.8014  0.2097
 3043SOL    HW120588   4.272   2.600  14.282  0.4004  0.8202  0.2859
 3043SOL    HW220589   4.259   2.465  14.351 -0.3429 -0.9920 -1.6333
 3044SOL     OW20590   0.729   4.532  13.324  0.2625 -0.3045  0.5474
 3044SOL    HW120591   0.818   4.568  13.324  0.2543 -0.3328 -1.7168
 3044SOL    HW220592   0.731   4.441  13.353 -1.9710 -0.5817 -0.1735
 3045SOL     OW20593   0.280   3.520   4.459 -0.0493  0.1660  0.2752
 3045SOL    HW120594   0.218   3.494   4.527  0.1220 -1.4559 -0.1761
 3045SOL    HW220595   0.337   3.444   4.469 -1.3822 -1.3267 -3.3251
 3046SOL     OW20596   3.708   0.816   9.488 -0.2567 -0.3714  0.2616
 3046SOL    HW120597   3.774   0.761   9.531  1.0283  0.5500 -0.5350
 3046SOL    HW220598   3.717   0.775   9.402 -0.0885 -1.3708  0.7643
 3047SOL     OW20599   3.770   0.051   2.760  0.1988 -0.3526 -0.2944
 3047SOL    HW120600   3.830   0.036   2.687  0.9874 -2.6373  0.8025
 3047SOL    HW220601   3.697   0.097   2.720 -1.2120 -1.3886  1.0809
 3048SOL     OW20602   0.412   0.892  11.433 -0.1904 -0.2105  0.0978
 3048SOL    HW120603   0.376   0.909  11.520 -1.9726 -1.2524 -0.4508
 3048SOL    HW220604   0.504   0.871  11.449 -0.1926 -1.2757 -1.3093
 3049SOL     OW20605   3.256   1.122   2.519  0.2023 -0.0215  0.3716
 3049SOL    HW120606   3.285   1.046   2.469 -3.4741 -1.5543  0.5346
 3049SOL    HW220607   3.165   1.134   2.490  0.7251 -1.7470 -2.0152
 3050SOL     OW20608   2.984   4.293   6.986  0.0196 -0.4949  0.3738
 3050SOL    HW120609   2.961   4.237   7.060 -1.0354  3.1955  2.8827
 3050SOL    HW220610   3.048   4.235   6.946  0.1091  0.7687 -1.3160
 3051SOL     OW20611   2.881   0.590  13.666  0.0065 -0.1489 -0.1394
 3051SOL    HW120612   2.948   0.532  13.630  0.0950  0.2211 -0.5748
 3051SOL    HW220613   2.934   0.669  13.654  0.1132 -0.4761 -1.7787
 3052SOL     OW20614   3.022   4.686   5.717  0.0423  0.2420 -0.4877
 3052SOL    HW120615   2.961   0.003   5.653  1.4556  0.6760 -1.5887
 3052SOL    HW220616   3.024   0.032   5.786  2.1731 -0.5292  0.1917
 3053SOL     OW20617   3.308   2.569   3.576  0.1360 -0.0968  0.1422
 3053SOL    HW120618   3.317   2.515   3.498  2.8245  0.6431 -0.0625
 3053SOL    HW220619   3.223   2.544   3.613 -1.8636 -0.5688 -4.8462
 3054SOL     OW20620   0.739   4.580   1.585 -0.5043 -0.0593 -0.2464
 3054SOL    HW120621   0.782   4.544   1.663 -0.6285 -1.1814 -0.6959
 3054SOL    HW220622   0.754   4.674   1.593  0.2640 -0.1514 -0.5874
 3055SOL     OW20623   1.032   4.577   5.121 -0.7835  0.2880 -0.2375
 3055SOL    HW120624   1.045   4.627   5.040  1.7042 -0.1431 -0.1271
 3055SOL    HW220625   0.977   4.640   5.168 -0.1473  0.1621  0.6675
 3056SOL     OW20626   3.961   1.201  10.556 -0.5476  0.0452  0.0477
 3056SOL    HW120627   3.950   1.121  10.607  1.7304 -0.0296  0.4414
 3056SOL    HW220628   3.872   1.232  10.538 -0.9398 -0.1564  1.7011
 3057SOL     OW20629   1.423   3.900   8.802  0.8178  0.3878  0.0097
 3057SOL    HW120630   1.384   3.987   8.811 -0.2355 -0.0922  0.0705
 3057SOL    HW220631   1.398   3.881   8.712  0.6302  0.5461  0.0289
 3058SOL     OW20632   0.438   0.405   2.267  0.2604  0.5423  0.2561
 3058SOL    HW120633   0.379   0.442   2.202  0.9995  0.5826 -0.4002
 3058SOL    HW220634   0.527   0.423   2.236  0.9993 -1.5282  1.1632
 3059SOL     OW20635   1.985   4.110   8.116  0.5841 -0.1731 -0.0492
 3059SOL    HW120636   1.908   4.153   8.155  0.9683  0.8286 -0.3935
 3059SOL    HW220637   1.966   4.106   8.023 -0.3367  1.2743  0.0674
 3060SOL     OW20638   2.126   0.733   5.095 -0.5518  0.8971  0.0784
 3060SOL    HW120639   2.065   0.704   5.026  0.0461 -0.4110  0.0931
 3060SOL    HW220640   2.084   0.682   5.164 -1.5191  0.8996 -0.5065
 3061SOL     OW20641   3.329   1.969   3.828  0.1516 -0.6547  0.8758
 3061SOL    HW120642   3.313   1.886   3.874  2.7616 -0.5599  1.9556
 3061SOL    HW220643   3.352   1.939   3.741  1.3252  0.3068  0.8634
 3062SOL     OW20644   4.328   2.117   7.251  0.0845  0.1392 -0.0738
 3062SOL    HW120645   4.326   2.022   7.265  3.0993 -0.0153 -0.5701
 3062SOL    HW220646   4.296   2.148   7.336  3.1671  0.4696  0.9791
 3063SOL     OW20647   2.296   0.919  14.437  0.1518  0.0950 -0.0866
 3063SOL    HW120648   2.344   0.947  14.515  0.7484 -0.1774 -0.3651
 3063SOL    HW220649   2.205   0.943  14.456 -0.2832 -0.8297 -1.0399
 3064SOL     OW20650   0.532   3.715   8.402  0.6318 -0.1421 -0.0508
 3064SOL    HW120651   0.557   3.768   8.327  1.8465  0.8912  1.0697
 3064SOL    HW220652   0.604   3.653   8.416  0.5163 -0.1442  0.5264
 3065SOL     OW20653   2.356   0.553   1.567  0.5566 -0.2525 -0.2793
 3065SOL    HW120654   2.343   0.506   1.649 -0.1173  0.8612  0.2554
 3065SOL    HW220655   2.273   0.602   1.567  0.7323  0.0491 -0.3633
 3066SOL     OW20656   4.282   3.663  13.937 -0.4240 -0.1953 -0.1792
 3066SOL    HW120657   4.226   3.644  14.013  0.2834  1.2511  0.7113
 3066SOL    HW220658   4.324   3.577  13.925  0.2535  0.5061 -2.6641
 3067SOL     OW20659   3.628   2.722  13.513 -0.1634 -0.2947 -0.3241
 3067SOL    HW120660   3.627   2.682  13.426 -0.0356  1.2488 -1.0329
 3067SOL    HW220661   3.722   2.729  13.528 -0.0941 -0.4506 -0.7009
 3068SOL     OW20662   3.463   3.392  16.301  0.0479  0.2076  0.1493
 3068SOL    HW120663   3.402   3.398  16.228 -0.6758 -1.8360  0.5706
 3068SOL    HW220664   3.482   3.298  16.304 -1.8610 -0.2176 -0.9687
 3069SOL     OW20665   1.283   0.564   3.807  0.1953 -0.0717 -0.2126
 3069SOL    HW120666   1.229   0.578   3.885  1.2055  1.1247  0.2746
 3069SOL    HW220667   1.359   0.522   3.846  0.5660  0.2298 -0.6138
 3070SOL     OW20668   1.148   3.836   5.536  0.6084 -0.5263  0.1080
 3070SOL    HW120669   1.170   3.857   5.626 -1.5554 -0.7784  0.7109
 3070SOL    HW220670   1.180   3.747   5.524 -0.6790 -0.5736 -3.0696
 3071SOL     OW20671   0.689   4.658  11.735 -0.3660 -0.2721 -0.9100
 3071SOL    HW120672   0.599   4.625  11.730 -0.5319  0.1227 -0.5737
 3071SOL    HW220673   0.671   0.031  11.746 -0.9536 -0.5548  0.6445
 3072SOL     OW20674   1.718   1.050   7.982 -0.0721 -0.4724 -0.0732
 3072SOL    HW120675   1.800   1.028   7.938  0.1307  1.0048 -0.4175
 3072SOL    HW220676   1.713   0.961   8.018 -0.6267 -0.6227 -0.5254
 3073SOL     OW20677   3.351   4.144   0.338  0.3908 -0.0255  0.0970
 3073SOL    HW120678   3.290   4.091   0.286 -0.4008  1.6154 -0.6384
 3073SOL    HW220679   3.310   4.134   0.423  1.5172 -0.5916  0.5751
 3074SOL     OW20680   3.974   3.889   1.164 -0.7587 -0.7382 -0.6914
 3074SOL    HW120681   3.905   3.823   1.168 -0.3762 -1.1252 -0.5108
 3074SOL    HW220682   4.006   3.880   1.253  0.3707  1.7190 -0.8679
 3075SOL     OW20683   3.475   0.204   6.035 -0.2728  0.2766  0.5314
 3075SOL    HW120684   3.490   0.219   6.128  0.3902 -1.4229  0.7071
 3075SOL    HW220685   3.566   0.183   6.014 -0.1668  1.6699 -0.4145
 3076SOL     OW20686   3.368   0.876   2.427 -0.2965 -0.4360  0.3334
 3076SOL    HW120687   3.356   0.833   2.512 -1.6293  0.3316  0.5262
 3076SOL    HW220688   3.463   0.863   2.424  0.1362  2.4661  1.9608
 3077SOL     OW20689   2.273   4.499   9.142  0.7287  0.5485  0.0561
 3077SOL    HW120690   2.304   4.437   9.077  1.2285 -0.2631  1.0659
 3077SOL    HW220691   2.258   4.431   9.208  0.2188  0.4475 -0.1642
 3078SOL     OW20692   2.933   0.753  14.470 -0.1217 -0.0242 -0.4114
 3078SOL    HW120693   2.958   0.748  14.378  2.3821  0.6178  0.2416
 3078SOL    HW220694   3.016   0.741  14.516 -0.1583 -1.1733 -0.6557
 3079SOL     OW20695   1.097   1.270   3.107  0.3336 -0.0489  0.3717
 3079SOL    HW120696   1.029   1.211   3.075  2.1519 -1.7971 -0.1989
 3079SOL    HW220697   1.145   1.290   3.027 -0.2725  0.8786  0.2411
 3080SOL     OW20698   4.170   1.876   1.263  0.3515 -0.6440 -0.4167
 3080SOL    HW120699   4.114   1.869   1.340  1.6736 -1.4646  0.4631
 3080SOL    HW220700   4.119   1.941   1.215  1.8332  1.7387  1.2582
 3081SOL     OW20701   3.713   3.728   5.681  0.4277  0.1030 -0.0671
 3081SOL    HW120702   3.730   3.634   5.691 -1.3388 -0.1917  0.2240
 3081SOL    HW220703   3.797   3.762   5.711  1.0983  0.0641 -1.9288
 3082SOL     OW20704   0.495   1.245  16.208  0.1824  0.2521  0.4926
 3082SOL    HW120705   0.538   1.329  16.192  3.3195 -1.2813  0.8221
 3082SOL    HW220706   0.503   1.248  16.303  2.0275  2.3474  0.2743
 3083SOL     OW20707   2.396   3.595  13.588  0.1834  0.4752  0.0923
 3083SOL    HW120708   2.404   3.541  13.510 -1.3306 -0.9240  0.9045
 3083SOL    HW220709   2.397   3.681  13.545 -1.7962  0.8224  0.7500
 3084SOL     OW20710   0.145   1.557   0.837  0.5733  0.6659 -0.6513
 3084SOL    HW120711   0.095   1.520   0.910 -0.3102  2.9765 -0.0843
 3084SOL    HW220712   0.182   1.636   0.875  0.4610  0.7383 -0.6947
 3085SOL     OW20713   3.092   2.636   4.289  0.1872  0.0852  0.2098
 3085SOL    HW120714   3.084   2.690   4.368 -1.8366  0.0703  0.0262
 3085SOL    HW220715   3.065   2.702   4.224 -0.3084 -0.9035 -0.5856
 3086SOL     OW20716   2.611   2.608   2.380 -0.4944  0.0732  0.1994
 3086SOL    HW120717   2.615   2.606   2.284  0.2784  0.9436  0.2106
 3086SOL    HW220718   2.630   2.516   2.400 -1.0972 -0.0477  0.2207
 3087SOL     OW20719   3.854   2.312  13.919 -0.5340 -0.6366 -0.5918
 3087SOL    HW120720   3.774   2.352  13.885 -0.9162 -1.5663 -0.7983
 3087SOL    HW220721   3.887   2.390  13.963 -0.7166  0.3400 -2.2063
 3088SOL     OW20722   0.447   0.333   1.517  0.0321 -0.0824 -0.1182
 3088SOL    HW120723   0.413   0.321   1.428  0.6802 -1.4185 -0.1818
 3088SOL    HW220724   0.479   0.247   1.546 -2.2901 -1.5988 -2.0534
 3089SOL     OW20725   2.311   0.106   7.383 -0.2632 -0.4324  0.8836
 3089SOL    HW120726   2.332   0.129   7.293 -0.0215 -2.5335  0.3960
 3089SOL    HW220727   2.260   0.026   7.371 -0.5976 -0.0695 -0.1144
 3090SOL     OW20728   2.521   0.480   6.679  0.2676  0.0545 -0.1766
 3090SOL    HW120729   2.567   0.404   6.644  1.4561 -0.2795  2.1389
 3090SOL    HW220730   2.559   0.491   6.766  0.1926 -2.0652  0.1274
 3091SOL     OW20731   0.652   4.142   3.104  0.2618  0.5196  0.0956
 3091SOL    HW120732   0.640   4.218   3.047 -1.4662  0.0796 -0.1149
 3091SOL    HW220733   0.607   4.084   3.044  0.8801 -2.4436  2.5017
 3092SOL     OW20734   0.827   4.573   8.448 -0.2303 -0.4274 -0.7192
 3092SOL    HW120735   0.829   4.499   8.509 -0.5220 -1.1279 -1.5493
 3092SOL    HW220736   0.738   4.604   8.463  0.6319  1.5869  0.1350
 3093SOL     OW20737   4.010   0.778   6.515 -0.1307 -0.0990 -0.7014
 3093SOL    HW120738   3.955   0.856   6.517 -0.0200  0.0228 -2.0685
 3093SOL    HW220739   4.083   0.811   6.462 -0.9422  1.5444 -0.7866
 3094SOL     OW20740   3.273   2.895   7.730 -0.7774 -0.0036  0.3379
 3094SOL    HW120741   3.242   2.860   7.646 -0.2359  2.6723 -0.9583
 3094SOL    HW220742   3.222   2.840   7.789 -0.0488 -1.4185 -0.3440
 3095SOL     OW20743   3.851   3.050   5.268 -0.3312  0.2049  0.6805
 3095SOL    HW120744   3.839   3.142   5.294 -1.2232  0.1041  0.6149
 3095SOL    HW220745   3.879   3.018   5.353 -0.6123 -0.5708  0.4764
 3096SOL     OW20746   4.628   1.028   3.819  0.3787 -0.0120 -0.2589
 3096SOL    HW120747   4.646   0.963   3.750  2.3163  1.3788 -1.0801
 3096SOL    HW220748   4.570   1.080   3.763  0.3474  0.5994  0.3519
 3097SOL     OW20749   2.408   1.105   6.365  0.5939  0.3780  0.3186
 3097SOL    HW120750   2.412   1.048   6.288  1.1427  1.3456 -0.3826
 3097SOL    HW220751   2.366   1.036   6.416 -2.1062 -1.0892 -3.9040
 3098SOL     OW20752   1.215   2.535   9.230 -0.0510 -0.7116 -0.1518
 3098SOL    HW120753   1.258   2.616   9.258 -0.4260 -0.4092 -0.4488
 3098SOL    HW220754   1.209   2.556   9.137  1.7796 -0.3782 -0.1947
 3099SOL     OW20755   0.070   4.348   5.383  0.4057 -0.0621 -0.1263
 3099SOL    HW120756   0.148   4.371   5.333 -0.2430  1.0928 -0.5927
 3099SOL    HW220757   0.045   4.260   5.354 -2.3532  0.9622 -0.8890
 3100SOL     OW20758   4.653   3.507   4.081  0.1794 -0.1928 -0.7530
 3100SOL    HW120759   4.685   3.509   3.990  0.0325  4.3160 -0.6784
 3100SOL    HW220760   4.566   3.472   4.064 -0.2797  0.5995  0.0434
 3101SOL     OW20761   4.459   2.017   2.722 -0.8637  0.4357 -0.2692
 3101SOL    HW120762   4.432   2.025   2.814  1.0944 -0.1806  0.3641
 3101SOL    HW220763   4.471   1.923   2.710 -1.5089  0.3578 -0.2955
 3102SOL     OW20764   2.254   3.489   9.077 -0.7360 -0.2722  0.1763
 3102SOL    HW120765   2.282   3.570   9.035  0.1919 -0.1684  1.0006
 3102SOL    HW220766   2.336   3.439   9.082 -0.9150 -0.6793 -1.0811
 3103SOL     OW20767   4.241   3.409   4.830 -0.0363 -0.2563  0.2035
 3103SOL    HW120768   4.195   3.488   4.856  2.7436  1.2947  0.3098
 3103SOL    HW220769   4.172   3.342   4.824  1.1899 -1.4579 -0.4714
 3104SOL     OW20770   2.549   4.050   2.116 -0.3889  0.0898 -1.0045
 3104SOL    HW120771   2.532   3.956   2.108 -2.2361  0.3590  0.0101
 3104SOL    HW220772   2.612   4.052   2.044  1.0935 -3.3164  0.1618
 3105SOL     OW20773   3.530   4.451   7.721  0.3780  0.4355 -0.3400
 3105SOL    HW120774   3.441   4.444   7.756  0.3915  2.8745  0.1243
 3105SOL    HW220775   3.512   4.525   7.663  1.0392  0.0723 -1.0123
 3106SOL     OW20776   4.274   4.121   7.327  0.4651  0.1392  0.1152
 3106SOL    HW120777   4.275   4.098   7.234 -3.5206 -3.2106  0.8746
 3106SOL    HW220778   4.252   4.214   7.324  0.6506  0.1827  0.0695
 3107SOL     OW20779   1.837   4.298   6.787  0.0902 -0.0697 -0.5775
 3107SOL    HW120780   1.916   4.254   6.756  1.0892  2.0932 -1.0638
 3107SOL    HW220781   1.827   4.361   6.716  0.0852 -2.9767 -3.1594
 3108SOL     OW20782   3.528   1.044   5.634  0.3604  0.4508 -0.2806
 3108SOL    HW120783   3.623   1.047   5.621  0.4511 -0.4955  0.1561
 3108SOL    HW220784   3.513   1.113   5.698 -1.4297  0.7710 -1.0515
 3109SOL     OW20785   1.580   3.441   8.015 -0.0656  0.2520  0.3069
 3109SOL    HW120786   1.639   3.476   8.082  2.5459  0.5401 -2.1869
 3109SOL    HW220787   1.505   3.496   8.039 -0.9490  0.8108 -3.7079
 3110SOL     OW20788   4.130   2.849  15.665  0.2172  0.5558 -0.4011
 3110SOL    HW120789   4.181   2.811  15.594 -0.7469  0.2599 -0.9418
 3110SOL    HW220790   4.141   2.943  15.650  0.9815  0.6283  0.6139
 3111SOL     OW20791   1.718   2.292  11.775  0.7708 -0.0144  0.6802
 3111SOL    HW120792   1.684   2.376  11.806  0.8823 -0.1149  1.0804
 3111SOL    HW220793   1.648   2.271  11.714  3.0879  0.5753 -2.1627
 3112SOL     OW20794   3.208   0.102   6.390  0.6290 -0.2208 -0.6390
 3112SOL    HW120795   3.139   0.164   6.369 -0.2961 -1.4923 -1.3902
 3112SOL    HW220796   3.188   0.074   6.480 -1.0733 -0.5167 -1.1123
 3113SOL     OW20797   2.751   0.314   8.936  0.4786  0.2255  0.6112
 3113SOL    HW120798   2.667   0.283   8.971  0.2289  0.7310  0.4577
 3113SOL    HW220799   2.782   0.231   8.900  1.7033  0.6822  0.6061
 3114SOL     OW20800   0.478   1.151   2.308 -0.0556  0.0505  0.6621
 3114SOL    HW120801   0.536   1.148   2.231 -1.6114 -1.1605 -0.4504
 3114SOL    HW220802   0.474   1.056   2.319 -1.2139 -0.1302 -1.3566
 3115SOL     OW20803   0.951   1.611   2.911 -0.4329  0.0942  0.3533
 3115SOL    HW120804   1.015   1.658   2.964 -0.5051  1.4021 -0.7196
 3115SOL    HW220805   0.916   1.539   2.963  0.0077 -1.6787 -1.8340
 3116SOL     OW20806   3.576   4.314  17.339  0.4058  0.1224 -0.1213
 3116SOL    HW120807   3.555   4.361  17.420 -1.4891 -1.9552  0.5733
 3116SOL    HW220808   3.524   4.364  17.275 -0.6491 -0.9955 -0.1220
 3117SOL     OW20809   1.036   0.768   4.161 -0.5436  0.3239  0.3592
 3117SOL    HW120810   0.947   0.731   4.160 -0.9479  1.2638  2.0888
 3117SOL    HW220811   1.023   0.863   4.163  2.6019  0.8286 -3.1936
 3118SOL     OW20812   2.676   1.917  12.656  0.1999  0.0819 -0.6994
 3118SOL    HW120813   2.681   1.827  12.624 -0.0306  0.0860 -0.7449
 3118SOL    HW220814   2.743   1.917  12.725 -0.9087 -0.7858  0.3724
 3119SOL     OW20815   1.721   1.852   4.400  0.1163 -0.3767  0.3206
 3119SOL    HW120816   1.681   1.937   4.382 -2.0128 -1.2388  1.0082
 3119SOL    HW220817   1.660   1.791   4.360 -0.4341 -0.6592  1.5938
 3120SOL     OW20818   3.480   2.659   5.967  0.0221 -0.5507 -0.1114
 3120SOL    HW120819   3.457   2.713   5.891  0.0703 -0.5299 -0.1108
 3120SOL    HW220820   3.563   2.625   5.935  0.0650  3.0266 -3.8281
 3121SOL     OW20821   4.391   3.490   2.831 -0.1473  0.2256 -0.0962
 3121SOL    HW120822   4.425   3.402   2.848 -1.4133  0.2497  2.5434
 3121SOL    HW220823   4.301   3.457   2.830  0.7007 -2.0375 -1.0426
 3122SOL     OW20824   0.943   2.327  16.602 -0.3639 -0.3604  0.7829
 3122SOL    HW120825   0.922   2.319  16.694 -0.9053 -1.3297  0.5710
 3122SOL    HW220826   0.860   2.352  16.561 -0.0306 -1.9641 -0.8997
 3123SOL     OW20827   1.171   1.311   7.843 -0.6114 -0.4416 -0.0513
 3123SOL    HW120828   1.238   1.342   7.781 -0.9353  0.5782  0.1061
 3123SOL    HW220829   1.089   1.327   7.796 -0.4493  2.0118  0.4709
 3124SOL     OW20830   2.321   0.197  17.659 -0.1967 -0.0818 -0.1920
 3124SOL    HW120831   2.244   0.148  17.631  0.4074 -0.3222 -1.4412
 3124SOL    HW220832   2.305   0.231   0.062  1.6228 -0.4074  0.2673
 3125SOL     OW20833   1.386   0.366  12.343  0.2950  0.4362 -0.2782
 3125SOL    HW120834   1.383   0.461  12.333 -0.6080  0.3847 -0.5295
 3125SOL    HW220835   1.481   0.356  12.340  0.1822 -0.3501 -1.1612
 3126SOL     OW20836   0.064   3.501   3.807  0.0790  0.7206 -0.7116
 3126SOL    HW120837   0.071   3.571   3.742  1.2104  3.3617  2.2632
 3126SOL    HW220838   0.118   3.429   3.776  0.8258 -0.0201  2.2846
 3127SOL     OW20839   1.770   2.436   6.830 -1.0941  0.0635  0.7665
 3127SOL    HW120840   1.694   2.448   6.772  0.8178 -0.6554 -1.8853
 3127SOL    HW220841   1.743   2.359   6.879 -2.0562 -0.1780 -0.1360
 3128SOL     OW20842   4.343   1.574   5.569 -0.0998 -0.0686  0.3067
 3128SOL    HW120843   4.330   1.589   5.475  0.8807  0.0896  0.1978
 3128SOL    HW220844   4.276   1.632   5.606 -0.2752  0.2582 -0.5268
 3129SOL     OW20845   0.163   3.674  12.962  0.0527  0.3659  0.4285
 3129SOL    HW120846   0.182   3.626  12.882  1.1067  0.0402  0.8777
 3129SOL    HW220847   0.074   3.709  12.950 -0.4861 -0.8996  0.7341
 3130SOL     OW20848   0.305   0.287   0.215  0.4301  0.5737  0.5870
 3130SOL    HW120849   0.282   0.200   0.250  1.2734  0.1199  0.0085
 3130SOL    HW220850   0.387   0.282   0.168  1.1124 -0.8654  1.9148
 3131SOL     OW20851   1.425   0.207  17.645  0.4612  0.1778  0.4475
 3131SOL    HW120852   1.454   0.117  17.630  1.3016  0.4801  0.2038
 3131SOL    HW220853   1.418   0.228  17.552  0.6328  1.2885  0.6849
 3132SOL     OW20854   4.699   0.034  13.235  0.0953  0.3166  0.4659
 3132SOL    HW120855   4.720   4.686  13.172 -1.7179 -0.0176  0.2149
 3132SOL    HW220856   4.615   0.005  13.271  0.4545 -1.6074 -0.2113
 3133SOL     OW20857   0.690   2.755  14.978  0.1752  0.2165 -0.6740
 3133SOL    HW120858   0.658   2.698  15.048 -2.4235 -0.2825 -2.2580
 3133SOL    HW220859   0.685   2.844  15.015 -2.7942 -0.6397  0.9932
 3134SOL     OW20860   2.448   0.474   8.842 -0.0346  0.0766  0.1853
 3134SOL    HW120861   2.409   0.543   8.894  2.5041  0.5206  1.5251
 3134SOL    HW220862   2.476   0.410   8.907 -2.2983 -0.7824  0.2875
 3135SOL     OW20863   3.703   0.880  13.040 -0.1368 -0.3195  0.2975
 3135SOL    HW120864   3.681   0.973  13.049  1.3010 -0.0557  0.9668
 3135SOL    HW220865   3.700   0.850  13.131 -0.9687  1.7397  0.9513
 3136SOL     OW20866   0.046   2.771   1.752  0.0578 -0.3682  0.0037
 3136SOL    HW120867   0.056   2.827   1.829  1.5691 -0.2305 -0.2940
 3136SOL    HW220868   0.122   2.796   1.700 -0.5554 -1.3360 -1.3546
 3137SOL     OW20869   2.859   2.494   4.399  0.3168 -0.6426  0.3672
 3137SOL    HW120870   2.917   2.546   4.342  1.2572 -2.1247 -0.0397
 3137SOL    HW220871   2.809   2.553   4.455  0.4658  0.4832 -0.6661
 3138SOL     OW20872   3.986   1.215  10.917 -0.2506  0.2974  0.4687
 3138SOL    HW120873   3.921   1.275  10.952 -0.8428 -0.4373  0.6309
 3138SOL    HW220874   3.927   1.162  10.863 -1.1982  1.9861 -0.1354
 3139SOL     OW20875   1.448   3.135  17.177 -0.0966  0.1711 -0.1691
 3139SOL    HW120876   1.368   3.087  17.154  0.1425  0.7157 -2.1756
 3139SOL    HW220877   1.499   3.117  17.098  0.8184 -1.3965  0.7866
 3140SOL     OW20878   4.076   0.450   2.957  0.0164 -0.4422 -0.2761
 3140SOL    HW120879   4.135   0.426   2.885  3.1472  1.4483  1.6797
 3140SOL    HW220880   4.137   0.496   3.014 -0.5692  1.5016 -1.2449
 3141SOL     OW20881   4.506   4.338   4.708 -0.2680  0.3823  0.1372
 3141SOL    HW120882   4.513   4.295   4.794  2.1183 -1.2442 -0.8768
 3141SOL    HW220883   4.421   4.299   4.684 -1.0820  1.6585  0.9597
 3142SOL     OW20884   0.753   1.078   2.416  0.1209  0.4247  0.2843
 3142SOL    HW120885   0.709   1.045   2.337  0.3956 -0.0819  0.3429
 3142SOL    HW220886   0.843   1.065   2.387  0.8375  2.7151  1.5339
 3143SOL     OW20887   2.706   1.572   6.884 -0.4507  0.1863 -0.1135
 3143SOL    HW120888   2.621   1.557   6.842 -0.4695  3.2030 -1.2115
 3143SOL    HW220889   2.699   1.544   6.975  1.3853 -1.2779 -0.4296
 3144SOL     OW20890   3.941   3.524   8.907 -0.3144  0.0584 -0.1576
 3144SOL    HW120891   3.864   3.577   8.927  1.4447  2.5729 -0.0858
 3144SOL    HW220892   3.908   3.470   8.836  1.7296 -1.8404  0.3308
 3145SOL     OW20893   3.772   3.270   4.602 -0.4093  0.0897 -0.4366
 3145SOL    HW120894   3.784   3.318   4.684  2.0056 -1.0974 -0.0847
 3145SOL    HW220895   3.709   3.326   4.558 -1.9031 -1.7215 -0.5921
 3146SOL     OW20896   4.447   1.009  14.002  0.2089 -0.0734  0.5510
 3146SOL    HW120897   4.482   0.922  14.021 -2.5576 -1.4238 -0.5272
 3146SOL    HW220898   4.522   1.065  13.982  0.2097 -1.0244 -1.9928
 3147SOL     OW20899   2.616   1.512   9.387 -0.3936  0.1609  0.4183
 3147SOL    HW120900   2.675   1.459   9.334  0.8338  2.3548 -0.3731
 3147SOL    HW220901   2.582   1.560   9.312 -0.9809 -0.7866  0.0788
 3148SOL     OW20902   4.456   0.271   2.330 -0.7635  0.4924 -0.0610
 3148SOL    HW120903   4.450   0.310   2.243  3.5326  0.2958 -0.4518
 3148SOL    HW220904   4.496   0.341   2.381 -1.6060  1.8857 -1.3185
 3149SOL     OW20905   1.956   1.168   3.723  1.0902  0.8516  0.5564
 3149SOL    HW120906   1.959   1.161   3.627 -0.1048 -1.0353  0.6406
 3149SOL    HW220907   1.894   1.240   3.735 -1.0095 -0.9117  0.3686
 3150SOL     OW20908   4.398   3.874  13.798  0.3554  0.3773  0.3163
 3150SOL    HW120909   4.408   3.862  13.704  0.8911 -1.0986  0.5646
 3150SOL    HW220910   4.384   3.790  13.843 -0.2440 -0.0083 -0.6045
 3151SOL     OW20911   3.893   3.606  16.893 -0.3239  0.7512 -0.0818
 3151SOL    HW120912   3.957   3.552  16.939 -2.0743 -0.8173  0.4970
 3151SOL    HW220913   3.862   3.554  16.819  0.6660 -1.6815  1.2319
 3152SOL     OW20914   0.130   4.243   9.132  0.5904 -0.0300  0.0498
 3152SOL    HW120915   0.063   4.179   9.109  0.3364 -1.2141  4.0534
 3152SOL    HW220916   0.144   4.287   9.048 -2.2154 -0.8191 -0.8306
 3153SOL     OW20917   1.993   0.940   0.312 -0.1990  0.4537 -0.3454
 3153SOL    HW120918   1.987   0.872   0.245  0.5061  0.2031 -0.1491
 3153SOL    HW220919   2.062   0.988   0.266 -1.3143  0.1767 -2.3424
 3154SOL     OW20920   1.366   3.114   8.624  0.2639 -0.0335 -0.7035
 3154SOL    HW120921   1.436   3.066   8.668  2.2618 -0.3510 -4.2557
 3154SOL    HW220922   1.342   3.182   8.688  0.9194 -2.1037  1.7706
 3155SOL     OW20923   4.098   0.409  14.229  0.2524 -0.3729  0.3009
 3155SOL    HW120924   4.020   0.466  14.227  0.8626  0.4068 -1.2855
 3155SOL    HW220925   4.090   0.374  14.140 -1.8031  3.1884 -0.9484
 3156SOL     OW20926   4.521   0.964   7.032  0.2409  0.8321  0.3289
 3156SOL    HW120927   4.525   0.870   7.049  0.1538  0.8757  0.5774
 3156SOL    HW220928   4.555   0.960   6.943  2.1957 -0.5466  1.1418
 3157SOL     OW20929   2.484   1.356   4.288  0.8153 -0.3062  0.1400
 3157SOL    HW120930   2.388   1.358   4.279  1.1176  0.8281 -2.6997
 3157SOL    HW220931   2.519   1.435   4.246  0.2784  0.7831  1.7419
 3158SOL     OW20932   1.215   4.433   2.286 -0.4335 -0.0566 -0.1086
 3158SOL    HW120933   1.152   4.468   2.224  1.2537 -0.5440 -2.1003
 3158SOL    HW220934   1.191   4.342   2.304 -0.1816 -0.1202 -0.0859
 3159SOL     OW20935   1.672   2.044   2.872  0.6673  0.2384  0.1652
 3159SOL    HW120936   1.749   2.069   2.821  1.4025 -0.7092  0.8135
 3159SOL    HW220937   1.666   2.104   2.946  0.1607  1.0509 -0.5369
 3160SOL     OW20938   4.383   1.391   7.117 -0.2711 -0.0557 -0.4880
 3160SOL    HW120939   4.384   1.486   7.104 -1.6433  0.0395  0.0613
 3160SOL    HW220940   4.456   1.374   7.177  0.2811 -1.0184 -1.4212
 3161SOL     OW20941   1.290   1.153   5.916 -0.2759  0.3824  0.2328
 3161SOL    HW120942   1.210   1.166   5.967 -0.6044 -1.1043  0.1003
 3161SOL    HW220943   1.361   1.140   5.979  0.0711 -1.1825 -0.4625
 3162SOL     OW20944   2.406   2.266  17.280  0.3122  0.4515  0.4880
 3162SOL    HW120945   2.452   2.229  17.204 -1.3957 -1.5609  0.4366
 3162SOL    HW220946   2.328   2.289  17.230  0.3652 -0.2739  0.0561
 3163SOL     OW20947   1.469   0.292   1.766 -0.1020  0.1804  0.0461
 3163SOL    HW120948   1.511   0.233   1.829 -0.0942 -1.2002 -1.2586
 3163SOL    HW220949   1.509   0.275   1.681 -0.9854 -3.1346  0.2731
 3164SOL     OW20950   3.440   1.468   3.158 -0.1710 -0.3593  0.7759
 3164SOL    HW120951   3.435   1.386   3.109 -1.1803  1.1683 -1.6769
 3164SOL    HW220952   3.361   1.457   3.211 -0.9496  0.0595 -0.2889
 3165SOL     OW20953   3.158   1.900   8.548 -0.3580 -0.9363  0.2225
 3165SOL    HW120954   3.154   1.970   8.484 -2.9071  0.7759  2.2751
 3165SOL    HW220955   3.100   1.841   8.500 -1.4279  0.2050  0.1192
 3166SOL     OW20956   4.131   2.010   2.241  0.5580 -0.2841 -0.0315
 3166SOL    HW120957   4.077   2.038   2.167  0.7643  1.1324  0.3629
 3166SOL    HW220958   4.097   2.046   2.322  0.8283 -0.0421 -0.0247
 3167SOL     OW20959   2.143   3.906   5.702 -0.1414 -0.1843 -0.0521
 3167SOL    HW120960   2.169   3.951   5.621 -2.0070  1.6984  0.4012
 3167SOL    HW220961   2.136   3.973   5.769 -0.2182  1.7468 -1.9814
 3168SOL     OW20962   0.986   3.546   8.005  0.2557  0.1793 -0.5304
 3168SOL    HW120963   0.955   3.593   8.083  2.3585 -0.4613  0.6920
 3168SOL    HW220964   1.030   3.472   8.047  2.6921  2.5199  1.0537
 3169SOL     OW20965   3.473   4.326   3.654  1.0149 -0.4339 -0.3404
 3169SOL    HW120966   3.450   4.324   3.561 -0.3154  0.3769 -0.0194
 3169SOL    HW220967   3.546   4.263   3.654  1.2808 -0.1496 -2.0724
 3170SOL     OW20968   1.426   4.224   9.669  0.5319 -0.4812  0.0551
 3170SOL    HW120969   1.332   4.233   9.655  0.2110 -1.4773  1.6725
 3170SOL    HW220970   1.430   4.172   9.749  3.0178 -0.8468 -0.3172
 3171SOL     OW20971   1.800   0.962   6.869  0.0219  0.0109  0.0623
 3171SOL    HW120972   1.833   0.978   6.958  0.1952 -1.4571  0.2583
 3171SOL    HW220973   1.822   1.044   6.824  3.0375 -0.6829  0.2830
 3172SOL     OW20974   0.296   2.957   9.028 -0.4393  0.4465  0.2287
 3172SOL    HW120975   0.236   3.028   9.004  0.1114  1.3039  1.4228
 3172SOL    HW220976   0.336   2.983   9.110 -0.4685  2.1849 -0.3218
 3173SOL     OW20977   2.146   1.803   8.046 -0.1555  0.1646  0.0795
 3173SOL    HW120978   2.070   1.812   7.988 -0.4428 -2.8325  0.0172
 3173SOL    HW220979   2.139   1.883   8.098 -2.0697  1.1251 -1.6227
 3174SOL     OW20980   4.403   1.996  13.967 -0.2448 -0.2247  0.2001
 3174SOL    HW120981   4.358   1.933  14.023 -1.7900  0.2484 -0.5245
 3174SOL    HW220982   4.343   2.067  13.944  1.6333  1.2251 -0.2951
 3175SOL     OW20983   2.249   3.430  11.080  0.2135 -0.4242  0.0735
 3175SOL    HW120984   2.332   3.409  11.038  0.2690 -2.4269  1.2338
 3175SOL    HW220985   2.280   3.432  11.170  0.9962  0.2364 -0.2080
 3176SOL     OW20986   3.764   1.302   4.145  0.5332 -0.0851 -0.1433
 3176SOL    HW120987   3.742   1.219   4.103  0.5844  0.2002 -0.7303
 3176SOL    HW220988   3.689   1.358   4.126  0.6531  0.7625  1.9206
 3177SOL     OW20989   1.674   1.236   5.714 -0.5164  0.2379 -0.7872
 3177SOL    HW120990   1.606   1.289   5.756  1.6734  2.4553 -0.0753
 3177SOL    HW220991   1.684   1.285   5.633 -0.3850  1.3347 -0.1154
 3178SOL     OW20992   3.325   3.648  15.947  0.2898  0.1056  0.1078
 3178SOL    HW120993   3.355   3.721  16.001  3.5128 -0.0745 -1.4952
 3178SOL    HW220994   3.352   3.677  15.860 -1.2166 -0.1381 -0.4583
 3179SOL     OW20995   0.538   4.494   4.002  0.1805 -0.5925  0.4809
 3179SOL    HW120996   0.613   4.465   4.054 -0.2115 -4.2092 -0.9951
 3179SOL    HW220997   0.475   4.425   4.021  2.1458 -2.3560  0.7200
 3180SOL     OW20998   3.593   1.357   5.695  0.0975 -0.3900  0.0811
 3180SOL    HW120999   3.587   1.448   5.722 -1.8064 -0.5268  0.1554
 3180SOL    HW221000   3.593   1.367   5.600 -2.5681  1.1940  0.2458
 3181SOL     OW21001   2.736   0.526   1.823 -0.1427  0.1756 -0.4757
 3181SOL    HW121002   2.677   0.513   1.897  0.8054 -0.1038  0.2224
 3181SOL    HW221003   2.760   0.437   1.796  1.2645  0.8103 -1.3480
 3182SOL     OW21004   0.301   0.528  14.469 -0.0334  0.4449  0.1424
 3182SOL    HW121005   0.295   0.573  14.553 -0.6798  0.2709  0.1848
 3182SOL    HW221006   0.254   0.448  14.493  2.5374 -0.9607  0.5441
 3183SOL     OW21007   4.561   2.126   8.138  0.5076  0.1414 -0.2271
 3183SOL    HW121008   4.565   2.039   8.179  0.4719  0.4463  0.4213
 3183SOL    HW221009   4.643   2.130   8.090  0.6297 -2.0534 -0.2219
 3184SOL     OW21010   1.690   1.162   2.083 -0.5697 -0.1252  0.3889
 3184SOL    HW121011   1.642   1.087   2.048  1.6908 -0.0104 -2.9773
 3184SOL    HW221012   1.759   1.117   2.132 -1.5576 -2.1768 -0.0720
 3185SOL     OW21013   1.546   4.157   1.092 -0.3125 -0.4970  0.6685
 3185SOL    HW121014   1.586   4.192   1.172  1.1467  2.3021 -1.3192
 3185SOL    HW221015   1.612   4.096   1.060 -0.4084  0.7810 -1.9397
 3186SOL     OW21016   2.849   0.621  10.646 -0.5555 -0.1943 -0.5600
 3186SOL    HW121017   2.907   0.677  10.698  0.8147  0.0355 -2.3417
 3186SOL    HW221018   2.842   0.666  10.562 -0.4316  2.6982  0.9990
 3187SOL     OW21019   1.526   3.954   3.635  0.5070  0.4210 -0.0807
 3187SOL    HW121020   1.486   4.040   3.650  0.8386  0.1779  2.0986
 3187SOL    HW221021   1.514   3.930   3.543 -0.1856 -0.9453  0.3722
 3188SOL     OW21022   3.605   2.555   6.313  0.1453 -0.2374 -0.1036
 3188SOL    HW121023   3.643   2.643   6.311 -2.1270  0.6947 -1.7197
 3188SOL    HW221024   3.620   2.531   6.405  3.7354 -0.9004 -0.8767
 3189SOL     OW21025   1.800   4.301  13.205 -0.3247  0.6168 -0.7626
 3189SOL    HW121026   1.738   4.274  13.137 -0.6707  2.0963 -1.0252
 3189SOL    HW221027   1.883   4.252  13.200 -1.0882 -0.7227 -0.2667
 3190SOL     OW21028   1.247   1.696   5.698  1.0502  0.3568 -0.4789
 3190SOL    HW121029   1.286   1.752   5.632  0.9485  0.4654 -0.4455
 3190SOL    HW221030   1.305   1.698   5.775  0.5148 -0.4553 -0.0473
 3191SOL     OW21031   2.515   2.229   4.371 -0.0652 -0.1734 -0.2426
 3191SOL    HW121032   2.524   2.294   4.302  1.2266 -1.0046 -0.8675
 3191SOL    HW221033   2.539   2.292   4.439  0.6786 -0.8561  0.1212
 3192SOL     OW21034   3.518   2.150   5.365 -0.7726  0.0322 -0.3228
 3192SOL    HW121035   3.464   2.076   5.394 -0.6469 -0.6459 -1.8248
 3192SOL    HW221036   3.541   2.188   5.449 -1.0956  0.0248 -0.2300
 3193SOL     OW21037   1.252   2.758  14.237  0.3477  0.6289 -0.3524
 3193SOL    HW121038   1.272   2.677  14.283  1.8905  0.7863 -0.7481
 3193SOL    HW221039   1.315   2.755  14.165  1.0189 -0.3475  0.2776
 3194SOL     OW21040   2.756   0.768   7.268 -0.3212 -0.3426  0.0033
 3194SOL    HW121041   2.842   0.728   7.268  1.7082  4.0241 -2.6176
 3194SOL    HW221042   2.756   0.783   7.363  2.7555  0.8802 -0.1944
 3195SOL     OW21043   3.914   0.749   5.898 -0.0385  0.0353 -0.5799
 3195SOL    HW121044   3.977   0.739   5.826  0.8939  0.6528  0.1498
 3195SOL    HW221045   3.925   0.830   5.949 -0.7036  0.7788 -1.6015
 3196SOL     OW21046   4.602   3.437   5.583 -0.0328 -0.3874  0.2584
 3196SOL    HW121047   4.582   3.399   5.668  0.8974  2.6451  1.8308
 3196SOL    HW221048   4.531   3.420   5.521 -0.7259  0.2742  0.8800
 3197SOL     OW21049   0.546   2.920  15.679  0.1484  0.3924 -0.7106
 3197SOL    HW121050   0.466   2.968  15.702  1.2349  1.3188  1.1562
 3197SOL    HW221051   0.592   2.928  15.763 -1.6674 -0.3604  0.3604
 3198SOL     OW21052   1.986   4.540   3.956 -0.0514  0.3950 -0.0056
 3198SOL    HW121053   1.932   4.535   4.035  0.7011 -2.4381  0.3137
 3198SOL    HW221054   1.927   4.596   3.904 -1.4640  0.6680  1.8873
 3199SOL     OW21055   1.499   0.977   5.078  0.2783  0.2995 -0.7430
 3199SOL    HW121056   1.484   0.993   5.171 -1.9134 -1.3197 -0.8326
 3199SOL    HW221057   1.477   1.061   5.036 -0.1331  0.5048 -0.1209
 3200SOL     OW21058   1.056   4.547   8.262 -0.2062  0.0821  0.4364
 3200SOL    HW121059   0.972   4.540   8.309  0.1428  1.0796  1.2027
 3200SOL    HW221060   1.028   4.582   8.177  0.5388 -0.7665 -0.1665
 3201SOL     OW21061   2.062   0.323   6.821  0.1487  0.0688 -0.3159
 3201SOL    HW121062   2.006   0.323   6.899 -0.8338  1.7341 -1.0250
 3201SOL    HW221063   2.142   0.290   6.861 -0.5813 -0.8441  0.4051
 3202SOL     OW21064   2.787   3.461   4.232  0.5240 -0.8084 -0.0788
 3202SOL    HW121065   2.828   3.450   4.318 -1.8914  0.2262  1.2362
 3202SOL    HW221066   2.778   3.557   4.228 -0.4356 -0.9088 -0.4660
 3203SOL     OW21067   1.207   0.511  12.561 -0.6215 -0.0823 -0.0410
 3203SOL    HW121068   1.185   0.417  12.556 -3.1908  0.6267 -2.4299
 3203SOL    HW221069   1.213   0.522  12.466 -1.9513  2.0419  0.1307
 3204SOL     OW21070   1.160   2.960  16.437  0.0823  0.1066  0.0401
 3204SOL    HW121071   1.249   2.940  16.407  0.7385  0.4973  1.7564
 3204SOL    HW221072   1.173   3.050  16.466 -0.7943 -0.4621  2.1224
 3205SOL     OW21073   3.158   3.710   8.957 -0.3143 -0.4971  0.2631
 3205SOL    HW121074   3.186   3.766   8.885  0.7257 -0.2731  0.8310
 3205SOL    HW221075   3.070   3.745   8.970 -0.1404 -0.5158  1.5502
 3206SOL     OW21076   2.265   3.891   5.032 -0.1730 -0.3454  0.3865
 3206SOL    HW121077   2.209   3.964   5.059 -0.3842 -0.8709  1.3770
 3206SOL    HW221078   2.270   3.839   5.112  3.9332 -0.3027  0.1332
 3207SOL     OW21079   0.807   0.593   1.153  0.4170 -0.0952 -0.2718
 3207SOL    HW121080   0.819   0.632   1.240 -0.1390 -0.8511  0.1412
 3207SOL    HW221081   0.788   0.675   1.106 -2.3522 -0.4793  0.1575
 3208SOL     OW21082   1.663   2.727   0.879 -0.3856 -0.4481 -0.0834
 3208SOL    HW121083   1.742   2.712   0.827  0.6722  1.0886  1.1023
 3208SOL    HW221084   1.598   2.701   0.814  1.5927 -0.7409 -1.9572
 3209SOL     OW21085   0.550   2.036  13.466  0.3448  0.3255  0.4188
 3209SOL    HW121086   0.455   2.035  13.462  0.3062 -3.4090  1.6853
 3209SOL    HW221087   0.570   2.124  13.435  2.0740  0.2645  1.3525
 3210SOL     OW21088   2.556   3.447   7.495  0.1014  0.0862  0.0493
 3210SOL    HW121089   2.608   3.425   7.572 -0.2323 -0.9132 -0.0076
 3210SOL    HW221090   2.629   3.482   7.443 -0.5880  1.9790  0.3681
 3211SOL     OW21091   3.685   1.185   5.239 -0.0378 -0.2992 -0.1389
 3211SOL    HW121092   3.743   1.219   5.306 -1.7198  0.7564  0.7789
 3211SOL    HW221093   3.705   1.092   5.250  2.4225  0.4019  1.1435
 3212SOL     OW21094   0.809   0.162  15.151  0.3131  0.3681 -0.2961
 3212SOL    HW121095   0.801   0.080  15.200 -2.3572 -0.7682 -2.6049
 3212SOL    HW221096   0.792   0.137  15.060 -1.4812 -0.1372  0.1725
 3213SOL     OW21097   0.251   2.288   2.786 -0.1194  0.1927  0.0765
 3213SOL    HW121098   0.167   2.277   2.742  1.2167 -0.3464 -2.3121
 3213SOL    HW221099   0.310   2.260   2.716 -2.3504  0.3514 -1.8388
 3214SOL     OW21100   4.083   3.398   4.483 -0.0064 -0.2122  0.5234
 3214SOL    HW121101   4.017   3.435   4.542 -0.3340 -1.7729  1.1367
 3214SOL    HW221102   4.049   3.399   4.394 -1.3347  1.6825  1.0454
 3215SOL     OW21103   2.227   2.325   0.281 -0.3671  0.0052 -0.4316
 3215SOL    HW121104   2.175   2.342   0.202 -0.5616 -0.3496 -0.3777
 3215SOL    HW221105   2.315   2.322   0.243  0.1371  0.9057  0.6664
 3216SOL     OW21106   2.060   1.186   1.020  0.5724 -0.3556 -0.2818
 3216SOL    HW121107   2.042   1.193   1.114  0.5928 -0.4018 -0.2747
 3216SOL    HW221108   2.011   1.106   0.998 -1.0857  1.3290 -2.6525
 3217SOL     OW21109   3.634   0.070   6.884  0.1950 -0.1262 -0.0129
 3217SOL    HW121110   3.596   0.002   6.939  0.4860  0.2136  0.6041
 3217SOL    HW221111   3.610   0.043   6.795  3.2674  0.0824 -0.9071
 3218SOL     OW21112   1.967   3.589  12.532 -0.1030 -0.1505 -0.1585
 3218SOL    HW121113   2.041   3.599  12.592 -0.9385 -2.6402  1.3007
 3218SOL    HW221114   1.886   3.613  12.577  0.3713 -2.5880  2.0211
 3219SOL     OW21115   0.500   1.506   4.857 -0.8555 -0.5460 -0.0424
 3219SOL    HW121116   0.507   1.438   4.924 -0.8061  0.8461  1.3760
 3219SOL    HW221117   0.463   1.573   4.915 -0.6336  0.7960 -1.4652
 3220SOL     OW21118   2.837   2.872   9.618  0.3679  0.3625  0.6333
 3220SOL    HW121119   2.819   2.964   9.596  2.5393  0.3762 -1.1816
 3220SOL    HW221120   2.919   2.877   9.667  1.2147 -2.8992 -0.4394
 3221SOL     OW21121   0.285   0.794   4.476 -0.1889  0.0825  0.1315
 3221SOL    HW121122   0.292   0.843   4.394 -0.7326 -0.9260 -0.5181
 3221SOL    HW221123   0.371   0.822   4.507 -0.6521  0.4533  1.0597
 3222SOL     OW21124   1.420   4.626   4.665  0.1429  0.3452  0.7544
 3222SOL    HW121125   1.507   4.657   4.688 -0.3253  1.4042  1.1172
 3222SOL    HW221126   1.413   4.543   4.711 -0.4252  0.2348  0.4663
 3223SOL     OW21127   2.775   3.881  14.742  0.3381 -0.6858  0.0046
 3223SOL    HW121128   2.694   3.855  14.785  0.6784  1.2549  1.8612
 3223SOL    HW221129   2.832   3.877  14.818  1.6015 -2.9101 -1.0708
 3224SOL     OW21130   0.135   2.001  12.239 -0.0668 -1.0212  0.2744
 3224SOL    HW121131   0.205   2.066  12.228  1.0108 -2.1031  0.7013
 3224SOL    HW221132   0.075   2.045  12.299 -0.2143  0.7364 -1.1559
 3225SOL     OW21133   1.287   4.656   5.295  0.1221 -0.1707  0.4709
 3225SOL    HW121134   1.215   4.621   5.243  0.6683  0.1570 -0.5109
 3225SOL    HW221135   1.283   4.610   5.379  1.1072  0.7531  1.0233
 3226SOL     OW21136   0.228   0.787   6.553 -0.1240  0.3519 -0.2957
 3226SOL    HW121137   0.314   0.771   6.593 -1.1476 -0.2873  1.6497
 3226SOL    HW221138   0.225   0.714   6.492 -0.3713  0.5641 -0.5363
 3227SOL     OW21139   2.013   4.454   7.214 -0.6363  0.0383 -0.5785
 3227SOL    HW121140   1.938   4.512   7.212 -1.0153 -0.4273  0.0164
 3227SOL    HW221141   1.999   4.412   7.130 -1.1082  3.7865 -2.3612
 3228SOL     OW21142   0.722   2.455   4.091 -0.1017  0.3311  0.0246
 3228SOL    HW121143   0.709   2.488   4.003 -3.0373  1.5111  0.9100
 3228SOL    HW221144   0.675   2.373   4.078 -1.7545  1.2317  0.2884
 3229SOL     OW21145   1.487   1.696   0.001  0.0257 -0.4185  0.2869
 3229SOL    HW121146   1.528   1.610  17.681  2.3896  0.8241 -1.4526
 3229SOL    HW221147   1.426   1.674  17.616 -1.6657 -0.2203  1.6907
 3230SOL     OW21148   4.508   0.944  11.095 -0.3349  0.4763  0.6732
 3230SOL    HW121149   4.482   1.025  11.052 -0.3801  0.1819  0.1450
 3230SOL    HW221150   4.462   0.942  11.179 -1.6393 -0.7533 -0.0753
 3231SOL     OW21151   1.654   4.225  11.236 -0.3244  0.0650 -0.0171
 3231SOL    HW121152   1.567   4.199  11.206 -1.5526  1.0874  2.6205
 3231SOL    HW221153   1.635   4.249  11.327 -1.1838 -0.9710  0.0723
 3232SOL     OW21154   4.394   2.647   1.649  0.2338  0.0727 -0.6648
 3232SOL    HW121155   4.339   2.694   1.586 -1.1126  1.3070  1.4341
 3232SOL    HW221156   4.469   2.706   1.646 -0.6051  1.1631  0.1515
 3233SOL     OW21157   2.969   0.150   2.378 -0.2504 -0.1842 -0.6267
 3233SOL    HW121158   2.984   0.114   2.465  1.3286 -0.2545 -0.9211
 3233SOL    HW221159   2.875   0.138   2.364 -0.0414  0.6004 -2.6537
 3234SOL     OW21160   4.446   3.304   2.307  0.2548 -0.2054 -0.2093
 3234SOL    HW121161   4.537   3.308   2.280 -0.1562  0.7608 -1.4868
 3234SOL    HW221162   4.437   3.392   2.344 -1.6419 -1.5427  2.4840
 3235SOL     OW21163   4.520   2.642   0.653  0.1409  0.2880 -0.4426
 3235SOL    HW121164   4.544   2.699   0.580 -1.8378  0.9351 -0.5937
 3235SOL    HW221165   4.509   2.700   0.729 -0.2424  0.7654 -0.8637
 3236SOL     OW21166   1.283   1.255   2.535  0.3874 -0.1452  0.0281
 3236SOL    HW121167   1.344   1.183   2.521  0.4218 -0.3001  0.9463
 3236SOL    HW221168   1.289   1.315   2.461  1.4344  2.6427  2.3770
 3237SOL     OW21169   1.267   1.235   7.487 -0.0995 -0.0551  0.7945
 3237SOL    HW121170   1.210   1.166   7.454  0.7795 -0.0743 -0.6921
 3237SOL    HW221171   1.253   1.230   7.582  0.6240 -2.0347  0.7955
 3238SOL     OW21172   3.404   3.143   4.245  0.3029 -0.2581 -0.1869
 3238SOL    HW121173   3.413   3.126   4.152 -0.1592  0.7002 -0.3979
 3238SOL    HW221174   3.311   3.164   4.246  0.2349 -0.4971 -1.9835
 3239SOL     OW21175   4.204   3.243  11.782 -0.4030  0.4871  0.2140
 3239SOL    HW121176   4.286   3.290  11.769  0.4760 -0.3447  2.6225
 3239SOL    HW221177   4.228   3.171  11.841  1.7710  0.1221 -1.1398
 3240SOL     OW21178   3.142   4.704   7.287 -0.3879 -0.1521 -0.2441
 3240SOL    HW121179   3.219   0.006   7.235 -0.7481  3.2706  0.6985
 3240SOL    HW221180   3.147   0.051   7.354 -2.0577 -1.9905  1.7412
 3241SOL     OW21181   0.221   1.565   5.078 -0.0889  0.0160 -0.5897
 3241SOL    HW121182   0.251   1.633   5.018 -1.0921  1.5997  0.6592
 3241SOL    HW221183   0.150   1.615   5.119  1.2856  0.7515  0.8938
 3242SOL     OW21184   0.346   4.133   9.241  0.3341 -0.4769  0.1746
 3242SOL    HW121185   0.407   4.206   9.257  1.4458 -1.3515 -0.0924
 3242SOL    HW221186   0.267   4.183   9.219  0.6041 -0.3014 -0.4071
 3243SOL     OW21187   4.692   4.018   2.698 -0.6594  0.0106 -0.6979
 3243SOL    HW121188   0.049   3.962   2.701 -0.4794  0.2794 -0.1279
 3243SOL    HW221189   0.004   4.106   2.718  0.4423 -0.4653 -0.4002
 3244SOL     OW21190   1.834   0.764   6.663  0.0331 -0.4075 -0.0197
 3244SOL    HW121191   1.898   0.713   6.711  2.1655  0.8914 -1.4720
 3244SOL    HW221192   1.816   0.839   6.720  0.6901  0.7054 -1.2767
 3245SOL     OW21193   4.559   1.766   8.513  0.1136 -0.2937 -0.4757
 3245SOL    HW121194   4.497   1.716   8.460  0.4714  1.3464 -2.4085
 3245SOL    HW221195   4.599   1.703   8.573  0.7346 -0.4071 -1.0032
 3246SOL     OW21196   0.786   3.521  17.606  0.1373  0.6403 -0.9074
 3246SOL    HW121197   0.738   3.587  17.556 -0.1169  2.1715  1.3688
 3246SOL    HW221198   0.717   3.479  17.657  1.3239  0.6055  0.6940
 3247SOL     OW21199   1.835   0.460   0.958 -0.0957  0.0265 -0.3117
 3247SOL    HW121200   1.743   0.451   0.932 -0.7309  0.7909  1.6650
 3247SOL    HW221201   1.833   0.446   1.052  0.2405 -0.5441 -0.3899
 3248SOL     OW21202   1.959   3.299   7.796 -0.1811 -0.4367  0.3086
 3248SOL    HW121203   1.990   3.329   7.881  1.1278 -4.0707  1.1445
 3248SOL    HW221204   1.977   3.205   7.802  3.1330  0.0020 -2.4395
 3249SOL     OW21205   2.564   2.896  13.301 -0.0172  0.2964  0.3817
 3249SOL    HW121206   2.501   2.905  13.229 -0.2514  0.1469  0.5700
 3249SOL    HW221207   2.647   2.907  13.254 -0.3057 -1.1574 -0.4764
 3250SOL     OW21208   1.121   0.289   5.236  0.0444  0.0621 -0.0393
 3250SOL    HW121209   1.112   0.364   5.178  1.0605  0.2507  0.0521
 3250SOL    HW221210   1.216   0.297   5.239  0.0646 -0.6253  1.1748
 3251SOL     OW21211   3.793   2.601  12.151 -0.5251 -0.0641 -0.1028
 3251SOL    HW121212   3.818   2.675  12.205  0.6378 -1.8978  1.8593
 3251SOL    HW221213   3.763   2.538  12.216  1.2331  0.4635  1.2056
 3252SOL     OW21214   0.610   0.474   9.714  0.1059 -0.0133 -0.8277
 3252SOL    HW121215   0.570   0.473   9.801 -0.4021 -0.6051 -1.0672
 3252SOL    HW221216   0.555   0.403   9.680  1.0415 -0.9685 -0.3289
 3253SOL     OW21217   3.275   4.331  12.178 -0.0659  0.1986 -0.6013
 3253SOL    HW121218   3.309   4.421  12.177  1.4408 -0.3752 -0.4387
 3253SOL    HW221219   3.181   4.343  12.194  0.1509 -0.1620  0.9290
 3254SOL     OW21220   0.612   4.609   2.896 -0.2508  0.4984  0.0542
 3254SOL    HW121221   0.642   4.691   2.935 -1.4257  0.4594  1.0290
 3254SOL    HW221222   0.517   4.622   2.891  0.0542  2.8976  0.3525
 3255SOL     OW21223   3.757   1.164   9.070 -0.1557  0.0530 -0.5028
 3255SOL    HW121224   3.691   1.230   9.049 -0.9668 -0.5752  0.0643
 3255SOL    HW221225   3.758   1.113   8.989  1.6214  0.9504 -1.0596
 3256SOL     OW21226   3.159   0.527   7.128 -0.2887  0.4420 -0.5606
 3256SOL    HW121227   3.245   0.525   7.171 -1.0350 -0.1560  0.9015
 3256SOL    HW221228   3.171   0.439   7.091  0.6032  0.1301  0.4528
 3257SOL     OW21229   2.617   1.354  17.656  0.7005  0.1469 -0.7326
 3257SOL    HW121230   2.614   1.328   0.063 -1.5315  0.2277 -0.7797
 3257SOL    HW221231   2.666   1.436  17.657 -0.4163  0.7898  0.7426
 3258SOL     OW21232   0.996   2.836  14.313  0.4506 -0.4520  0.7195
 3258SOL    HW121233   0.954   2.763  14.359  0.4361 -1.6001 -1.1025
 3258SOL    HW221234   1.080   2.808  14.275  0.7563  1.6992 -0.2060
 3259SOL     OW21235   1.187   3.938   9.386 -0.0490 -0.0915  0.4223
 3259SOL    HW121236   1.182   4.030   9.357 -1.0183 -0.2714  0.0127
 3259SOL    HW221237   1.118   3.940   9.454 -0.1476  1.1998  0.2873
 3260SOL     OW21238   0.273   1.649   3.031 -0.1001  0.0573 -0.1658
 3260SOL    HW121239   0.351   1.692   2.996 -0.2201 -1.4738 -2.3096
 3260SOL    HW221240   0.310   1.562   3.015  1.6248  1.0909 -1.7239
 3261SOL     OW21241   2.069   4.303  15.517 -0.1622  0.5578  0.6499
 3261SOL    HW121242   2.154   4.261  15.497 -0.9101  0.5064 -2.4471
 3261SOL    HW221243   2.014   4.225  15.516  0.1988  0.2991  0.7292
 3262SOL     OW21244   2.430   3.872  11.395 -0.1685 -0.0891  0.3770
 3262SOL    HW121245   2.431   3.965  11.419 -0.3241 -0.9931  3.7522
 3262SOL    HW221246   2.363   3.851  11.460  1.2280 -0.3350  1.7266
 3263SOL     OW21247   3.483   3.808   6.741  0.4101  0.1075  0.5484
 3263SOL    HW121248   3.456   3.899   6.751  0.3114  0.0153  1.1471
 3263SOL    HW221249   3.418   3.779   6.678  2.3040  0.8496 -1.7494
 3264SOL     OW21250   2.052   3.105   2.201 -0.2502  0.0736  0.0734
 3264SOL    HW121251   2.078   3.183   2.151  0.4930 -1.2137 -1.5547
 3264SOL    HW221252   2.129   3.049   2.197 -0.1887  0.1409  0.3645
 3265SOL     OW21253   4.422   3.504   8.771 -0.0722  0.3607  0.3167
 3265SOL    HW121254   4.337   3.498   8.728 -0.1996 -0.0206  0.6187
 3265SOL    HW221255   4.402   3.576   8.831 -0.5990 -1.1160  1.9057
 3266SOL     OW21256   0.620   4.680   7.717  0.0331 -0.9359  0.3274
 3266SOL    HW121257   0.702   4.668   7.670 -0.8489 -1.5623 -1.0306
 3266SOL    HW221258   0.569   4.604   7.688  0.0869 -1.2072  0.9353
 3267SOL     OW21259   0.984   3.392  10.004  0.3037 -0.0169 -0.9201
 3267SOL    HW121260   1.006   3.301  10.022  3.0394  0.4214 -2.1301
 3267SOL    HW221261   0.893   3.399  10.035  0.5854 -2.6053  0.4863
 3268SOL     OW21262   2.760   3.381  14.059  0.2103 -0.1818 -0.4016
 3268SOL    HW121263   2.845   3.348  14.088 -0.2623 -0.1050  1.0413
 3268SOL    HW221264   2.717   3.302  14.025  1.5769 -0.4288 -1.5710
 3269SOL     OW21265   1.286   2.244   2.914  0.2292  0.4583 -0.5176
 3269SOL    HW121266   1.229   2.178   2.875 -1.7188  1.4992  0.5597
 3269SOL    HW221267   1.284   2.209   3.003  1.5592 -0.2084 -0.7466
 3270SOL     OW21268   2.830   4.178   0.142 -0.7171 -0.0670 -0.1412
 3270SOL    HW121269   2.799   4.196   0.230 -2.3120 -1.0259 -0.5027
 3270SOL    HW221270   2.864   4.265   0.121 -0.4354 -0.3757 -0.9613
 3271SOL     OW21271   2.080   4.094   5.894 -0.0945 -0.0806 -0.2808
 3271SOL    HW121272   2.103   4.157   5.962 -1.3888  0.4197 -0.3035
 3271SOL    HW221273   1.987   4.075   5.905  0.4075 -1.6207  1.2859
 3272SOL     OW21274   1.171   1.629   4.857 -0.3279  0.1447  0.2201
 3272SOL    HW121275   1.164   1.588   4.944  0.2584  0.8403  0.5908
 3272SOL    HW221276   1.238   1.695   4.873  1.4721 -1.2279 -1.6936
 3273SOL     OW21277   1.192   1.240  12.464 -0.1163  0.5078 -0.2955
 3273SOL    HW121278   1.235   1.167  12.507  0.1783  1.0855  0.3882
 3273SOL    HW221279   1.213   1.228  12.371 -0.6016  0.5856 -0.4164
 3274SOL     OW21280   3.919   0.537   2.100  0.6818 -0.5479  0.0179
 3274SOL    HW121281   3.874   0.529   2.016  0.7001  1.3215 -0.1892
 3274SOL    HW221282   3.856   0.577   2.160  0.5307 -2.0503  0.8575
 3275SOL     OW21283   3.360   3.110  13.464 -0.4130  0.2328 -0.1075
 3275SOL    HW121284   3.306   3.140  13.537 -1.8782  0.9333 -1.4783
 3275SOL    HW221285   3.400   3.025  13.485 -0.7894 -0.2107 -1.1673
 3276SOL     OW21286   0.717   1.860   6.355  0.7750 -0.7626  0.1563
 3276SOL    HW121287   0.706   1.919   6.429  1.3657  0.0113 -0.3816
 3276SOL    HW221288   0.724   1.921   6.282  2.3834  1.2166  1.9757
 3277SOL     OW21289   2.804   4.326  17.443 -0.1462 -0.2099  0.2352
 3277SOL    HW121290   2.804   4.416  17.476  0.1715 -0.7312  1.6648
 3277SOL    HW221291   2.860   4.341  17.367 -3.1810  0.7751 -1.8185
 3278SOL     OW21292   4.345   1.040   5.767  0.0055 -0.0608 -0.7322
 3278SOL    HW121293   4.440   1.052   5.763 -0.2556  2.4456  0.8427
 3278SOL    HW221294   4.344   0.968   5.829  0.0485  1.2681  0.7927
 3279SOL     OW21295   0.156   1.687   9.502  0.4650 -0.5664  0.5612
 3279SOL    HW121296   0.241   1.689   9.457  0.0344 -0.1029 -0.2461
 3279SOL    HW221297   0.159   1.768   9.553 -1.1883 -0.0114 -0.2200
 3280SOL     OW21298   2.221   2.235   3.723 -0.3399  0.5330  0.0719
 3280SOL    HW121299   2.297   2.291   3.739 -1.5605  2.6971 -1.6772
 3280SOL    HW221300   2.183   2.216   3.809 -1.8224 -1.7288 -1.0824
 3281SOL     OW21301   4.619   3.739   8.124 -0.3194 -0.8104 -0.2643
 3281SOL    HW121302   4.656   3.669   8.177  0.3118  0.1874  0.6216
 3281SOL    HW221303   4.582   3.696   8.047 -0.2018 -0.7888 -0.3329
 3282SOL     OW21304   2.328   1.941  16.763 -0.4297  0.8059 -0.6225
 3282SOL    HW121305   2.299   1.978  16.680 -1.0286  0.0692 -0.7335
 3282SOL    HW221306   2.264   1.983  16.822 -0.9315 -1.3479  0.3552
 3283SOL     OW21307   0.185   1.357   3.493 -0.5034  0.3415 -0.0922
 3283SOL    HW121308   0.193   1.452   3.497 -1.7091  0.3589  1.6502
 3283SOL    HW221309   0.231   1.329   3.414  1.0668  2.0704  0.1984
 3284SOL     OW21310   2.888   0.255   3.531 -0.0455 -0.0841 -0.2186
 3284SOL    HW121311   2.845   0.305   3.601 -0.1758  0.1857 -0.4933
 3284SOL    HW221312   2.950   0.322   3.503 -1.4846  1.6594  0.7185
 3285SOL     OW21313   2.897   4.406   5.664  0.2671 -0.1680  0.1300
 3285SOL    HW121314   2.914   4.500   5.670  1.2063 -0.4161  1.2111
 3285SOL    HW221315   2.980   4.374   5.628 -0.0614 -0.1971 -0.6039
 3286SOL     OW21316   2.133   3.180   5.769 -0.0002  0.7254 -0.1755
 3286SOL    HW121317   2.134   3.094   5.812  0.5063 -0.3054 -2.2859
 3286SOL    HW221318   2.048   3.190   5.728  1.2001  3.0518 -2.0326
 3287SOL     OW21319   2.878   3.608  13.965  0.3439 -0.5481  0.5142
 3287SOL    HW121320   2.848   3.532  14.015  0.2470  0.7803  2.4655
 3287SOL    HW221321   2.845   3.587  13.878 -0.0893  1.0573  0.2833
 3288SOL     OW21322   1.553   2.239  11.558 -0.0087  0.0678  0.0199
 3288SOL    HW121323   1.515   2.316  11.516  0.0147  0.8486  1.4313
 3288SOL    HW221324   1.597   2.191  11.488 -2.2882 -0.7539 -0.8278
 3289SOL     OW21325   1.927   4.456   9.588 -0.1099 -0.0867 -0.6406
 3289SOL    HW121326   1.866   4.409   9.645  1.6380  0.0315  1.3375
 3289SOL    HW221327   1.955   4.383   9.532 -0.1697 -1.7542  1.4885
 3290SOL     OW21328   1.498   4.291  10.868  0.0429 -0.0353  0.2330
 3290SOL    HW121329   1.573   4.248  10.908  0.3936 -1.0693 -1.5140
 3290SOL    HW221330   1.470   4.217  10.813 -2.2989 -1.3327  3.1896
 3291SOL     OW21331   0.821   0.587   4.811 -0.2789  0.0746 -0.8880
 3291SOL    HW121332   0.889   0.646   4.777 -0.2549  0.7602  0.3515
 3291SOL    HW221333   0.740   0.612   4.765 -0.6886  0.3598 -0.0192
 3292SOL     OW21334   1.443   2.274   4.560 -0.6988  0.8265 -0.2506
 3292SOL    HW121335   1.371   2.231   4.513 -1.0716  0.0283  1.0398
 3292SOL    HW221336   1.459   2.351   4.507 -1.3080  1.4174  0.4214
 3293SOL     OW21337   2.237   2.601   7.539 -0.5120 -0.4940 -0.2163
 3293SOL    HW121338   2.268   2.569   7.454 -3.5031 -3.2223 -0.2703
 3293SOL    HW221339   2.305   2.583   7.604  0.2916 -0.2881 -0.9944
 3294SOL     OW21340   0.040   0.683   2.871  0.2974 -0.1979  0.5335
 3294SOL    HW121341   0.007   0.604   2.828 -0.7746  0.2615  0.5211
 3294SOL    HW221342   4.680   0.710   2.915 -0.0584 -0.0416 -0.2142
 3295SOL     OW21343   0.156   2.139   4.810 -0.3491 -0.4337  0.1285
 3295SOL    HW121344   0.132   2.187   4.889 -1.3278 -0.7891  0.0398
 3295SOL    HW221345   0.240   2.098   4.829  0.1106  1.9876  3.3555
 3296SOL     OW21346   3.110   2.726   6.581 -0.5073 -1.1876  0.1166
 3296SOL    HW121347   3.139   2.813   6.556  0.0883 -0.8719  1.9365
 3296SOL    HW221348   3.175   2.670   6.538  0.1129 -0.2094 -0.2071
 3297SOL     OW21349   4.455   0.179  14.987 -1.1386  0.3309 -0.3661
 3297SOL    HW121350   4.407   0.127  14.923 -2.7141  1.5400 -0.1427
 3297SOL    HW221351   4.411   0.152  15.068 -0.6302  0.3417 -0.0807
 3298SOL     OW21352   3.607   2.642   9.576  0.0109 -0.8173  0.2913
 3298SOL    HW121353   3.592   2.734   9.554  2.2886 -0.4154  0.4879
 3298SOL    HW221354   3.608   2.633   9.672 -1.2572  2.4758  0.5958
 3299SOL     OW21355   2.951   3.868   3.252 -0.3759  0.7256  0.0454
 3299SOL    HW121356   2.941   3.933   3.183 -1.7445 -1.1891 -1.5420
 3299SOL    HW221357   2.867   3.874   3.298 -1.5887  1.3336 -2.2746
 3300SOL     OW21358   0.211   2.831  13.491 -0.0288 -0.0405 -0.1502
 3300SOL    HW121359   0.131   2.875  13.461 -0.9698 -0.6814  1.4180
 3300SOL    HW221360   0.192   2.830  13.584 -1.4766  0.4382 -0.4369
 3301SOL     OW21361   3.055   1.122   5.269  0.5101 -0.3030 -0.1376
 3301SOL    HW121362   3.125   1.105   5.333  1.0555 -2.5473 -1.3182
 3301SOL    HW221363   3.030   1.033   5.245 -0.1484 -0.8063  2.3969
 3302SOL     OW21364   0.331   4.354   8.064 -0.1384  0.5784  0.1942
 3302SOL    HW121365   0.319   4.366   7.970  0.7330 -0.2685 -0.0354
 3302SOL    HW221366   0.277   4.426   8.097 -0.8504  0.4831 -0.7612
 3303SOL     OW21367   2.622   1.248  16.959 -0.1705  0.3376  0.4467
 3303SOL    HW121368   2.536   1.219  16.988  0.2349 -1.7050 -0.3825
 3303SOL    HW221369   2.678   1.175  16.932  1.3198  0.4869  3.1304
 3304SOL     OW21370   3.800   2.833   1.048 -0.2652  0.0704 -0.5436
 3304SOL    HW121371   3.712   2.797   1.063 -0.0934  0.1279  0.6636
 3304SOL    HW221372   3.784   2.927   1.046 -0.0878  0.1932  2.7047
 3305SOL     OW21373   0.893   0.030  12.373  0.1634  0.1618  0.1203
 3305SOL    HW121374   0.830   4.684  12.400  2.0448 -0.7727  2.1685
 3305SOL    HW221375   0.900   0.021  12.278 -2.1723  2.5049 -0.2799
 3306SOL     OW21376   4.475   2.882   4.872  0.3336  0.2848 -0.3331
 3306SOL    HW121377   4.461   2.818   4.802  0.8400 -1.7423  1.3984
 3306SOL    HW221378   4.415   2.951   4.846 -1.9182 -1.0760  1.2126
 3307SOL     OW21379   3.955   1.489   6.592 -0.3371 -0.1182 -0.0086
 3307SOL    HW121380   3.886   1.439   6.635 -0.4088  0.1026  0.1314
 3307SOL    HW221381   3.955   1.574   6.634 -0.9955 -0.5739  0.9046
 3308SOL     OW21382   1.564   1.303   8.851 -0.3788  0.3536  0.2813
 3308SOL    HW121383   1.633   1.361   8.884 -0.6464 -0.0327  1.5223
 3308SOL    HW221384   1.536   1.245   8.922 -0.2420 -0.4887 -0.3545
 3309SOL     OW21385   1.405   1.662  12.251 -0.2841  0.1529  0.5119
 3309SOL    HW121386   1.349   1.688  12.178 -0.2506  2.1010  1.1692
 3309SOL    HW221387   1.454   1.587  12.218  1.0650  1.9370 -1.5776
 3310SOL     OW21388   1.679   0.131   0.767  0.1492 -0.0639  0.5630
 3310SOL    HW121389   1.588   0.109   0.786  1.0561 -2.1747  2.5007
 3310SOL    HW221390   1.711   0.047   0.735  0.2012  0.2719 -0.2584
 3311SOL     OW21391   0.917   1.178   8.830  0.4296 -0.2613  0.2740
 3311SOL    HW121392   0.952   1.267   8.827  0.4985 -0.2622  1.1331
 3311SOL    HW221393   0.986   1.125   8.870  0.5848 -0.3160 -0.0667
 3312SOL     OW21394   4.353   1.561   7.696  0.1481  0.2440  0.1043
 3312SOL    HW121395   4.326   1.620   7.767 -0.2042 -3.5912  3.1286
 3312SOL    HW221396   4.301   1.485   7.720  0.3747 -0.1700 -0.7001
 3313SOL     OW21397   2.371   1.177  13.677  0.2945  0.2247  0.7377
 3313SOL    HW121398   2.396   1.085  13.685 -0.8982 -0.2134 -0.5314
 3313SOL    HW221399   2.298   1.162  13.617 -0.7605 -2.5397  2.7067
 3314SOL     OW21400   1.704   2.466  11.318  0.0414 -0.0618 -0.0252
 3314SOL    HW121401   1.726   2.436  11.407 -2.3879 -1.3434  0.1386
 3314SOL    HW221402   1.663   2.551  11.333  1.1365  0.5825 -0.6523
 3315SOL     OW21403   3.908   1.555   0.747  0.6426  0.2746  0.1162
 3315SOL    HW121404   3.949   1.545   0.833  0.2748  0.2410  0.2873
 3315SOL    HW221405   3.980   1.602   0.705  2.2093 -1.0928  1.2651
 3316SOL     OW21406   2.938   0.917   8.723  0.2389 -0.7364  0.2213
 3316SOL    HW121407   2.875   0.846   8.737 -0.7217 -0.1039 -0.9811
 3316SOL    HW221408   2.985   0.922   8.806  0.2504  0.7741  0.1273
 3317SOL     OW21409   0.603   4.521  14.241  0.1799 -0.3605 -0.3668
 3317SOL    HW121410   0.633   4.470  14.166  1.5611 -1.3716  0.8499
 3317SOL    HW221411   0.597   4.605  14.197 -0.3806 -0.1116  0.1946
 3318SOL     OW21412   3.888   0.932  12.136 -0.2504 -0.2896 -0.8344
 3318SOL    HW121413   3.914   0.855  12.086  1.4206  0.1706 -0.6870
 3318SOL    HW221414   3.861   0.890  12.218  2.2412 -0.4658 -0.0933
 3319SOL     OW21415   3.572   3.445   6.139 -1.0366 -0.1266 -0.0294
 3319SOL    HW121416   3.558   3.537   6.116 -2.7006 -0.0250  1.4717
 3319SOL    HW221417   3.493   3.438   6.192  0.8744 -0.7436  2.7363
 3320SOL     OW21418   3.982   4.495   4.356 -0.0011  0.2874 -0.0917
 3320SOL    HW121419   4.059   4.462   4.310  0.6528  0.5662  0.7985
 3320SOL    HW221420   4.016   4.559   4.419  0.4841 -0.7437  0.6980
 3321SOL     OW21421   3.404   1.342  13.257 -0.0435 -0.0778  0.3137
 3321SOL    HW121422   3.493   1.321  13.284 -0.6918  0.7703  3.0705
 3321SOL    HW221423   3.365   1.255  13.258  0.2749 -0.2225  0.1476
 3322SOL     OW21424   2.405   2.107  14.436  0.2711 -0.9691 -0.4284
 3322SOL    HW121425   2.466   2.046  14.476  0.7042  0.5365  1.1863
 3322SOL    HW221426   2.334   2.048  14.408  2.5730 -2.7669 -2.4614
 3323SOL     OW21427   3.659   3.261   4.254  0.1779  0.3681  0.2349
 3323SOL    HW121428   3.718   3.192   4.282  0.5801  0.3298 -0.6874
 3323SOL    HW221429   3.572   3.221   4.255  1.3691 -2.1510  1.8711
 3324SOL     OW21430   4.505   4.613   5.682 -0.7506 -0.4776 -0.1625
 3324SOL    HW121431   4.539   4.565   5.607 -1.5482  1.4946 -1.7930
 3324SOL    HW221432   4.491   4.539   5.741  0.0334 -0.6307 -0.1670
 3325SOL     OW21433   2.189   1.620   4.192 -0.1028 -0.0481  0.1224
 3325SOL    HW121434   2.214   1.530   4.175 -0.4334 -0.1214  0.0236
 3325SOL    HW221435   2.115   1.604   4.251 -1.9524 -1.8691 -2.6687
 3326SOL     OW21436   3.750   0.682   1.299  0.3504  0.4674  0.4930
 3326SOL    HW121437   3.694   0.711   1.370 -1.2167  0.6882 -0.8546
 3326SOL    HW221438   3.767   0.600   1.347  1.0814 -0.1494 -0.8212
 3327SOL     OW21439   1.827   2.765   3.824  0.3196  0.0112 -0.0754
 3327SOL    HW121440   1.736   2.743   3.804  0.0618 -0.5393  1.7328
 3327SOL    HW221441   1.838   2.845   3.772 -1.5769  0.2774 -0.0962
 3328SOL     OW21442   1.076   0.124  15.035 -0.3849  0.1845 -0.3457
 3328SOL    HW121443   1.027   0.089  14.961  0.3398 -0.2966 -0.5981
 3328SOL    HW221444   1.012   0.187  15.067 -3.3546 -1.7653 -2.4722
 3329SOL     OW21445   2.150   1.193  12.066 -0.0467  0.6600  0.0271
 3329SOL    HW121446   2.073   1.246  12.047 -0.4025  0.5015  1.0496
 3329SOL    HW221447   2.118   1.106  12.086 -1.4076  0.3749 -3.4612
 3330SOL     OW21448   0.375   4.687   5.503 -0.0544 -0.0682  0.0242
 3330SOL    HW121449   0.282   4.698   5.524 -1.2575 -3.3938 -3.4848
 3330SOL    HW221450   0.408   0.041   5.552 -0.9485 -0.1260  0.7219
 3331SOL     OW21451   1.797   3.862   8.372 -0.1061  0.1864  0.4053
 3331SOL    HW121452   1.743   3.783   8.375  2.5271 -1.6616 -0.5720
 3331SOL    HW221453   1.811   3.888   8.463 -4.5636  0.7405  0.9236
 3332SOL     OW21454   4.126   2.729   4.886 -0.1436  0.2851 -0.0892
 3332SOL    HW121455   4.181   2.700   4.959 -3.5968 -2.4209  1.4170
 3332SOL    HW221456   4.138   2.654   4.828  0.9505 -0.9154  1.7006
 3333SOL     OW21457   3.202   3.724   9.563  0.3556 -0.0986  0.4186
 3333SOL    HW121458   3.195   3.776   9.643  0.3313  0.0936  0.2904
 3333SOL    HW221459   3.296   3.716   9.546  0.5272  1.4595  0.7162
 3334SOL     OW21460   2.177   3.944  16.684  0.0252  0.0248 -0.3935
 3334SOL    HW121461   2.136   3.863  16.714 -0.5309  0.7105  0.6641
 3334SOL    HW221462   2.266   3.912  16.674  0.2584  0.5145  0.1407
 3335SOL     OW21463   2.306   2.745  10.203  0.3664  0.0913 -0.0652
 3335SOL    HW121464   2.344   2.698  10.277 -2.5590 -0.9646  0.7480
 3335SOL    HW221465   2.381   2.802  10.186  0.3659 -0.8846 -3.3223
 3336SOL     OW21466   2.192   2.382  17.155  0.6472  1.0795  0.4686
 3336SOL    HW121467   2.218   2.354  17.067  0.5052  2.1056  0.1042
 3336SOL    HW221468   2.103   2.416  17.151  0.3850  0.6508  2.3207
 3337SOL     OW21469   4.633   2.099  15.045  0.2902  0.0864 -0.3977
 3337SOL    HW121470   4.655   2.190  15.062  1.2328  0.0968 -1.6316
 3337SOL    HW221471   4.596   2.110  14.957 -1.6199  1.5883  0.5930
 3338SOL     OW21472   3.959   0.283   4.285  0.4475  0.5496  0.5831
 3338SOL    HW121473   3.957   0.308   4.193  1.0722 -1.5261  0.0281
 3338SOL    HW221474   4.045   0.245   4.300 -0.2423 -1.8593 -1.7067
 3339SOL     OW21475   4.717   1.488   3.128 -0.0484 -0.1279 -0.7203
 3339SOL    HW121476   0.030   1.398   3.133  1.0436  0.3817  1.2128
 3339SOL    HW221477   4.622   1.476   3.124 -0.2762  0.7608  1.8801
 3340SOL     OW21478   0.306   1.936   3.412 -0.2426 -0.2291  0.4698
 3340SOL    HW121479   0.281   2.018   3.370  0.6732 -1.2376 -2.0554
 3340SOL    HW221480   0.244   1.943   3.485  3.2809  0.9611  3.3240
 3341SOL     OW21481   4.483   1.344   9.451  0.3513  0.0154  0.2828
 3341SOL    HW121482   4.478   1.277   9.518 -1.9115  1.3313  1.4477
 3341SOL    HW221483   4.525   1.418   9.496 -1.2317  0.9923  0.1604
 3342SOL     OW21484   3.538   2.659  12.754 -0.5234 -0.6550  0.2541
 3342SOL    HW121485   3.584   2.739  12.729 -1.2477 -0.4593 -0.4768
 3342SOL    HW221486   3.599   2.593  12.719  0.3671  0.9895 -1.2998
 3343SOL     OW21487   4.121   2.557   6.351 -0.2096 -0.3010 -0.3584
 3343SOL    HW121488   4.105   2.605   6.433 -0.0916  0.6193 -0.8808
 3343SOL    HW221489   4.050   2.597   6.301 -0.7173  0.8218  1.2345
 3344SOL     OW21490   0.187   0.546   5.610 -0.0737 -0.6065  0.6140
 3344SOL    HW121491   0.211   0.483   5.542 -1.2618  0.4155 -0.7522
 3344SOL    HW221492   0.168   0.482   5.680 -1.3907 -1.0761 -0.1765
 3345SOL     OW21493   2.461   0.469  16.568  0.0221 -0.0175 -0.4387
 3345SOL    HW121494   2.392   0.482  16.503  0.3378  0.4428 -0.6821
 3345SOL    HW221495   2.425   0.519  16.642  0.4848 -0.0363 -0.2001
 3346SOL     OW21496   3.153   1.375   5.242 -0.3550 -0.2485  0.2312
 3346SOL    HW121497   3.112   1.298   5.202 -0.4984 -0.2698  0.4207
 3346SOL    HW221498   3.201   1.346   5.319  0.3917  0.2304 -0.0470
 3347SOL     OW21499   2.610   2.100   0.264  0.0107  0.5316  0.0667
 3347SOL    HW121500   2.671   2.047   0.211 -1.5474  0.7725 -1.9829
 3347SOL    HW221501   2.633   2.190   0.242 -0.0895  0.5172 -0.1033
 3348SOL     OW21502   0.453   2.454   3.642 -0.0442 -0.0552 -0.4064
 3348SOL    HW121503   0.443   2.359   3.646  0.1874 -0.0397  0.5480
 3348SOL    HW221504   0.379   2.472   3.585 -0.0585  0.8227 -0.1022
 3349SOL     OW21505   3.102   0.160   5.913 -0.3981 -0.1167 -0.0635
 3349SOL    HW121506   3.181   0.107   5.927 -0.6550 -0.7159 -0.9019
 3349SOL    HW221507   3.136   0.229   5.971  2.1708 -1.3189 -0.1492
 3350SOL     OW21508   2.363   1.320  15.204  0.3617  0.0940  0.4095
 3350SOL    HW121509   2.352   1.337  15.298 -2.2165 -1.5249  0.4036
 3350SOL    HW221510   2.455   1.346  15.195  0.4672 -1.0858 -1.9329
 3351SOL     OW21511   4.473   0.180   7.447 -0.1270  0.3814 -0.1787
 3351SOL    HW121512   4.414   0.145   7.381 -0.5990  0.3299  0.2709
 3351SOL    HW221513   4.553   0.129   7.436  0.8777  1.3363  2.5282
 3352SOL     OW21514   4.546   2.848   8.688 -0.1905  0.5158 -0.0555
 3352SOL    HW121515   4.629   2.802   8.681 -0.6559 -0.2891 -0.2817
 3352SOL    HW221516   4.562   2.931   8.645  0.8708  0.3790  0.0680
 3353SOL     OW21517   2.022   2.870   0.232  0.2845 -0.5856 -0.5232
 3353SOL    HW121518   1.961   2.876   0.306  0.4263  0.6161 -0.5073
 3353SOL    HW221519   2.064   2.956   0.229 -2.0832  0.6683  2.2466
 3354SOL     OW21520   4.577   1.134  17.639 -0.3839  0.0857  0.2635
 3354SOL    HW121521   4.651   1.184  17.604  0.7818 -1.8984 -0.1654
 3354SOL    HW221522   4.512   1.124  17.570 -0.1557 -0.1909  0.0881
 3355SOL     OW21523   1.674   1.451  16.942  0.2054 -0.1146  0.1631
 3355SOL    HW121524   1.620   1.376  16.918 -1.2094  1.3070 -1.1975
 3355SOL    HW221525   1.608   1.521  16.950  2.1920  1.7052  0.5252
 3356SOL     OW21526   0.132   2.813   7.068  0.3142  0.4296  0.1170
 3356SOL    HW121527   0.128   2.753   6.994  1.2449  1.6503 -0.9089
 3356SOL    HW221528   0.125   2.753   7.143 -1.1326  0.2854 -0.1307
 3357SOL     OW21529   0.410   0.370  13.787 -0.0454  0.0432  0.8672
 3357SOL    HW121530   0.479   0.407  13.732  1.2128 -2.8879  0.4536
 3357SOL    HW221531   0.347   0.345  13.720  0.4147 -1.4592  0.9762
 3358SOL     OW21532   2.320   3.848   9.281 -0.1953  0.1763 -0.0564
 3358SOL    HW121533   2.342   3.863   9.373  0.0602 -0.6984  0.0264
 3358SOL    HW221534   2.340   3.754   9.277 -2.0820 -0.1924 -0.8393
 3359SOL     OW21535   0.276   3.703  16.456 -0.1963 -0.4944 -0.3747
 3359SOL    HW121536   0.264   3.729  16.364  1.4160  0.2460 -0.3900
 3359SOL    HW221537   0.190   3.727  16.489 -0.0362  0.5233 -0.6662
 3360SOL     OW21538   0.029   2.891   3.594  0.0904  0.3839 -0.2672
 3360SOL    HW121539   4.655   2.881   3.585  0.2026 -0.1992 -0.8607
 3360SOL    HW221540   0.035   2.863   3.685  0.7715 -1.6786 -0.9478
 3361SOL     OW21541   1.813   0.618   8.653 -0.1077 -0.5582 -0.4931
 3361SOL    HW121542   1.875   0.671   8.604  1.3376 -1.0939  0.7524
 3361SOL    HW221543   1.868   0.579   8.721  3.0235  3.0753 -0.9499
 3362SOL     OW21544   0.451   3.869   9.257 -0.0342 -0.2196  0.2695
 3362SOL    HW121545   0.394   3.842   9.330  0.3442 -1.8439 -0.0235
 3362SOL    HW221546   0.405   3.945   9.223 -1.1117 -1.1623 -0.3687
 3363SOL     OW21547   2.050   0.476   6.433  0.0092  0.0283 -0.4729
 3363SOL    HW121548   1.983   0.540   6.410 -1.5424 -0.5558  2.4553
 3363SOL    HW221549   2.073   0.513   6.517 -0.6214 -0.7730  0.0580
 3364SOL     OW21550   2.324   3.051   7.593 -0.3747 -0.1733 -0.1669
 3364SOL    HW121551   2.229   3.044   7.607 -0.3512 -0.0702  0.0489
 3364SOL    HW221552   2.344   2.965   7.631  0.2932  0.5137  1.0170
 3365SOL     OW21553   3.501   0.869   5.401  0.0075  0.8003  0.1142
 3365SOL    HW121554   3.511   0.930   5.474  0.8710 -1.8803  2.2429
 3365SOL    HW221555   3.587   0.827   5.402  0.3214  1.4459  1.0687
 3366SOL     OW21556   4.270   4.514   5.459  0.6902  0.2665  0.6450
 3366SOL    HW121557   4.268   4.508   5.364  0.2929  0.1205  0.6621
 3366SOL    HW221558   4.357   4.483   5.483  0.9359  1.0397  0.7722
 3367SOL     OW21559   2.137   0.638   7.448  1.3941 -0.1226  0.3935
 3367SOL    HW121560   2.136   0.558   7.395 -0.0414  0.1039  0.0816
 3367SOL    HW221561   2.184   0.620   7.530 -0.7189 -1.1244  1.3964
 3368SOL     OW21562   2.568   3.252   8.235  0.4859 -0.1578  0.1761
 3368SOL    HW121563   2.634   3.311   8.271  0.6303 -0.4223  0.3416
 3368SOL    HW221564   2.621   3.174   8.219  1.2708  0.2749  0.6666
 3369SOL     OW21565   1.542   3.047   7.231 -0.7887  0.0099 -0.5241
 3369SOL    HW121566   1.529   2.959   7.264  0.4735 -0.1920 -0.5616
 3369SOL    HW221567   1.511   3.096   7.307  1.3767 -0.7008  0.8227
 3370SOL     OW21568   4.561   3.847   9.887  0.0886  0.0772 -0.1251
 3370SOL    HW121569   4.469   3.840   9.911  0.3559  1.0340  1.1861
 3370SOL    HW221570   4.617   3.845   9.964 -2.2846 -0.1601  1.6067
 3371SOL     OW21571   3.151   0.366   6.073  0.1925 -0.1467  0.0864
 3371SOL    HW121572   3.119   0.370   6.163 -0.3940  0.3107 -0.1388
 3371SOL    HW221573   3.243   0.394   6.074  0.3291 -0.6150  0.3763
 3372SOL     OW21574   0.757   3.909   5.008 -0.2646  0.2092 -0.1435
 3372SOL    HW121575   0.769   3.981   4.946 -2.4103  0.8983  0.2746
 3372SOL    HW221576   0.846   3.872   5.004 -0.3162 -0.2103  2.6848
 3373SOL     OW21577   4.347   4.044  13.365 -0.2372 -0.0205 -0.0119
 3373SOL    HW121578   4.286   4.043  13.439  1.7932  0.0374  1.6699
 3373SOL    HW221579   4.427   4.007  13.403 -1.2675 -0.6387  1.5420
 3374SOL     OW21580   0.070   0.845   4.853  0.5112  0.4819 -0.0567
 3374SOL    HW121581   0.068   0.749   4.849  1.8940  0.5310 -1.9564
 3374SOL    HW221582   0.129   0.869   4.924  1.1574  0.6570 -0.6604
 3375SOL     OW21583   1.300   3.302   6.060 -0.4872 -0.2579 -0.1645
 3375SOL    HW121584   1.229   3.296   6.124 -1.2458  0.1366 -0.9607
 3375SOL    HW221585   1.377   3.292   6.116  0.7812 -1.7760 -2.1849
 3376SOL     OW21586   1.053   2.569   7.352  0.1837  0.7725  0.3234
 3376SOL    HW121587   1.037   2.492   7.296  0.2030 -0.2075  1.6723
 3376SOL    HW221588   0.967   2.611   7.352  1.0702  2.5647  0.2675
 3377SOL     OW21589   0.455   3.242   4.952  0.1460 -0.9177 -0.1486
 3377SOL    HW121590   0.483   3.293   4.876 -0.0303  1.0414  1.1191
 3377SOL    HW221591   0.424   3.313   5.008  1.9115 -1.5488  1.6560
 3378SOL     OW21592   3.111   1.317   1.156  0.3936 -0.0315  0.1074
 3378SOL    HW121593   3.069   1.402   1.147  0.1858 -0.0632  0.7798
 3378SOL    HW221594   3.191   1.344   1.201  0.7248 -0.5956 -0.1454
 3379SOL     OW21595   2.508   0.517   4.267  0.5341  0.2123 -0.3078
 3379SOL    HW121596   2.530   0.609   4.252 -0.1038  0.4658  0.3032
 3379SOL    HW221597   2.594   0.477   4.263  0.0646 -1.1838  3.1137
 3380SOL     OW21598   1.161   2.507   8.665  0.0470 -0.0547 -0.2332
 3380SOL    HW121599   1.236   2.479   8.612 -1.3197 -2.9080 -0.6648
 3380SOL    HW221600   1.146   2.587   8.614 -1.6155 -0.8109 -0.9004
 3381SOL     OW21601   0.864   1.216   6.349 -0.2680 -0.2072 -0.3173
 3381SOL    HW121602   0.806   1.211   6.273 -0.2437 -1.8645 -0.2193
 3381SOL    HW221603   0.936   1.269   6.314  1.7544 -2.4746  0.4802
 3382SOL     OW21604   3.656   3.394   7.232 -0.6689 -0.0088  0.3256
 3382SOL    HW121605   3.625   3.304   7.244  0.9822 -0.0907  4.0185
 3382SOL    HW221606   3.625   3.446   7.307 -0.8501  1.2332 -0.6216
 3383SOL     OW21607   3.539   0.507   8.997  0.0061 -0.3321 -0.4112
 3383SOL    HW121608   3.536   0.472   8.908 -0.9751 -0.8718 -0.1623
 3383SOL    HW221609   3.624   0.550   8.993 -1.3117  2.5241  1.6536
 3384SOL     OW21610   4.452   1.923   8.741  0.2058  0.0579  0.0968
 3384SOL    HW121611   4.499   1.855   8.693  2.1349  0.5664  1.2678
 3384SOL    HW221612   4.522   1.962   8.793 -1.5249 -1.8614  3.8481
 3385SOL     OW21613   3.777   1.265  15.374 -0.6998  0.1502  0.8624
 3385SOL    HW121614   3.799   1.290  15.464 -1.6555  0.4724  1.0074
 3385SOL    HW221615   3.834   1.328  15.330 -1.7550  0.4681 -0.0462
 3386SOL     OW21616   3.437   0.622   8.285  0.3281  0.0794 -0.1809
 3386SOL    HW121617   3.368   0.667   8.236 -1.0397 -0.2464  1.4585
 3386SOL    HW221618   3.401   0.625   8.374 -0.3862  0.6078 -0.4945
 3387SOL     OW21619   0.678   2.413   8.646 -0.6250  0.3928  0.1285
 3387SOL    HW121620   0.741   2.358   8.599 -0.3965 -1.1050  2.1953
 3387SOL    HW221621   0.601   2.356   8.646 -0.8541  0.7074 -0.8756
 3388SOL     OW21622   0.552   0.795  13.652 -0.8684  0.1386 -0.4368
 3388SOL    HW121623   0.514   0.864  13.598  1.9941  0.7845 -1.6732
 3388SOL    HW221624   0.607   0.849  13.710  0.2379 -2.4115  0.9134
 3389SOL     OW21625   2.979   2.105   9.833  0.1409  0.2035 -0.3082
 3389SOL    HW121626   3.053   2.164   9.822 -0.7461  1.0267 -1.8064
 3389SOL    HW221627   2.913   2.171   9.850 -0.6361  0.1298 -2.9802
 3390SOL     OW21628   3.244   1.475   2.899 -0.3969  0.1417  0.1202
 3390SOL    HW121629   3.151   1.465   2.921 -0.1677 -1.3112  0.4335
 3390SOL    HW221630   3.286   1.403   2.947 -0.1768  0.5659  0.5623
 3391SOL     OW21631   3.103   2.990  13.792 -0.5478 -0.2925 -0.2115
 3391SOL    HW121632   3.182   2.940  13.771 -0.8551  0.1422 -2.4628
 3391SOL    HW221633   3.122   3.076  13.754 -1.1114  0.2757  0.7786
 3392SOL     OW21634   0.498   1.870   6.870 -0.3364 -0.8397 -0.1457
 3392SOL    HW121635   0.454   1.926   6.807 -2.5319 -1.8301  0.5199
 3392SOL    HW221636   0.588   1.880   6.839 -1.5671  2.7359 -2.5040
 3393SOL     OW21637   1.161   4.092   0.150  0.0122 -0.1674 -0.1738
 3393SOL    HW121638   1.215   4.058   0.221  1.0159 -2.3487 -2.0105
 3393SOL    HW221639   1.219   4.104   0.075  1.9578 -1.2049  1.1918
 3394SOL     OW21640   3.309   4.579   3.187  0.1111 -0.2673 -0.1881
 3394SOL    HW121641   3.265   4.516   3.130 -0.4991 -0.8574  0.9493
 3394SOL    HW221642   3.241   4.645   3.200 -0.3014 -0.6343 -0.4816
 3395SOL     OW21643   3.726   0.477   3.408 -0.0825  0.2971  0.2606
 3395SOL    HW121644   3.680   0.525   3.340 -1.7934 -1.4383  0.1912
 3395SOL    HW221645   3.734   0.391   3.367 -1.2353  0.2867  0.0679
 3396SOL     OW21646   3.448   1.077   4.220 -0.1491  0.0990 -0.1825
 3396SOL    HW121647   3.377   1.013   4.227  0.1139  0.0733  2.3606
 3396SOL    HW221648   3.525   1.020   4.226 -0.2917 -0.2810 -1.9158
 3397SOL     OW21649   1.995   3.704   1.762  1.1446 -0.0828 -0.3691
 3397SOL    HW121650   2.012   3.710   1.856 -2.5219 -3.0311  0.4984
 3397SOL    HW221651   1.903   3.730   1.763  1.2732  0.3573  0.0706
 3398SOL     OW21652   1.392   4.663  15.386  0.4281 -0.1408  0.0027
 3398SOL    HW121653   1.400   4.627  15.475  0.4094 -2.2397 -0.8405
 3398SOL    HW221654   1.301   4.690  15.380  0.0181 -1.4646  0.2949
 3399SOL     OW21655   1.073   0.964   6.376 -0.1036  0.4224 -0.1677
 3399SOL    HW121656   1.139   0.895   6.375 -0.6648 -0.1070 -0.8965
 3399SOL    HW221657   1.027   0.945   6.295  0.3109  0.5151 -0.4225
 3400SOL     OW21658   3.363   2.310   4.249 -0.0145 -0.1512  0.4154
 3400SOL    HW121659   3.446   2.329   4.293  1.1131 -0.1762 -1.6868
 3400SOL    HW221660   3.310   2.295   4.327 -0.1134 -2.1867 -0.0312
 3401SOL     OW21661   0.967   3.208  17.423  0.5470  0.7968  0.2249
 3401SOL    HW121662   0.871   3.212  17.417  0.5689 -0.5451 -1.1403
 3401SOL    HW221663   1.001   3.222  17.335  0.4920  1.0033  0.2352
 3402SOL     OW21664   1.706   0.299   7.759  0.1818 -0.6414  0.2827
 3402SOL    HW121665   1.714   0.272   7.851 -1.3035 -0.3927  0.4795
 3402SOL    HW221666   1.801   0.312   7.750  0.2492 -0.4424  1.2507
 3403SOL     OW21667   2.494   3.140  13.488  0.6279 -0.2795 -0.0697
 3403SOL    HW121668   2.536   3.063  13.450  0.9249  1.7998 -3.9829
 3403SOL    HW221669   2.402   3.116  13.492  0.7089 -0.8281 -1.8216
 3404SOL     OW21670   2.131   0.240   3.282 -0.1008  0.4452  0.4412
 3404SOL    HW121671   2.225   0.247   3.265 -0.2822  1.3338 -0.2182
 3404SOL    HW221672   2.137   0.240   3.377 -0.5478  0.9061  0.4672
 3405SOL     OW21673   3.041   0.184   3.289  0.4840 -0.9107 -0.6425
 3405SOL    HW121674   2.996   0.207   3.370 -0.3941 -3.0978 -0.4925
 3405SOL    HW221675   3.040   0.088   3.294 -1.5553 -0.8434  0.2827
 3406SOL     OW21676   0.746   0.945   4.972 -0.2924  0.5177  0.5078
 3406SOL    HW121677   0.724   0.909   4.886 -1.4652  2.9147 -0.1867
 3406SOL    HW221678   0.682   1.015   4.975  0.4321  1.2307 -0.9493
 3407SOL     OW21679   1.740   3.241   8.640 -0.1339  0.2511  0.5287
 3407SOL    HW121680   1.741   3.333   8.665 -1.0374  0.0110  1.4552
 3407SOL    HW221681   1.681   3.209   8.708 -1.4992 -2.6464 -2.0152
 3408SOL     OW21682   0.870   4.222  15.654  0.0248 -0.4536 -0.5570
 3408SOL    HW121683   0.915   4.138  15.666  1.0608  0.2851  0.7615
 3408SOL    HW221684   0.777   4.202  15.661  0.0069 -0.4889 -0.8672
 3409SOL     OW21685   3.854   2.814  15.617  0.2292  0.3042  0.4451
 3409SOL    HW121686   3.941   2.835  15.652  0.2226  0.3600  0.4290
 3409SOL    HW221687   3.872   2.843  15.527 -0.6188  1.0432  0.5197
 3410SOL     OW21688   2.621   3.243   5.038 -0.0264  0.0112 -0.5290
 3410SOL    HW121689   2.662   3.161   5.065 -0.7669 -0.3510 -0.5121
 3410SOL    HW221690   2.629   3.241   4.943  0.8230 -1.0899 -0.4390
 3411SOL     OW21691   4.719   4.004   6.799 -0.3571  0.3396  0.1629
 3411SOL    HW121692   0.024   3.949   6.873 -0.0037 -1.9095 -1.6126
 3411SOL    HW221693   4.639   4.047   6.829 -0.9730  0.4840 -1.7070
 3412SOL     OW21694   0.335   4.534   7.669  0.0494 -0.1469 -0.2103
 3412SOL    HW121695   0.367   4.617   7.705  0.7552  0.2062 -1.6437
 3412SOL    HW221696   0.410   4.477   7.685 -0.2988 -0.2342  1.0994
 3413SOL     OW21697   2.315   0.001   9.286  0.4282  0.3086  0.2228
 3413SOL    HW121698   2.315   4.642   9.234  3.8240  1.5316 -1.6361
 3413SOL    HW221699   2.394   0.044   9.253  0.8739 -0.6430  0.0716
 3414SOL     OW21700   1.094   3.678   7.791 -0.5794  0.5402  0.0921
 3414SOL    HW121701   1.065   3.651   7.879 -1.3093 -0.1330 -0.3546
 3414SOL    HW221702   1.017   3.661   7.737  0.9382  1.8890 -2.4905
 3415SOL     OW21703   4.410   3.381   4.084 -0.8720 -0.1334 -0.2941
 3415SOL    HW121704   4.424   3.290   4.109  0.1583  0.5407  1.5443
 3415SOL    HW221705   4.356   3.368   4.006 -2.1494  0.1486  0.5441
 3416SOL     OW21706   0.427   2.448   5.725  0.2669 -0.1458  0.7888
 3416SOL    HW121707   0.428   2.372   5.667 -0.7958  0.6976 -0.3156
 3416SOL    HW221708   0.418   2.516   5.659  0.1969 -1.3927 -0.4839
 3417SOL     OW21709   0.190   0.427  17.673  0.4936  0.0999  0.1166
 3417SOL    HW121710   0.248   0.380   0.047 -2.7023 -3.4696  0.4346
 3417SOL    HW221711   0.125   0.359  17.659 -0.8546  1.4980 -0.4401
 3418SOL     OW21712   3.727   2.557   5.975  0.1691  0.2811  0.2013
 3418SOL    HW121713   3.745   2.635   6.028 -0.3467  1.3713 -1.2115
 3418SOL    HW221714   3.778   2.490   6.020 -0.7435 -0.7827 -0.3585
 3419SOL     OW21715   1.888   4.557   3.434  0.2353  0.3194 -0.2051
 3419SOL    HW121716   1.915   4.483   3.380  0.2618 -1.2213  1.9219
 3419SOL    HW221717   1.809   4.591   3.394 -0.0922 -0.7620 -0.4578
 3420SOL     OW21718   3.913   4.399   2.822 -0.0346 -0.0834  0.0067
 3420SOL    HW121719   3.901   4.491   2.844 -0.3239 -0.1424  0.0985
 3420SOL    HW221720   3.870   4.353   2.894 -0.4322  1.8629  0.9951
 3421SOL     OW21721   2.197   3.082   0.294 -0.4421 -0.5575  0.5763
 3421SOL    HW121722   2.280   3.085   0.248 -0.1296 -0.1470  1.1654
 3421SOL    HW221723   2.198   3.173   0.325 -1.4159  0.0749 -1.2379
 3422SOL     OW21724   1.121   4.638  16.555 -0.4235  0.2218  0.4288
 3422SOL    HW121725   1.091   4.568  16.496  0.7791  0.4650 -0.4853
 3422SOL    HW221726   1.186   4.596  16.612  0.5587  2.9247  1.3074
 3423SOL     OW21727   1.839   0.612   7.193 -0.1639 -0.2408 -0.3154
 3423SOL    HW121728   1.851   0.581   7.283  1.2857 -0.2054 -0.4914
 3423SOL    HW221729   1.915   0.569   7.154  1.7840  1.2408  1.8608
 3424SOL     OW21730   1.974   4.632  10.373  0.5923 -0.5074  0.0854
 3424SOL    HW121731   1.984   4.606  10.465  1.4503  0.6246  0.3137
 3424SOL    HW221732   1.977   0.007  10.381 -0.5466 -0.2519 -2.8858
 3425SOL     OW21733   1.924   4.254   3.888 -0.1276  0.7114  0.8214
 3425SOL    HW121734   1.932   4.185   3.953  1.0413 -0.1868 -0.2798
 3425SOL    HW221735   1.999   4.306   3.917 -0.4130  0.2505  2.3687
 3426SOL     OW21736   4.554   0.927   0.136 -0.3625 -0.4075 -0.3594
 3426SOL    HW121737   4.597   0.859   0.084 -1.1126 -0.3750 -1.0254
 3426SOL    HW221738   4.585   1.002   0.086 -0.8147  0.4607  0.6754
 3427SOL     OW21739   0.843   0.567  14.235  0.2615  0.8756 -0.6192
 3427SOL    HW121740   0.886   0.552  14.151  0.5196 -0.2128 -0.2816
 3427SOL    HW221741   0.884   0.651  14.257 -0.0809  0.9614 -0.2962
 3428SOL     OW21742   2.388   3.682   8.901 -0.1273  0.0083 -0.0583
 3428SOL    HW121743   2.428   3.767   8.922  2.8901 -1.3925 -0.0776
 3428SOL    HW221744   2.414   3.668   8.810 -3.6527  2.3939 -1.4200
 3429SOL     OW21745   2.980   0.897   3.071  0.4346  0.3881  0.1755
 3429SOL    HW121746   3.044   0.895   3.000 -0.1948 -1.5869 -0.3315
 3429SOL    HW221747   3.031   0.947   3.135 -2.6484  0.6586  2.3927
 3430SOL     OW21748   4.420   1.776   3.622  0.7250  0.6743 -0.1200
 3430SOL    HW121749   4.457   1.725   3.694  0.4569 -1.3586 -1.4254
 3430SOL    HW221750   4.494   1.796   3.565  1.1348  1.8188  0.8124
 3431SOL     OW21751   1.631   2.715  12.222  0.3984 -0.3143  0.6344
 3431SOL    HW121752   1.701   2.724  12.157  0.3342  1.6682  0.8268
 3431SOL    HW221753   1.620   2.810  12.231  2.0473  0.0579 -1.1948
 3432SOL     OW21754   3.098   0.410   5.064  0.3582 -0.0757 -0.1009
 3432SOL    HW121755   3.163   0.459   5.115 -1.4111  1.9812  0.1793
 3432SOL    HW221756   3.040   0.477   5.027  1.1187  1.0139  0.6748
 3433SOL     OW21757   3.909   4.212   4.099  0.7705 -0.1270 -0.6003
 3433SOL    HW121758   3.856   4.133   4.085  0.1954 -0.1324  1.6609
 3433SOL    HW221759   3.956   4.200   4.181  0.3564  0.4829 -0.2751
 3434SOL     OW21760   3.807   0.661   7.461  0.0613 -0.1533  0.0735
 3434SOL    HW121761   3.727   0.711   7.478  0.8472  1.1238  0.0159
 3434SOL    HW221762   3.866   0.683   7.533  0.2048  0.8662 -0.3439
 3435SOL     OW21763   1.684   2.972  12.167 -0.1180 -0.0698  0.4289
 3435SOL    HW121764   1.777   2.995  12.158  0.0783 -1.8921 -2.2704
 3435SOL    HW221765   1.635   3.052  12.148 -0.5439 -0.5640 -0.5847
 3436SOL     OW21766   1.578   3.591  14.732  0.1042 -0.4815  0.4502
 3436SOL    HW121767   1.568   3.527  14.662 -1.8022 -0.9015  1.0922
 3436SOL    HW221768   1.545   3.543  14.808 -0.7742 -0.8977 -0.1921
 3437SOL     OW21769   0.838   0.779   6.894 -0.3913 -0.0050  0.4858
 3437SOL    HW121770   0.803   0.867   6.880  0.1614 -0.0199 -0.9364
 3437SOL    HW221771   0.907   0.789   6.960 -0.2407 -2.6211  0.7284
 3438SOL     OW21772   3.170   4.232   3.280  0.3756  0.0556  0.1122
 3438SOL    HW121773   3.115   4.175   3.226  0.0404 -0.7613  1.3209
 3438SOL    HW221774   3.197   4.290   3.208  1.4619 -0.8518 -0.2129
 3439SOL     OW21775   2.021   2.930   4.096  0.5200  0.4627  0.0789
 3439SOL    HW121776   2.028   2.990   4.022 -0.4348  1.5619  0.8822
 3439SOL    HW221777   2.081   2.972   4.157  1.6124 -1.1067  0.0810
 3440SOL     OW21778   0.837   3.643   3.629  0.1839 -0.2302 -0.1953
 3440SOL    HW121779   0.762   3.607   3.675 -0.4770 -0.3825 -1.3805
 3440SOL    HW221780   0.802   3.643   3.540  1.1383  1.0244 -0.5827
 3441SOL     OW21781   0.477   0.849   2.348  0.4677 -0.6573  0.1614
 3441SOL    HW121782   0.569   0.826   2.333  0.6879 -0.9702  1.9989
 3441SOL    HW221783   0.476   0.822   2.440 -0.4935  3.1385  1.2664
 3442SOL     OW21784   4.695   2.995   6.057 -0.0909 -0.2400 -0.1770
 3442SOL    HW121785   0.011   3.083   6.050  1.9782 -1.1639 -0.9159
 3442SOL    HW221786   0.040   2.958   5.998  0.9005  0.4133  0.5325
 3443SOL     OW21787   2.416   3.494   3.638  0.1300  0.2645  0.4642
 3443SOL    HW121788   2.455   3.528   3.718 -1.2067  4.4897 -0.6500
 3443SOL    HW221789   2.441   3.562   3.575  1.3228  0.0057  0.6763
 3444SOL     OW21790   3.750   2.491   8.735 -0.3177  0.1634  0.0427
 3444SOL    HW121791   3.788   2.453   8.656 -0.6734 -0.3039  0.0990
 3444SOL    HW221792   3.824   2.550   8.750  0.1227 -0.3775  0.0003
 3445SOL     OW21793   3.730   0.421   7.070 -0.3292 -0.0633  0.0224
 3445SOL    HW121794   3.742   0.353   7.137  1.3621  0.0138 -0.2009
 3445SOL    HW221795   3.646   0.456   7.098  0.7263  1.3326  1.4642
 3446SOL     OW21796   2.190   3.725  13.669  0.0219  0.6020  0.3059
 3446SOL    HW121797   2.250   3.653  13.648 -0.7917 -0.3640  1.2946
 3446SOL    HW221798   2.130   3.674  13.723  0.9149 -0.1127  0.6364
 3447SOL     OW21799   0.106   0.564   8.424  0.5407 -0.1243 -0.0945
 3447SOL    HW121800   0.135   0.475   8.407  1.1575 -0.5736  3.3600
 3447SOL    HW221801   0.093   0.573   8.518  2.7669  1.6060  0.0425
 3448SOL     OW21802   3.159   1.992   5.194 -0.0552  0.0132  0.1125
 3448SOL    HW121803   3.068   1.963   5.188 -0.6172  1.9552 -0.8907
 3448SOL    HW221804   3.210   1.944   5.129 -0.7602 -1.5065  0.6970
 3449SOL     OW21805   2.542   3.430   6.174  0.2928  0.4954 -0.0846
 3449SOL    HW121806   2.613   3.487   6.204  0.5061  0.0817  0.1927
 3449SOL    HW221807   2.524   3.469   6.088 -2.5210 -0.7166 -0.0579
 3450SOL     OW21808   0.582   1.222   1.765 -0.6384 -0.5610 -0.6469
 3450SOL    HW121809   0.641   1.196   1.695  1.0832 -0.7452  0.8587
 3450SOL    HW221810   0.505   1.252   1.716  0.6508 -0.7994 -2.7710
 3451SOL     OW21811   4.453   3.827  10.531  0.0657  0.1011 -0.2410
 3451SOL    HW121812   4.388   3.895  10.513  0.8275  0.3481 -2.1209
 3451SOL    HW221813   4.390   3.769  10.573 -2.0817  1.5846 -1.4348
 3452SOL     OW21814   2.526   0.571   3.267  0.4171  0.2957 -0.4412
 3452SOL    HW121815   2.616   0.559   3.297  0.2845 -0.6375 -0.4297
 3452SOL    HW221816   2.532   0.599   3.175 -2.3756 -0.2830 -0.8257
 3453SOL     OW21817   3.059   1.628  10.603  0.1440  0.2770 -0.1935
 3453SOL    HW121818   2.966   1.628  10.580 -0.2343  3.8177  1.4911
 3453SOL    HW221819   3.062   1.544  10.649  0.7358  0.0054 -0.7224
 3454SOL     OW21820   0.757   2.014  15.190 -0.4131 -0.0682  0.3010
 3454SOL    HW121821   0.700   1.942  15.218 -2.2575  1.2473 -0.1481
 3454SOL    HW221822   0.714   2.056  15.117 -1.2521 -0.9999  0.2593
 3455SOL     OW21823   2.692   1.778   3.027  0.3378 -0.7716  1.0752
 3455SOL    HW121824   2.781   1.743   3.032  1.3013  1.3994 -0.6592
 3455SOL    HW221825   2.661   1.710   3.087 -2.3975 -1.2567 -0.8933
 3456SOL     OW21826   0.552   4.034   4.127  0.0593  0.3219  0.2320
 3456SOL    HW121827   0.495   4.079   4.189  0.1488  0.0019  0.5496
 3456SOL    HW221828   0.502   4.030   4.045  0.3567  1.8953 -0.0296
 3457SOL     OW21829   4.143   2.311  17.004  0.0457 -0.6064 -0.1499
 3457SOL    HW121830   4.112   2.250  16.936 -2.3295 -2.7006  2.7704
 3457SOL    HW221831   4.064   2.362  17.024  1.6985  0.9546  2.3850
 3458SOL     OW21832   2.452   2.076  12.658  0.3566 -0.3044  0.4367
 3458SOL    HW121833   2.518   2.015  12.624  0.1786  0.3715 -1.1067
 3458SOL    HW221834   2.477   2.079  12.750  1.6837  1.6707  0.0207
 3459SOL     OW21835   4.388   1.719   9.034  0.3992  0.9527 -0.0787
 3459SOL    HW121836   4.355   1.714   9.124 -0.7670 -0.6742 -0.5975
 3459SOL    HW221837   4.305   1.733   8.988  0.6577  0.9170 -0.5483
 3460SOL     OW21838   2.658   4.123   3.306 -0.5822 -0.1796 -0.6679
 3460SOL    HW121839   2.676   4.133   3.212 -0.4812  2.2545 -0.3805
 3460SOL    HW221840   2.578   4.176   3.310  0.6330  1.4047  2.2430
 3461SOL     OW21841   2.240   2.928  17.040  0.6889 -0.6390  0.1530
 3461SOL    HW121842   2.272   2.952  16.953 -0.0725 -1.6963 -0.4257
 3461SOL    HW221843   2.224   2.834  17.029  1.7957 -1.1337  3.0218
 3462SOL     OW21844   2.285   2.985  16.785 -0.3403 -0.1132 -0.9160
 3462SOL    HW121845   2.251   2.950  16.703 -2.2422  0.5322 -0.4189
 3462SOL    HW221846   2.371   3.009  16.750  0.6679 -1.0198  0.9371
 3463SOL     OW21847   0.352   2.499   4.343 -0.5507  0.5726 -0.1283
 3463SOL    HW121848   0.439   2.477   4.377 -0.4840  0.8738 -0.1072
 3463SOL    HW221849   0.373   2.560   4.272 -0.4330 -3.1958 -3.3616
 3464SOL     OW21850   4.661   1.217  15.448  0.2074 -0.3656 -0.2155
 3464SOL    HW121851   0.027   1.229  15.409  0.2592 -0.0061  0.0192
 3464SOL    HW221852   4.688   1.228  15.539  0.7265 -0.6913 -0.3291
 3465SOL     OW21853   3.526   3.829   8.804  0.5899  0.1288  0.2312
 3465SOL    HW121854   3.511   3.896   8.870 -0.1630 -0.3812  0.5807
 3465SOL    HW221855   3.618   3.815   8.828  0.1719 -0.4384  1.4942
 3466SOL     OW21856   4.150   1.334   5.507 -0.6965  0.4110 -0.0223
 3466SOL    HW121857   4.114   1.253   5.543  0.1827  0.5523  1.1980
 3466SOL    HW221858   4.200   1.369   5.582  0.2493 -1.5753  0.2869
 3467SOL     OW21859   4.618   3.585   7.002 -0.6000 -0.3402  0.2404
 3467SOL    HW121860   4.653   3.642   7.071 -0.1107  1.1190 -1.2160
 3467SOL    HW221861   4.680   3.513   7.012  0.9382  1.0498  0.9819
 3468SOL     OW21862   1.677   0.470   9.145 -0.1568 -0.2846 -0.1561
 3468SOL    HW121863   1.734   0.531   9.192 -0.4442 -1.2719  1.4817
 3468SOL    HW221864   1.704   0.485   9.054  1.0486  0.1553  0.2711
 3469SOL     OW21865   4.274   0.524  15.411 -0.3109 -0.2106  0.7167
 3469SOL    HW121866   4.217   0.591  15.371  0.5743 -0.3599 -0.7831
 3469SOL    HW221867   4.255   0.530  15.504  2.1367  0.8486  1.1533
 3470SOL     OW21868   4.126   2.701   0.453 -0.3284 -0.2168 -0.7408
 3470SOL    HW121869   4.149   2.617   0.414 -1.1271 -1.5953  1.7598
 3470SOL    HW221870   4.195   2.764   0.431 -0.5586 -0.2445 -1.5336
 3471SOL     OW21871   1.509   1.663  16.997 -0.1649 -0.0888 -0.1173
 3471SOL    HW121872   1.552   1.649  17.082 -1.1538  1.0284  0.5599
 3471SOL    HW221873   1.453   1.739  17.012 -2.9235 -2.2692  0.6479
 3472SOL     OW21874   0.733   2.140   4.187 -0.3362  1.0463  0.2546
 3472SOL    HW121875   0.655   2.173   4.143 -0.5386 -0.1379 -0.2854
 3472SOL    HW221876   0.711   2.116   4.277 -0.9416 -0.3130 -0.2591
 3473SOL     OW21877   1.132   3.721   9.750 -0.1089 -0.3558 -0.0262
 3473SOL    HW121878   1.169   3.767   9.826 -0.1624 -0.6013  0.1489
 3473SOL    HW221879   1.215   3.695   9.710 -0.7809 -2.0994 -0.2805
 3474SOL     OW21880   3.773   1.755   0.351  0.3926 -0.5607  0.0279
 3474SOL    HW121881   3.824   1.836   0.345 -1.0417  0.1199 -3.1525
 3474SOL    HW221882   3.725   1.745   0.268 -1.0053  1.4589  0.6103
 3475SOL     OW21883   0.827   1.122  11.233  0.0158  0.4996  0.0333
 3475SOL    HW121884   0.912   1.087  11.209 -0.0623 -0.5523  1.2630
 3475SOL    HW221885   0.850   1.188  11.299 -0.6736  1.5663 -0.7873
 3476SOL     OW21886   1.647   3.430  13.250  0.3603 -0.0889  0.0669
 3476SOL    HW121887   1.582   3.484  13.294 -0.3683 -0.9421  0.0336
 3476SOL    HW221888   1.608   3.414  13.164 -0.2337 -1.2405  0.5578
 3477SOL     OW21889   1.635   2.327   1.041  0.5652 -0.5357  0.4350
 3477SOL    HW121890   1.581   2.328   0.962 -1.1636  1.6560  1.6395
 3477SOL    HW221891   1.594   2.404   1.080 -0.3875 -1.5178  1.3706
 3478SOL     OW21892   3.532   3.834   6.438  0.0236  0.3599  0.0871
 3478SOL    HW121893   3.478   3.778   6.494  0.1666  0.1455  0.0078
 3478SOL    HW221894   3.522   3.791   6.353  1.1851 -0.8900  0.5894
 3479SOL     OW21895   2.780   0.589  15.411 -0.5325  0.3073 -0.5161
 3479SOL    HW121896   2.700   0.538  15.413 -0.2908 -0.0825 -0.8995
 3479SOL    HW221897   2.776   0.636  15.328 -0.0593 -0.4649 -0.9705
 3480SOL     OW21898   3.163   4.130  13.288 -0.2930 -0.0087  0.0051
 3480SOL    HW121899   3.206   4.160  13.368  0.9378  1.7126 -1.2916
 3480SOL    HW221900   3.079   4.094  13.317  0.8526  0.0303  3.3287
 3481SOL     OW21901   1.171   3.704  15.159  0.3886  0.0335 -0.2708
 3481SOL    HW121902   1.242   3.663  15.209  0.9497  0.6487 -0.5736
 3481SOL    HW221903   1.214   3.708  15.074  3.3832  1.0682  1.2786
 3482SOL     OW21904   2.446   1.719   7.079 -0.9587 -0.6068  0.3078
 3482SOL    HW121905   2.516   1.746   7.020  0.3571 -1.7925  1.3034
 3482SOL    HW221906   2.365   1.751   7.039  0.4465  1.3962 -0.8921
 3483SOL     OW21907   4.212   4.222   4.974 -0.4714 -0.0596 -1.0530
 3483SOL    HW121908   4.159   4.258   4.903 -1.8722  2.1493  1.1109
 3483SOL    HW221909   4.139   4.202   5.033  0.7398  3.3354  1.6213
 3484SOL     OW21910   1.997   2.720   2.565  0.0535  0.0605 -0.3790
 3484SOL    HW121911   1.993   2.800   2.617 -1.1237  1.4657 -2.5981
 3484SOL    HW221912   1.999   2.760   2.478  0.3987 -0.6659 -0.7025
 3485SOL     OW21913   1.516   0.165  13.791  0.0517 -0.5643  0.3690
 3485SOL    HW121914   1.521   0.121  13.876 -0.7303 -1.0035  0.1904
 3485SOL    HW221915   1.593   0.143  13.738  0.6752  0.4087  0.8731
 3486SOL     OW21916   2.236   1.292   3.341 -0.0118  0.1968  0.4814
 3486SOL    HW121917   2.184   1.236   3.284 -1.3479 -0.8432  2.7319
 3486SOL    HW221918   2.285   1.221   3.383 -1.3508 -0.5803  0.7247
 3487SOL     OW21919   1.711   0.281   8.020  0.1895 -0.0947 -0.1032
 3487SOL    HW121920   1.616   0.283   8.031  0.4358  2.3686  1.9195
 3487SOL    HW221921   1.737   0.342   8.090  1.4074 -0.2148 -0.4654
 3488SOL     OW21922   1.675   3.890  15.368  0.1786  0.0913  0.2760
 3488SOL    HW121923   1.741   3.827  15.337 -1.4188 -1.5617  0.2853
 3488SOL    HW221924   1.733   3.959  15.402 -1.0411  1.6062 -0.7467
 3489SOL     OW21925   2.993   2.820   8.785  0.6615 -0.2313 -0.1022
 3489SOL    HW121926   2.928   2.855   8.847  0.5161  1.6253 -1.3062
 3489SOL    HW221927   2.961   2.733   8.761 -0.9205  0.1210  0.7451
 3490SOL     OW21928   2.242   0.622  11.671  0.4696 -0.0040  0.0648
 3490SOL    HW121929   2.193   0.690  11.717  2.3892  1.7473 -0.4753
 3490SOL    HW221930   2.317   0.610  11.728 -0.4410 -0.4997  1.1558
 3491SOL     OW21931   0.020   3.757   8.604  0.1005 -0.1388  0.4517
 3491SOL    HW121932   0.082   3.783   8.672  1.2138  0.2265 -0.6994
 3491SOL    HW221933   4.699   3.842   8.592  0.1160 -0.3625 -1.1481
 3492SOL     OW21934   3.541   3.964   0.252  0.8057  0.2790 -1.1072
 3492SOL    HW121935   3.513   4.046   0.292  0.4028  0.4624 -1.7698
 3492SOL    HW221936   3.615   3.944   0.309  0.9985 -2.2790 -2.2583
 3493SOL     OW21937   1.904   1.479  14.493  0.3993  0.4733  0.4631
 3493SOL    HW121938   1.930   1.547  14.556  0.8098  0.5111  0.2535
 3493SOL    HW221939   1.940   1.402  14.537  0.5356  0.1071 -0.2883
 3494SOL     OW21940   3.023   3.525   3.819 -0.0171  0.1504 -0.2218
 3494SOL    HW121941   3.067   3.440   3.815 -1.5099 -0.6455  0.3014
 3494SOL    HW221942   3.087   3.592   3.795  0.7521 -1.1707 -1.8925
 3495SOL     OW21943   2.589   0.682   0.379  0.6589 -0.0485 -0.4461
 3495SOL    HW121944   2.537   0.602   0.382 -0.2349  0.5296 -0.4398
 3495SOL    HW221945   2.669   0.633   0.398  0.3213 -1.0456 -1.5551
 3496SOL     OW21946   3.596   1.371   9.657 -0.2970  0.6492 -0.2173
 3496SOL    HW121947   3.624   1.342   9.570  0.9281  0.5505  0.2141
 3496SOL    HW221948   3.649   1.317   9.715  1.3969  0.0653 -2.2939
 3497SOL     OW21949   3.472   4.645  10.997 -0.3776  0.5627 -0.5336
 3497SOL    HW121950   3.561   4.680  11.003 -1.0169  2.0954 -0.1836
 3497SOL    HW221951   3.474   4.551  11.018  0.3124  0.4237 -1.2127
 3498SOL     OW21952   4.012   3.472   5.091  0.0867  0.1239  0.5777
 3498SOL    HW121953   4.041   3.509   5.008  0.8895 -1.8204 -0.0158
 3498SOL    HW221954   4.000   3.555   5.137  0.4980  0.5711 -0.1115
 3499SOL     OW21955   0.802   2.597   4.651  0.4677 -0.0698  0.4307
 3499SOL    HW121956   0.767   2.683   4.672 -0.3938  0.1260 -1.8639
 3499SOL    HW221957   0.880   2.627   4.604  1.0995  0.4915  1.8292
 3500SOL     OW21958   4.258   2.739   0.127 -0.2045 -0.6242  0.1236
 3500SOL    HW121959   4.172   2.698   0.132  0.0909 -1.4168 -1.2278
 3500SOL    HW221960   4.238   2.832   0.128  1.1482 -0.3433  2.0308
 3501SOL     OW21961   1.465   1.623  13.964  0.2807  0.6318  0.2123
 3501SOL    HW121962   1.498   1.614  13.875  0.3602 -3.4748  0.6550
 3501SOL    HW221963   1.376   1.646  13.937  0.2555 -1.1318 -1.1856
 3502SOL     OW21964   2.099   2.336   4.860  0.6837 -0.2341  0.3103
 3502SOL    HW121965   2.009   2.331   4.828  1.6422 -1.0777 -2.2791
 3502SOL    HW221966   2.077   2.326   4.952  2.5671  2.5572  1.0735
 3503SOL     OW21967   3.063   3.322   6.491 -0.7465 -0.2681  0.1677
 3503SOL    HW121968   3.076   3.272   6.572  0.3681 -1.1555 -0.5757
 3503SOL    HW221969   2.968   3.330   6.485 -0.8817 -1.6242  0.5512
 3504SOL     OW21970   1.162   3.157   4.611  0.1856 -0.4285  0.1360
 3504SOL    HW121971   1.228   3.088   4.605  2.2051  1.0371  4.8354
 3504SOL    HW221972   1.148   3.164   4.517  2.2013  1.9832  0.0034
 3505SOL     OW21973   1.209   1.423   2.006  0.2179 -0.4680 -0.0175
 3505SOL    HW121974   1.192   1.409   2.099  2.1036  0.8928  0.5372
 3505SOL    HW221975   1.246   1.342   1.973  0.9296  0.0097 -0.3999
 3506SOL     OW21976   4.140   1.303   1.285  0.3714  0.6582 -0.4731
 3506SOL    HW121977   4.128   1.277   1.193  1.1233 -1.2846 -0.0203
 3506SOL    HW221978   4.072   1.252   1.330  0.1815  1.1280 -0.2357
 3507SOL     OW21979   3.854   4.131   3.565  0.1534 -0.2607  0.5741
 3507SOL    HW121980   3.850   4.226   3.568  2.0311 -0.1310 -0.7903
 3507SOL    HW221981   3.946   4.114   3.588  0.4143 -0.8281 -0.8995
 3508SOL     OW21982   1.224   1.701  10.561  0.4639 -0.3754 -0.4054
 3508SOL    HW121983   1.219   1.778  10.618  0.9520 -0.4293 -0.2941
 3508SOL    HW221984   1.259   1.732  10.478  1.0645  0.2138  0.0689
 3509SOL     OW21985   3.463   4.243  13.523 -0.0139 -0.0944 -0.1120
 3509SOL    HW121986   3.368   4.254  13.519  0.0825  0.5555 -0.5787
 3509SOL    HW221987   3.493   4.268  13.435  2.4579  2.7574  1.5770
 3510SOL     OW21988   2.147   4.162  16.265 -0.5119  0.0960  0.1931
 3510SOL    HW121989   2.219   4.216  16.232  1.6854 -2.4095  0.8934
 3510SOL    HW221990   2.176   4.155  16.356  0.7199  2.2642 -0.0207
 3511SOL     OW21991   1.708   4.525  13.919 -0.2467  0.0430  0.1491
 3511SOL    HW121992   1.648   4.570  13.978  0.0285 -0.1622  0.5935
 3511SOL    HW221993   1.788   4.514  13.971 -0.0862  1.6656  0.2277
 3512SOL     OW21994   1.936   2.483  17.127 -0.2485  0.2555 -0.0450
 3512SOL    HW121995   1.890   2.558  17.166  1.2408  0.7907  0.6889
 3512SOL    HW221996   1.886   2.476  17.046 -0.6523  0.5067  0.1800
 3513SOL     OW21997   1.367   0.131  13.559  0.2069  0.2858  0.5320
 3513SOL    HW121998   1.395   0.198  13.496 -1.0835  0.6920  0.3956
 3513SOL    HW221999   1.425   0.142  13.634  0.0696 -0.4167  0.7451
 3514SOL     OW22000   2.968   4.667   2.852 -0.2482  0.0522  0.5264
 3514SOL    HW122001   2.892   0.003   2.864 -0.8846 -0.5103 -0.8385
 3514SOL    HW222002   3.025   4.686   2.927  0.8503 -2.5242  0.3582
 3515SOL     OW22003   2.215   2.261   5.411  0.1268 -0.8366 -0.3450
 3515SOL    HW122004   2.178   2.347   5.391 -1.9905 -1.6998 -0.2035
 3515SOL    HW222005   2.261   2.236   5.331  0.1710 -1.1455 -0.2259
 3516SOL     OW22006   0.357   3.985  16.545 -0.2256  0.0351  0.1644
 3516SOL    HW122007   0.270   3.957  16.572  0.4176 -1.1127  1.0415
 3516SOL    HW222008   0.338   4.075  16.517 -2.7642 -0.0829  1.4875
 3517SOL     OW22009   2.567   1.065   7.923 -0.1967  0.4431 -0.0426
 3517SOL    HW122010   2.483   1.090   7.961  0.5332  2.6100  0.1456
 3517SOL    HW222011   2.619   1.043   8.000 -0.4747  0.9884  0.3018
 3518SOL     OW22012   3.189   3.890  11.640 -0.0382  0.4027 -0.4092
 3518SOL    HW122013   3.105   3.846  11.631 -1.2429  2.2485  1.8276
 3518SOL    HW222014   3.198   3.938  11.558 -0.5223 -0.2473 -0.8388
 3519SOL     OW22015   3.903   2.042   5.875 -0.1371 -0.1295 -0.1857
 3519SOL    HW122016   3.904   1.958   5.920  1.2854 -1.0389 -1.9075
 3519SOL    HW222017   3.858   2.024   5.793 -0.4901  2.0832 -0.4791
 3520SOL     OW22018   3.391   0.049   7.921 -0.5620 -0.7281 -0.1579
 3520SOL    HW122019   3.479   0.043   7.883 -0.3567 -1.0129  0.3756
 3520SOL    HW222020   3.339   0.058   7.841 -1.7707 -0.2908  0.6700
 3521SOL     OW22021   3.665   4.330   9.949 -0.1505 -0.0100  0.2743
 3521SOL    HW122022   3.728   4.336  10.021  1.5774 -2.7540 -1.0139
 3521SOL    HW222023   3.729   4.320   9.879 -0.3846  0.4822 -0.0089
 3522SOL     OW22024   1.704   2.677   5.645  0.0653  0.1364 -0.1957
 3522SOL    HW122025   1.662   2.756   5.680 -1.8062 -0.7973 -0.3265
 3522SOL    HW222026   1.756   2.644   5.719 -1.3505  1.9671  1.6232
 3523SOL     OW22027   1.298   0.687   4.134 -0.3388  0.1484  0.1967
 3523SOL    HW122028   1.205   0.708   4.124 -0.6846 -1.3774  0.1945
 3523SOL    HW222029   1.306   0.707   4.227 -1.4496  0.3299  0.2482
 3524SOL     OW22030   1.971   2.347   0.387 -1.1077  0.1551 -0.1718
 3524SOL    HW122031   1.988   2.422   0.329 -2.3687  0.9688  0.5099
 3524SOL    HW222032   2.061   2.314   0.395 -0.1856  2.4680 -0.7788
 3525SOL     OW22033   0.644   4.209   5.368  0.0698 -0.3051  0.0709
 3525SOL    HW122034   0.557   4.238   5.394 -0.2289 -2.7860  1.8550
 3525SOL    HW222035   0.629   4.134   5.310  0.0168 -0.5363  0.3837
 3526SOL     OW22036   1.894   1.915   2.214 -0.3434 -0.5809 -0.0917
 3526SOL    HW122037   1.860   1.891   2.127 -0.1218 -0.2388 -0.2736
 3526SOL    HW222038   1.811   1.946   2.250  0.0178  1.2546 -0.8403
 3527SOL     OW22039   1.280   4.184   8.035 -0.3484 -0.4999 -0.1976
 3527SOL    HW122040   1.248   4.229   8.113  1.3466  2.1639 -1.0226
 3527SOL    HW222041   1.218   4.230   7.979  0.7375 -0.8661 -1.7001
 3528SOL     OW22042   2.999   3.937   2.278 -0.0676 -0.0152  0.3008
 3528SOL    HW122043   3.055   3.984   2.216  0.0117 -0.9795 -0.3705
 3528SOL    HW222044   3.030   3.846   2.270  0.7863  0.1445  1.8015
 3529SOL     OW22045   1.676   4.326   3.077  0.3851  0.0456 -0.0311
 3529SOL    HW122046   1.666   4.291   3.166 -0.5155 -1.1262 -0.5896
 3529SOL    HW222047   1.742   4.269   3.036  1.4748  0.8002  0.6767
 3530SOL     OW22048   1.284   4.470   5.472  0.2483 -0.0140  0.0513
 3530SOL    HW122049   1.265   4.377   5.482 -1.7343  0.4736  0.8342
 3530SOL    HW222050   1.256   4.510   5.555  3.3122  0.4862  0.8456
 3531SOL     OW22051   3.289   3.395  16.101 -0.0756 -0.4323 -0.7579
 3531SOL    HW122052   3.245   3.467  16.055  1.8889 -0.8015 -3.1710
 3531SOL    HW222053   3.317   3.337  16.031 -1.9842  1.3762 -3.0187
 3532SOL     OW22054   4.378   3.043   8.373 -0.8618  0.3375 -0.1946
 3532SOL    HW122055   4.404   2.995   8.295  0.3347  2.6209 -1.1995
 3532SOL    HW222056   4.332   3.117   8.333  0.4189  2.0254  1.4032
 3533SOL     OW22057   4.089   2.421   9.255  0.0748  0.0821 -0.3425
 3533SOL    HW122058   4.111   2.413   9.162 -3.7236  0.1571 -1.2763
 3533SOL    HW222059   4.019   2.356   9.264  0.7776 -0.6668 -0.3358
 3534SOL     OW22060   1.520   2.670   4.949  0.4580  0.1156  0.6095
 3534SOL    HW122061   1.566   2.646   4.868 -2.0051 -1.4727 -0.3255
 3534SOL    HW222062   1.471   2.745   4.915 -0.6354 -0.8729 -0.0116
 3535SOL     OW22063   2.958   0.337   7.994 -0.2153  0.0583 -0.5411
 3535SOL    HW122064   2.876   0.294   7.970  0.7386 -2.5298  0.9193
 3535SOL    HW222065   3.017   0.262   7.995 -0.4266 -0.0649  2.8564
 3536SOL     OW22066   2.927   1.594   3.477 -0.3200 -0.2251 -0.1288
 3536SOL    HW122067   2.840   1.585   3.515 -1.0516 -4.5820 -2.7119
 3536SOL    HW222068   2.916   1.567   3.386  4.4541 -1.3033 -0.3604
 3537SOL     OW22069   0.667   2.019   8.445  0.4193 -0.6002 -0.0850
 3537SOL    HW122070   0.705   1.981   8.366  0.4558 -2.4061  0.7925
 3537SOL    HW222071   0.683   1.947   8.507 -1.9469 -0.5914  0.5468
 3538SOL     OW22072   1.343   0.302   7.141  0.0014  0.3092 -0.1309
 3538SOL    HW122073   1.343   0.311   7.236 -1.8334 -0.3972 -0.0714
 3538SOL    HW222074   1.429   0.340   7.125 -0.0672 -0.1509 -1.6042
 3539SOL     OW22075   2.442   3.442  11.297  0.0349  0.4904 -0.6771
 3539SOL    HW122076   2.529   3.470  11.326 -0.6850 -0.2208  2.2009
 3539SOL    HW222077   2.382   3.517  11.303 -2.1710 -1.4098  1.1858
 3540SOL     OW22078   4.004   2.217   5.725 -0.4793  0.4637 -0.0430
 3540SOL    HW122079   3.994   2.306   5.758 -1.8442  0.9074 -1.6498
 3540SOL    HW222080   3.966   2.169   5.799 -2.1421  1.2832 -0.3656
 3541SOL     OW22081   1.667   2.007   2.353  0.7336 -0.4583  0.0839
 3541SOL    HW122082   1.587   2.057   2.370  3.5884  3.0358  3.1092
 3541SOL    HW222083   1.642   1.921   2.387 -3.8827  0.2657 -1.3435
 3542SOL     OW22084   4.191   1.721   1.715  0.9465 -0.0625 -0.6646
 3542SOL    HW122085   4.110   1.679   1.746  1.3362  0.7043  1.4162
 3542SOL    HW222086   4.244   1.705   1.793 -2.9873  2.6726  2.5514
 3543SOL     OW22087   1.954   2.231  16.950  0.4938 -0.4399  0.1834
 3543SOL    HW122088   1.947   2.160  17.014 -0.0801 -2.2278 -1.8763
 3543SOL    HW222089   1.996   2.294  17.010 -1.7128  1.2303 -0.0298
 3544SOL     OW22090   1.052   4.494   1.500 -0.0092  0.7614 -0.0283
 3544SOL    HW122091   1.043   4.429   1.430  0.7256  0.9376 -0.2858
 3544SOL    HW222092   1.023   4.575   1.459  0.0111  1.6950  1.8051
 3545SOL     OW22093   3.855   0.144   8.054  1.0760  0.1627  0.2686
 3545SOL    HW122094   3.834   0.137   8.147  1.3205 -0.2070  0.2940
 3545SOL    HW222095   3.857   0.053   8.027 -0.4813  0.5583 -1.1700
 3546SOL     OW22096   4.218   1.491   3.092  0.1837  0.0505  0.1976
 3546SOL    HW122097   4.210   1.520   3.001 -0.9873 -2.9058 -0.6447
 3546SOL    HW222098   4.313   1.493   3.107  0.6831 -1.0305 -2.8392
 3547SOL     OW22099   4.190   3.199   7.076  0.1246  0.2126 -0.1806
 3547SOL    HW122100   4.153   3.272   7.124  1.5597  1.1819 -0.5332
 3547SOL    HW222101   4.225   3.149   7.150 -1.2912 -0.4133  0.0574
 3548SOL     OW22102   4.583   3.232  14.984 -0.2297 -0.0648 -0.1331
 3548SOL    HW122103   4.624   3.146  14.984 -1.3650 -0.6006 -0.3061
 3548SOL    HW222104   4.511   3.223  14.922 -2.1292  0.7094  1.9496
 3549SOL     OW22105   3.678   3.046   8.263  1.0050  0.0464  0.1004
 3549SOL    HW122106   3.743   3.112   8.289  1.8888 -0.9204  0.3414
 3549SOL    HW222107   3.728   2.965   8.258 -0.9617 -1.1739  0.4877
 3550SOL     OW22108   0.419   0.498   6.108  0.6661  0.4721  0.1832
 3550SOL    HW122109   0.458   0.522   6.192  0.1250  3.0859 -0.3063
 3550SOL    HW222110   0.435   0.584   6.069  1.8540 -0.1926 -0.8104
 3551SOL     OW22111   2.461   3.543   9.342 -0.1938  0.3915  0.7983
 3551SOL    HW122112   2.449   3.559   9.436 -0.9359  1.1033  0.5771
 3551SOL    HW222113   2.515   3.617   9.315 -1.2288  0.1932 -1.7839
 3552SOL     OW22114   2.801   4.706   8.543  0.2018 -0.4522 -0.2721
 3552SOL    HW122115   2.872   4.668   8.491 -0.5481 -2.6107  0.3120
 3552SOL    HW222116   2.729   4.651   8.514  0.6071 -0.6849 -0.8525
 3553SOL     OW22117   4.327   3.096   4.203 -0.2693 -0.0248  0.1145
 3553SOL    HW122118   4.400   3.083   4.263 -0.0595  0.6899  0.0167
 3553SOL    HW222119   4.338   3.017   4.150 -1.3000 -0.9148  1.2357
 3554SOL     OW22120   4.711   3.845   8.955 -1.1732  0.3070 -0.4448
 3554SOL    HW122121   4.619   3.822   8.943 -1.1103  0.2130 -0.7573
 3554SOL    HW222122   0.002   3.856   9.049 -0.0936  0.5075 -0.6011
 3555SOL     OW22123   1.334   1.632   5.427  0.1868  0.2715 -0.8697
 3555SOL    HW122124   1.352   1.550   5.472 -1.1621  1.4087  1.7497
 3555SOL    HW222125   1.322   1.594   5.340  2.7068 -2.6668  0.0771
 3556SOL     OW22126   1.767   3.735  11.899  0.3479 -0.3738 -0.9491
 3556SOL    HW122127   1.794   3.699  11.984  0.9995 -0.9380 -1.3890
 3556SOL    HW222128   1.737   3.822  11.925  1.5754 -0.4457  0.7247
 3557SOL     OW22129   3.833   2.747   5.236  0.2922  0.2698  0.0784
 3557SOL    HW122130   3.775   2.822   5.250 -0.2992  0.0796 -1.2827
 3557SOL    HW222131   3.917   2.790   5.220  1.2229 -1.5846  0.0081
 3558SOL     OW22132   1.122   2.755  13.701 -0.6819  0.0702 -0.5141
 3558SOL    HW122133   1.035   2.784  13.729  0.2147  1.2184  1.1023
 3558SOL    HW222134   1.130   2.820  13.631 -0.4741 -1.1589 -1.6265
 3559SOL     OW22135   3.432   0.220   2.908  0.5311 -0.4334  0.2601
 3559SOL    HW122136   3.479   0.212   2.825 -0.1668 -0.3877 -0.1363
 3559SOL    HW222137   3.462   0.141   2.953  2.0679 -1.2618 -2.2076
 3560SOL     OW22138   2.634   2.099   7.917 -0.8335  0.2742 -0.0072
 3560SOL    HW122139   2.643   2.046   7.838 -1.2368 -1.4607  1.1280
 3560SOL    HW222140   2.548   2.141   7.911 -1.2175 -0.2902  1.6014
 3561SOL     OW22141   0.800   0.618   5.610  0.3646 -0.5137 -0.0188
 3561SOL    HW122142   0.733   0.671   5.566 -0.5894 -0.7872  1.1356
 3561SOL    HW222143   0.756   0.561   5.672 -1.1228  0.0778 -0.5189
 3562SOL     OW22144   2.346   2.896  13.110  0.0427 -0.5512  0.6718
 3562SOL    HW122145   2.280   2.874  13.044  3.0614 -2.5155 -1.7018
 3562SOL    HW222146   2.422   2.867  13.060  0.1775  0.7843  0.1226
 3563SOL     OW22147   1.763   4.695   9.734  0.0027 -0.1409  0.0127
 3563SOL    HW122148   1.763   4.609   9.693 -1.1712 -0.2239  0.1637
 3563SOL    HW222149   1.789   0.033   9.663 -2.0101  1.1236  0.3092
 3564SOL     OW22150   0.250   4.460  12.261 -0.2922 -0.1039 -0.4130
 3564SOL    HW122151   0.165   4.419  12.276  0.4132 -1.7080 -0.8044
 3564SOL    HW222152   0.247   4.524  12.331  1.0777 -1.5444  0.9740
 3565SOL     OW22153   0.834   1.315   5.368 -0.0738 -1.1034 -0.1802
 3565SOL    HW122154   0.864   1.406   5.364 -1.4247 -0.6983 -1.1572
 3565SOL    HW222155   0.764   1.314   5.302 -1.6284  1.5297  1.4141
 3566SOL     OW22156   2.322   2.227   6.921 -0.1133 -0.3162  0.2326
 3566SOL    HW122157   2.362   2.298   6.871  0.2003 -0.5634  0.1330
 3566SOL    HW222158   2.402   2.188   6.955 -0.4316  0.2515  1.6371
 3567SOL     OW22159   3.956   2.824   1.415 -0.0682  0.4051  0.2332
 3567SOL    HW122160   3.861   2.827   1.399  0.3064  2.1791 -1.6813
 3567SOL    HW222161   3.974   2.881   1.340 -2.9790  3.0432  1.5312
 3568SOL     OW22162   2.672   3.569   4.508 -0.2148  0.3235 -0.2790
 3568SOL    HW122163   2.732   3.642   4.497  3.0308 -2.1330  1.2027
 3568SOL    HW222164   2.650   3.569   4.601 -2.8202 -1.1438 -0.8844
 3569SOL     OW22165   4.606   4.048   3.882  0.3117 -0.1177  0.5060
 3569SOL    HW122166   4.636   4.034   3.792  2.2109 -2.2625  1.4744
 3569SOL    HW222167   4.544   4.120   3.874  0.2496  0.0201  2.2406
 3570SOL     OW22168   4.407   4.694  13.033 -0.8695 -0.3355 -0.0343
 3570SOL    HW122169   4.475   4.629  13.018  0.0695  0.3086  1.4962
 3570SOL    HW222170   4.404   4.704  13.128 -0.9018 -0.7389  0.0070
 3571SOL     OW22171   0.016   1.687   7.971 -0.6517 -0.7213  0.1774
 3571SOL    HW122172   0.081   1.643   8.025  1.9656  0.4979 -1.9796
 3571SOL    HW222173   4.681   1.721   8.041  0.1597  2.2064 -0.6223
 3572SOL     OW22174   0.270   3.861   9.847 -0.2631 -0.7442  0.1191
 3572SOL    HW122175   0.222   3.816   9.778 -0.1761  0.2698 -0.5896
 3572SOL    HW222176   0.364   3.853   9.834 -0.2871 -0.2445 -0.3632
 3573SOL     OW22177   3.365   2.109   7.181  0.0986  0.4152 -0.6054
 3573SOL    HW122178   3.316   2.156   7.248 -1.4959 -1.6558 -0.3455
 3573SOL    HW222179   3.299   2.050   7.145 -0.6689  0.4932  0.6976
 3574SOL     OW22180   1.246   3.453   0.932  0.3398  0.3418 -0.0485
 3574SOL    HW122181   1.303   3.463   1.008  1.0773  1.4594 -0.7534
 3574SOL    HW222182   1.307   3.410   0.872 -1.2272 -0.7458 -0.8693
 3575SOL     OW22183   1.725   2.382   3.946  0.0739  0.5136 -1.2063
 3575SOL    HW122184   1.803   2.347   3.904 -0.0399  0.4834 -1.3902
 3575SOL    HW222185   1.667   2.305   3.947  0.7012  0.0419  0.3531
 3576SOL     OW22186   4.589   1.189   5.393 -0.4761  0.4785 -0.0350
 3576SOL    HW122187   4.606   1.213   5.484 -0.9271  0.2239  0.1120
 3576SOL    HW222188   4.604   1.095   5.395 -2.9365  0.0986  0.1611
 3577SOL     OW22189   2.534   3.986   7.169 -0.2646 -0.4162  0.3281
 3577SOL    HW122190   2.456   4.041   7.178 -0.5247 -0.9711  1.4998
 3577SOL    HW222191   2.556   3.964   7.260  2.0359  0.4681 -0.0245
 3578SOL     OW22192   3.185   2.604   1.735 -0.0240  0.1336 -0.9347
 3578SOL    HW122193   3.101   2.570   1.764 -0.2701  0.5069 -1.2205
 3578SOL    HW222194   3.234   2.522   1.745  0.8079  0.6734 -0.5402
 3579SOL     OW22195   1.910   2.030   3.094 -0.4346  0.1476 -0.0057
 3579SOL    HW122196   1.839   1.970   3.115  1.2130 -1.8376 -0.1177
 3579SOL    HW222197   1.871   2.115   3.114  1.8983  0.3405  3.6458
 3580SOL     OW22198   0.022   4.292  12.415  0.2797  0.2674  0.3347
 3580SOL    HW122199   0.071   4.356  12.466 -2.5858  1.4440  1.6149
 3580SOL    HW222200   0.080   4.219  12.394  3.2649  2.9232 -0.5356
 3581SOL     OW22201   0.749   1.308   7.949 -0.2243 -0.3212 -0.4585
 3581SOL    HW122202   0.667   1.357   7.940 -1.3616 -2.1317  0.0194
 3581SOL    HW222203   0.716   1.221   7.925  1.6778 -1.6889  1.8728
 3582SOL     OW22204   2.804   2.111  10.362 -0.0106  1.0550  0.1123
 3582SOL    HW122205   2.851   2.083  10.441 -3.3074 -3.2241  0.5522
 3582SOL    HW222206   2.755   2.180  10.408  0.9319  2.3684 -0.8389
 3583SOL     OW22207   1.304   0.641  12.310  0.3895  0.0339 -0.4537
 3583SOL    HW122208   1.324   0.674  12.223  2.1827 -0.2341 -0.1541
 3583SOL    HW222209   1.301   0.718  12.368  2.1714 -0.3857  0.2161
 3584SOL     OW22210   3.355   4.123  12.404  0.0886 -0.2720  0.0811
 3584SOL    HW122211   3.300   4.163  12.336 -0.4541 -0.7278  0.2541
 3584SOL    HW222212   3.347   4.179  12.481  2.3373 -0.4023  0.4315
 3585SOL     OW22213   0.125   4.011   7.950  0.1868  0.0154  0.1276
 3585SOL    HW122214   0.110   4.071   7.876 -0.2858  0.8224  0.8704
 3585SOL    HW222215   0.057   3.953   7.917  0.4925 -0.2625 -0.0126
 3586SOL     OW22216   4.175   2.705  16.061 -0.3760  0.4562 -0.2980
 3586SOL    HW122217   4.171   2.791  16.019  0.0878  1.1675  1.1106
 3586SOL    HW222218   4.185   2.644  15.988 -1.4477  0.8321 -0.7612
 3587SOL     OW22219   2.169   1.782   6.910 -0.1803 -0.2701  0.5955
 3587SOL    HW122220   2.112   1.716   6.869 -0.4045 -0.4905  1.2564
 3587SOL    HW222221   2.136   1.779   7.001 -2.0262  0.2597 -0.0433
 3588SOL     OW22222   3.013   3.079   2.238 -0.3336 -0.6060  0.4095
 3588SOL    HW122223   2.981   3.043   2.321 -2.2904  0.0635 -0.0695
 3588SOL    HW222224   3.056   2.998   2.209  0.4861  0.2702 -0.7776
 3589SOL     OW22225   2.982   1.818  17.644  0.0051 -0.4881 -0.1863
 3589SOL    HW122226   2.989   1.890   0.022  1.0905 -0.0301 -0.8328
 3589SOL    HW222227   2.992   1.851  17.555 -0.6285  0.9462  0.2579
 3590SOL     OW22228   2.552   0.017   5.348  0.1236  0.1725  0.2216
 3590SOL    HW122229   2.564   0.064   5.265 -0.4561 -0.4777 -0.2357
 3590SOL    HW222230   2.495   4.666   5.318 -0.7920  0.5700  0.9816
 3591SOL     OW22231   3.023   4.211  11.466  0.1916 -0.0682  0.0561
 3591SOL    HW122232   3.074   4.136  11.435  1.0300 -0.1057  1.5277
 3591SOL    HW222233   3.004   4.256  11.383  1.2900 -0.2428 -0.2880
 3592SOL     OW22234   1.670   1.510  11.949 -0.2418 -0.1748 -0.2801
 3592SOL    HW122235   1.659   1.597  11.909  0.3499  0.2371  0.4639
 3592SOL    HW222236   1.578   1.493  11.971 -0.6897 -0.8668 -2.6519
 3593SOL     OW22237   3.951   2.495   3.935 -0.2006 -0.1970  0.3230
 3593SOL    HW122238   4.035   2.460   3.905 -0.3476  0.2845 -0.6487
 3593SOL    HW222239   3.898   2.421   3.906 -1.5383  1.2834 -1.0442
 3594SOL     OW22240   3.977   3.941   1.828  0.0256  0.8208 -0.2270
 3594SOL    HW122241   3.929   4.013   1.868  1.6942 -0.4463  4.0894
 3594SOL    HW222242   3.910   3.874   1.813  0.3111  0.1652  1.4824
 3595SOL     OW22243   4.682   2.570   6.010  0.0597 -0.1443 -0.1128
 3595SOL    HW122244   0.019   2.620   5.952  0.5857 -0.0319  0.5150
 3595SOL    HW222245   0.023   2.547   6.080 -2.4466 -2.0095  1.4579
 3596SOL     OW22246   2.266   4.370   3.737 -0.0335  0.3515  0.0655
 3596SOL    HW122247   2.172   4.354   3.741  0.2245 -1.0174  0.8811
 3596SOL    HW222248   2.299   4.286   3.770  0.4646  0.6003  0.1931
 3597SOL     OW22249   2.189   0.460   5.664 -0.6696 -0.2635 -0.2584
 3597SOL    HW122250   2.157   0.376   5.632  0.5288 -1.6871  2.3111
 3597SOL    HW222251   2.107   0.511   5.661 -1.5589 -1.7891 -1.7849
 3598SOL     OW22252   0.598   4.700   1.274  0.5346 -0.1216 -0.2222
 3598SOL    HW122253   0.554   4.715   1.358 -1.1974  0.5002 -1.2395
 3598SOL    HW222254   0.523   4.673   1.221 -0.0485  0.4487  0.3127
 3599SOL     OW22255   0.634   0.237   7.735  0.0273 -0.1684  0.0968
 3599SOL    HW122256   0.603   0.148   7.720  0.0347 -0.4553  1.7620
 3599SOL    HW222257   0.688   0.249   7.657  1.8289  0.7443  1.4840
 3600SOL     OW22258   4.251   1.714  14.379 -0.7576 -0.5056  0.9665
 3600SOL    HW122259   4.315   1.643  14.379 -0.6642 -0.4038 -2.0752
 3600SOL    HW222260   4.245   1.721  14.475 -1.0206  2.8295  0.6871
 3601SOL     OW22261   0.571   4.679   8.474  0.5366  0.7396 -0.1130
 3601SOL    HW122262   0.509   0.015   8.520  0.2846 -1.3485  2.1479
 3601SOL    HW222263   0.554   4.596   8.518 -1.7136  0.9987 -0.4748
 3602SOL     OW22264   3.236   1.970  11.681 -0.4390  0.4100 -0.0716
 3602SOL    HW122265   3.188   2.034  11.733  1.3862  1.1584  0.7141
 3602SOL    HW222266   3.213   1.889  11.726 -0.6919  1.5270  1.8252
 3603SOL     OW22267   2.879   2.246  17.547 -0.4193  0.1005 -0.1916
 3603SOL    HW122268   2.945   2.212  17.487 -0.3126 -2.0288  1.1125
 3603SOL    HW222269   2.823   2.168  17.542  0.4569 -0.5264 -0.1387
 3604SOL     OW22270   3.486   1.577   2.908 -0.3719  0.4781  0.0225
 3604SOL    HW122271   3.394   1.581   2.881  0.2480  2.6991 -1.8617
 3604SOL    HW222272   3.481   1.526   2.988  0.7664 -0.7745 -0.6952
 3605SOL     OW22273   1.156   1.041   9.142 -0.5350  0.1063 -0.1345
 3605SOL    HW122274   1.109   1.056   9.224 -0.0332 -4.2772  0.9410
 3605SOL    HW222275   1.096   0.982   9.096  0.1984 -1.0257  0.3558
 3606SOL     OW22276   4.283   2.472  11.026  0.5601  0.0634 -0.1513
 3606SOL    HW122277   4.319   2.508  11.107  1.4839  1.8136 -1.3407
 3606SOL    HW222278   4.360   2.431  10.987 -0.0100 -1.0407 -0.1040
 3607SOL     OW22279   4.176   2.376  14.516 -0.0754 -0.2442  0.6188
 3607SOL    HW122280   4.247   2.423  14.559 -0.1595  0.9192 -0.5222
 3607SOL    HW222281   4.172   2.306  14.581 -0.1593 -0.8243 -0.0116
 3608SOL     OW22282   2.765   0.444   6.349  0.8430 -0.2363 -0.0548
 3608SOL    HW122283   2.727   0.379   6.408 -1.1611  0.1393 -0.9235
 3608SOL    HW222284   2.701   0.427   6.280 -1.3790 -0.0296  1.9221
 3609SOL     OW22285   3.485   1.685   5.421  0.3569 -0.4699 -0.4010
 3609SOL    HW122286   3.468   1.777   5.445  1.0000  0.4546 -3.5493
 3609SOL    HW222287   3.394   1.676   5.393  0.0333 -0.8278  0.7576
 3610SOL     OW22288   1.863   3.691  10.760 -0.8956 -0.0453 -0.1346
 3610SOL    HW122289   1.843   3.783  10.776  0.9237  0.6298 -1.8750
 3610SOL    HW222290   1.817   3.680  10.677 -1.0575 -1.8436  0.1894
 3611SOL     OW22291   0.349   1.361   6.011  0.3805 -0.0482 -0.1719
 3611SOL    HW122292   0.375   1.269   6.000  0.9394  0.2918 -1.6513
 3611SOL    HW222293   0.367   1.399   5.925 -0.9160  2.5197  0.6965
 3612SOL     OW22294   4.677   0.214   1.493 -0.1360  0.5690  0.1380
 3612SOL    HW122295   4.611   0.163   1.446  2.0392 -1.0876 -1.0709
 3612SOL    HW222296   0.022   0.228   1.426 -1.0114 -1.8247 -1.2143
 3613SOL     OW22297   4.099   3.220   6.191 -0.1355  0.1035  0.1160
 3613SOL    HW122298   4.065   3.289   6.248  0.9725  0.4501  0.3593
 3613SOL    HW222299   4.189   3.252   6.202  0.3764 -1.3816  0.2697
 3614SOL     OW22300   1.107   3.934   7.134 -0.0128  0.1900  0.4094
 3614SOL    HW122301   1.088   3.841   7.131 -0.0011  0.1814  0.6114
 3614SOL    HW222302   1.102   3.953   7.228  1.3608 -0.4885  0.6159
 3615SOL     OW22303   3.547   2.674   4.821  0.2394 -0.9270  0.5675
 3615SOL    HW122304   3.512   2.716   4.743 -0.7433 -0.2171  1.4021
 3615SOL    HW222305   3.484   2.603   4.834  1.1128 -1.4223  2.1557
 3616SOL     OW22306   1.646   0.003   7.865 -0.3131 -0.1868 -0.0959
 3616SOL    HW122307   1.698   4.713   7.786 -0.1379  0.5400 -0.0777
 3616SOL    HW222308   1.699   0.068   7.911  1.2704 -1.0672 -0.6673
 3617SOL     OW22309   0.453   4.661  16.425 -0.3504  0.3755 -0.0293
 3617SOL    HW122310   0.503   0.019  16.404  0.8015 -0.3480 -0.0033
 3617SOL    HW222311   0.500   4.588  16.386 -0.9752  0.1896 -0.4354
 3618SOL     OW22312   1.973   2.635  10.518  0.0024  0.1213 -0.0732
 3618SOL    HW122313   1.990   2.723  10.485 -0.6427 -0.1280 -1.0643
 3618SOL    HW222314   1.969   2.588  10.435  1.6285 -0.1002 -0.0161
 3619SOL     OW22315   3.772   1.642   2.820 -0.0684  0.2764  0.3852
 3619SOL    HW122316   3.679   1.657   2.833 -0.3427 -0.3294 -0.8368
 3619SOL    HW222317   3.801   1.565   2.869 -1.1861 -0.9902 -0.9544
 3620SOL     OW22318   3.175   1.507   3.602  0.5916  0.0014  0.3214
 3620SOL    HW122319   3.162   1.495   3.696  0.0757  0.5650  0.3165
 3620SOL    HW222320   3.119   1.582   3.581 -0.6552 -0.5254  1.7901
 3621SOL     OW22321   4.017   2.541  16.455 -0.2423  0.3039 -0.3579
 3621SOL    HW122322   3.965   2.465  16.429  1.2576 -0.9103  0.2536
 3621SOL    HW222323   3.996   2.556  16.547 -1.1052  0.9930 -0.6596
 3622SOL     OW22324   4.060   2.716   2.225 -0.1777  0.6778 -0.1082
 3622SOL    HW122325   4.059   2.637   2.170  1.1296  1.1802 -0.8579
 3622SOL    HW222326   4.115   2.780   2.179  2.8504 -1.0241  1.1158
 3623SOL     OW22327   3.825   1.489   5.952  0.1437  0.5137 -0.3165
 3623SOL    HW122328   3.750   1.548   5.944  0.7476  1.8398  3.9296
 3623SOL    HW222329   3.844   1.490   6.046  3.1892 -1.4483 -0.9082
 3624SOL     OW22330   0.434   4.161   6.782  0.1496  0.5315  0.7269
 3624SOL    HW122331   0.357   4.145   6.836 -0.6604  1.2702 -0.2199
 3624SOL    HW222332   0.449   4.080   6.733  0.0568  0.2636  1.1385
 3625SOL     OW22333   3.535   4.575   3.717  0.2835  0.0675 -0.0223
 3625SOL    HW122334   3.579   4.582   3.632  0.6931  3.1966  0.4259
 3625SOL    HW222335   3.506   4.484   3.721 -1.2660  0.5625  0.1756
 3626SOL     OW22336   3.768   2.700   4.521  0.2502  0.4228  0.2239
 3626SOL    HW122337   3.712   2.682   4.445 -0.5352 -0.2368  0.9468
 3626SOL    HW222338   3.801   2.788   4.505 -0.5970  0.5528 -0.8921
 3627SOL     OW22339   2.550   3.714  17.574 -0.3598 -0.1515 -0.1906
 3627SOL    HW122340   2.572   3.801  17.607  0.5430 -0.2432 -0.5449
 3627SOL    HW222341   2.469   3.699  17.623 -0.6620  3.7620  0.4563
 3628SOL     OW22342   4.650   2.079   8.857 -0.6826 -0.3749 -0.0289
 3628SOL    HW122343   4.619   2.031   8.934 -2.9481 -1.0637 -1.3930
 3628SOL    HW222344   4.663   2.163   8.901 -2.3434 -0.4032  0.4749
 3629SOL     OW22345   1.507   0.331  11.927  0.4948  0.4961  0.4186
 3629SOL    HW122346   1.425   0.378  11.939 -2.7418 -4.8564 -0.6708
 3629SOL    HW222347   1.508   0.271  12.002 -0.1357  0.0619  0.0742
 3630SOL     OW22348   3.693   3.653   7.128 -0.0139 -0.2438 -0.1018
 3630SOL    HW122349   3.706   3.568   7.171  1.3453 -0.3267 -0.6720
 3630SOL    HW222350   3.664   3.616   7.045  0.1355  1.8651 -1.0852
 3631SOL     OW22351   3.198   3.386   4.455 -0.2994  0.0810 -0.3110
 3631SOL    HW122352   3.169   3.306   4.410 -1.7828 -1.2060  2.9222
 3631SOL    HW222353   3.120   3.437   4.477  0.0953  0.2345  0.7276
 3632SOL     OW22354   4.153   0.094  11.369  0.9899 -0.3313 -0.0256
 3632SOL    HW122355   4.153   0.022  11.432  0.9659  0.4324  0.8430
 3632SOL    HW222356   4.212   0.158  11.408  3.5800 -2.3654 -0.6181
 3633SOL     OW22357   2.417   3.458   4.446  0.1126 -0.0345 -0.4123
 3633SOL    HW122358   2.384   3.533   4.398  0.7298 -0.3603 -1.3530
 3633SOL    HW222359   2.503   3.483   4.481  0.9211 -3.8223  0.3221
 3634SOL     OW22360   1.214   3.454   6.292  0.2781 -0.8943 -0.1022
 3634SOL    HW122361   1.296   3.405   6.288  1.0616  0.2088  3.0649
 3634SOL    HW222362   1.250   3.530   6.337 -2.9022  0.2888  0.4531
 3635SOL     OW22363   2.921   1.819   4.454  0.5959 -0.6264 -0.5398
 3635SOL    HW122364   2.856   1.890   4.456  2.8690  1.4629 -1.4311
 3635SOL    HW222365   2.978   1.843   4.528  0.5150  1.2425 -1.0833
 3636SOL     OW22366   4.381   2.120   2.218  0.2250  0.4085  0.5192
 3636SOL    HW122367   4.304   2.066   2.236 -0.9653  1.6407 -0.8895
 3636SOL    HW222368   4.334   2.203   2.212 -1.4697 -0.6637 -0.9433
 3637SOL     OW22369   2.645   1.498   2.690 -0.3123 -0.1517  0.0262
 3637SOL    HW122370   2.594   1.567   2.646 -1.0036  1.4880  3.4360
 3637SOL    HW222371   2.733   1.528   2.666  0.4246 -1.0437  1.6532
 3638SOL     OW22372   0.903   1.862   1.986  0.4297  0.0945 -0.1708
 3638SOL    HW122373   0.923   1.773   1.959  1.3582 -0.4790  2.4016
 3638SOL    HW222374   0.939   1.918   1.917 -0.8551 -0.7202 -1.4903
 3639SOL     OW22375   1.448   4.032  15.301  0.1746 -0.2600  0.4966
 3639SOL    HW122376   1.534   4.009  15.337 -1.3424 -4.2130  1.6250
 3639SOL    HW222377   1.458   3.982  15.221  1.4589  2.4240 -1.0269
 3640SOL     OW22378   1.904   0.064   7.822 -0.0351  0.0157  0.5384
 3640SOL    HW122379   1.918   4.692   7.843  0.9769 -0.3468 -1.6710
 3640SOL    HW222380   1.964   0.104   7.885  0.6503 -2.4997  1.4773
 3641SOL     OW22381   1.249   3.536   2.008  0.1690 -0.1760  0.1217
 3641SOL    HW122382   1.160   3.523   1.975  0.2003  0.8495 -0.3461
 3641SOL    HW222383   1.284   3.450   1.984  0.9678  0.3506 -0.6205
 3642SOL     OW22384   1.401   3.429   7.439  0.4810 -0.5268 -0.2645
 3642SOL    HW122385   1.495   3.424   7.452  0.7012  0.3657 -1.5361
 3642SOL    HW222386   1.375   3.496   7.502 -1.3869 -0.9422 -0.5762
 3643SOL     OW22387   3.761   2.438  12.342  0.2368  0.1282 -0.1976
 3643SOL    HW122388   3.772   2.508  12.406  0.1402 -1.6898  1.8032
 3643SOL    HW222389   3.833   2.382  12.371 -0.5045 -0.2332  0.9730
 3644SOL     OW22390   0.300   3.733   3.423  0.0538  0.0513  0.4222
 3644SOL    HW122391   0.230   3.731   3.357  0.9067  0.9149 -0.5167
 3644SOL    HW222392   0.345   3.815   3.405  0.8509 -0.3948  0.4123
 3645SOL     OW22393   2.196   3.249   5.123 -0.0339 -0.3123  0.1313
 3645SOL    HW122394   2.270   3.260   5.183  0.2528 -0.3782 -0.2042
 3645SOL    HW222395   2.203   3.327   5.067 -0.0342  0.6145  1.4194
 3646SOL     OW22396   3.636   1.095   9.323 -0.2380  0.1402 -0.1456
 3646SOL    HW122397   3.691   1.093   9.245  0.7993 -0.2953  0.5963
 3646SOL    HW222398   3.616   1.188   9.329 -0.6027  0.2121 -2.5566
 3647SOL     OW22399   0.845   1.593  11.269 -0.2154  0.0814 -0.1324
 3647SOL    HW122400   0.932   1.613  11.304 -0.1230  0.2350 -0.4501
 3647SOL    HW222401   0.854   1.642  11.188 -2.6975  0.5414 -0.1268
 3648SOL     OW22402   4.197   2.171   7.483 -0.0050 -0.3477 -0.1508
 3648SOL    HW122403   4.170   2.099   7.541 -1.1215 -0.1275 -0.3884
 3648SOL    HW222404   4.270   2.205   7.534  2.1579 -4.1442 -0.7101
 3649SOL     OW22405   0.106   3.957  10.038 -0.2354 -0.1460 -0.1102
 3649SOL    HW122406   0.162   3.935   9.963 -0.3332 -1.6075  0.2496
 3649SOL    HW222407   0.081   4.044  10.007  0.9310  1.0759  2.4510
 3650SOL     OW22408   3.916   1.224   7.759  0.5509  0.3416  0.0575
 3650SOL    HW122409   3.895   1.315   7.782  0.9365  0.1810  1.0330
 3650SOL    HW222410   3.836   1.193   7.717  1.4428 -0.4710 -1.0715
 3651SOL     OW22411   3.109   1.077   3.233 -0.3561  0.2327  0.1941
 3651SOL    HW122412   3.084   1.155   3.183 -0.7831 -0.4382 -0.6369
 3651SOL    HW222413   3.084   1.098   3.323 -0.0559  1.6417 -0.0457
 3652SOL     OW22414   0.748   0.235   8.006 -0.2266  0.4603 -0.2557
 3652SOL    HW122415   0.808   0.309   8.016  1.6271 -0.9410 -0.9414
 3652SOL    HW222416   0.734   0.237   7.911 -2.2447  1.9172  0.0760
 3653SOL     OW22417   0.071   0.955   2.809  0.0332 -0.4374  0.1935
 3653SOL    HW122418   4.700   0.980   2.810 -0.3300 -1.6588 -1.4738
 3653SOL    HW222419   0.071   0.859   2.806  1.7831 -0.5203  3.3045
 3654SOL     OW22420   0.200   3.105   5.086 -0.1200 -0.0793 -0.2217
 3654SOL    HW122421   0.248   3.062   5.015 -1.4436 -1.7332 -0.1245
 3654SOL    HW222422   0.121   3.136   5.041  0.1453 -1.8517 -1.9239
 3655SOL     OW22423   1.426   0.212   3.668 -0.6397  0.6330 -0.1505
 3655SOL    HW122424   1.515   0.248   3.665  0.7812 -2.8079  0.6926
 3655SOL    HW222425   1.376   0.279   3.622 -0.9496 -0.0249 -0.7815
 3656SOL     OW22426   0.471   2.231   4.502  0.2816  0.3137 -0.6844
 3656SOL    HW122427   0.525   2.310   4.492  1.9383 -0.8486 -0.8721
 3656SOL    HW222428   0.531   2.163   4.473 -1.7665 -2.0598  0.7063
 3657SOL     OW22429   0.787   2.990   7.499 -0.0154  0.1683 -0.0453
 3657SOL    HW122430   0.711   2.945   7.463  0.5458 -2.2027  1.7280
 3657SOL    HW222431   0.752   3.078   7.505 -1.9413 -0.5670 -0.4746
 3658SOL     OW22432   2.347   1.358  11.902 -0.1367 -0.0910  0.1290
 3658SOL    HW122433   2.319   1.327  11.816  0.5549 -0.5988  0.0856
 3658SOL    HW222434   2.299   1.289  11.948 -1.2007 -0.0922 -0.9806
 3659SOL     OW22435   1.695   1.447   4.599 -0.1936 -0.5105 -0.0606
 3659SOL    HW122436   1.680   1.367   4.648  0.3298  0.1131  1.1234
 3659SOL    HW222437   1.720   1.512   4.665 -1.5707 -0.4124  0.3422
 3660SOL     OW22438   2.218   4.098   3.808 -0.0187  0.2161  0.0591
 3660SOL    HW122439   2.291   4.082   3.869 -0.1149  1.8946  0.6333
 3660SOL    HW222440   2.142   4.063   3.854 -0.4654  0.6979 -0.3213
 3661SOL     OW22441   3.154   2.287   4.957  0.2994  0.1668  0.0103
 3661SOL    HW122442   3.168   2.301   5.051  1.5339  1.4419 -0.3644
 3661SOL    HW222443   3.069   2.244   4.953  0.6072 -0.6859  2.9103
 3662SOL     OW22444   1.991   1.955   5.028  0.1000 -0.3838 -0.2608
 3662SOL    HW122445   2.076   1.938   4.989 -0.8158  0.4510 -2.6440
 3662SOL    HW222446   1.998   2.048   5.052  0.2291 -0.9666  1.9371
 3663SOL     OW22447   0.878   3.496   3.279 -0.1635  0.4839  0.0183
 3663SOL    HW122448   0.957   3.547   3.262 -0.3615  0.4652 -0.9682
 3663SOL    HW222449   0.858   3.435   3.207  0.8568 -0.8495  0.8750
 3664SOL     OW22450   2.298   2.252   9.143  0.5308 -0.3735 -0.0434
 3664SOL    HW122451   2.341   2.336   9.157 -1.2262  0.4758  0.2490
 3664SOL    HW222452   2.210   2.279   9.169 -0.0433 -1.0357 -1.2847
 3665SOL     OW22453   3.550   3.050   1.866  0.2164 -0.2124  0.1432
 3665SOL    HW122454   3.570   3.025   1.776  2.6246  2.4030 -0.0310
 3665SOL    HW222455   3.529   3.142   1.854  0.1501 -0.2079  0.2933
 3666SOL     OW22456   0.620   2.191   5.177  0.3399 -0.8670  0.1793
 3666SOL    HW122457   0.534   2.233   5.186 -0.4963 -2.1419 -2.0635
 3666SOL    HW222458   0.616   2.131   5.252 -2.4494  1.0102  1.5227
 3667SOL     OW22459   2.123   4.001   8.923 -0.7627  0.3667  0.1671
 3667SOL    HW122460   2.181   4.019   8.849 -1.2921  2.1135  0.1788
 3667SOL    HW222461   2.191   3.998   8.991 -0.4249  1.3381 -0.1343
 3668SOL     OW22462   3.822   2.456  15.384 -0.2763  0.1135 -0.1415
 3668SOL    HW122463   3.766   2.392  15.428  0.7648  1.3390  2.9901
 3668SOL    HW222464   3.764   2.531  15.370  0.3294  0.6750  0.3494
 3669SOL     OW22465   3.201   0.541   4.609  0.2135 -0.0278 -0.0269
 3669SOL    HW122466   3.140   0.614   4.621 -0.4196 -0.5047 -0.3769
 3669SOL    HW222467   3.281   0.581   4.574  0.2000  0.7732  0.8451
 3670SOL     OW22468   2.235   4.678   3.189 -0.1286  0.5222 -0.6066
 3670SOL    HW122469   2.296   4.614   3.152 -0.5903  0.4381 -1.2309
 3670SOL    HW222470   2.236   4.661   3.283  1.3884  1.0345 -0.5211
 3671SOL     OW22471   1.281   2.761  14.781  0.1966  0.0174  0.2398
 3671SOL    HW122472   1.265   2.821  14.708 -1.3016 -0.1732  0.4075
 3671SOL    HW222473   1.315   2.689  14.728 -0.4151  1.1891 -1.7536
 3672SOL     OW22474   4.063   4.710   6.097  0.0358 -0.7724  0.3944
 3672SOL    HW122475   4.131   0.054   6.116  0.2862 -1.0714  0.5215
 3672SOL    HW222476   4.115   4.638   6.061 -0.8739 -1.8006  1.1455
 3673SOL     OW22477   3.990   0.301  12.338  0.3221  0.1467 -0.5877
 3673SOL    HW122478   4.055   0.349  12.390  2.1058 -1.6189 -1.1802
 3673SOL    HW222479   4.003   0.208  12.353 -3.4411 -0.1733  0.7014
 3674SOL     OW22480   3.979   0.119   3.816  0.4932  0.0403  0.3491
 3674SOL    HW122481   3.958   0.048   3.875 -1.0235  0.0115 -0.2388
 3674SOL    HW222482   4.075   0.113   3.816  0.3459 -2.1648 -0.6935
 3675SOL     OW22483   0.841   0.913   3.819 -0.2386  0.0359  0.0352
 3675SOL    HW122484   0.915   0.968   3.844 -0.3390 -0.7473  2.0497
 3675SOL    HW222485   0.808   0.965   3.746  1.5823  1.2487  0.0755
 3676SOL     OW22486   0.091   4.422   8.537 -0.3261 -0.2035 -0.3502
 3676SOL    HW122487   0.096   4.347   8.596 -1.2819 -1.9973 -2.5896
 3676SOL    HW222488   0.003   4.399   8.507 -0.3313 -0.1514 -0.3744
 3677SOL     OW22489   4.215   2.484   1.409 -0.0630 -0.3520  0.2731
 3677SOL    HW122490   4.198   2.568   1.453  0.6786  1.8312 -3.6000
 3677SOL    HW222491   4.246   2.516   1.324 -0.0687  0.7473  0.6876
 3678SOL     OW22492   3.501   1.075   7.457 -0.0925 -0.5885  0.3385
 3678SOL    HW122493   3.586   1.054   7.419 -0.0322  0.1552  0.0649
 3678SOL    HW222494   3.532   1.119   7.536 -2.9035  2.8345 -0.4706
 3679SOL     OW22495   0.017   0.476  16.248  0.5533  0.5943 -0.1458
 3679SOL    HW122496   0.012   0.524  16.165 -1.2645 -0.9977 -0.9379
 3679SOL    HW222497   0.009   0.546  16.313 -0.0532  1.5535 -1.2660
 3680SOL     OW22498   2.216   1.339   4.222  0.1935  0.3678  0.1471
 3680SOL    HW122499   2.206   1.300   4.135  1.9352  0.0971  0.0715
 3680SOL    HW222500   2.134   1.313   4.264  1.1584 -1.5159  0.8277
 3681SOL     OW22501   0.269   2.933   7.438 -0.3584  0.1928 -0.3834
 3681SOL    HW122502   0.221   2.887   7.508 -0.1751  0.6159  0.0234
 3681SOL    HW222503   0.305   3.014   7.474 -2.4374  0.7179  0.5689
 3682SOL     OW22504   2.602   2.904   7.227 -0.0117  0.0379 -0.3493
 3682SOL    HW122505   2.528   2.965   7.232  0.9881  1.3059 -0.9335
 3682SOL    HW222506   2.581   2.837   7.292  1.7495 -0.0392  0.1411
 3683SOL     OW22507   3.675   1.014  14.266 -0.4068  0.0114 -0.1061
 3683SOL    HW122508   3.606   0.963  14.222 -1.9784  2.0249  0.0247
 3683SOL    HW222509   3.642   1.001  14.355  1.1429 -1.2797  0.2784
 3684SOL     OW22510   3.994   3.675   7.176 -0.3821 -0.2120  0.1601
 3684SOL    HW122511   3.937   3.686   7.253  0.6740  0.1161  0.8947
 3684SOL    HW222512   4.064   3.619   7.212  0.4432  0.9904  0.4151
 3685SOL     OW22513   3.200   4.437   3.627  0.8910 -0.0370  0.0654
 3685SOL    HW122514   3.270   4.424   3.691 -0.2318 -0.5845  1.2067
 3685SOL    HW222515   3.252   4.483   3.561 -0.3673  0.9163 -0.2621
 3686SOL     OW22516   4.407   2.527   5.979 -0.8505  0.1893  0.6515
 3686SOL    HW122517   4.397   2.434   5.957  0.2334  0.0353  0.7920
 3686SOL    HW222518   4.502   2.538   5.973 -0.8153 -0.8767 -0.9277
 3687SOL     OW22519   4.598   4.196   6.176  0.2906  0.3090 -0.0919
 3687SOL    HW122520   4.679   4.152   6.149 -1.1327 -1.9003 -0.7793
 3687SOL    HW222521   4.529   4.134   6.152 -0.5714  1.0742  0.4315
 3688SOL     OW22522   2.177   3.223   8.758  0.6741  0.2123  0.2158
 3688SOL    HW122523   2.110   3.280   8.797 -0.2007 -1.3235  0.9520
 3688SOL    HW222524   2.124   3.152   8.723 -0.5885  0.3969  1.7650
 3689SOL     OW22525   1.606   3.092  15.038 -0.3003 -0.3995 -0.0118
 3689SOL    HW122526   1.569   3.010  15.004  0.6761 -0.5419 -0.7271
 3689SOL    HW222527   1.540   3.153  15.006  1.1943  1.6209  0.7708
 3690SOL     OW22528   3.632   2.240  15.873 -0.2023 -0.1941 -0.3477
 3690SOL    HW122529   3.550   2.225  15.826 -2.1513  0.6596  2.7851
 3690SOL    HW222530   3.683   2.162  15.848 -0.5783 -0.3090 -0.7545
 3691SOL     OW22531   1.687   0.694   0.632  0.1047 -0.1172 -0.1778
 3691SOL    HW122532   1.687   0.600   0.655  0.1525 -0.4503 -1.5615
 3691SOL    HW222533   1.762   0.726   0.682 -0.1519 -1.4423  1.0690
 3692SOL     OW22534   3.803   1.588   9.354  0.5392 -0.0479  0.2550
 3692SOL    HW122535   3.847   1.588   9.439  1.9143  0.4401 -0.4613
 3692SOL    HW222536   3.867   1.534   9.307  1.7868  1.5574  0.1121
 3693SOL     OW22537   4.183   0.070   6.370  0.3356 -0.0837  0.6535
 3693SOL    HW122538   4.174   0.166   6.373  0.8095 -0.0232  0.0759
 3693SOL    HW222539   4.222   0.055   6.456  0.2483 -1.1256  0.5032
 3694SOL     OW22540   0.581   0.713   5.408 -0.4230  0.1806  0.1359
 3694SOL    HW122541   0.613   0.799   5.434  0.0452 -0.7715  2.7134
 3694SOL    HW222542   0.577   0.726   5.313  0.6000  1.1851  0.2327
 3695SOL     OW22543   2.931   1.563   5.767 -0.1627 -0.0556 -0.0247
 3695SOL    HW122544   2.845   1.527   5.747 -0.3860  1.0467 -1.0705
 3695SOL    HW222545   2.979   1.515   5.700 -2.4251 -1.9758 -0.2672
 3696SOL     OW22546   0.338   2.852   2.635  0.4125 -0.0418 -0.3852
 3696SOL    HW122547   0.419   2.882   2.594 -0.3268  2.7005  0.1682
 3696SOL    HW222548   0.287   2.845   2.554  2.4358  0.5312 -1.6872
 3697SOL     OW22549   0.964   2.782   1.901  0.8474  0.1526  0.1426
 3697SOL    HW122550   0.883   2.747   1.864 -0.3242  2.3839  0.5795
 3697SOL    HW222551   1.000   2.834   1.828 -1.3923  0.4386 -0.7530
 3698SOL     OW22552   3.426   4.134   4.098 -0.5220 -0.2960  0.2674
 3698SOL    HW122553   3.427   4.097   4.186 -1.4682 -2.6602 -0.7184
 3698SOL    HW222554   3.442   4.060   4.041  0.7692  0.2084 -0.0161
 3699SOL     OW22555   3.997   2.066   2.034  0.0203 -0.5688 -0.3612
 3699SOL    HW122556   4.064   2.115   1.987  2.5214 -0.7684  3.0171
 3699SOL    HW222557   3.968   1.993   1.978 -0.5532 -1.3034  0.8888
 3700SOL     OW22558   0.870   1.604   7.265 -0.5253  0.3163  0.1351
 3700SOL    HW122559   0.848   1.676   7.323  1.6985 -0.4417  1.8930
 3700SOL    HW222560   0.791   1.614   7.211 -0.0086 -0.1400 -0.7195
 3701SOL     OW22561   0.798   4.520   1.846  0.5939  0.6817 -0.1130
 3701SOL    HW122562   0.784   4.598   1.900 -0.9124  1.6753 -1.9703
 3701SOL    HW222563   0.787   4.443   1.902  0.6232  1.5428  1.0730
 3702SOL     OW22564   0.925   2.250   3.894  0.4377 -0.1469 -0.1015
 3702SOL    HW122565   0.879   2.182   3.845 -0.4667  0.2163  0.2281
 3702SOL    HW222566   0.865   2.254   3.969 -0.7944 -1.9799 -0.9963
 3703SOL     OW22567   2.472   1.332   2.823  0.2243 -0.4857  0.4003
 3703SOL    HW122568   2.404   1.397   2.806 -1.0857 -2.8824 -3.5242
 3703SOL    HW222569   2.539   1.388   2.782 -1.1488 -1.1768 -2.7790
 3704SOL     OW22570   1.974   4.264   5.216 -0.3160  0.3121 -0.2439
 3704SOL    HW122571   1.896   4.221   5.182 -1.3499  0.1165  2.3413
 3704SOL    HW222572   1.928   4.303   5.290 -2.0945 -3.4270  0.6215
 3705SOL     OW22573   3.643   4.462  16.868 -0.0603 -0.9768 -0.1834
 3705SOL    HW122574   3.597   4.528  16.920  1.3699 -1.2842  1.4720
 3705SOL    HW222575   3.564   4.414  16.843 -1.0599  0.2133  0.6397
 3706SOL     OW22576   2.213   1.195  14.780 -0.4271 -0.1510  0.2163
 3706SOL    HW122577   2.277   1.139  14.736 -0.2909 -0.1499  0.4168
 3706SOL    HW222578   2.249   1.280  14.752 -0.9125 -0.1292 -0.3559
 3707SOL     OW22579   3.444   3.324   1.917 -1.1783  0.4462 -0.3427
 3707SOL    HW122580   3.390   3.398   1.946 -1.6093  0.1752 -0.4475
 3707SOL    HW222581   3.513   3.328   1.983 -1.2385 -0.4189 -0.2320
 3708SOL     OW22582   2.649   3.149   2.994 -0.0901  0.4277 -0.4902
 3708SOL    HW122583   2.622   3.057   2.989  0.6895  0.0454  2.2944
 3708SOL    HW222584   2.580   3.193   3.044 -0.7572  0.5799 -1.5307
 3709SOL     OW22585   2.019   3.082   0.026  0.9066 -0.0496 -0.2335
 3709SOL    HW122586   2.027   3.167   0.069 -1.1387  1.4817 -2.9203
 3709SOL    HW222587   2.050   3.102  17.624  2.0039  1.1942  0.4466
 3710SOL     OW22588   4.471   3.872   2.718 -0.2768  0.4411  0.0090
 3710SOL    HW122589   4.553   3.921   2.715 -0.7664  1.2674  0.0780
 3710SOL    HW222590   4.417   3.934   2.767 -1.5357  1.0521 -2.0964
 3711SOL     OW22591   4.691   1.958  17.375  0.3834 -0.3696  0.0855
 3711SOL    HW122592   4.599   1.941  17.358  0.1791 -0.5765  1.3734
 3711SOL    HW222593   0.007   1.872  17.358 -1.2436 -0.6913 -1.7610
 3712SOL     OW22594   2.760   3.883  10.947  0.4959 -0.3363  0.0735
 3712SOL    HW122595   2.688   3.889  11.011 -0.1193 -0.1149 -0.6354
 3712SOL    HW222596   2.785   3.975  10.940 -0.2514 -0.1364 -0.0274
 3713SOL     OW22597   3.017   4.624   5.026 -0.5179 -0.5687 -0.2273
 3713SOL    HW122598   3.004   4.574   4.946  2.4087 -3.0007  0.8576
 3713SOL    HW222599   3.009   4.712   4.988 -0.6015  0.2257  1.6022
 3714SOL     OW22600   1.518   0.027   4.154 -0.1083 -0.1657  0.0450
 3714SOL    HW122601   1.496   0.110   4.113  1.3857  1.1863  1.9911
 3714SOL    HW222602   1.434   0.007   4.195 -2.4902  1.0019 -4.2971
 3715SOL     OW22603   1.303   2.376  15.461 -0.0507  0.2506 -0.3963
 3715SOL    HW122604   1.367   2.409  15.524  3.2741 -3.4727 -1.8357
 3715SOL    HW222605   1.340   2.295  15.427  2.5240  1.5396 -0.6754
 3716SOL     OW22606   3.283   0.729   5.504  0.0720 -0.0098  0.2221
 3716SOL    HW122607   3.353   0.779   5.462 -1.2347  0.3045 -1.5924
 3716SOL    HW222608   3.320   0.642   5.518 -0.4721 -0.3941 -0.7576
 3717SOL     OW22609   2.391   1.518   3.929  0.4316  0.1778  0.0108
 3717SOL    HW122610   2.444   1.546   4.004 -0.6068 -1.1039  1.2167
 3717SOL    HW222611   2.345   1.594   3.893  1.5363  0.3641 -1.0349
 3718SOL     OW22612   3.560   1.435   5.426 -0.7227 -0.7790  0.2941
 3718SOL    HW122613   3.559   1.530   5.421 -0.0937 -0.8799 -1.9400
 3718SOL    HW222614   3.577   1.409   5.335  0.3093  1.6316 -0.1971
 3719SOL     OW22615   3.563   4.192   6.981 -0.0553 -0.0331  0.0557
 3719SOL    HW122616   3.522   4.195   6.895  1.5277  1.5512 -0.6513
 3719SOL    HW222617   3.622   4.266   6.964 -0.4297 -0.0459 -1.2710
 3720SOL     OW22618   3.602   3.565   9.014 -0.5152 -0.1183 -0.9689
 3720SOL    HW122619   3.629   3.566   9.106  1.9826  2.4356 -1.7110
 3720SOL    HW222620   3.658   3.632   8.973  1.9573  0.5977  3.5386
 3721SOL     OW22621   2.937   4.292  10.775  0.2707 -0.5634  0.5385
 3721SOL    HW122622   2.889   4.319  10.697  0.0714 -1.2153  0.4401
 3721SOL    HW222623   2.953   4.379  10.813  0.7369 -1.3175  2.0525
 3722SOL     OW22624   1.347   1.395   2.283 -0.1947  0.2963 -0.2025
 3722SOL    HW122625   1.434   1.409   2.244  0.3084 -1.6591  0.2218
 3722SOL    HW222626   1.316   1.485   2.294  2.2366  0.9888  1.0187
 3723SOL     OW22627   3.705   2.190   8.619  0.0551  0.1531  0.1846
 3723SOL    HW122628   3.617   2.186   8.584  0.3333  0.3192 -0.5258
 3723SOL    HW222629   3.686   2.169   8.711  0.2414 -1.0862 -0.0575
 3724SOL     OW22630   0.485   2.305  13.075  0.0146 -0.1998 -0.0341
 3724SOL    HW122631   0.474   2.218  13.113 -1.2291  0.0012  0.0784
 3724SOL    HW222632   0.493   2.351  13.159 -1.0045  2.8968 -1.6119
 3725SOL     OW22633   3.542   3.072   3.856  0.4231  0.5227  0.2836
 3725SOL    HW122634   3.568   3.017   3.930 -1.1954  1.4343  1.5405
 3725SOL    HW222635   3.595   3.151   3.864  0.1609  0.9116 -1.9380
 3726SOL     OW22636   2.298   2.639   3.836 -0.4803 -0.1744 -0.4269
 3726SOL    HW122637   2.310   2.724   3.879  2.8081 -0.6874 -0.3716
 3726SOL    HW222638   2.275   2.673   3.750 -0.9428  1.7460  0.4445
 3727SOL     OW22639   4.476   0.585   4.224  0.3099  0.1672  0.1137
 3727SOL    HW122640   4.414   0.593   4.152 -0.9483 -0.5395  1.1135
 3727SOL    HW222641   4.553   0.592   4.168 -1.7849 -0.9915 -2.8831
 3728SOL     OW22642   1.330   1.639   6.532 -0.1701 -0.2078 -0.0023
 3728SOL    HW122643   1.294   1.575   6.593  0.1720  1.9804  2.5204
 3728SOL    HW222644   1.271   1.616   6.460  0.2962 -1.6242  0.0804
 3729SOL     OW22645   3.342   0.275   9.511  0.0567 -0.0212 -0.1045
 3729SOL    HW122646   3.349   0.322   9.428 -0.4401  1.2885  0.5949
 3729SOL    HW222647   3.417   0.217   9.501 -0.7915 -1.2583  0.6980
 3730SOL     OW22648   2.701   3.250   5.904 -0.3507 -0.2938 -0.1900
 3730SOL    HW122649   2.702   3.333   5.856  3.0955  1.1763  2.4507
 3730SOL    HW222650   2.626   3.204   5.866 -2.1224  2.4439  0.0095
 3731SOL     OW22651   3.650   2.662  15.389 -0.0334  0.4974  0.3226
 3731SOL    HW122652   3.568   2.622  15.417  0.0457 -0.1027 -0.2778
 3731SOL    HW222653   3.643   2.756  15.404 -3.5272  0.0968  1.1063
 3732SOL     OW22654   0.089   3.431   1.073 -0.2399 -0.6084 -0.0304
 3732SOL    HW122655   0.062   3.504   1.129 -1.0079  0.4588 -1.7937
 3732SOL    HW222656   0.171   3.466   1.037  0.0997 -0.5687  0.7791
 3733SOL     OW22657   1.774   4.447   1.772 -0.0149  0.0299 -0.3801
 3733SOL    HW122658   1.868   4.458   1.790  0.1659 -1.6713 -0.2269
 3733SOL    HW222659   1.744   4.462   1.861 -2.4530  0.6044 -1.3118
 3734SOL     OW22660   2.734   4.697  16.109  0.1994  0.6537 -0.0156
 3734SOL    HW122661   2.665   4.657  16.162 -1.8570  1.5391 -2.0388
 3734SOL    HW222662   2.778   0.041  16.165  0.1083  1.4833 -0.9025
 3735SOL     OW22663   0.465   1.803  13.298 -0.1600  0.3269  0.3922
 3735SOL    HW122664   0.499   1.880  13.343  0.1440 -0.2120  1.0754
 3735SOL    HW222665   0.539   1.747  13.322  1.4090  0.8287 -3.1710
 3736SOL     OW22666   3.864   1.054   7.055  0.0141 -0.0343 -0.3791
 3736SOL    HW122667   3.926   1.104   7.001  2.5099  0.5348  2.9476
 3736SOL    HW222668   3.887   0.961   7.052  0.2195 -0.0388  0.9613
 3737SOL     OW22669   3.712   1.916   6.703  0.0763  0.1882  0.1348
 3737SOL    HW122670   3.654   1.876   6.768 -0.9273 -0.0065 -0.8814
 3737SOL    HW222671   3.794   1.885   6.742  0.7187 -0.2827 -1.5692
 3738SOL     OW22672   3.854   0.867  15.277  0.1101 -0.1251 -0.6396
 3738SOL    HW122673   3.912   0.821  15.216 -1.2045 -1.4727 -0.8736
 3738SOL    HW222674   3.783   0.804  15.289  0.2613 -0.1670  0.0505
 3739SOL     OW22675   0.591   0.331  10.626  0.2683  0.3054  0.0902
 3739SOL    HW122676   0.579   0.361  10.536 -0.2034  0.4573  0.2058
 3739SOL    HW222677   0.519   0.379  10.668 -0.8457 -1.7158  0.4882
 3740SOL     OW22678   0.008   2.244   2.673  0.2039 -0.1252 -0.0445
 3740SOL    HW122679   4.643   2.285   2.665 -0.0436 -0.6001  0.1951
 3740SOL    HW222680   4.719   2.152   2.698  0.1240 -0.3341 -0.8548
 3741SOL     OW22681   0.971   2.809   6.256 -0.1655  0.2495 -0.3077
 3741SOL    HW122682   0.974   2.744   6.326 -2.1182  0.7677  0.2516
 3741SOL    HW222683   1.065   2.820   6.236 -0.5303 -0.2459 -2.3108
 3742SOL     OW22684   2.076   1.780   0.530 -0.1044  0.2548 -0.0483
 3742SOL    HW122685   2.008   1.725   0.569  1.6772 -1.4544  0.6475
 3742SOL    HW222686   2.137   1.785   0.604  0.3723  3.1177 -0.6732
 3743SOL     OW22687   4.664   0.184   6.205  0.0291  0.2919  0.1592
 3743SOL    HW122688   4.609   0.229   6.141 -1.1260 -1.6302 -0.1840
 3743SOL    HW222689   4.651   0.093   6.178 -0.8040  1.1263 -2.2965
 3744SOL     OW22690   0.978   1.344  14.672  0.1370  0.2588 -0.5212
 3744SOL    HW122691   1.017   1.325  14.587 -0.5369  0.2439 -0.8247
 3744SOL    HW222692   0.914   1.276  14.692  1.0866 -0.7561 -0.8977
 3745SOL     OW22693   4.355   1.603   2.552 -0.0345  0.0900  0.3426
 3745SOL    HW122694   4.304   1.683   2.541 -0.1858 -0.0656 -0.0774
 3745SOL    HW222695   4.287   1.538   2.571  1.0874 -1.9241 -2.6456
 3746SOL     OW22696   1.383   0.597   6.962 -0.1854  0.0680 -0.1308
 3746SOL    HW122697   1.357   0.632   7.047 -1.0089 -1.9615  0.4475
 3746SOL    HW222698   1.466   0.641   6.946 -0.6162  1.2827  1.0182
 3747SOL     OW22699   0.531   3.207   3.096  0.1431  0.6801  0.1272
 3747SOL    HW122700   0.532   3.143   3.025 -2.0201 -0.2152  0.8982
 3747SOL    HW222701   0.460   3.263   3.065 -1.0465 -0.5859  0.5215
 3748SOL     OW22702   2.844   3.068   7.474  0.0293  0.3019 -0.3108
 3748SOL    HW122703   2.760   3.107   7.496  0.3461  1.2880 -0.8114
 3748SOL    HW222704   2.894   3.065   7.556 -0.2190  1.5870 -0.1018
 3749SOL     OW22705   2.317   3.858   2.688  0.2185 -0.6525 -0.5713
 3749SOL    HW122706   2.284   3.773   2.716  1.1940 -1.6054 -2.3192
 3749SOL    HW222707   2.296   3.854   2.595  0.8812 -0.7347 -0.7160
 3750SOL     OW22708   3.795   1.676   8.443  0.6201 -0.1953  0.1221
 3750SOL    HW122709   3.843   1.700   8.522  0.9426  0.9425 -0.4193
 3750SOL    HW222710   3.856   1.608   8.414 -1.0999 -1.1409 -1.3294
 3751SOL     OW22711   3.309   2.773  13.797  0.3685  0.3998 -0.0492
 3751SOL    HW122712   3.275   2.692  13.759  1.5074  0.3171 -0.9084
 3751SOL    HW222713   3.325   2.743  13.887  0.9656  1.9420  0.3610
 3752SOL     OW22714   0.235   2.167   3.307 -0.2172 -0.5080  0.4731
 3752SOL    HW122715   0.239   2.167   3.212  0.2185  0.0757  0.4927
 3752SOL    HW222716   0.277   2.247   3.338  2.5121 -2.2534  1.2800
 3753SOL     OW22717   4.441   1.128   6.092 -0.1239  0.2563 -0.5691
 3753SOL    HW122718   4.501   1.121   6.018 -0.4414 -0.3316 -0.7737
 3753SOL    HW222719   4.423   1.219   6.070  0.8486  0.3353 -1.0404
 3754SOL     OW22720   2.030   2.383   5.980 -0.6596  0.3962 -0.1893
 3754SOL    HW122721   2.124   2.398   5.992  0.0151 -3.0156 -1.1666
 3754SOL    HW222722   2.008   2.372   6.072 -0.0183 -1.9218 -0.3192
 3755SOL     OW22723   3.181   4.196  15.669 -0.3842 -0.7817  0.3627
 3755SOL    HW122724   3.160   4.103  15.659 -0.8217 -0.6264 -0.1762
 3755SOL    HW222725   3.267   4.194  15.710 -0.2343 -1.3657  0.0188
 3756SOL     OW22726   0.883   0.303   8.430 -0.5482 -0.5287 -0.1570
 3756SOL    HW122727   0.925   0.229   8.473 -0.9723 -1.2981 -1.0834
 3756SOL    HW222728   0.956   0.351   8.392 -0.1011  0.7495  2.3095
 3757SOL     OW22729   1.771   0.410   0.650 -0.3637 -0.2036 -0.6696
 3757SOL    HW122730   1.860   0.383   0.632 -0.6426 -0.2019 -2.0722
 3757SOL    HW222731   1.742   0.342   0.711  1.2203 -1.2890 -1.1434
 3758SOL     OW22732   0.815   1.698  13.885 -0.1357 -0.0913 -0.7833
 3758SOL    HW122733   0.739   1.678  13.830 -1.9843 -0.3333  1.8214
 3758SOL    HW222734   0.796   1.660  13.971  2.3690 -1.1789 -0.7298
 3759SOL     OW22735   1.395   4.170  11.173  0.0554 -0.1371  0.0640
 3759SOL    HW122736   1.357   4.258  11.171 -1.1355 -0.6549  0.1734
 3759SOL    HW222737   1.330   4.119  11.124 -0.3059 -0.9107  1.3464
 3760SOL     OW22738   0.427   0.989   7.413  0.4800  0.0172 -0.6503
 3760SOL    HW122739   0.332   0.991   7.405  0.4528 -0.6592 -0.4970
 3760SOL    HW222740   0.440   0.898   7.388 -2.9057 -0.6789  0.0410
 3761SOL     OW22741   0.122   3.345   8.950 -0.1391 -0.3515 -0.2575
 3761SOL    HW122742   0.199   3.337   9.007  0.5418  1.1773 -0.9572
 3761SOL    HW222743   0.135   3.430   8.907 -1.0058 -0.8647 -1.5315
 3762SOL     OW22744   0.363   0.022   6.824 -0.3345 -0.0140  0.1563
 3762SOL    HW122745   0.379   4.668   6.767 -0.5152  1.1983 -1.4997
 3762SOL    HW222746   0.415   4.711   6.898  3.2265  1.6576 -1.6329
 3763SOL     OW22747   2.556   1.553   0.302  0.0985 -0.2238 -0.0223
 3763SOL    HW122748   2.566   1.481   0.364  0.9908 -0.0575  0.0316
 3763SOL    HW222749   2.476   1.529   0.256 -1.0749  0.5400  1.6334
 3764SOL     OW22750   1.075   1.782   6.677 -0.1633  0.1441  0.5634
 3764SOL    HW122751   1.123   1.830   6.610 -0.3198 -0.5418 -0.0394
 3764SOL    HW222752   1.059   1.854   6.737 -3.4881 -0.5069  0.4384
 3765SOL     OW22753   1.547   3.356  11.012 -0.6057 -0.3256 -0.4132
 3765SOL    HW122754   1.509   3.403  11.086  1.6891  1.9444 -0.6757
 3765SOL    HW222755   1.612   3.303  11.059 -1.0602  0.3400  0.9620
 3766SOL     OW22756   1.467   4.433   2.883 -0.5561 -0.8115 -0.1254
 3766SOL    HW122757   1.541   4.406   2.938  0.9051  0.8042 -1.3134
 3766SOL    HW222758   1.433   4.516   2.916 -0.6027 -0.8066 -0.1864
 3767SOL     OW22759   3.981   0.512  13.177  0.0473  0.6497  0.3858
 3767SOL    HW122760   4.019   0.600  13.177  1.2262  0.1440  0.6615
 3767SOL    HW222761   4.053   0.451  13.163  0.1127  0.6859  0.5578
 3768SOL     OW22762   2.669   2.253   1.990  0.2263 -0.3774  0.5532
 3768SOL    HW122763   2.724   2.176   2.000  1.6122  0.5165 -0.1246
 3768SOL    HW222764   2.724   2.294   1.923  2.5291 -3.0037  0.8226
 3769SOL     OW22765   1.931   3.784  13.482 -0.1234  0.0436  0.1807
 3769SOL    HW122766   1.881   3.865  13.471 -1.4584 -0.8629 -0.3898
 3769SOL    HW222767   1.858   3.732  13.516 -0.9724  0.5026 -0.9489
 3770SOL     OW22768   0.404   0.882   8.575  0.2493  0.5073  0.1456
 3770SOL    HW122769   0.478   0.942   8.567  0.0698  1.0230  2.3204
 3770SOL    HW222770   0.428   0.818   8.508 -0.1449  1.3888 -0.8378
 3771SOL     OW22771   0.680   4.283   6.828 -0.4914  0.3437  0.1553
 3771SOL    HW122772   0.592   4.246   6.831 -0.2669 -0.2158 -0.1850
 3771SOL    HW222773   0.683   4.305   6.735 -2.5362 -0.2264 -0.0480
 3772SOL     OW22774   1.953   2.496   8.518 -0.4502 -1.0258  0.1527
 3772SOL    HW122775   1.881   2.513   8.458 -1.2000  3.5533  2.3568
 3772SOL    HW222776   1.970   2.402   8.507  3.9024 -0.1300 -0.9915
 3773SOL     OW22777   3.647   0.794   2.374  0.7466  0.6750 -0.0397
 3773SOL    HW122778   3.717   0.739   2.408  3.0484  2.2480 -2.1904
 3773SOL    HW222779   3.619   0.748   2.295  0.5401  0.5584  0.1050
 3774SOL     OW22780   4.695   2.811   5.725  0.0462 -0.3254 -0.2154
 3774SOL    HW122781   4.713   2.787   5.634  1.1621  1.8554 -0.5657
 3774SOL    HW222782   0.039   2.760   5.774  1.2998  3.0900  1.6497
 3775SOL     OW22783   4.586   4.563   3.766  0.1478  0.3150  0.0777
 3775SOL    HW122784   4.631   4.559   3.850 -0.7325 -1.1094  0.4911
 3775SOL    HW222785   4.620   4.650   3.746  1.9004  0.2401  2.7021
 3776SOL     OW22786   4.019   3.639   8.462 -0.5463 -0.1033  0.3195
 3776SOL    HW122787   4.024   3.677   8.375  0.6197  0.3494  0.5891
 3776SOL    HW222788   3.988   3.721   8.501 -1.7596 -0.8982  1.0229
 3777SOL     OW22789   3.844   0.260  13.032  0.2989 -0.1891 -0.2292
 3777SOL    HW122790   3.802   0.210  12.961 -2.2358  1.9786 -0.2219
 3777SOL    HW222791   3.919   0.205  13.057  1.3650  1.8723  1.0659
 3778SOL     OW22792   2.202   1.308   8.244 -0.5169 -0.4264 -0.0784
 3778SOL    HW122793   2.173   1.399   8.244  0.5162 -0.1065 -1.5182
 3778SOL    HW222794   2.161   1.283   8.161 -1.6189  1.3893 -0.0636
 3779SOL     OW22795   2.828   1.822  15.548  0.0075  0.5710  0.5191
 3779SOL    HW122796   2.780   1.782  15.476  2.5564 -2.3946  0.4785
 3779SOL    HW222797   2.757   1.872  15.588 -0.6964 -0.2238  0.2464
 3780SOL     OW22798   2.972   0.508  14.688 -0.2610 -1.1467  0.0708
 3780SOL    HW122799   2.944   0.471  14.604  1.4020 -0.1308 -0.9279
 3780SOL    HW222800   3.048   0.561  14.667 -1.1693  0.8798  1.8761
 3781SOL     OW22801   2.281   1.636   5.537 -0.0820 -0.1980  0.5164
 3781SOL    HW122802   2.296   1.724   5.503 -0.1987 -0.2490  0.3314
 3781SOL    HW222803   2.186   1.629   5.532  0.0037 -0.1747 -1.2353
 3782SOL     OW22804   2.129   3.582   9.935  0.2035 -0.2069 -0.1261
 3782SOL    HW122805   2.201   3.528   9.968 -1.6160 -2.4301  0.2461
 3782SOL    HW222806   2.053   3.536   9.972  0.7860 -0.2061  1.0731
 3783SOL     OW22807   4.145   1.436   2.634  0.1141  0.1197 -0.5915
 3783SOL    HW122808   4.192   1.353   2.629 -1.0534 -0.7443  2.9127
 3783SOL    HW222809   4.054   1.405   2.636  0.4011 -0.8338 -2.3102
 3784SOL     OW22810   1.755   0.379  16.889 -0.0448 -0.2963 -0.3140
 3784SOL    HW122811   1.793   0.462  16.861  0.9975  0.1968  2.5681
 3784SOL    HW222812   1.831   0.321  16.882 -0.0778 -0.1072 -2.4620
 3785SOL     OW22813   3.514   2.009   1.834 -0.7309 -0.5390 -0.3020
 3785SOL    HW122814   3.452   2.078   1.857 -0.7584 -0.1501 -1.5893
 3785SOL    HW222815   3.590   2.040   1.884 -2.2823  0.5506  1.3805
 3786SOL     OW22816   3.167   0.969   7.331  0.0698  0.5895  0.3455
 3786SOL    HW122817   3.161   1.060   7.358 -0.6490  0.3462  0.9929
 3786SOL    HW222818   3.221   0.930   7.400  1.1095  1.9954  0.3410
 3787SOL     OW22819   1.124   4.623   4.103  0.2047 -0.1585  0.3245
 3787SOL    HW122820   1.053   4.681   4.075 -1.6719 -2.1676  0.8857
 3787SOL    HW222821   1.143   4.580   4.020 -1.4103  0.7829 -0.5229
 3788SOL     OW22822   2.886   3.503   4.813 -0.6607 -0.4050  0.0849
 3788SOL    HW122823   2.865   3.558   4.889 -1.4368 -2.1588  1.1284
 3788SOL    HW222824   2.925   3.571   4.758 -1.9818 -1.2488 -1.9019
 3789SOL     OW22825   4.057   3.389   8.366 -0.4717  0.5296  0.0338
 3789SOL    HW122826   3.977   3.355   8.405 -0.5404  1.0141  0.3210
 3789SOL    HW222827   4.044   3.483   8.379 -1.1482  0.5384 -0.6859
 3790SOL     OW22828   2.455   3.642   8.272  0.9608  0.2759 -1.0506
 3790SOL    HW122829   2.424   3.731   8.258  1.1095  0.0538 -2.7370
 3790SOL    HW222830   2.540   3.635   8.228  0.0275 -0.3848 -2.7596
 3791SOL     OW22831   0.708   3.976   5.965 -0.6606 -0.4107 -0.0593
 3791SOL    HW122832   0.769   4.017   5.904 -0.4567  3.0200  2.4292
 3791SOL    HW222833   0.650   4.048   5.992 -0.2198  0.0755 -0.4119
 3792SOL     OW22834   4.377   0.357  14.685  0.5515 -0.1854 -0.0927
 3792SOL    HW122835   4.288   0.392  14.674  0.3310 -1.5924 -2.7549
 3792SOL    HW222836   4.367   0.272  14.643  0.0568  0.7005 -1.7629
 3793SOL     OW22837   0.859   1.936   2.265  0.5852  0.2488  0.4641
 3793SOL    HW122838   0.941   1.986   2.265  1.0741 -0.5217  2.8573
 3793SOL    HW222839   0.864   1.893   2.180  0.6546 -0.4058  0.8024
 3794SOL     OW22840   2.106   3.748  10.615  0.1587 -0.0476  0.1761
 3794SOL    HW122841   2.039   3.716  10.674  1.8974  1.4508  2.9596
 3794SOL    HW222842   2.131   3.826  10.665 -0.4299  1.2554 -1.5445
 3795SOL     OW22843   1.347   2.480   2.644 -0.0857 -1.1522  0.5201
 3795SOL    HW122844   1.377   2.503   2.732  0.2661 -0.0154  0.0928
 3795SOL    HW222845   1.368   2.387   2.650  2.1796 -0.6723 -0.2611
 3796SOL     OW22846   2.871   0.571  16.611  0.0536 -0.2597  0.0879
 3796SOL    HW122847   2.826   0.489  16.631 -0.2442 -0.6958 -2.3795
 3796SOL    HW222848   2.867   0.581  16.516 -2.4635  1.3155  0.3634
 3797SOL     OW22849   3.270   1.339   0.062 -0.4083  0.1125  0.2541
 3797SOL    HW122850   3.176   1.346   0.077 -0.7524  1.7730 -2.5287
 3797SOL    HW222851   3.271   1.373  17.658  1.3288  1.8443  0.9061
 3798SOL     OW22852   0.711   3.554   1.589 -0.5865 -0.0148  0.0154
 3798SOL    HW122853   0.776   3.623   1.603  2.1419 -2.3791 -1.1278
 3798SOL    HW222854   0.644   3.598   1.536 -0.4214 -1.3330 -1.2958
 3799SOL     OW22855   0.917   4.472   6.379  0.0487  0.5098 -0.4143
 3799SOL    HW122856   0.826   4.449   6.360 -0.1590 -0.5670  1.9061
 3799SOL    HW222857   0.959   4.387   6.371  3.5866  2.1572  0.7177
 3800SOL     OW22858   0.686   0.865   7.577  0.0931 -0.2745 -0.0625
 3800SOL    HW122859   0.755   0.809   7.614  0.0636  0.6225  1.3390
 3800SOL    HW222860   0.640   0.905   7.651  1.9034  0.6349  0.5842
 3801SOL     OW22861   2.109   0.839  13.510  0.4364 -0.1941  1.1087
 3801SOL    HW122862   2.048   0.898  13.555  2.5912  1.6188  1.6728
 3801SOL    HW222863   2.184   0.834  13.569  1.0399  1.3982  0.4802
 3802SOL     OW22864   4.590   3.355   5.828 -0.4217  0.1872  0.6014
 3802SOL    HW122865   4.666   3.296   5.829 -2.1005 -2.0069 -0.9102
 3802SOL    HW222866   4.518   3.295   5.850  1.1290 -1.2035  1.8900
 3803SOL     OW22867   0.049   1.219   3.946  0.7464 -0.4216 -0.2891
 3803SOL    HW122868   4.712   1.151   3.910  2.1244 -1.5287 -0.4039
 3803SOL    HW222869   0.004   1.236   4.029 -1.4767 -1.1645 -1.3463
 3804SOL     OW22870   2.437   1.602  10.344  0.5794 -0.0312  0.3915
 3804SOL    HW122871   2.441   1.604  10.440 -2.4128  1.4252  0.4739
 3804SOL    HW222872   2.344   1.606  10.325  0.5795 -3.4333 -0.2120
 3805SOL     OW22873   2.221   1.294   3.950  0.1258  0.2636 -0.5999
 3805SOL    HW122874   2.139   1.344   3.948 -0.2275 -0.2259  1.5594
 3805SOL    HW222875   2.282   1.364   3.928 -1.2991  2.2886  1.9705
 3806SOL     OW22876   1.376   2.389  16.300  0.3333  0.3042 -0.3113
 3806SOL    HW122877   1.458   2.344  16.281  0.6313  0.7274 -0.0091
 3806SOL    HW222878   1.399   2.475  16.266 -0.9769  1.4660  1.7525
 3807SOL     OW22879   2.213   2.408   0.736  0.0884  0.3989  0.3530
 3807SOL    HW122880   2.266   2.380   0.810  1.2859 -1.2667 -1.1330
 3807SOL    HW222881   2.126   2.409   0.777 -0.5073  0.3608 -0.9066
 3808SOL     OW22882   1.101   3.092  10.419  0.1340 -0.2387  0.0344
 3808SOL    HW122883   1.019   3.045  10.409 -0.1944  0.5041 -0.8176
 3808SOL    HW222884   1.081   3.148  10.494 -0.2065 -0.6856  0.2683
 3809SOL     OW22885   1.068   1.324   6.010  0.6045 -0.0150  0.2558
 3809SOL    HW122886   1.056   1.405   6.061 -1.7125  0.4345 -1.0040
 3809SOL    HW222887   0.986   1.278   6.028  1.1739 -1.2041 -0.1564
 3810SOL     OW22888   3.823   2.959   5.802  0.1154 -0.2760 -0.4199
 3810SOL    HW122889   3.744   3.011   5.801  1.7294  2.1501 -1.1805
 3810SOL    HW222890   3.836   2.946   5.708  0.8998 -2.3705 -0.0360
 3811SOL     OW22891   2.345   4.394   4.828  0.4794 -0.0078 -0.5822
 3811SOL    HW122892   2.357   4.299   4.821 -0.8424  0.0652 -3.9564
 3811SOL    HW222893   2.355   4.397   4.923 -2.2785  1.5088 -0.3272
 3812SOL     OW22894   1.464   4.300   6.280  0.0792  0.0222  0.7057
 3812SOL    HW122895   1.499   4.369   6.224 -0.4617 -0.7613 -0.6050
 3812SOL    HW222896   1.545   4.253   6.301  0.5049  0.9899  1.2112
 3813SOL     OW22897   1.701   2.155  11.319  0.3733  0.4933 -0.5278
 3813SOL    HW122898   1.694   2.097  11.244  0.6067 -0.4167  0.1540
 3813SOL    HW222899   1.796   2.165  11.325  0.3808  1.5156 -2.2279
 3814SOL     OW22900   0.600   4.612   8.198 -0.7816 -0.8117  0.0782
 3814SOL    HW122901   0.585   4.632   8.291  0.0069  1.0752 -0.2060
 3814SOL    HW222902   0.524   4.657   8.162  1.1403  2.8522  0.5879
 3815SOL     OW22903   0.888   2.424  11.492 -0.0246 -0.0061  0.2299
 3815SOL    HW122904   0.804   2.386  11.517  0.5382 -2.3221 -1.4726
 3815SOL    HW222905   0.959   2.377  11.537  1.3978  1.9080 -0.0104
 3816SOL     OW22906   0.061   1.119  16.719 -0.6776  0.0071 -0.1826
 3816SOL    HW122907   0.101   1.106  16.805 -1.2322  2.3047  0.4323
 3816SOL    HW222908   0.061   1.027  16.693 -1.2222  0.5185 -1.9311
 3817SOL     OW22909   2.408   2.824   7.779  0.1627 -0.0236 -0.0512
 3817SOL    HW122910   2.501   2.823   7.758  0.2164  0.8381  0.1484
 3817SOL    HW222911   2.377   2.752   7.723  0.6561 -1.3846  1.4347
 3818SOL     OW22912   3.227   2.861   3.013 -0.8199 -0.7987  0.1919
 3818SOL    HW122913   3.186   2.859   3.100 -0.3136  1.0994  0.4820
 3818SOL    HW222914   3.317   2.860   3.043 -0.7549 -0.9424 -0.0090
 3819SOL     OW22915   1.679   4.263   5.952  0.0662 -0.8631 -0.1783
 3819SOL    HW122916   1.584   4.260   5.944 -0.0916  0.5883  1.3048
 3819SOL    HW222917   1.694   4.350   5.915 -1.1469 -0.4034  0.4359
 3820SOL     OW22918   1.168   1.555   0.683 -0.2400 -0.0991 -0.4610
 3820SOL    HW122919   1.254   1.575   0.647  0.8302  2.1541  3.2638
 3820SOL    HW222920   1.135   1.645   0.683 -0.1078 -0.0369  1.3533
 3821SOL     OW22921   0.709   3.020   7.210  0.0539  0.1740  0.4102
 3821SOL    HW122922   0.658   2.968   7.273  3.3252 -0.2526  2.7308
 3821SOL    HW222923   0.688   2.973   7.130 -2.3923  0.6102  0.8078
 3822SOL     OW22924   1.687   3.429   7.489  0.0593  0.4139 -0.2330
 3822SOL    HW122925   1.680   3.373   7.567  1.0334 -1.4214 -1.4585
 3822SOL    HW222926   1.778   3.408   7.468  0.6784 -1.1386  3.8295
 3823SOL     OW22927   2.054   3.300  15.636 -0.0660 -0.1874 -0.2551
 3823SOL    HW122928   2.026   3.266  15.552 -2.2946  2.2471 -0.5115
 3823SOL    HW222929   2.070   3.391  15.609 -1.1354  0.1482  0.2417
 3824SOL     OW22930   1.378   3.956  12.488 -0.2476  0.4671 -0.0926
 3824SOL    HW122931   1.396   4.032  12.544  4.2593 -0.3255 -0.4999
 3824SOL    HW222932   1.318   3.913  12.549  0.5143  0.9646  0.9874
 3825SOL     OW22933   1.388   2.739   3.099  0.2533 -0.1311  0.3432
 3825SOL    HW122934   1.478   2.706   3.090  0.3136  0.4423 -1.0795
 3825SOL    HW222935   1.389   2.808   3.033 -0.3214 -1.5765 -1.1391
 3826SOL     OW22936   3.072   4.648   3.814  0.4241  0.0037 -0.5951
 3826SOL    HW122937   3.009   4.623   3.747  0.0360  0.4905 -0.4126
 3826SOL    HW222938   3.145   4.589   3.798  0.1566 -0.1004 -1.4155
 3827SOL     OW22939   2.137   2.495   2.551 -0.0762  0.1876 -0.6734
 3827SOL    HW122940   2.191   2.516   2.474  0.9990 -2.2220 -0.5618
 3827SOL    HW222941   2.091   2.576   2.574 -0.8618 -0.5259  0.2680
 3828SOL     OW22942   2.701   0.540   0.986 -0.6928 -0.1841 -0.4752
 3828SOL    HW122943   2.669   0.630   0.989 -1.6379 -0.4305 -3.9459
 3828SOL    HW222944   2.732   0.539   0.896 -1.5578 -0.4921 -0.7614
 3829SOL     OW22945   1.039   0.287   7.711  0.1422  0.6501 -0.1916
 3829SOL    HW122946   0.971   0.297   7.644  1.9028  0.8636 -1.9519
 3829SOL    HW222947   1.069   0.196   7.708  0.0516  0.6132  0.0200
 3830SOL     OW22948   0.274   1.742   4.905  0.0503  0.2610  0.3616
 3830SOL    HW122949   0.350   1.789   4.871  0.2770 -0.7968 -0.5767
 3830SOL    HW222950   0.211   1.791   4.851 -0.3431  0.3233  0.8744
 3831SOL     OW22951   4.149   0.059   8.508  0.2043  0.2952 -0.0074
 3831SOL    HW122952   4.102   0.081   8.588  0.5037 -0.6798  0.4422
 3831SOL    HW222953   4.146   4.684   8.503  1.3493  0.1230  2.8200
 3832SOL     OW22954   4.384   3.147   5.908  0.0684  0.1325 -0.0972
 3832SOL    HW122955   4.360   3.120   5.997  1.9600 -1.0107  0.0667
 3832SOL    HW222956   4.426   3.071   5.867 -2.3722 -1.2478 -0.0752
 3833SOL     OW22957   3.920   4.556   8.925 -0.0900 -0.0263 -0.1825
 3833SOL    HW122958   3.916   4.470   8.966 -0.6920  0.6234  1.1370
 3833SOL    HW222959   3.839   4.589   8.966 -0.9424 -0.8376 -1.2261
 3834SOL     OW22960   4.006   2.089  13.880  0.4064 -0.2632 -0.2650
 3834SOL    HW122961   3.954   2.167  13.897  0.1087 -0.9907  2.2682
 3834SOL    HW222962   4.092   2.128  13.893  0.7378 -1.3403  0.8667
 3835SOL     OW22963   3.174   3.217  13.686  0.2109 -0.0465  0.2905
 3835SOL    HW122964   3.129   3.262  13.615  2.5379  0.1299 -1.0366
 3835SOL    HW222965   3.228   3.287  13.722  0.4105  0.3233 -0.7310
 3836SOL     OW22966   0.609   4.026   4.753 -0.0853 -0.0587  0.1242
 3836SOL    HW122967   0.635   4.090   4.820  1.9768 -2.6646  1.8368
 3836SOL    HW222968   0.653   4.059   4.675 -0.7966 -1.4044 -0.8555
 3837SOL     OW22969   2.066   0.468   7.199 -0.8324 -0.0594 -0.1962
 3837SOL    HW122970   2.157   0.470   7.230 -0.5783  1.9379 -1.0856
 3837SOL    HW222971   2.067   0.395   7.137 -2.6098 -0.5257  0.3318
 3838SOL     OW22972   3.692   2.222  14.738 -0.0102 -0.6966  0.6494
 3838SOL    HW122973   3.770   2.277  14.741 -0.6974  0.2946  0.1859
 3838SOL    HW222974   3.725   2.132  14.748  0.5735 -0.6096 -0.4871
 3839SOL     OW22975   2.873   2.535   8.907 -0.3629  0.5635  0.2560
 3839SOL    HW122976   2.785   2.550   8.942 -0.0358 -4.4646  3.2794
 3839SOL    HW222977   2.863   2.455   8.854  2.6157  0.7811 -0.6619
 3840SOL     OW22978   2.566   2.978   5.299 -0.4828  0.3998 -0.0490
 3840SOL    HW122979   2.497   3.024   5.250 -0.5128  0.4481  0.0381
 3840SOL    HW222980   2.635   2.969   5.233  0.0205  0.4973  0.4641
 3841SOL     OW22981   2.054   1.660  14.683 -0.3709 -0.8373  0.2741
 3841SOL    HW122982   2.134   1.611  14.697 -1.0713 -2.5675 -1.7876
 3841SOL    HW222983   2.097   1.731  14.635  1.2522 -2.5556 -0.8192
 3842SOL     OW22984   0.664   2.412  10.265 -0.4772 -0.3395  0.3281
 3842SOL    HW122985   0.733   2.350  10.288 -0.4408  0.2724  1.8949
 3842SOL    HW222986   0.608   2.358  10.209 -0.1427 -0.5376  0.1835
 3843SOL     OW22987   1.730   1.479   6.932  0.4201 -1.2337  0.0328
 3843SOL    HW122988   1.707   1.454   7.021 -0.6305  2.2427  0.7163
 3843SOL    HW222989   1.651   1.474   6.877  0.9322  1.2865 -0.9128
 3844SOL     OW22990   2.942   0.983   4.601  1.0933  0.3591 -0.3179
 3844SOL    HW122991   2.948   1.076   4.624  3.6348 -0.1583  1.1193
 3844SOL    HW222992   2.886   0.988   4.523 -1.2851 -0.5014  1.3665
 3845SOL     OW22993   4.583   3.103   5.482  0.1299  0.1614  0.2752
 3845SOL    HW122994   4.518   3.033   5.490 -0.7117  0.8646 -0.3333
 3845SOL    HW222995   4.521   3.172   5.460  0.0464 -0.8654 -2.7033
 3846SOL     OW22996   4.337   2.400   6.217 -0.4102 -0.6595 -0.1755
 3846SOL    HW122997   4.311   2.475   6.164  2.6170 -1.5539 -2.9596
 3846SOL    HW222998   4.283   2.416   6.295 -1.6663 -2.7301 -0.6226
 3847SOL     OW22999   0.988   1.161   8.052 -0.2618 -0.1535  0.6460
 3847SOL    HW123000   0.916   1.115   8.095 -0.6748  0.3098  0.4365
 3847SOL    HW223001   0.942   1.225   7.998  0.7195  0.5855  0.6772
 3848SOL     OW23002   1.683   3.364   4.333  0.4421 -0.3206 -0.3164
 3848SOL    HW123003   1.618   3.327   4.393  0.2586  0.1227 -0.2409
 3848SOL    HW223004   1.743   3.414   4.388 -1.7890  1.6100  0.3824
 3849SOL     OW23005   2.388   1.336   5.418 -0.0393 -0.1303 -0.2501
 3849SOL    HW123006   2.305   1.306   5.381 -0.0079  0.1651 -0.5527
 3849SOL    HW223007   2.361   1.424   5.444  1.3279  0.3458 -0.4554
 3850SOL     OW23008   1.118   0.691   3.336 -0.2862 -0.4800  0.2751
 3850SOL    HW123009   1.118   0.748   3.259  2.1195 -1.4770 -0.4586
 3850SOL    HW223010   1.162   0.753   3.394 -2.0609  2.4245 -1.4930
 3851SOL     OW23011   3.646   1.596   0.157 -0.0219  0.0019  0.2150
 3851SOL    HW123012   3.646   1.518   0.102  1.7055 -0.9690  1.5857
 3851SOL    HW223013   3.565   1.578   0.205  0.1831 -1.0649  0.1548
 3852SOL     OW23014   3.322   4.036   6.497  0.2352 -0.1712  0.0143
 3852SOL    HW123015   3.373   3.964   6.462  0.5069 -0.9033  1.9708
 3852SOL    HW223016   3.239   4.010   6.457 -0.7052  0.0936  1.8057
 3853SOL     OW23017   0.694   0.956  11.482  0.4446 -0.3662  0.4475
 3853SOL    HW123018   0.776   0.956  11.532 -0.1600  0.8815  1.4354
 3853SOL    HW223019   0.714   1.000  11.399 -0.3018 -0.1669  0.3764
 3854SOL     OW23020   3.637   2.395   4.041 -0.4450  0.2064  0.1837
 3854SOL    HW123021   3.578   2.320   4.030  0.5540 -0.5727  0.0402
 3854SOL    HW223022   3.725   2.358   4.038 -0.5211  0.0899 -0.6318
 3855SOL     OW23023   1.788   1.647   6.039  0.0908 -0.2823  0.0131
 3855SOL    HW123024   1.826   1.731   6.063  1.4653 -0.8203 -0.2549
 3855SOL    HW223025   1.760   1.614   6.125  4.2592 -0.5532  1.2848
 3856SOL     OW23026   1.852   3.319   4.132  0.1723  0.1822  0.2184
 3856SOL    HW123027   1.795   3.328   4.208  1.0200 -0.6100  0.9549
 3856SOL    HW223028   1.934   3.288   4.170 -0.1195  1.1200  1.6133
 3857SOL     OW23029   4.440   0.766   3.681 -0.1753  0.2302  0.6009
 3857SOL    HW123030   4.369   0.712   3.649  0.8140 -0.0881 -1.0604
 3857SOL    HW223031   4.464   0.721   3.762  0.9218  0.8554  0.6316
 3858SOL     OW23032   0.614   3.014   3.569 -0.8745  0.1028  0.0593
 3858SOL    HW123033   0.569   3.051   3.494 -0.9208 -1.5775 -0.7410
 3858SOL    HW223034   0.705   3.040   3.555 -1.5048  1.2411 -1.8513
 3859SOL     OW23035   3.275   1.174  13.525 -0.1887 -0.3191 -0.4749
 3859SOL    HW123036   3.185   1.193  13.553 -1.5926 -1.1549 -4.5407
 3859SOL    HW223037   3.322   1.190  13.607 -2.8347 -0.5449  1.0918
 3860SOL     OW23038   1.069   4.274   5.164 -0.0444  0.7378  0.0287
 3860SOL    HW123039   0.989   4.230   5.192 -0.3622  1.7141  0.6503
 3860SOL    HW223040   1.024   4.358   5.157 -0.9396  0.2967  0.5491
 3861SOL     OW23041   1.544   2.126  15.468  0.1397  0.3055  0.3156
 3861SOL    HW123042   1.545   2.127  15.373  1.6420 -3.0113  0.2863
 3861SOL    HW223043   1.587   2.209  15.487  0.0389  0.2750  0.6840
 3862SOL     OW23044   3.689   0.553   3.791  0.5217 -0.2625  0.2530
 3862SOL    HW123045   3.663   0.538   3.882 -1.7845  0.8571 -0.2292
 3862SOL    HW223046   3.602   0.538   3.755 -1.0055  1.5886  3.1959
 3863SOL     OW23047   2.213   4.399   6.626 -0.3048 -0.4832 -0.2489
 3863SOL    HW123048   2.178   4.349   6.699 -2.2103 -1.8379 -2.0958
 3863SOL    HW223049   2.160   4.479   6.628  1.3860  0.6008  0.6074
 3864SOL     OW23050   4.594   0.235   6.830 -0.2149 -0.1550 -0.0354
 3864SOL    HW123051   4.599   0.192   6.915  0.1153 -0.2336 -0.0917
 3864SOL    HW223052   4.514   0.285   6.822  0.0832  0.4854  1.0076
 3865SOL     OW23053   2.248   3.811  13.099  0.0478  0.7398 -0.5708
 3865SOL    HW123054   2.209   3.814  13.187  0.3512  1.4098 -0.4587
 3865SOL    HW223055   2.181   3.773  13.041  0.2124 -0.9682  0.3365
 3866SOL     OW23056   1.125   0.530   7.715  0.0544  0.1944  1.0671
 3866SOL    HW123057   1.114   0.435   7.713  1.6532 -0.0244  2.5698
 3866SOL    HW223058   1.194   0.534   7.782  1.2457  1.7125 -0.2356
 3867SOL     OW23059   3.468   2.912   3.108  0.1444 -0.4746  0.0626
 3867SOL    HW123060   3.524   2.942   3.036 -0.6502 -0.2250 -0.4609
 3867SOL    HW223061   3.498   2.961   3.184  1.6415 -0.0799 -0.7935
 3868SOL     OW23062   2.097   3.118   3.881 -1.1015 -0.1394  0.6886
 3868SOL    HW123063   2.159   3.154   3.944  0.0002 -0.4421 -0.2144
 3868SOL    HW223064   2.096   3.201   3.834 -0.6744 -1.3547 -1.5138
 3869SOL     OW23065   1.446   4.123   3.242 -0.2616  0.3510  1.0295
 3869SOL    HW123066   1.357   4.133   3.277 -0.6312  0.7498 -0.0297
 3869SOL    HW223067   1.435   4.104   3.149 -1.4140  2.3620  0.7338
 3870SOL     OW23068   1.635   1.972   3.956  0.1890 -0.3301  0.4159
 3870SOL    HW123069   1.713   2.027   3.950 -0.5829  0.6018 -0.8620
 3870SOL    HW223070   1.565   2.027   3.923  0.3893  0.9280  2.0593
 3871SOL     OW23071   0.495   2.217  15.375  0.2046  0.3144  0.3935
 3871SOL    HW123072   0.488   2.207  15.469 -0.6622  1.0048  0.4070
 3871SOL    HW223073   0.424   2.160  15.345  0.1279  0.8561 -0.4793
 3872SOL     OW23074   3.724   1.554   3.225 -0.3571 -0.4725 -0.1464
 3872SOL    HW123075   3.633   1.556   3.195 -1.0077 -0.6018  1.8340
 3872SOL    HW223076   3.739   1.649   3.227  1.5447 -0.7746 -0.1851
 3873SOL     OW23077   0.004   1.285   6.935 -1.0944 -0.1613  0.2491
 3873SOL    HW123078   0.083   1.243   6.968  0.2757  2.2636  0.0179
 3873SOL    HW223079   0.009   1.367   6.983 -2.3331 -0.1914  0.4325
 3874SOL     OW23080   0.039   2.160   5.833  0.1879 -0.2867 -0.1948
 3874SOL    HW123081   4.711   2.231   5.790 -1.2828  0.7362  3.1413
 3874SOL    HW223082   4.701   2.132   5.903  0.3762 -2.3412 -0.8548
 3875SOL     OW23083   4.044   1.057   4.048  0.1659  0.3393  0.4257
 3875SOL    HW123084   4.100   1.102   3.984  0.0870  2.6324  1.9949
 3875SOL    HW223085   4.082   1.090   4.129  1.0952 -2.5632  1.2017
 3876SOL     OW23086   4.360   0.900   2.225 -0.5040 -0.2306 -0.4344
 3876SOL    HW123087   4.361   0.948   2.308  1.0259  0.5184 -0.8838
 3876SOL    HW223088   4.342   0.968   2.160 -0.9969 -1.3117 -1.4493
 3877SOL     OW23089   0.950   0.442   2.767 -0.3059 -0.6147  0.2382
 3877SOL    HW123090   0.949   0.422   2.674 -1.0667 -1.4829  0.4404
 3877SOL    HW223091   1.037   0.416   2.795  0.4176  1.0913 -0.4201
 3878SOL     OW23092   2.804   0.004   9.411 -0.2544  0.6734  0.1513
 3878SOL    HW123093   2.863   0.062   9.458 -2.7047  1.3812  2.3574
 3878SOL    HW223094   2.779   4.667   9.484  1.7326 -1.9956 -1.2659
 3879SOL     OW23095   0.385   4.342   2.958 -0.2239 -0.0208 -0.2533
 3879SOL    HW123096   0.336   4.413   3.000 -0.3038  0.4933 -1.2071
 3879SOL    HW223097   0.474   4.367   2.981 -0.1203  0.6664 -1.3633
 3880SOL     OW23098   4.617   2.019   4.968 -0.5352 -0.2779 -0.4549
 3880SOL    HW123099   4.700   2.067   4.970 -0.9011  0.2596  2.5910
 3880SOL    HW223100   4.554   2.087   4.946 -1.1063  0.3508  2.9874
 3881SOL     OW23101   4.608   3.322   9.054 -0.0536  0.2544  0.6619
 3881SOL    HW123102   4.596   3.414   9.029  2.4699  0.9820  2.2155
 3881SOL    HW223103   4.694   3.314   9.014 -0.3200 -1.9344  0.5021
 3882SOL     OW23104   1.683   2.738   7.314  0.1266  0.2593 -0.1884
 3882SOL    HW123105   1.729   2.794   7.251  0.2245 -0.8615 -1.1237
 3882SOL    HW223106   1.746   2.671   7.287 -1.1506 -0.8039 -0.5381
 3883SOL     OW23107   1.436   0.061   2.305 -0.2796  0.2224  0.0446
 3883SOL    HW123108   1.472   0.129   2.249 -1.8281  1.1429  0.1690
 3883SOL    HW223109   1.442   4.700   2.255  0.9802  0.6598 -0.5116
 3884SOL     OW23110   3.429   2.587   5.386  0.0898  0.5359  0.5521
 3884SOL    HW123111   3.420   2.679   5.361  0.0332  0.8419  1.6682
 3884SOL    HW223112   3.432   2.529   5.310 -0.8905  1.6024 -0.2864
 3885SOL     OW23113   0.587   0.893  15.314 -0.0115  0.4828 -0.2640
 3885SOL    HW123114   0.594   0.873  15.220  1.0520 -0.7138  0.0754
 3885SOL    HW223115   0.618   0.984  15.323 -0.0667  0.3367  1.3355
 3886SOL     OW23116   1.767   3.323   9.056 -0.2415 -0.1229 -0.7147
 3886SOL    HW123117   1.742   3.309   9.147 -1.7080  0.4590 -1.0243
 3886SOL    HW223118   1.702   3.384   9.020 -0.5310 -1.1518 -1.9412
 3887SOL     OW23119   0.335   1.627  17.628 -0.2502 -0.3159 -0.7560
 3887SOL    HW123120   0.275   1.685  17.674  0.5203 -2.5252  3.0354
 3887SOL    HW223121   0.420   1.630  17.672 -0.1854 -2.5238 -0.7337
 3888SOL     OW23122   1.645   3.424   7.169  0.5985  0.1141 -0.2289
 3888SOL    HW123123   1.570   3.483   7.162  0.5884  0.0356 -0.8049
 3888SOL    HW223124   1.692   3.464   7.241 -0.8725 -0.6912  1.1719
 3889SOL     OW23125   1.834   0.079  13.864  0.3522 -0.1008 -0.7585
 3889SOL    HW123126   1.800   0.129  13.789  0.1515  0.4841 -0.2804
 3889SOL    HW223127   1.791   4.714  13.864  1.2720 -0.5592  0.0440
 3890SOL     OW23128   3.210   4.623  16.724 -0.1612  0.3032 -0.2774
 3890SOL    HW123129   3.186   4.703  16.770 -1.6478 -0.0447 -0.4470
 3890SOL    HW223130   3.195   4.655  16.635  3.2800  0.2555 -0.8835
 3891SOL     OW23131   4.285   0.327   9.024 -0.2840  0.1275 -0.6617
 3891SOL    HW123132   4.363   0.329   8.969  0.3915 -1.0511  0.2465
 3891SOL    HW223133   4.322   0.347   9.110 -0.4746 -0.4044 -0.4559
 3892SOL     OW23134   2.749   0.258   1.752 -0.7504  0.1953 -0.1898
 3892SOL    HW123135   2.829   0.205   1.753 -2.5272 -2.4945 -1.5038
 3892SOL    HW223136   2.709   0.231   1.834 -0.2652 -0.4263 -0.1575
 3893SOL     OW23137   1.972   2.657  12.455  0.1701 -0.4163 -0.4046
 3893SOL    HW123138   2.010   2.577  12.419  1.0737  0.1847 -0.7999
 3893SOL    HW223139   1.910   2.624  12.520  0.2304  1.5590  0.6839
 3894SOL     OW23140   3.215   1.577  11.606 -0.6537 -0.2328  0.4308
 3894SOL    HW123141   3.307   1.601  11.618 -0.2610 -1.7303  0.4277
 3894SOL    HW223142   3.223   1.483  11.595  0.5214 -0.1124  0.2254
 3895SOL     OW23143   1.810   4.691   9.087  0.3563 -0.2066 -0.0572
 3895SOL    HW123144   1.904   4.676   9.091  0.6202  1.1953 -0.9077
 3895SOL    HW223145   1.791   0.055   9.126 -1.0151 -1.0354  1.0716
 3896SOL     OW23146   4.541   4.364  12.271  0.1870 -0.1626  0.0878
 3896SOL    HW123147   4.617   4.333  12.319 -0.6685 -2.5540 -0.1185
 3896SOL    HW223148   4.483   4.396  12.341 -0.9554 -0.9764 -0.4887
 3897SOL     OW23149   1.046   1.999  17.130 -0.2478  0.0249  0.0152
 3897SOL    HW123150   1.034   1.912  17.093  0.3333 -0.0843  0.0820
 3897SOL    HW223151   1.139   2.005  17.109 -0.4338  1.0201 -0.5339
 3898SOL     OW23152   3.690   0.761   3.197 -0.3426 -0.3432 -0.7134
 3898SOL    HW123153   3.641   0.838   3.224 -1.4315 -0.4274 -2.4354
 3898SOL    HW223154   3.765   0.771   3.255 -0.1352 -0.4045 -0.9684
 3899SOL     OW23155   3.308   4.341   9.582 -0.4371 -0.3159  0.6033
 3899SOL    HW123156   3.223   4.385   9.589 -1.9000 -3.0952  0.2902
 3899SOL    HW223157   3.287   4.256   9.620 -2.2243 -0.9576 -1.7910
 3900SOL     OW23158   4.046   1.108   0.060 -0.3884 -0.7265  0.3292
 3900SOL    HW123159   4.128   1.125   0.105 -0.4415  1.0788 -0.2737
 3900SOL    HW223160   4.078   1.139  17.661 -1.0608  0.3912  0.4871
 3901SOL     OW23161   0.080   2.938   4.266  0.2718  0.6726  0.1538
 3901SOL    HW123162   0.119   2.931   4.179 -1.6758  0.3788 -0.6910
 3901SOL    HW223163   0.079   2.847   4.294 -0.0416  0.6675  0.1263
 3902SOL     OW23164   1.096   4.258  11.337  0.4515 -0.1807  0.4094
 3902SOL    HW123165   1.091   4.302  11.421  0.5169 -2.0570  1.3841
 3902SOL    HW223166   1.110   4.168  11.367 -0.0346  0.7182  3.2363
 3903SOL     OW23167   4.210   4.648   4.508  0.2833  0.1796  0.3275
 3903SOL    HW123168   4.206   4.662   4.602 -0.0605  1.0889  0.1802
 3903SOL    HW223169   4.194   0.019   4.483 -0.1730  0.2401  0.8535
 3904SOL     OW23170   1.193   4.058  10.378  0.5330 -0.3614 -0.1201
 3904SOL    HW123171   1.204   4.149  10.350  0.3575 -0.3344 -0.1043
 3904SOL    HW223172   1.128   4.067  10.449  0.0312  1.5159 -0.8103
 3905SOL     OW23173   1.733   3.845   8.652  0.4712 -0.2936  1.0837
 3905SOL    HW123174   1.706   3.917   8.709  0.7807 -2.1211  3.5529
 3905SOL    HW223175   1.821   3.826   8.687  0.6192 -0.6937  0.4890
 3906SOL     OW23176   2.692   3.707   3.146  0.1981  0.1798 -0.1524
 3906SOL    HW123177   2.762   3.749   3.095 -0.5055  1.3176 -0.1897
 3906SOL    HW223178   2.622   3.711   3.081  0.1519 -3.0279 -0.2978
 3907SOL     OW23179   1.799   4.272   7.072  0.4087  0.0715  0.4579
 3907SOL    HW123180   1.814   4.245   6.982  0.1116 -1.0271  0.7259
 3907SOL    HW223181   1.798   4.365   7.050 -0.9092  0.6217  2.8725
 3908SOL     OW23182   3.723   4.685   2.293  0.1865 -0.2327  0.0318
 3908SOL    HW123183   3.691   4.595   2.295  0.0888 -0.2186 -1.2127
 3908SOL    HW223184   3.783   4.686   2.218  0.3151  2.7172  0.1666
 3909SOL     OW23185   1.701   2.298   6.181  0.1388 -0.1791 -0.1063
 3909SOL    HW123186   1.717   2.251   6.263 -0.1175 -0.2084 -0.0707
 3909SOL    HW223187   1.641   2.362   6.220  1.7821  0.0608  2.0520
 3910SOL     OW23188   0.478   4.062   8.015 -0.0811 -0.5243  0.2660
 3910SOL    HW123189   0.538   4.058   7.941  3.0209 -2.8115  2.9008
 3910SOL    HW223190   0.503   4.147   8.053 -0.1678 -0.3312 -0.1041
 3911SOL     OW23191   4.618   0.233  16.262  0.2297  0.5634  0.0754
 3911SOL    HW123192   4.619   0.196  16.174  1.7553  0.9018 -0.0462
 3911SOL    HW223193   4.675   0.309  16.248  0.2892  0.4282 -0.4119
 3912SOL     OW23194   1.725   3.632   1.970 -0.3645  0.1279 -0.0258
 3912SOL    HW123195   1.699   3.541   1.955  0.1982  0.4009 -2.6971
 3912SOL    HW223196   1.807   3.625   2.019  0.0253 -0.3635 -0.7456
 3913SOL     OW23197   3.956   3.590  11.084  0.4511  0.6011 -0.4435
 3913SOL    HW123198   4.037   3.540  11.086  0.0371 -0.0370  0.7117
 3913SOL    HW223199   3.935   3.600  10.992  0.4562 -3.6715 -0.8746
 3914SOL     OW23200   0.873   0.522  16.141 -0.6671  0.0663  0.2745
 3914SOL    HW123201   0.954   0.517  16.092 -0.5898 -0.2481  0.4306
 3914SOL    HW223202   0.893   0.466  16.216  0.2415 -1.5833 -1.2069
 3915SOL     OW23203   0.045   1.294   0.743  0.0051 -0.1935 -0.3354
 3915SOL    HW123204   0.024   1.232   0.673  0.6524  2.0245 -2.5079
 3915SOL    HW223205   0.088   1.364   0.693  0.6069 -0.0151  0.4461
 3916SOL     OW23206   1.647   0.501  11.272  0.0214 -0.4485  0.0585
 3916SOL    HW123207   1.710   0.572  11.287  0.1813 -0.4338 -0.6793
 3916SOL    HW223208   1.705   0.425  11.277  1.0303  0.2341 -1.1374
 3917SOL     OW23209   3.787   4.176   5.227 -0.2300  0.4338  0.4447
 3917SOL    HW123210   3.746   4.261   5.242  2.6488  1.9541 -0.3382
 3917SOL    HW223211   3.803   4.148   5.317  0.4270 -2.6065 -0.5985
 3918SOL     OW23212   1.404   2.764   4.231  0.0132 -0.0399 -0.3625
 3918SOL    HW123213   1.400   2.670   4.212 -1.3661 -0.0191 -0.1758
 3918SOL    HW223214   1.336   2.803   4.177 -1.2232 -0.6009  0.7962
 3919SOL     OW23215   2.031   0.328  11.441 -0.5113  0.0008 -0.1121
 3919SOL    HW123216   1.980   0.325  11.360  1.3162  1.2256 -1.2987
 3919SOL    HW223217   2.088   0.403  11.425 -0.8478  0.3790  0.4619
 3920SOL     OW23218   4.105   0.249   6.672  0.3676 -0.0210 -0.3780
 3920SOL    HW123219   4.090   0.188   6.745  0.3057 -2.5344 -2.5026
 3920SOL    HW223220   4.201   0.244   6.670  0.5560  3.1437  0.4681
 3921SOL     OW23221   3.392   4.694  13.151 -0.0777  0.1738  0.4504
 3921SOL    HW123222   3.309   4.645  13.145  0.1904 -0.0484 -1.3934
 3921SOL    HW223223   3.376   0.061  13.186 -2.3751 -0.0896  0.0991
 3922SOL     OW23224   3.941   3.760   2.785  0.0574 -0.0344 -0.1462
 3922SOL    HW123225   3.977   3.735   2.870  2.7894 -1.5398 -1.7504
 3922SOL    HW223226   4.010   3.820   2.755 -0.5976  0.9965  0.4114
 3923SOL     OW23227   1.949   4.139   4.847  0.3182 -0.5675 -0.7413
 3923SOL    HW123228   1.855   4.155   4.843  0.2613 -1.1810 -1.8596
 3923SOL    HW223229   1.972   4.218   4.799 -0.8869 -0.2931 -0.8598
 3924SOL     OW23230   0.714   0.925   0.409  0.1991 -0.1722  0.4787
 3924SOL    HW123231   0.698   1.007   0.361  1.6732 -0.7078 -0.9150
 3924SOL    HW223232   0.629   0.917   0.454  0.5662  1.2493  1.4079
 3925SOL     OW23233   1.587   1.649   7.403  0.0943  0.9169  0.2029
 3925SOL    HW123234   1.555   1.562   7.426  2.0677  0.7690  2.3262
 3925SOL    HW223235   1.543   1.660   7.318  0.5073 -3.4772 -0.5390
 3926SOL     OW23236   1.210   1.777   7.894 -0.2184  0.1532  0.0786
 3926SOL    HW123237   1.252   1.852   7.937 -1.1499  1.0431 -0.5503
 3926SOL    HW223238   1.147   1.751   7.961 -0.5316 -1.7264 -0.9617
 3927SOL     OW23239   0.635   2.504   7.619  0.1974 -0.2072  0.0573
 3927SOL    HW123240   0.607   2.496   7.710  0.1878 -1.6120 -0.0628
 3927SOL    HW223241   0.730   2.494   7.627  0.1597 -2.1772 -2.0081
 3928SOL     OW23242   2.014   1.561   6.822  0.1104  0.3009  0.2624
 3928SOL    HW123243   2.054   1.513   6.749 -0.3203 -0.3557  0.4536
 3928SOL    HW223244   1.923   1.543   6.801  1.0673 -2.7099 -1.3657
 3929SOL     OW23245   1.294   1.548  15.795  0.2094  0.0231 -0.1407
 3929SOL    HW123246   1.367   1.586  15.745 -0.1337  0.8536 -0.0154
 3929SOL    HW223247   1.262   1.481  15.735 -0.4726  2.3319 -2.3583
 3930SOL     OW23248   1.963   3.688   1.464 -0.5687  0.4488 -0.7319
 3930SOL    HW123249   1.929   3.599   1.452 -0.5862  0.6186 -2.0194
 3930SOL    HW223250   1.892   3.745   1.433 -3.1890 -1.7862  1.1769
 3931SOL     OW23251   4.224   2.756   1.441  0.1014  0.2950  0.0519
 3931SOL    HW123252   4.134   2.784   1.423  0.3657  0.8122 -0.4790
 3931SOL    HW223253   4.268   2.765   1.356 -1.6037  1.2491 -0.7354
 3932SOL     OW23254   3.290   1.842   4.050 -0.5211 -0.3126 -0.7273
 3932SOL    HW123255   3.274   1.749   4.064  0.0232 -0.3175 -0.1694
 3932SOL    HW223256   3.384   1.832   4.038 -0.7652 -3.0887 -0.2708
 3933SOL     OW23257   2.258   3.995   7.454 -0.2783  0.1607  0.6535
 3933SOL    HW123258   2.283   4.077   7.496  2.9355  0.1075 -1.1536
 3933SOL    HW223259   2.270   4.018   7.362 -1.0002  0.4776  0.6389
 3934SOL     OW23260   3.928   3.634   2.531 -0.1334 -0.1163  0.0060
 3934SOL    HW123261   3.921   3.660   2.622  0.0789 -0.4068  0.1050
 3934SOL    HW223262   3.863   3.698   2.502 -0.6214 -0.7383 -0.2806
 3935SOL     OW23263   1.689   2.975   3.085  0.1508  0.5966 -0.1780
 3935SOL    HW123264   1.678   3.004   2.995  0.2466  0.0597 -0.3635
 3935SOL    HW223265   1.776   3.012   3.100  0.6287 -0.7900  0.5360
 3936SOL     OW23266   1.543   3.651   8.892 -0.4725  0.3928 -0.8082
 3936SOL    HW123267   1.508   3.730   8.852 -0.2370  0.4765 -0.8497
 3936SOL    HW223268   1.548   3.676   8.984  1.3164 -2.3855 -0.1227
 3937SOL     OW23269   4.438   4.221   7.930 -0.1780  0.1609 -0.6556
 3937SOL    HW123270   4.470   4.133   7.912  1.1755  0.9867 -2.2359
 3937SOL    HW223271   4.445   4.222   8.026 -2.7745 -1.7759 -0.4406
 3938SOL     OW23272   4.573   0.055   7.693 -0.1140  0.5696 -0.0713
 3938SOL    HW123273   4.666   0.038   7.709  0.0548  2.2767  0.8284
 3938SOL    HW223274   4.584   0.098   7.609  1.2028  2.5123  1.0719
 3939SOL     OW23275   4.626   1.438   4.948  0.1610 -0.1011 -0.1583
 3939SOL    HW123276   4.577   1.430   5.030  1.4941  0.2990  0.6859
 3939SOL    HW223277   4.674   1.512   4.983 -0.1332  0.4873 -0.9886
 3940SOL     OW23278   3.794   4.559   6.123 -0.2322  0.2944  0.2065
 3940SOL    HW123279   3.837   4.644   6.130  0.2901  0.0817 -0.4628
 3940SOL    HW223280   3.871   4.507   6.101  0.0123  0.1841  1.3365
 3941SOL     OW23281   3.823   0.458   0.870  0.0257 -0.0691  0.0802
 3941SOL    HW123282   3.873   0.528   0.826  0.1976  0.6270  1.3937
 3941SOL    HW223283   3.805   0.500   0.954 -0.3878  0.6325 -0.3545
 3942SOL     OW23284   0.665   1.464  16.195 -0.0351  0.6597 -0.4857
 3942SOL    HW123285   0.675   1.535  16.132 -2.9277  0.2181 -1.4512
 3942SOL    HW223286   0.734   1.483  16.259 -0.3700  2.6612 -0.7174
 3943SOL     OW23287   4.031   0.581   0.633 -0.0919  0.4359  0.0932
 3943SOL    HW123288   4.059   0.603   0.722 -2.0685  0.6137  0.6641
 3943SOL    HW223289   4.107   0.603   0.579 -0.5758 -0.7349 -1.0429
 3944SOL     OW23290   0.025   3.977   3.043 -0.4157  0.2977 -0.1783
 3944SOL    HW123291   4.657   3.970   3.007 -0.5732  1.8600 -0.1021
 3944SOL    HW223292   0.077   3.939   2.972 -1.1560  2.8422 -2.1155
 3945SOL     OW23293   3.511   0.894  14.747  0.0479 -0.2667  0.7419
 3945SOL    HW123294   3.459   0.818  14.772 -2.9737  1.1008 -1.2395
 3945SOL    HW223295   3.451   0.968  14.761 -0.3319 -0.4609  0.1458
 3946SOL     OW23296   3.526   1.326  16.075  0.0968  0.2055 -0.2244
 3946SOL    HW123297   3.450   1.274  16.048 -1.1692  1.1809  1.4128
 3946SOL    HW223298   3.501   1.414  16.103  1.3858  1.1825 -2.1871
 3947SOL     OW23299   4.647   3.832   0.027 -0.3342 -0.0702 -0.0713
 3947SOL    HW123300   4.713   3.887   0.070 -0.4394 -0.6385  0.8324
 3947SOL    HW223301   4.622   3.880  17.634  0.3151  1.9185  0.9328
 3948SOL     OW23302   1.198   3.219   2.564 -0.0719  0.2089  0.1724
 3948SOL    HW123303   1.121   3.171   2.534 -0.1861  1.2746 -1.2472
 3948SOL    HW223304   1.220   3.271   2.487  0.2351  0.0988  0.1860
 3949SOL     OW23305   3.605   1.886   5.714  0.2908 -0.0886 -0.4654
 3949SOL    HW123306   3.623   1.979   5.698 -0.2124  0.3644  1.6259
 3949SOL    HW223307   3.512   1.896   5.691  0.0373  1.0053  1.0693
 3950SOL     OW23308   4.507   2.485   2.090 -0.4246 -0.3761 -0.2333
 3950SOL    HW123309   4.576   2.418   2.091 -0.6360 -0.5796  0.5317
 3950SOL    HW223310   4.434   2.433   2.122 -0.7581  0.9313  1.1163
 3951SOL     OW23311   2.366   3.041   8.840 -0.3224 -0.2051 -0.4421
 3951SOL    HW123312   2.321   3.125   8.827  0.9215  0.5080 -0.1539
 3951SOL    HW223313   2.376   3.041   8.935  1.6290 -2.2800 -0.6542
 3952SOL     OW23314   0.566   3.202   2.803 -0.0276 -0.6304  0.2608
 3952SOL    HW123315   0.563   3.297   2.812  0.9312 -0.3584 -2.1072
 3952SOL    HW223316   0.660   3.193   2.819  0.4584 -0.6217 -2.5940
 3953SOL     OW23317   2.355   3.441   7.330 -0.3011 -0.2828 -0.1028
 3953SOL    HW123318   2.293   3.513   7.345 -1.0724 -0.6103 -1.8143
 3953SOL    HW223319   2.417   3.462   7.400 -1.7335  0.9080  0.8221
 3954SOL     OW23320   0.453   3.526   8.994 -0.0020  0.1688  0.4137
 3954SOL    HW123321   0.415   3.512   8.907  0.1851 -1.0636  0.5342
 3954SOL    HW223322   0.410   3.470   9.058  2.3111 -0.2958  1.5369
 3955SOL     OW23323   2.800   4.224   9.423 -0.0162  0.3430 -0.0905
 3955SOL    HW123324   2.832   4.147   9.470  1.9862  1.2494  0.0299
 3955SOL    HW223325   2.763   4.268   9.499  1.2938 -1.5548  1.6500
 3956SOL     OW23326   2.060   1.206   8.032 -0.2570 -0.4948 -0.4588
 3956SOL    HW123327   2.010   1.280   7.998 -1.1055  0.8030  3.5891
 3956SOL    HW223328   2.035   1.151   7.958 -0.1583  0.4822 -1.2217
 3957SOL     OW23329   3.593   1.018  14.522 -1.1045  0.4291  0.7145
 3957SOL    HW123330   3.599   1.103  14.566 -0.7977 -0.0862  1.6697
 3957SOL    HW223331   3.593   0.952  14.592 -1.1683 -0.7606 -0.4070
 3958SOL     OW23332   0.913   2.899   5.845 -0.7271  0.0782  0.1606
 3958SOL    HW123333   0.832   2.910   5.895  0.1551 -0.1604  1.6203
 3958SOL    HW223334   0.967   2.973   5.872  0.9353 -0.9820 -0.2461
 3959SOL     OW23335   1.543   4.492   7.262  0.2187 -0.4078 -0.3780
 3959SOL    HW123336   1.504   4.540   7.188 -0.1890 -0.2875 -0.0846
 3959SOL    HW223337   1.583   4.563   7.313 -2.6509  0.2162  1.0060
 3960SOL     OW23338   3.137   2.552  10.277  0.4242 -0.0969 -0.1854
 3960SOL    HW123339   3.077   2.627  10.281 -3.1931 -2.9405 -0.6135
 3960SOL    HW223340   3.105   2.487  10.340  2.1743 -0.7459  0.0319
 3961SOL     OW23341   0.439   1.571   3.449 -0.3292  0.0679  0.0143
 3961SOL    HW123342   0.460   1.642   3.389 -1.8945 -0.1619 -0.8237
 3961SOL    HW223343   0.442   1.497   3.389  1.6107  0.5468 -0.4627
 3962SOL     OW23344   4.006   1.207   2.085  0.0692  0.0086 -0.0910
 3962SOL    HW123345   3.947   1.163   2.024  0.5881 -3.0651  1.6011
 3962SOL    HW223346   4.061   1.134   2.115 -0.8507 -0.4861  0.3636
 3963SOL     OW23347   2.259   4.438   8.458  0.2772  0.4728 -0.3346
 3963SOL    HW123348   2.299   4.486   8.530 -2.5848  0.6018  1.1597
 3963SOL    HW223349   2.189   4.387   8.499  0.2410 -0.0194 -1.0076
 3964SOL     OW23350   1.802   2.681  14.121 -0.4879  0.6203 -0.1753
 3964SOL    HW123351   1.830   2.594  14.092 -0.1267  0.6097  0.2067
 3964SOL    HW223352   1.831   2.749  14.060  1.3283 -0.0609 -0.0635
 3965SOL     OW23353   1.871   4.394  10.780  0.0519 -0.0515 -0.4234
 3965SOL    HW123354   1.792   4.449  10.773  0.5073  0.7595  0.8416
 3965SOL    HW223355   1.850   4.319  10.834 -0.8297 -1.7337 -3.0947
 3966SOL     OW23356   3.673   3.890   1.133 -0.4329 -0.0067  0.4214
 3966SOL    HW123357   3.713   3.806   1.154 -1.7982 -1.2138 -1.7568
 3966SOL    HW223358   3.692   3.946   1.208 -1.2502  0.8900 -0.0317
 3967SOL     OW23359   0.366   4.516   4.381  0.9959 -0.1474 -0.5169
 3967SOL    HW123360   0.324   4.560   4.455  1.6131 -2.2258  1.0910
 3967SOL    HW223361   0.296   4.457   4.351  0.4885  0.0398  0.2864
 3968SOL     OW23362   1.293   4.256  17.414 -0.2728  0.2025 -0.7176
 3968SOL    HW123363   1.220   4.251  17.351 -0.0298  0.2824 -1.0061
 3968SOL    HW223364   1.363   4.205  17.373  1.0273  1.4275 -0.0104
 3969SOL     OW23365   3.909   3.617  10.813 -0.0244 -0.0231 -0.1631
 3969SOL    HW123366   3.910   3.649  10.723 -0.7698  1.6877  0.4395
 3969SOL    HW223367   3.816   3.608  10.833  0.0702  0.2624  0.4162
 3970SOL     OW23368   3.410   0.359   1.801 -0.2813  0.4735  0.4837
 3970SOL    HW123369   3.467   0.414   1.747  0.0971 -2.3250 -1.9850
 3970SOL    HW223370   3.469   0.316   1.863  1.0177  0.1339 -1.0015
 3971SOL     OW23371   0.319   3.334   9.134  0.6743  1.0513  0.4367
 3971SOL    HW123372   0.341   3.243   9.155 -1.6075 -0.1650 -2.4754
 3971SOL    HW223373   0.289   3.354   9.223 -0.2083  4.0559 -0.5391
 3972SOL     OW23374   4.571   1.379  13.687 -0.0157 -0.3922  0.5695
 3972SOL    HW123375   4.515   1.406  13.761  1.8563  1.5041  1.2948
 3972SOL    HW223376   4.573   1.284  13.702  0.9519 -0.3626  0.6230
 3973SOL     OW23377   1.476   3.059   4.268  0.7099  0.2240 -0.0143
 3973SOL    HW123378   1.531   2.980   4.267  1.1026  0.5092 -0.8067
 3973SOL    HW223379   1.494   3.098   4.183 -0.6404  0.3022 -0.2691
 3974SOL     OW23380   3.985   1.453   8.380 -0.1179 -0.0412  0.1429
 3974SOL    HW123381   3.990   1.361   8.404  1.6647 -0.6265 -2.4610
 3974SOL    HW223382   4.016   1.497   8.459  0.3841  0.7502 -0.4882
 3975SOL     OW23383   3.265   3.137   1.741 -0.0901 -0.0229 -0.2860
 3975SOL    HW123384   3.262   3.045   1.766  1.2326  0.7709  2.7534
 3975SOL    HW223385   3.310   3.175   1.816  0.4117 -0.1181 -0.5379
 3976SOL     OW23386   3.060   3.652  14.847  0.2328  0.4753 -0.2882
 3976SOL    HW123387   3.085   3.741  14.869  1.2131 -0.2437  1.5037
 3976SOL    HW223388   3.046   3.664  14.753  1.7108 -1.7833 -0.7998
 3977SOL     OW23389   2.045   2.524   7.912 -0.1045  0.1542  0.4354
 3977SOL    HW123390   2.000   2.598   7.872 -2.2192 -2.2210 -1.5997
 3977SOL    HW223391   2.052   2.459   7.841  3.8196 -0.4748  1.3962
 3978SOL     OW23392   3.055   2.990   9.251  0.2411 -0.0640 -0.0442
 3978SOL    HW123393   3.018   2.917   9.201 -0.3371  2.7560 -3.8256
 3978SOL    HW223394   3.089   3.052   9.185  0.7826 -0.5579 -0.2293
 3979SOL     OW23395   3.916   4.546  13.098 -0.1203 -0.7342  0.1646
 3979SOL    HW123396   3.943   4.560  13.188 -0.0102 -1.1994  0.2038
 3979SOL    HW223397   3.840   4.603  13.089 -0.2173 -1.5522 -4.4926
 3980SOL     OW23398   2.649   2.856   7.641  0.1745 -0.1651 -0.7961
 3980SOL    HW123399   2.671   2.943   7.607  1.6645  0.1329  0.9223
 3980SOL    HW223400   2.740   2.837   7.662  0.2025 -0.2804 -1.0249
 3981SOL     OW23401   3.475   0.911  15.934  0.0017  0.9149 -0.6169
 3981SOL    HW123402   3.567   0.894  15.956 -1.2243 -2.7825  1.7708
 3981SOL    HW223403   3.484   0.973  15.862 -2.6610  3.2749  1.0682
 3982SOL     OW23404   3.489   4.678   1.887  0.4385 -0.0008  0.2042
 3982SOL    HW123405   3.411   4.668   1.942  0.4710 -0.6984  0.1312
 3982SOL    HW223406   3.566   4.655   1.939  1.4870  1.1382 -0.8679
 3983SOL     OW23407   2.837   0.615   0.399  0.0032  0.2696 -0.3279
 3983SOL    HW123408   2.892   0.589   0.473 -0.2681  1.3982  0.2714
 3983SOL    HW223409   2.884   0.697   0.382  0.4093 -0.2888 -1.9250
 3984SOL     OW23410   3.233   4.397  12.500 -0.0421  0.0176  0.4427
 3984SOL    HW123411   3.297   4.464  12.526  1.7049 -0.5218 -2.5120
 3984SOL    HW223412   3.182   4.455  12.445 -2.9362 -2.1237  0.8773
 3985SOL     OW23413   3.615   2.511  16.309  0.1252  0.0626  0.0416
 3985SOL    HW123414   3.604   2.548  16.396 -1.2520 -0.4139  0.0611
 3985SOL    HW223415   3.535   2.461  16.293 -0.3946  0.9205 -0.0140
 3986SOL     OW23416   1.562   1.996   3.313 -0.5984 -0.3412  0.5422
 3986SOL    HW123417   1.593   1.985   3.403 -0.2509 -0.0615  0.4540
 3986SOL    HW223418   1.625   1.940   3.268  0.4484 -0.7190  2.4714
 3987SOL     OW23419   4.330   3.910   9.992 -0.3582 -0.2535 -0.8056
 3987SOL    HW123420   4.325   3.929  10.085 -2.7869 -2.9715 -0.3802
 3987SOL    HW223421   4.376   3.986   9.957  1.8673 -0.8736  0.7023
 3988SOL     OW23422   3.115   0.089  15.649  0.5815  0.1807  0.0319
 3988SOL    HW123423   3.062   0.010  15.664  0.5375  0.4115  1.1240
 3988SOL    HW223424   3.147   0.071  15.561 -1.3243 -0.7550 -0.4654
 3989SOL     OW23425   2.299   1.791   3.821  0.2184  0.2773 -0.4055
 3989SOL    HW123426   2.363   1.861   3.827 -2.2849  2.5715 -0.2148
 3989SOL    HW223427   2.244   1.802   3.899 -1.8599 -1.1412 -1.6696
 3990SOL     OW23428   1.416   2.132   6.298 -0.1399 -0.2556 -0.5848
 3990SOL    HW123429   1.443   2.103   6.385 -2.2372  1.4513  0.6414
 3990SOL    HW223430   1.388   2.222   6.314 -0.7807 -0.6044  0.2530
 3991SOL     OW23431   2.599   2.394   0.322 -0.4620  0.0622 -0.1641
 3991SOL    HW123432   2.566   2.375   0.410 -2.9878  2.7440 -0.5438
 3991SOL    HW223433   2.530   2.365   0.263 -1.3146 -0.3349  1.0270
 3992SOL     OW23434   1.317   4.242   3.978 -0.3798 -0.2730 -0.5608
 3992SOL    HW123435   1.396   4.196   4.005 -0.3287 -0.6298 -1.3088
 3992SOL    HW223436   1.255   4.219   4.048  2.1682 -0.3644  1.6522
 3993SOL     OW23437   4.591   1.355   4.571  0.7545 -0.0470 -0.4200
 3993SOL    HW123438   4.553   1.398   4.647 -1.0333 -0.0384 -1.3395
 3993SOL    HW223439   4.684   1.378   4.561  1.0141 -1.0249 -0.2156
 3994SOL     OW23440   1.707   2.911   5.292  0.1033  0.1780 -0.5958
 3994SOL    HW123441   1.775   2.912   5.359  0.8473  0.5458 -1.3544
 3994SOL    HW223442   1.678   2.822   5.313 -0.5015  0.4164 -0.4393
 3995SOL     OW23443   3.258   0.257   4.592  1.1513  0.0719  0.4662
 3995SOL    HW123444   3.280   0.350   4.579 -1.3766  0.6466  0.1620
 3995SOL    HW223445   3.169   0.267   4.628  1.3684 -0.0250  1.0221
 3996SOL     OW23446   0.262   0.019   7.133  0.9227 -0.0099  0.4065
 3996SOL    HW123447   0.190   4.695   7.178 -0.1373  0.2889 -0.9609
 3996SOL    HW223448   0.242   0.112   7.138  1.0988 -0.0166  1.1631
 3997SOL     OW23449   4.455   3.844  14.111  0.6303 -0.3355 -0.0583
 3997SOL    HW123450   4.402   3.788  14.168 -0.5067  1.5027  0.7128
 3997SOL    HW223451   4.400   3.852  14.033 -1.0819  2.9210  1.4787
 3998SOL     OW23452   2.911   0.016   1.643  0.2674  0.2487  0.0289
 3998SOL    HW123453   2.905   4.643   1.625 -1.6448  0.1161  1.3324
 3998SOL    HW223454   2.989   0.025   1.698 -0.7858 -0.2672  1.6241
 3999SOL     OW23455   1.985   2.680   1.673  0.0070 -0.0732 -0.0699
 3999SOL    HW123456   2.001   2.620   1.601 -0.3799  1.1430 -1.1762
 3999SOL    HW223457   2.026   2.634   1.746 -0.2463  0.2140  0.2524
 4000SOL     OW23458   1.177   0.593   2.048  0.3638  0.9825 -0.1910
 4000SOL    HW123459   1.210   0.653   1.981 -1.0647  2.8847  0.7806
 4000SOL    HW223460   1.227   0.520   2.012  1.5789  1.8433 -0.2470
 4001SOL     OW23461   3.776   1.313   2.178  0.0132 -0.3978 -0.0882
 4001SOL    HW123462   3.738   1.232   2.211  2.1337 -0.6688  1.6670
 4001SOL    HW223463   3.849   1.266   2.138  1.5098  0.5855  1.4781
 4002SOL     OW23464   0.321   2.548   0.835 -0.9198 -0.0333 -1.3738
 4002SOL    HW123465   0.354   2.459   0.849 -0.4589  0.0653 -1.8231
 4002SOL    HW223466   0.249   2.541   0.772  0.2745  0.7209 -2.8107
 4003SOL     OW23467   0.025   1.411   0.445 -0.2385 -0.5641  0.2603
 4003SOL    HW123468   0.060   1.326   0.415 -1.1119 -0.5828 -0.6883
 4003SOL    HW223469   0.059   1.461   0.371 -0.1465  2.1373  2.1437
 4004SOL     OW23470   1.374   1.350  15.971 -0.2097  0.6152  0.0828
 4004SOL    HW123471   1.423   1.311  15.898 -1.2862 -1.3242  0.3869
 4004SOL    HW223472   1.328   1.417  15.919 -0.8410 -1.0494 -1.5319
 4005SOL     OW23473   0.174   1.535   5.404 -0.0405  0.1012  0.3777
 4005SOL    HW123474   0.126   1.479   5.343 -1.1624  1.6025 -0.1097
 4005SOL    HW223475   0.184   1.477   5.480  2.2961  0.6040  0.4589
 4006SOL     OW23476   1.671   1.282   3.820 -0.2753 -0.4603  0.1973
 4006SOL    HW123477   1.627   1.367   3.823 -0.9581 -0.7979 -0.2194
 4006SOL    HW223478   1.649   1.256   3.730 -0.4541  0.0874  0.0842
 4007SOL     OW23479   2.066   0.060   2.967 -0.1494  0.2519 -0.2826
 4007SOL    HW123480   2.104   4.714   2.910 -0.6253 -0.9717  0.8275
 4007SOL    HW223481   2.099   0.024   3.050  1.3182  0.0186 -0.9615
 4008SOL     OW23482   1.764   3.252   8.357  0.1962 -0.0078 -0.1211
 4008SOL    HW123483   1.831   3.321   8.355  1.7556 -1.5472 -1.1405
 4008SOL    HW223484   1.762   3.252   8.453  2.0656 -0.2443 -0.0723
 4009SOL     OW23485   0.640   1.411   7.542 -0.3482 -0.2537  0.3623
 4009SOL    HW123486   0.645   1.375   7.453 -2.5046 -1.7094  0.8546
 4009SOL    HW223487   0.568   1.354   7.567 -1.2227  1.0413  0.7866
 4010SOL     OW23488   3.755   3.760  15.286  0.4523  0.8890 -0.4046
 4010SOL    HW123489   3.689   3.771  15.217  2.0062  0.4293 -1.9804
 4010SOL    HW223490   3.760   3.852  15.314 -2.6353  1.2036 -0.7780
 4011SOL     OW23491   1.479   4.301   2.496 -0.0512 -0.3520 -0.5669
 4011SOL    HW123492   1.390   4.323   2.526  0.8863  1.2446  1.0460
 4011SOL    HW223493   1.524   4.379   2.527  0.3341 -0.5434 -0.6475
 4012SOL     OW23494   2.158   0.424  15.386  0.1097  0.3361 -0.1558
 4012SOL    HW123495   2.163   0.517  15.409 -2.2953  0.7063 -1.1539
 4012SOL    HW223496   2.072   0.408  15.424  0.8783 -1.6975  0.7203
 4013SOL     OW23497   3.083   3.879   8.465  0.4014  0.4394 -0.3808
 4013SOL    HW123498   3.077   3.947   8.533 -0.9911  0.1650 -0.2274
 4013SOL    HW223499   3.019   3.815   8.497  0.0509  1.1811  0.4075
 4014SOL     OW23500   3.431   1.888   6.853 -0.4541 -0.1812  0.4940
 4014SOL    HW123501   3.426   1.803   6.896  0.3717 -0.9486 -0.9202
 4014SOL    HW223502   3.468   1.944   6.921  0.4351  0.0931 -0.2042
 4015SOL     OW23503   4.269   0.737   6.657 -0.0456 -0.1056  0.1154
 4015SOL    HW123504   4.263   0.831   6.675  1.9931  0.3253 -1.4878
 4015SOL    HW223505   4.226   0.739   6.572  0.0995  1.3621  0.0747
 4016SOL     OW23506   4.273   1.510   8.776 -0.3906  0.3324  0.7367
 4016SOL    HW123507   4.235   1.454   8.843 -0.4166 -0.2635  0.2275
 4016SOL    HW223508   4.289   1.594   8.819 -0.0980  0.2631  0.7677
 4017SOL     OW23509   1.722   1.640   8.868 -0.2505 -0.1073  0.7503
 4017SOL    HW123510   1.730   1.565   8.927  1.3797 -1.2070 -0.8922
 4017SOL    HW223511   1.791   1.694   8.908  0.3581 -0.4686  0.1890
 4018SOL     OW23512   0.231   1.412  14.651  0.3389 -0.0006  0.3071
 4018SOL    HW123513   0.310   1.445  14.610  0.3646 -0.0976  0.2777
 4018SOL    HW223514   0.177   1.491  14.644 -0.7599 -0.6884  0.8847
 4019SOL     OW23515   3.955   2.755   1.685  0.4527  0.4611 -0.1330
 4019SOL    HW123516   3.895   2.802   1.744  2.1755  1.8258  0.5278
 4019SOL    HW223517   3.935   2.791   1.599  3.9607 -0.3549 -1.2896
 4020SOL     OW23518   0.953   3.791   4.644 -0.3704 -0.1861 -0.1102
 4020SOL    HW123519   0.869   3.752   4.620 -1.1203  0.2748  1.7185
 4020SOL    HW223520   0.948   3.878   4.604 -0.8496  0.3592  1.1295
 4021SOL     OW23521   2.832   1.346   9.319  0.3109 -0.2051 -0.8191
 4021SOL    HW123522   2.899   1.373   9.256  0.5670 -0.1596 -0.5238
 4021SOL    HW223523   2.870   1.380   9.400 -0.7066 -0.5397 -0.2092
 4022SOL     OW23524   3.936   3.846   7.959  0.0723 -0.0509  0.2190
 4022SOL    HW123525   3.922   3.838   7.864  1.6579  1.6484 -0.1579
 4022SOL    HW223526   3.849   3.874   7.985 -0.9327 -2.8592 -0.1334
 4023SOL     OW23527   3.039   2.156   7.556 -0.1194  0.8372  0.8110
 4023SOL    HW123528   3.093   2.187   7.629  0.7065  2.2288 -0.3845
 4023SOL    HW223529   3.048   2.060   7.557 -1.6103  0.6913 -0.8694
 4024SOL     OW23530   0.662   0.502   1.577 -0.4827 -0.1848  0.6223
 4024SOL    HW123531   0.594   0.439   1.553  0.2276 -1.5038  2.0569
 4024SOL    HW223532   0.739   0.457   1.542 -0.4323 -0.7226  1.4452
 4025SOL     OW23533   1.155   3.569  14.671  0.9806 -0.2606 -0.2123
 4025SOL    HW123534   1.204   3.517  14.607  1.3793  0.7103 -0.7170
 4025SOL    HW223535   1.112   3.503  14.725  1.6945 -0.6585 -0.1335
 4026SOL     OW23536   3.483   0.968   6.532 -0.0440  0.0083  0.2082
 4026SOL    HW123537   3.427   0.947   6.458  0.9367  0.5226 -0.6872
 4026SOL    HW223538   3.479   0.886   6.581  0.7902  0.6565  1.3636
 4027SOL     OW23539   4.615   2.302   6.257  0.6189  0.2703  0.1067
 4027SOL    HW123540   4.569   2.219   6.266  2.4134 -0.7752 -0.4204
 4027SOL    HW223541   4.559   2.349   6.195 -0.5274 -0.8109  0.3235
 4028SOL     OW23542   1.795   1.383   5.516  0.5956 -0.2275  0.3315
 4028SOL    HW123543   1.878   1.379   5.562  1.0515 -0.3363 -0.5025
 4028SOL    HW223544   1.817   1.417   5.429 -1.0133 -0.7644 -0.2909
 4029SOL     OW23545   2.874   3.990   6.102  0.2177 -0.1999 -0.0629
 4029SOL    HW123546   2.875   4.042   6.021 -0.4212 -1.9308 -1.1845
 4029SOL    HW223547   2.905   3.907   6.064 -1.1621 -0.6466 -0.1874
 4030SOL     OW23548   0.674   3.620  15.603 -0.1051  0.0100  0.0988
 4030SOL    HW123549   0.705   3.597  15.516 -1.2734  1.3083 -0.6669
 4030SOL    HW223550   0.665   3.539  15.653 -0.2571 -0.2333 -0.3221
 4031SOL     OW23551   3.344   0.457   5.541  0.0597 -0.2344 -0.2805
 4031SOL    HW123552   3.353   0.422   5.629 -0.5784 -0.3589 -0.2671
 4031SOL    HW223553   3.326   0.374   5.496  1.7497  0.3600 -2.0490
 4032SOL     OW23554   2.336   3.650   7.643 -0.6348  0.0612  0.2056
 4032SOL    HW123555   2.300   3.681   7.560  1.3462 -0.1312 -0.7258
 4032SOL    HW223556   2.353   3.560   7.614  1.3423 -0.0404  1.7412
 4033SOL     OW23557   3.278   3.277   8.040  0.0345 -0.3606  0.2399
 4033SOL    HW123558   3.321   3.212   8.095 -1.1805 -0.8483  0.6184
 4033SOL    HW223559   3.350   3.338   8.026  0.3851 -0.9519 -0.5080
 4034SOL     OW23560   0.769   2.254   0.331 -0.1637  0.5292  0.2746
 4034SOL    HW123561   0.783   2.308   0.409 -0.7668 -2.8908  2.7722
 4034SOL    HW223562   0.826   2.181   0.355 -1.9029 -0.7936  0.3564
 4035SOL     OW23563   2.156   0.194   9.767  0.5481 -0.3616  0.5952
 4035SOL    HW123564   2.070   0.159   9.790 -0.4165 -0.0232 -2.4520
 4035SOL    HW223565   2.188   0.124   9.710  2.7637 -0.2885  1.7690
 4036SOL     OW23566   0.487   2.686   5.096 -0.4265 -0.6472  0.2326
 4036SOL    HW123567   0.468   2.748   5.026 -0.0742  0.1535  0.8403
 4036SOL    HW223568   0.448   2.743   5.162  1.1326 -1.2719  1.6955
 4037SOL     OW23569   0.377   1.173   8.502 -0.0198  0.0654 -0.1568
 4037SOL    HW123570   0.400   1.251   8.552 -0.3995  1.4329 -2.1167
 4037SOL    HW223571   0.317   1.124   8.559 -0.5413 -0.7353 -1.3964
 4038SOL     OW23572   0.744   3.465   1.855 -0.1181  0.0168 -0.4601
 4038SOL    HW123573   0.734   3.475   1.760  0.1678  0.1017 -0.4811
 4038SOL    HW223574   0.735   3.559   1.870  2.0719 -0.0463  1.3336
 4039SOL     OW23575   4.160   0.202   4.627 -0.3454 -0.0613 -0.3205
 4039SOL    HW123576   4.071   0.231   4.649  0.2023 -1.0136  3.1879
 4039SOL    HW223577   4.214   0.268   4.670 -0.1709  0.7020 -1.6845
 4040SOL     OW23578   4.316   3.662   7.078  0.5840 -0.0321 -0.1762
 4040SOL    HW123579   4.351   3.744   7.044  1.5165  0.8543  2.9691
 4040SOL    HW223580   4.350   3.589   7.025  0.8513  0.2833 -0.4349
 4041SOL     OW23581   4.642   1.219  13.969  0.2869 -0.4981  0.1475
 4041SOL    HW123582   4.675   1.258  14.050  0.7590 -0.9583  0.1745
 4041SOL    HW223583   4.571   1.282  13.952  0.7083 -0.2717 -0.7291
 4042SOL     OW23584   1.600   0.163   2.919  0.1313 -0.1007 -0.2238
 4042SOL    HW123585   1.663   0.122   2.860  1.9615  0.9370  1.0319
 4042SOL    HW223586   1.540   0.089   2.932 -2.4322  2.3737  1.9263
 4043SOL     OW23587   2.351   0.331   2.450 -0.0902  0.2383 -1.1914
 4043SOL    HW123588   2.388   0.246   2.428  0.7115  0.2644  0.0158
 4043SOL    HW223589   2.258   0.317   2.463  0.2932  0.4044  1.7455
 4044SOL     OW23590   0.159   1.452   1.491 -0.8534  0.3578  0.0836
 4044SOL    HW123591   0.079   1.431   1.539 -0.6423  2.4326  1.3622
 4044SOL    HW223592   0.130   1.458   1.400  1.1384  1.0105 -0.4979
 4045SOL     OW23593   2.208   3.925   2.215 -0.0379  0.5313  0.5885
 4045SOL    HW123594   2.269   3.954   2.283 -0.4081  1.4090  0.5466
 4045SOL    HW223595   2.261   3.859   2.171  0.1840  1.6272 -0.7904
 4046SOL     OW23596   0.192   4.233  12.766  0.6795  0.4076 -0.8164
 4046SOL    HW123597   0.260   4.268  12.709  1.4723  2.0296  1.1168
 4046SOL    HW223598   0.206   4.291  12.841  0.1097 -0.0318 -0.3638
 4047SOL     OW23599   3.358   3.776   2.533 -0.1852  0.4453 -0.5326
 4047SOL    HW123600   3.384   3.702   2.589  0.5828  0.5338 -0.7660
 4047SOL    HW223601   3.263   3.779   2.533 -0.1835  0.3202 -3.0803
 4048SOL     OW23602   2.552   1.492   2.364 -0.7028 -0.6264 -0.1613
 4048SOL    HW123603   2.608   1.456   2.296 -2.0042 -0.7297 -1.1842
 4048SOL    HW223604   2.547   1.582   2.332 -2.8622 -0.3713  0.8552
 4049SOL     OW23605   3.206   2.713   8.637  0.2146  0.6985 -0.6278
 4049SOL    HW123606   3.220   2.634   8.688 -0.8612  0.8873 -0.0367
 4049SOL    HW223607   3.155   2.769   8.696 -0.2377 -0.4075  0.0156
 4050SOL     OW23608   2.904   1.589   2.616  0.1908 -0.7074 -0.2985
 4050SOL    HW123609   2.974   1.530   2.587 -0.1040 -1.9276  1.4002
 4050SOL    HW223610   2.931   1.672   2.577  0.0666 -0.2650  0.5561
 4051SOL     OW23611   0.954   0.077   0.103  0.3322  0.9028  0.1490
 4051SOL    HW123612   0.995   0.090   0.189  0.7006 -0.8527  0.2441
 4051SOL    HW223613   1.037   0.061   0.056  0.3257  0.7265  0.1959
 4052SOL     OW23614   3.138   3.330   2.311 -0.5010 -0.5898 -0.5290
 4052SOL    HW123615   3.104   3.242   2.293 -0.2446 -0.6391 -0.7870
 4052SOL    HW223616   3.227   3.318   2.277 -0.1558 -1.7885  0.8075
 4053SOL     OW23617   0.255   3.704   2.207 -0.1266  0.2919  0.1554
 4053SOL    HW123618   0.338   3.693   2.162  1.0634 -0.9609  2.6565
 4053SOL    HW223619   0.216   3.616   2.204 -0.9420  0.5393  3.1966
 4054SOL     OW23620   2.380   3.718   9.557 -0.1224  0.1427  0.1950
 4054SOL    HW123621   2.323   3.649   9.591  1.3887 -2.1049 -1.8066
 4054SOL    HW223622   2.384   3.777   9.632 -1.0746  1.2747 -0.6187
 4055SOL     OW23623   1.115   2.289   3.700  0.4332 -0.0668  0.0094
 4055SOL    HW123624   1.065   2.290   3.781 -0.8709 -0.7147 -0.7920
 4055SOL    HW223625   1.184   2.223   3.710  0.7439  0.5934  2.2678
 4056SOL     OW23626   4.410   0.698   9.942  0.8513 -0.7692 -0.8556
 4056SOL    HW123627   4.370   0.668  10.024  1.3429 -0.1875 -0.4086
 4056SOL    HW223628   4.419   0.607   9.914  1.9479 -1.2347  1.0029
 4057SOL     OW23629   0.361   0.483   5.202  0.3388 -0.3762 -0.0054
 4057SOL    HW123630   0.279   0.495   5.156 -0.4769 -2.0879  0.9571
 4057SOL    HW223631   0.407   0.407   5.165  1.2675  0.2283 -0.0844
 4058SOL     OW23632   3.906   4.512  16.828  0.0413 -0.0784 -0.0757
 4058SOL    HW123633   3.916   4.480  16.918  1.1865  2.9229  0.8827
 4058SOL    HW223634   3.812   4.505  16.817  0.4212 -3.3971 -1.2452
 4059SOL     OW23635   3.291   4.140   0.602 -0.3741 -0.3692  0.0361
 4059SOL    HW123636   3.286   4.117   0.695 -0.1943  1.7156  0.5587
 4059SOL    HW223637   3.303   4.235   0.614  1.7793 -0.6976  0.3771
 4060SOL     OW23638   4.492   2.233  10.522 -0.2109 -0.3025 -0.0841
 4060SOL    HW123639   4.551   2.258  10.593 -0.4033  0.0498 -0.0498
 4060SOL    HW223640   4.485   2.313  10.470 -0.5345 -0.8314 -0.8662
 4061SOL     OW23641   1.796   2.896  11.494 -0.2260 -0.4040  0.5795
 4061SOL    HW123642   1.837   2.982  11.489  1.8301 -1.4417 -0.3723
 4061SOL    HW223643   1.716   2.916  11.542  2.4771  2.9549  3.6842
 4062SOL     OW23644   0.398   4.642  10.507 -0.3413 -0.3007  0.4078
 4062SOL    HW123645   0.460   4.680  10.570 -1.6309 -0.8282  1.9828
 4062SOL    HW223646   0.411   4.549  10.526  2.7948 -0.0259 -0.3683
 4063SOL     OW23647   1.174   0.868   1.551 -0.0104  0.3718 -0.1691
 4063SOL    HW123648   1.264   0.869   1.518 -0.3180  0.9011 -0.9960
 4063SOL    HW223649   1.119   0.888   1.475  1.3549  1.4617 -0.8670
 4064SOL     OW23650   1.994   2.405   2.145 -0.0201  0.0205 -0.2952
 4064SOL    HW123651   1.916   2.419   2.092 -1.7046 -2.7785  1.4441
 4064SOL    HW223652   1.955   2.364   2.223  1.5293  1.3295  1.1732
 4065SOL     OW23653   0.537   0.125   2.493  0.3981 -0.1604  0.0143
 4065SOL    HW123654   0.511   0.173   2.571  0.8816 -1.0220  0.7126
 4065SOL    HW223655   0.553   0.037   2.528 -3.3630 -0.9911 -0.3878
 4066SOL     OW23656   2.428   4.483   7.942  0.1429  0.3467  0.3064
 4066SOL    HW123657   2.373   4.451   8.013  1.3038 -1.5327  0.3909
 4066SOL    HW223658   2.446   4.568   7.982  0.4250  1.2007 -1.6332
 4067SOL     OW23659   2.871   3.907  11.226  0.3280  0.4033 -0.2662
 4067SOL    HW123660   2.854   3.988  11.177 -1.8676  1.4279  2.1826
 4067SOL    HW223661   2.851   3.935  11.315 -1.5475  0.2379 -0.6279
 4068SOL     OW23662   4.294   2.013   4.851  0.3245  0.3297 -0.5429
 4068SOL    HW123663   4.219   1.956   4.867 -0.2200  1.1183 -0.2912
 4068SOL    HW223664   4.248   2.089   4.816 -1.0994 -1.0827 -1.7046
 4069SOL     OW23665   3.998   0.903   3.792 -0.3855 -0.5233 -0.4233
 4069SOL    HW123666   4.023   0.945   3.875 -0.3994 -1.8458  0.2542
 4069SOL    HW223667   3.908   0.876   3.812 -0.2112 -1.3883 -0.7776
 4070SOL     OW23668   1.548   0.444   8.692  0.6219  0.6992 -0.1585
 4070SOL    HW123669   1.541   0.539   8.702 -0.4522  0.3625  2.2585
 4070SOL    HW223670   1.463   0.437   8.649  1.2922 -0.9381 -1.2328
 4071SOL     OW23671   3.439   3.765   3.441 -0.5640  0.4392 -0.0693
 4071SOL    HW123672   3.410   3.807   3.360 -1.0629  0.4495  0.1176
 4071SOL    HW223673   3.382   3.689   3.453 -0.9904  0.9111  0.8823
 4072SOL     OW23674   0.336   0.152   3.123  0.2762 -0.4319 -0.2879
 4072SOL    HW123675   0.400   0.217   3.152 -1.4469 -0.0589  2.7414
 4072SOL    HW223676   0.333   0.157   3.028  2.0880  0.6747 -0.2883
 4073SOL     OW23677   3.368   1.369   0.868  0.9543  0.1285 -0.0719
 4073SOL    HW123678   3.351   1.368   0.962 -2.3041  3.8846 -0.6172
 4073SOL    HW223679   3.289   1.323   0.840  0.4255  1.6135 -1.0285
 4074SOL     OW23680   4.162   4.098   7.081  0.2769 -0.6161 -0.0921
 4074SOL    HW123681   4.136   4.020   7.032 -1.0162  0.0869 -0.5237
 4074SOL    HW223682   4.164   4.168   7.016 -1.7168 -1.5087 -1.1081
 4075SOL     OW23683   0.208   0.711  17.364 -0.7501 -0.6249  0.1005
 4075SOL    HW123684   0.218   0.786  17.422 -0.2524 -1.0170  0.5187
 4075SOL    HW223685   0.124   0.729  17.322 -0.6463  1.2026  0.6694
 4076SOL     OW23686   2.374   4.624  10.769  0.5480  0.4520  0.7550
 4076SOL    HW123687   2.336   4.536  10.761  0.7179  0.3895  0.6192
 4076SOL    HW223688   2.371   4.635  10.864 -1.7151 -1.2767  0.8865
 4077SOL     OW23689   0.463   2.298   2.331 -0.0687 -0.0267  0.7512
 4077SOL    HW123690   0.508   2.214   2.343  0.8921  0.5796  1.4804
 4077SOL    HW223691   0.536   2.353   2.301  1.5672 -2.9507 -0.6633
 4078SOL     OW23692   1.754   4.170  10.923 -0.0900  0.1585 -0.2786
 4078SOL    HW123693   1.788   4.105  10.861  0.5600  2.4027 -2.2301
 4078SOL    HW223694   1.782   4.132  11.007  1.2998  1.2535 -0.2369
 4079SOL     OW23695   2.803   4.019   8.358  0.7086 -1.0006 -0.1200
 4079SOL    HW123696   2.831   4.032   8.449  1.0997 -2.0190 -0.1039
 4079SOL    HW223697   2.710   4.020   8.380  0.8962 -0.5429  0.6560
 4080SOL     OW23698   1.098   4.269   3.047  0.2113  0.1688  0.5873
 4080SOL    HW123699   1.042   4.207   3.093 -2.2179  1.1314 -1.1140
 4080SOL    HW223700   1.112   4.229   2.961 -0.3115  0.5943  0.3102
 4081SOL     OW23701   3.586   4.633  12.953  0.0896  0.0169  0.3474
 4081SOL    HW123702   3.544   4.637  13.038 -1.7061 -0.4101 -0.5215
 4081SOL    HW223703   3.621   4.546  12.972 -0.1236  0.1714  1.4512
 4082SOL     OW23704   1.174   1.343   8.208 -0.6985  0.5122 -0.0615
 4082SOL    HW123705   1.245   1.332   8.271 -2.6423 -1.4286  1.7738
 4082SOL    HW223706   1.115   1.269   8.205  1.2225 -0.8257 -4.3441
 4083SOL     OW23707   0.820   3.719   1.894  0.1758 -0.1768  0.4396
 4083SOL    HW123708   0.900   3.768   1.914 -0.2955 -0.6245  3.4379
 4083SOL    HW223709   0.763   3.782   1.851 -2.0432 -2.7987 -0.4669
 4084SOL     OW23710   3.295   2.681   6.176  0.0115 -0.1114 -0.9402
 4084SOL    HW123711   3.301   2.775   6.158 -1.0986  0.0250 -0.5676
 4084SOL    HW223712   3.371   2.652   6.126  1.0503  0.3367  0.3624
 4085SOL     OW23713   0.047   0.432   5.381  0.3508  0.6309  0.5543
 4085SOL    HW123714   0.067   0.470   5.295  2.0508 -0.5472  0.4089
 4085SOL    HW223715   4.673   0.424   5.375  0.4988 -0.5414 -0.3791
 4086SOL     OW23716   0.445   2.314   6.210 -0.1040 -1.0035  0.4677
 4086SOL    HW123717   0.357   2.311   6.248  0.3872 -0.7611  1.6362
 4086SOL    HW223718   0.428   2.293   6.118  2.9137  0.3000 -0.3814
 4087SOL     OW23719   3.347   2.212   2.971 -0.6418  0.1585  0.0781
 4087SOL    HW123720   3.326   2.209   2.878 -0.6955  2.6097  0.0097
 4087SOL    HW223721   3.335   2.301   3.003 -1.2426  0.4825 -1.0317
 4088SOL     OW23722   2.322   3.222  10.442 -0.4695  0.3143  0.1418
 4088SOL    HW123723   2.338   3.151  10.380  1.1573 -0.2624  1.2414
 4088SOL    HW223724   2.329   3.293  10.378 -0.8251  1.9124  1.8886
 4089SOL     OW23725   0.812   0.184   5.846  0.3107  0.6303  0.6490
 4089SOL    HW123726   0.904   0.197   5.823  0.1367  0.2507 -0.2476
 4089SOL    HW223727   0.778   0.114   5.790 -1.4732  1.1181  1.1336
 4090SOL     OW23728   4.536   2.329   7.002 -0.0189 -0.8996  0.1728
 4090SOL    HW123729   4.584   2.248   7.019  1.8927  0.6312  2.0523
 4090SOL    HW223730   4.476   2.328   7.076 -1.4522 -1.6746 -0.9992
 4091SOL     OW23731   0.738   4.160   5.728  0.3786  0.1676  0.0313
 4091SOL    HW123732   0.809   4.220   5.750 -0.3158  0.4493  1.4455
 4091SOL    HW223733   0.761   4.144   5.636 -0.3364 -1.6768  0.1663
 4092SOL     OW23734   4.613   1.021  13.381 -0.0439  1.1206  0.2654
 4092SOL    HW123735   4.641   0.932  13.362 -3.4603 -0.4678  2.5760
 4092SOL    HW223736   4.685   1.060  13.332  1.5375 -1.9500  0.2218
 4093SOL     OW23737   1.550   3.788   3.092  0.0847 -0.2420  0.0448
 4093SOL    HW123738   1.593   3.867   3.059 -0.1397 -0.1801 -0.0980
 4093SOL    HW223739   1.476   3.788   3.031  0.8050 -2.5599 -0.8131
 4094SOL     OW23740   2.466   2.551   7.687 -0.4867 -0.1361 -0.3797
 4094SOL    HW123741   2.557   2.562   7.662 -0.4445  0.5634  0.0705
 4094SOL    HW223742   2.466   2.516   7.775 -0.6131  1.6628  0.3465
 4095SOL     OW23743   0.010   0.498   1.395 -0.1551  0.0401 -0.3019
 4095SOL    HW123744   4.668   0.444   1.443  0.7763 -1.3488 -0.6367
 4095SOL    HW223745   0.085   0.503   1.455 -0.3035 -0.0555 -0.1103
 4096SOL     OW23746   0.862   3.121   5.621  0.0481  0.9685  0.0008
 4096SOL    HW123747   0.805   3.174   5.677  1.1540  1.2473  0.8849
 4096SOL    HW223748   0.943   3.118   5.672  1.3430  0.2313 -2.1012
 4097SOL     OW23749   1.101   3.781   8.395  0.1056  0.0978 -0.0978
 4097SOL    HW123750   1.104   3.836   8.317  2.1082 -2.1627 -1.6410
 4097SOL    HW223751   1.021   3.736   8.369 -0.5400  1.0721  0.2329
 4098SOL     OW23752   3.835   2.775   4.198 -0.3449 -0.8843  0.1493
 4098SOL    HW123753   3.902   2.768   4.131 -2.1644 -0.8572 -1.6694
 4098SOL    HW223754   3.831   2.693   4.248 -0.1773 -1.1938 -0.3557
 4099SOL     OW23755   2.233   1.005   5.133 -0.1040 -0.2752 -0.3841
 4099SOL    HW123756   2.231   0.914   5.105 -0.6124 -0.4329  0.1492
 4099SOL    HW223757   2.324   1.014   5.161 -0.0344 -0.9182 -0.4106
 4100SOL     OW23758   3.910   3.895   8.539 -0.0344  0.5631  0.0575
 4100SOL    HW123759   3.831   3.929   8.582 -2.0678 -0.3884 -2.9204
 4100SOL    HW223760   3.969   3.970   8.534  2.2717 -1.3191 -1.0656
 4101SOL     OW23761   0.702   2.264   2.903  0.4947  0.0554 -0.0147
 4101SOL    HW123762   0.756   2.185   2.893 -2.6247 -2.1415  0.3797
 4101SOL    HW223763   0.732   2.312   2.980 -0.6708  0.9572 -0.1137
 4102SOL     OW23764   1.271   2.388  16.548 -0.4145  1.0770  0.2378
 4102SOL    HW123765   1.324   2.387  16.468  1.3411  0.4944  1.4278
 4102SOL    HW223766   1.294   2.473  16.586  0.5749  0.8645  0.1254
 4103SOL     OW23767   0.989   0.483   8.855  0.9506  0.1983 -0.0061
 4103SOL    HW123768   1.042   0.515   8.782  0.2766  1.9289  0.2578
 4103SOL    HW223769   1.024   0.518   8.937  0.7088 -1.9623  1.0367
 4104SOL     OW23770   4.160   3.979   5.547 -0.0244  0.2609 -0.3665
 4104SOL    HW123771   4.108   4.056   5.571 -0.9064 -0.3787 -0.2214
 4104SOL    HW223772   4.196   3.951   5.631  1.5686  2.2854 -0.3704
 4105SOL     OW23773   0.480   2.521   1.822  0.3877  0.1931 -0.5204
 4105SOL    HW123774   0.401   2.480   1.856  0.4592  0.4257 -0.0749
 4105SOL    HW223775   0.458   2.614   1.816 -2.0765 -0.3268  0.7201
 4106SOL     OW23776   3.478   0.149   4.759 -0.2700 -0.4012  0.4825
 4106SOL    HW123777   3.415   0.214   4.731  0.6947  0.3723  0.1149
 4106SOL    HW223778   3.463   0.091   4.684 -0.6263  1.5613 -0.9646
 4107SOL     OW23779   4.320   1.966   5.536  0.2006  0.1480 -0.0239
 4107SOL    HW123780   4.400   1.998   5.495  1.7111 -2.5631  0.8431
 4107SOL    HW223781   4.299   1.889   5.483 -1.3697 -0.6896  1.8183
 4108SOL     OW23782   2.436   3.055  12.781 -0.5073  0.0210 -0.3370
 4108SOL    HW123783   2.394   2.972  12.801  0.0016 -0.7453 -2.3969
 4108SOL    HW223784   2.512   3.026  12.730 -0.7164  0.9952 -1.2124
 4109SOL     OW23785   1.676   1.266   0.738 -0.0903  0.0914 -0.2974
 4109SOL    HW123786   1.672   1.327   0.812  0.2860  0.5052 -0.6175
 4109SOL    HW223787   1.764   1.234   0.759  0.1898  0.2170 -1.2825
 4110SOL     OW23788   2.330   3.598  14.621  0.7397  0.1684  0.2425
 4110SOL    HW123789   2.314   3.692  14.619 -0.7192 -0.1003 -1.2313
 4110SOL    HW223790   2.326   3.580  14.527 -0.9438 -0.8246  0.5055
 4111SOL     OW23791   2.679   2.362   2.448 -0.1742  0.1425  0.2331
 4111SOL    HW123792   2.741   2.298   2.483  1.1764  0.6387 -1.2355
 4111SOL    HW223793   2.681   2.328   2.358  0.2977 -0.4326  0.4596
 4112SOL     OW23794   1.685   0.645   7.906 -0.1769 -0.0817 -0.5709
 4112SOL    HW123795   1.656   0.647   7.997 -0.3308  0.0293 -0.6206
 4112SOL    HW223796   1.704   0.553   7.888  0.7417 -0.1465  0.7445
 4113SOL     OW23797   3.345   1.749   7.930  0.3070 -0.1502  0.2894
 4113SOL    HW123798   3.362   1.810   7.858 -0.0379  1.7462  1.8180
 4113SOL    HW223799   3.383   1.667   7.900  0.1298 -0.1626  0.1025
 4114SOL     OW23800   3.420   4.539   3.431  0.0425 -0.4985  0.4495
 4114SOL    HW123801   3.401   4.558   3.339 -1.9889 -0.4286  0.8716
 4114SOL    HW223802   3.512   4.516   3.419  1.1060  3.4099  1.0501
 4115SOL     OW23803   2.830   1.158   5.643  0.2811 -0.4214  0.1072
 4115SOL    HW123804   2.826   1.070   5.605 -0.2212 -1.1217  1.7852
 4115SOL    HW223805   2.737   1.176   5.658  0.6383 -1.2796  3.3354
 4116SOL     OW23806   4.598   2.093   7.136 -0.4400 -0.5866  0.3214
 4116SOL    HW123807   4.638   2.029   7.196 -0.3899 -1.1038 -0.2635
 4116SOL    HW223808   4.505   2.102   7.157 -0.4622 -0.3089  0.1051
 4117SOL     OW23809   3.028   2.376  10.471  0.6815 -0.0534  0.2698
 4117SOL    HW123810   3.030   2.281  10.461 -1.3350 -0.1788  0.9731
 4117SOL    HW223811   3.078   2.393  10.551 -2.0360 -0.8401  2.1376
 4118SOL     OW23812   2.157   3.240   8.315  0.0844  0.3168  0.4170
 4118SOL    HW123813   2.156   3.154   8.359  1.4783  0.1731  0.1927
 4118SOL    HW223814   2.209   3.289   8.379  0.8761 -0.2698  0.2321
 4119SOL     OW23815   4.273   4.011   2.046 -0.0900 -0.5685 -0.7071
 4119SOL    HW123816   4.197   4.068   2.037 -0.8673 -1.4754  0.2004
 4119SOL    HW223817   4.337   4.046   1.984 -3.1695  2.0505 -2.3932
 4120SOL     OW23818   1.649   0.846   3.459  0.2822  0.3285 -0.4078
 4120SOL    HW123819   1.737   0.829   3.491 -0.2473  0.5127  1.1497
 4120SOL    HW223820   1.603   0.787   3.519 -0.7007 -1.2003 -2.6745
 4121SOL     OW23821   3.614   1.081  10.539 -0.0550 -0.8136 -0.2918
 4121SOL    HW123822   3.618   1.052  10.630  0.3588 -1.0528 -0.3892
 4121SOL    HW223823   3.605   1.176  10.549  0.3329 -0.7461 -0.5919
 4122SOL     OW23824   2.759   0.069   3.681  0.3814  0.0401 -0.2589
 4122SOL    HW123825   2.824   0.124   3.637 -0.7503  1.0852 -0.6279
 4122SOL    HW223826   2.718   0.129   3.744 -0.7532  0.5076 -1.4624
 4123SOL     OW23827   3.228   0.722  15.075  0.0657 -0.7159  0.1047
 4123SOL    HW123828   3.273   0.658  15.130 -0.4492  0.0221  1.3877
 4123SOL    HW223829   3.179   0.778  15.135 -0.9943 -1.6772  0.1257
 4124SOL     OW23830   0.208   0.829   5.128  0.2861  0.4536  0.0884
 4124SOL    HW123831   0.232   0.787   5.211 -1.6948  1.9075  1.3850
 4124SOL    HW223832   0.133   0.880   5.158  0.4262  0.0650  1.1165
 4125SOL     OW23833   3.820   4.048   3.317 -0.6779 -0.7745 -0.1796
 4125SOL    HW123834   3.803   3.954   3.320  0.9332 -1.0759 -0.5021
 4125SOL    HW223835   3.809   4.060   3.411 -0.8375  0.0276 -0.3026
 4126SOL     OW23836   2.864   2.913   9.015 -0.0440  0.4056  0.4565
 4126SOL    HW123837   2.859   2.853   9.089  1.4523  0.3035  0.4614
 4126SOL    HW223838   2.800   2.974   9.052 -1.5884 -1.3508  0.6848
 4127SOL     OW23839   0.289   0.527  13.982 -0.4860  0.3320  0.7734
 4127SOL    HW123840   0.300   0.595  13.916 -3.0121 -2.1973 -2.2616
 4127SOL    HW223841   0.344   0.460  13.942 -3.3395  0.1227 -2.8127
 4128SOL     OW23842   1.422   0.451  14.242  0.9064  0.1715 -0.2504
 4128SOL    HW123843   1.356   0.506  14.284 -1.5570 -3.8265  1.0631
 4128SOL    HW223844   1.472   0.505  14.180  2.2279  1.0534  1.5852
 4129SOL     OW23845   3.756   1.360  10.989 -0.1035 -0.2156  0.1305
 4129SOL    HW123846   3.710   1.441  10.965  0.6044  0.3262  0.6271
 4129SOL    HW223847   3.688   1.298  10.961  0.4807 -0.1192 -1.5201
 4130SOL     OW23848   4.212   0.767   7.723  0.3619  0.4327 -0.3014
 4130SOL    HW123849   4.293   0.783   7.771  0.3637 -2.2612  0.6218
 4130SOL    HW223850   4.238   0.752   7.632 -0.2549 -1.3398 -0.1959
 4131SOL     OW23851   2.966   3.822   5.925 -0.3485  0.9229 -0.0590
 4131SOL    HW123852   3.049   3.865   5.903  0.4757 -1.4102 -1.5949
 4131SOL    HW223853   2.966   3.755   5.856 -2.3446  0.8021  0.0695
 4132SOL     OW23854   0.630   2.872   0.824 -0.1467  0.3765  0.9203
 4132SOL    HW123855   0.639   2.905   0.913 -0.3514  1.3646  0.5766
 4132SOL    HW223856   0.714   2.827   0.816  0.5840  1.5431  2.1616
 4133SOL     OW23857   0.396   3.493   3.093 -0.0932 -0.0532  0.2319
 4133SOL    HW123858   0.466   3.539   3.140  0.0135  0.2584 -0.2360
 4133SOL    HW223859   0.335   3.481   3.166 -0.3795  0.6353  0.1048
 4134SOL     OW23860   0.677   3.758   5.355  0.3245  0.2064  0.5783
 4134SOL    HW123861   0.600   3.743   5.410 -2.3098  4.9122 -1.8003
 4134SOL    HW223862   0.712   3.833   5.403 -0.2719  2.0755 -1.8855
 4135SOL     OW23863   0.093   3.340   7.325 -0.1937  0.4991  0.5853
 4135SOL    HW123864   0.093   3.376   7.237 -0.7107  1.6170  1.0425
 4135SOL    HW223865   0.116   3.248   7.312 -0.3620  0.3141  1.5239
 4136SOL     OW23866   3.614   3.505   5.334 -0.2646  0.0723 -0.0846
 4136SOL    HW123867   3.593   3.414   5.312  2.0863 -0.1318 -1.4398
 4136SOL    HW223868   3.584   3.509   5.425  1.6940  0.1489  0.5646
 4137SOL     OW23869   3.660   3.920   5.477 -0.5589  0.2074  0.1671
 4137SOL    HW123870   3.673   3.853   5.410 -3.0555 -0.7588  0.6503
 4137SOL    HW223871   3.666   3.861   5.553  0.8756 -3.3585 -2.7349
 4138SOL     OW23872   0.169   0.308  11.757  0.3833  0.3741 -0.3145
 4138SOL    HW123873   0.157   0.237  11.694  3.2208  1.2875 -1.9147
 4138SOL    HW223874   0.091   0.363  11.751  0.1655  0.1323  0.3304
 4139SOL     OW23875   4.461   1.965   3.288  0.1776  0.4418 -0.0714
 4139SOL    HW123876   4.551   1.995   3.299  0.3821 -0.4565  0.7688
 4139SOL    HW223877   4.406   2.032   3.328 -0.7638  0.4342 -1.3733
 4140SOL     OW23878   2.611   3.297  13.665  0.3204  0.6138  0.5571
 4140SOL    HW123879   2.546   3.240  13.706  1.4843 -0.0299  1.5070
 4140SOL    HW223880   2.585   3.277  13.575  0.2367  0.5659  0.5924
 4141SOL     OW23881   0.993   0.009   1.392  0.0208  0.0959  0.1118
 4141SOL    HW123882   1.063   0.072   1.376 -0.9889  0.8006 -1.5381
 4141SOL    HW223883   0.960   0.012   1.302  3.4159  0.7720 -1.1236
 4142SOL     OW23884   3.448   1.001   6.230  0.0607 -0.3601  0.0046
 4142SOL    HW123885   3.526   1.053   6.247 -0.0623 -0.4765  0.9593
 4142SOL    HW223886   3.485   0.915   6.251  1.3313  0.6175  1.8536
 4143SOL     OW23887   4.361   3.079   7.277  0.1601  0.1518 -0.9947
 4143SOL    HW123888   4.341   2.992   7.312 -0.1571  0.3527 -0.6826
 4143SOL    HW223889   4.442   3.060   7.229  0.3235  0.4978 -0.8514
 4144SOL     OW23890   2.689   1.655   8.699 -0.9707 -0.0156 -0.4746
 4144SOL    HW123891   2.784   1.647   8.705 -1.1415 -1.4014  0.4577
 4144SOL    HW223892   2.673   1.749   8.703 -3.7034 -0.4305 -1.4831
 4145SOL     OW23893   2.756   1.610   5.498  0.3803  1.0124 -0.0512
 4145SOL    HW123894   2.685   1.584   5.556  0.5506  0.6002 -0.0297
 4145SOL    HW223895   2.760   1.533   5.441  0.6477  0.6633  0.4444
 4146SOL     OW23896   0.541   3.973   7.335  0.5040  0.1846  0.2861
 4146SOL    HW123897   0.566   4.063   7.314 -2.7656  0.9000 -0.6170
 4146SOL    HW223898   0.604   3.930   7.278  0.4833  1.5796 -0.7884
 4147SOL     OW23899   0.403   2.395   1.164 -0.6787  0.3791  0.0215
 4147SOL    HW123900   0.353   2.477   1.171  0.3350  0.9564  0.4608
 4147SOL    HW223901   0.442   2.379   1.249 -0.2755 -0.6886 -0.3661
 4148SOL     OW23902   0.800   3.244   6.144 -0.5298  0.0480  0.3752
 4148SOL    HW123903   0.733   3.270   6.207 -0.3132 -2.5768  1.6860
 4148SOL    HW223904   0.791   3.320   6.086 -1.9126 -0.4856 -0.1164
 4149SOL     OW23905   3.847   3.166   4.024  0.3181 -0.1244 -0.0421
 4149SOL    HW123906   3.876   3.092   3.971 -0.9785 -0.3684 -0.4206
 4149SOL    HW223907   3.849   3.128   4.112 -0.4689  0.4987  0.2456
 4150SOL     OW23908   0.460   4.637   0.232 -0.4959  0.2021 -0.0366
 4150SOL    HW123909   0.552   4.653   0.214 -0.1676 -0.4278  1.0519
 4150SOL    HW223910   0.462   4.565   0.296  2.7637  0.2904 -0.0667
 4151SOL     OW23911   0.140   1.641   3.476  0.1406 -0.5410  0.1923
 4151SOL    HW123912   0.097   1.726   3.488  0.1048  0.0564 -3.9856
 4151SOL    HW223913   0.228   1.669   3.450 -0.1749  0.9314  0.6805
 4152SOL     OW23914   2.086   2.977   1.859  0.5054  0.5548  0.2966
 4152SOL    HW123915   2.120   2.914   1.796 -3.2795  1.7258 -2.9517
 4152SOL    HW223916   2.007   3.012   1.817 -0.2236 -0.0028  1.2035
 4153SOL     OW23917   1.631   2.768   7.585  0.3908  0.3404 -0.5539
 4153SOL    HW123918   1.649   2.737   7.496  0.6921 -2.2100  0.3974
 4153SOL    HW223919   1.551   2.717   7.598  1.7145 -1.6957 -0.4797
 4154SOL     OW23920   2.125   2.073   0.309 -0.1548 -0.3296 -0.1465
 4154SOL    HW123921   2.174   2.153   0.290  1.6071 -1.1985  0.7102
 4154SOL    HW223922   2.181   2.044   0.381 -0.9792 -2.9457 -0.5379
 4155SOL     OW23923   3.630   4.689  15.964  0.2617 -0.2974  0.2536
 4155SOL    HW123924   3.621   0.031  15.892 -0.9076  3.0717  3.3569
 4155SOL    HW223925   3.711   4.647  15.934 -0.3010 -1.2043 -0.0000
 4156SOL     OW23926   1.452   0.507   1.957 -0.4117  0.3931  0.0622
 4156SOL    HW123927   1.437   0.475   1.868 -0.5921 -1.0201  0.6015
 4156SOL    HW223928   1.522   0.568   1.933  0.2937 -0.8240 -0.9596
 4157SOL     OW23929   3.584   1.221   4.677 -0.0788  0.1727 -0.0150
 4157SOL    HW123930   3.518   1.291   4.685 -0.5705  0.0338 -2.8302
 4157SOL    HW223931   3.645   1.241   4.748  0.1671  0.7608 -0.3840
 4158SOL     OW23932   1.686   3.667   3.576  0.6240  0.2077  0.1502
 4158SOL    HW123933   1.698   3.755   3.540 -0.1895 -0.0815 -0.8330
 4158SOL    HW223934   1.593   3.669   3.599  0.7437 -0.8301  0.7302
 4159SOL     OW23935   2.058   0.836   8.228  1.2018  0.3139  0.0850
 4159SOL    HW123936   2.015   0.751   8.218 -0.1517  1.3472 -2.6794
 4159SOL    HW223937   2.151   0.811   8.225  1.3255  0.5788  1.7264
 4160SOL     OW23938   0.666   3.092   6.573 -0.1211 -0.4258  1.0043
 4160SOL    HW123939   0.744   3.079   6.519 -0.2563  2.4349  0.1181
 4160SOL    HW223940   0.642   3.002   6.597 -1.7191  0.1577  1.5652
 4161SOL     OW23941   4.381   2.032   3.713  0.0408  0.2119 -0.2916
 4161SOL    HW123942   4.389   1.939   3.734  2.0893  0.3647 -0.4245
 4161SOL    HW223943   4.305   2.038   3.656 -0.3164  0.4492  0.2054
 4162SOL     OW23944   0.645   4.244   2.292  0.4469 -0.0016  0.1907
 4162SOL    HW123945   0.724   4.281   2.253 -0.9005  1.8725 -0.7828
 4162SOL    HW223946   0.673   4.155   2.312  1.4545  0.1082 -0.7619
 4163SOL     OW23947   3.234   4.385   8.811  0.0691 -0.3903 -0.2659
 4163SOL    HW123948   3.159   4.373   8.870 -1.6148  1.1399 -2.0779
 4163SOL    HW223949   3.198   4.370   8.723  0.5197 -1.8668 -0.2062
 4164SOL     OW23950   1.990   1.267   2.056 -0.0089  0.1744  0.5351
 4164SOL    HW123951   2.056   1.257   2.125  0.1615 -3.5806 -0.1381
 4164SOL    HW223952   1.973   1.174   2.040  0.4784 -0.0771  1.5183
 4165SOL     OW23953   0.733   4.328   9.339 -0.4152  0.4940  0.0346
 4165SOL    HW123954   0.786   4.404   9.362  0.9179 -0.0943 -1.0562
 4165SOL    HW223955   0.795   4.268   9.298  0.0672  0.0696  1.4167
 4166SOL     OW23956   2.327   3.927   6.515 -0.0719 -0.0029 -0.1331
 4166SOL    HW123957   2.409   3.963   6.548  0.6731 -1.9963  0.1793
 4166SOL    HW223958   2.339   3.832   6.517  1.7900  0.2138 -0.8873
 4167SOL     OW23959   1.570   3.989   6.890  0.2237  0.5127 -0.7367
 4167SOL    HW123960   1.536   4.075   6.866  0.1957  0.5767 -0.4637
 4167SOL    HW223961   1.517   3.977   6.969  0.2222  1.7266 -0.5418
 4168SOL     OW23962   3.734   3.709   2.164 -0.5723  0.8721 -0.0277
 4168SOL    HW123963   3.761   3.673   2.248  0.2320 -0.4282 -0.8357
 4168SOL    HW223964   3.818   3.736   2.128 -0.5277  0.7151 -0.0431
 4169SOL     OW23965   0.762   0.146   1.515  0.3476  0.3972  0.4871
 4169SOL    HW123966   0.835   0.097   1.478 -2.0156 -1.7671 -1.3301
 4169SOL    HW223967   0.729   0.188   1.435  1.3683 -0.4907 -0.4078
 4170SOL     OW23968   0.933   4.386  15.895  0.0117 -0.3200 -0.0542
 4170SOL    HW123969   0.837   4.390  15.899 -0.0488 -1.2433 -0.8814
 4170SOL    HW223970   0.944   4.314  15.834 -0.0982  0.3177 -0.8175
 4171SOL     OW23971   2.516   1.486   7.926 -0.6959  0.2031  0.4226
 4171SOL    HW123972   2.487   1.412   7.979 -0.0899  0.1438  0.6744
 4171SOL    HW223973   2.439   1.539   7.906 -1.9463 -0.7287  2.7588
 4172SOL     OW23974   0.076   1.909   8.702 -0.3490 -0.0066  0.3184
 4172SOL    HW123975   0.090   1.839   8.767  0.9356  0.8059  0.9178
 4172SOL    HW223976   0.046   1.977   8.762 -0.2965  0.3101 -0.0186
 4173SOL     OW23977   0.273   1.514  11.603 -0.1208 -0.6417  0.1672
 4173SOL    HW123978   0.201   1.574  11.626 -0.8706 -1.6840  0.5629
 4173SOL    HW223979   0.259   1.446  11.669 -3.1789  0.9537  1.1582
 4174SOL     OW23980   4.383   3.766   2.115 -0.1283 -0.4823 -0.4638
 4174SOL    HW123981   4.327   3.836   2.081  0.2533 -1.1446 -2.4536
 4174SOL    HW223982   4.332   3.691   2.088  1.8243 -0.9432 -2.8221
 4175SOL     OW23983   2.540   4.098   9.281  0.2546  0.1345  0.2425
 4175SOL    HW123984   2.565   4.189   9.293 -3.0048  1.3103 -1.8465
 4175SOL    HW223985   2.502   4.068   9.364  1.5077  0.0183  0.7703
 4176SOL     OW23986   2.215   3.614   7.879  0.1410  0.8591  0.0089
 4176SOL    HW123987   2.224   3.686   7.941  0.7816  0.1254  0.7607
 4176SOL    HW223988   2.250   3.655   7.799  1.5359  1.1581  0.7737
 4177SOL     OW23989   4.210   2.408   3.906 -0.0211  0.2321 -0.3238
 4177SOL    HW123990   4.270   2.349   3.859  0.5138 -0.4013  1.1485
 4177SOL    HW223991   4.279   2.474   3.912  1.7285 -1.8212  2.4194
 4178SOL     OW23992   4.244   0.097   2.282  0.2965  0.0135  0.5841
 4178SOL    HW123993   4.324   0.148   2.300 -0.4972  1.7730 -0.8977
 4178SOL    HW223994   4.210   0.145   2.207  0.0587 -0.1414  0.5940
 4179SOL     OW23995   0.592   0.254   8.380 -0.5189 -0.9464  0.3179
 4179SOL    HW123996   0.627   0.169   8.407  1.0223 -1.0041 -1.9364
 4179SOL    HW223997   0.673   0.303   8.379 -1.8155  1.1119 -3.4000
 4180SOL     OW23998   0.831   1.784  12.143 -0.6750  0.3254 -0.3535
 4180SOL    HW123999   0.924   1.786  12.124 -0.5214  1.2118  0.5356
 4180SOL    HW224000   0.791   1.764  12.058 -3.1903  1.3411  0.5771
 4181SOL     OW24001   3.791   1.868   7.705 -0.1683 -0.2345  0.5697
 4181SOL    HW124002   3.782   1.878   7.610 -2.4871 -1.0875  0.7088
 4181SOL    HW224003   3.835   1.783   7.710  2.0517  0.8589 -0.3822
 4182SOL     OW24004   3.621   0.588  16.855  0.0631 -0.2799  0.5766
 4182SOL    HW124005   3.532   0.552  16.853  0.3023 -0.8564  0.0703
 4182SOL    HW224006   3.598   0.680  16.866  0.9054  0.3889 -3.1251
 4183SOL     OW24007   1.588   0.700   8.137  0.3528 -0.0353 -0.4098
 4183SOL    HW124008   1.600   0.794   8.155  0.0634  0.1434 -1.1634
 4183SOL    HW224009   1.603   0.655   8.220  0.9568 -2.1399 -1.6754
 4184SOL     OW24010   3.428   4.463   6.745 -0.4121 -0.6813 -0.1144
 4184SOL    HW124011   3.370   4.392   6.716  0.9278 -1.0695 -1.8805
 4184SOL    HW224012   3.371   4.508   6.807  0.5642 -2.6634  2.2380
 4185SOL     OW24013   3.472   0.107   2.271 -0.7919 -0.2332 -0.1070
 4185SOL    HW124014   3.556   0.079   2.309  0.4167  1.6533 -1.4361
 4185SOL    HW224015   3.425   0.142   2.347  1.0131 -0.5555  1.1496
 4186SOL     OW24016   3.502   3.370   7.008 -0.1028 -0.7326  0.5855
 4186SOL    HW124017   3.538   3.437   6.950 -3.6147 -0.5899 -1.4375
 4186SOL    HW224018   3.528   3.414   7.089 -0.6288  1.6062 -0.5083
 4187SOL     OW24019   1.983   2.617   5.089 -0.1467  0.4023  0.0243
 4187SOL    HW124020   1.889   2.635   5.088 -0.2602 -0.1519  0.9883
 4187SOL    HW224021   2.028   2.692   5.049  1.7525 -0.7326  0.0365
 4188SOL     OW24022   3.271   2.383   9.126 -0.0820 -0.0912 -0.3213
 4188SOL    HW124023   3.253   2.477   9.133  1.1568  0.0170  1.4030
 4188SOL    HW224024   3.207   2.343   9.185  0.9564 -0.7038  0.3773
 4189SOL     OW24025   0.604   2.434   6.930 -0.0347  0.2262 -0.3094
 4189SOL    HW124026   0.600   2.471   7.018 -1.8870  0.0738 -0.3174
 4189SOL    HW224027   0.680   2.475   6.888  0.5261 -0.3289  0.1747
 4190SOL     OW24028   3.673   4.427   3.173  0.1695 -0.6903 -0.1982
 4190SOL    HW124029   3.711   4.463   3.253  2.0086  0.9482 -1.8380
 4190SOL    HW224030   3.693   4.496   3.110  0.1712 -1.1116 -0.6571
 4191SOL     OW24031   1.573   2.661   5.387  0.6207  0.3236 -0.0231
 4191SOL    HW124032   1.478   2.663   5.396  0.5100  0.1508 -1.1357
 4191SOL    HW224033   1.606   2.661   5.476 -1.2196  0.4506  0.6517
 4192SOL     OW24034   1.406   3.046   2.708 -0.2678 -0.8547  0.1398
 4192SOL    HW124035   1.478   2.984   2.690  1.3795  0.5527  1.9191
 4192SOL    HW224036   1.349   3.054   2.632 -0.5135 -1.2085  0.2865
 4193SOL     OW24037   0.123   0.613   0.471 -0.6303  0.4671 -0.2874
 4193SOL    HW124038   0.211   0.616   0.433  0.6443  1.0676  2.7388
 4193SOL    HW224039   0.135   0.543   0.534 -1.3724 -0.0108 -0.6808
 4194SOL     OW24040   4.499   1.924   1.686 -0.3675  0.1210  0.4890
 4194SOL    HW124041   4.530   2.008   1.650  0.6010 -1.2524 -1.8640
 4194SOL    HW224042   4.438   1.957   1.752 -1.3592 -0.6944 -0.0196
 4195SOL     OW24043   1.789   3.220   5.887 -0.2035  0.2747 -0.2621
 4195SOL    HW124044   1.838   3.289   5.931 -0.5272 -0.9403  2.0498
 4195SOL    HW224045   1.729   3.283   5.849 -1.0765 -0.2529  0.2399
 4196SOL     OW24046   2.602   4.597   8.146 -0.2562  0.0887 -0.1875
 4196SOL    HW124047   2.602   4.593   8.242 -1.0147  0.4674 -0.1747
 4196SOL    HW224048   2.687   4.559   8.125 -0.3751  0.6318 -1.6375
 4197SOL     OW24049   3.071   1.545   6.625  0.0697  0.0911  0.3340
 4197SOL    HW124050   3.015   1.495   6.684 -0.2360 -1.9705 -1.7084
 4197SOL    HW224051   3.156   1.532   6.666 -1.4665  0.5483  3.6555
 4198SOL     OW24052   0.336   1.013   2.748  0.2751 -0.7317 -0.1383
 4198SOL    HW124053   0.245   0.998   2.773  0.3740  2.5732  2.0986
 4198SOL    HW224054   0.334   1.087   2.688  0.0930 -0.9168 -0.3614
 4199SOL     OW24055   2.915   3.656   5.665 -0.1506  0.5676  0.6906
 4199SOL    HW124056   2.884   3.630   5.577  1.0072  2.3435 -0.2303
 4199SOL    HW224057   3.002   3.691   5.647 -1.1435  1.2326 -2.8552
 4200SOL     OW24058   1.815   3.890   7.388  0.0911 -0.3918  0.3639
 4200SOL    HW124059   1.824   3.947   7.464  1.1957  1.4843 -1.1806
 4200SOL    HW224060   1.775   3.814   7.430  2.3417 -1.6079  0.3431
 4201SOL     OW24061   0.124   3.617   2.638 -0.1216  0.3839 -0.6838
 4201SOL    HW124062   0.138   3.537   2.588  2.9748 -1.1456  2.6548
 4201SOL    HW224063   0.029   3.626   2.645 -0.1075  0.5705 -0.7261
 4202SOL     OW24064   1.632   3.049   5.647 -0.4608  0.4031  0.7547
 4202SOL    HW124065   1.685   3.080   5.574  1.3813 -0.4303  1.7222
 4202SOL    HW224066   1.555   3.104   5.634  0.1954  1.0947 -0.1531
 4203SOL     OW24067   1.333   1.080   5.660 -0.1790 -1.0812  0.8139
 4203SOL    HW124068   1.255   1.070   5.604 -0.4154 -3.4787  1.5557
 4203SOL    HW224069   1.295   1.126   5.735  1.9592  1.5526  0.2796
 4204SOL     OW24070   4.118   3.459   2.839 -0.6895 -0.0984  0.1131
 4204SOL    HW124071   4.096   3.531   2.897 -0.3357  2.3890 -2.8173
 4204SOL    HW224072   4.098   3.386   2.897  1.0214 -2.0795 -1.7554
 4205SOL     OW24073   0.065   4.558  17.225 -0.1396  0.4542 -0.0442
 4205SOL    HW124074   0.042   4.618  17.296 -0.0273 -0.9898  1.2011
 4205SOL    HW224075   4.709   4.500  17.226  2.1385 -2.5570 -2.7950
 4206SOL     OW24076   4.312   1.945  12.040  0.0198  0.8408 -0.7963
 4206SOL    HW124077   4.302   2.030  11.998  0.3513  1.4131  0.2786
 4206SOL    HW224078   4.343   1.963  12.129 -1.3793  0.4012 -0.2159
 4207SOL     OW24079   1.561   0.643   3.280  0.0668 -0.5757  0.4576
 4207SOL    HW124080   1.586   0.704   3.349 -0.1705 -1.8368  1.6497
 4207SOL    HW224081   1.485   0.600   3.318 -2.2636  3.2651  0.1632
 4208SOL     OW24082   3.385   1.529   0.239 -0.5824 -0.0591 -0.5148
 4208SOL    HW124083   3.357   1.458   0.181 -0.7495 -0.0226 -0.4796
 4208SOL    HW224084   3.400   1.476   0.317 -1.0697 -1.6914 -1.5252
 4209SOL     OW24085   0.605   3.683  17.456 -0.4706  0.1998 -0.2938
 4209SOL    HW124086   0.515   3.696  17.425  0.3356 -0.6398 -3.0151
 4209SOL    HW224087   0.650   3.753  17.408  0.9432  0.3516  1.2716
 4210SOL     OW24088   3.908   2.832   0.532  0.1282 -0.5466 -0.0275
 4210SOL    HW124089   3.964   2.907   0.551  0.5176 -1.1568  1.2794
 4210SOL    HW224090   3.967   2.763   0.501 -0.4252 -0.8046 -0.5057
 4211SOL     OW24091   0.117   3.123   1.819 -0.0474 -0.5915 -0.1912
 4211SOL    HW124092   0.041   3.174   1.846 -0.3149 -1.2360  0.2697
 4211SOL    HW224093   0.097   3.050   1.877 -0.2828  1.1547  1.9135
 4212SOL     OW24094   3.136   1.104   4.403  0.1717  0.0339 -0.5884
 4212SOL    HW124095   3.042   1.090   4.390  0.1869 -0.1055 -0.5442
 4212SOL    HW224096   3.152   1.191   4.367 -0.6948 -0.1600 -1.4492
 4213SOL     OW24097   0.936   4.550   2.748  0.2019 -0.7933  0.4361
 4213SOL    HW124098   0.886   4.611   2.802 -1.3255 -1.6654  0.0250
 4213SOL    HW224099   0.990   4.603   2.689 -1.7868 -1.6430 -2.1612
 4214SOL     OW24100   2.387   3.602  16.694 -0.0245  0.5606  0.0086
 4214SOL    HW124101   2.393   3.696  16.712  0.1985  0.3759  0.8876
 4214SOL    HW224102   2.466   3.559  16.727 -0.6952 -1.3792 -0.8851
 4215SOL     OW24103   3.823   1.000   6.531  0.6322 -0.3098  0.5283
 4215SOL    HW124104   3.795   1.015   6.622 -1.9772 -0.6960 -0.2041
 4215SOL    HW224105   3.744   1.032   6.487  0.8098 -1.2689 -0.4816
 4216SOL     OW24106   1.676   2.559   1.778 -0.1456 -0.1406  0.3570
 4216SOL    HW124107   1.649   2.583   1.690 -0.6806 -2.7344 -0.2059
 4216SOL    HW224108   1.700   2.468   1.756  1.3556  0.0218  1.3158
 4217SOL     OW24109   2.590   2.890   1.543 -0.4678 -0.1102  0.4362
 4217SOL    HW124110   2.667   2.922   1.589 -0.9312 -0.0073  1.1384
 4217SOL    HW224111   2.621   2.880   1.453  2.0231 -1.5267  1.4566
 4218SOL     OW24112   4.221   1.008   6.665 -0.2629  0.6652  0.0565
 4218SOL    HW124113   4.164   1.011   6.742 -0.2846  2.7061 -0.0364
 4218SOL    HW224114   4.181   1.075   6.610  1.4623  0.1748 -1.8139
 4219SOL     OW24115   2.050   2.273   9.515  0.2962 -0.2137 -0.3458
 4219SOL    HW124116   2.129   2.220   9.508  2.1850  2.7280 -1.7040
 4219SOL    HW224117   2.049   2.311   9.427  0.7892 -0.7471 -0.5840
 4220SOL     OW24118   4.040   3.401   4.217  0.0939 -0.6414 -0.5969
 4220SOL    HW124119   4.059   3.325   4.163  0.9378  0.6208 -2.0879
 4220SOL    HW224120   4.129   3.434   4.232 -0.2813 -0.6820  1.7689
 4221SOL     OW24121   1.180   2.891   6.425  0.4277 -0.0557 -0.7100
 4221SOL    HW124122   1.219   2.922   6.507 -2.8402 -0.3783  0.9943
 4221SOL    HW224123   1.211   2.956   6.363  3.7528  0.4450  1.5040
 4222SOL     OW24124   0.105   1.366   5.604  0.3082 -0.1955  0.2901
 4222SOL    HW124125   0.031   1.311   5.630 -0.5922  1.4486  1.1909
 4222SOL    HW224126   0.139   1.394   5.689  1.2746 -0.6254  0.0527
 4223SOL     OW24127   0.087   0.506   2.272  0.9076  0.5475  0.7437
 4223SOL    HW124128   0.099   0.498   2.178 -0.9592  2.5407  0.3405
 4223SOL    HW224129   0.156   0.569   2.294  0.9963  1.1400 -1.2410
 4224SOL     OW24130   1.326   0.501   8.527  0.3742  0.8566 -0.2404
 4224SOL    HW124131   1.272   0.578   8.546 -2.7021 -0.6674 -2.7864
 4224SOL    HW224132   1.400   0.543   8.482  1.0645 -0.1412 -0.0215
 4225SOL     OW24133   4.021   2.747   7.173 -0.0215  0.1904  0.2406
 4225SOL    HW124134   3.942   2.694   7.164 -0.6261  0.9461  1.1078
 4225SOL    HW224135   4.067   2.723   7.092  0.1857  0.6772  0.2112
 4226SOL     OW24136   0.723   3.166   9.937  0.1800 -0.0138  0.5249
 4226SOL    HW124137   0.666   3.202  10.006  1.0598  2.1311  0.1358
 4226SOL    HW224138   0.749   3.079   9.968  1.7105 -0.6243 -2.5132
 4227SOL     OW24139   0.514   0.279   5.105 -0.0212  0.2966  0.1644
 4227SOL    HW124140   0.597   0.327   5.104 -1.3624  2.6149 -0.5862
 4227SOL    HW224141   0.536   0.204   5.161 -0.2637  0.8982  1.0720
 4228SOL     OW24142   2.766   4.378   2.445  0.5467  0.1484  0.1382
 4228SOL    HW124143   2.853   4.394   2.481  0.1420  1.7172  0.4432
 4228SOL    HW224144   2.726   4.463   2.464  0.9690  0.5749 -0.8914
 4229SOL     OW24145   0.521   3.966   2.606  0.2084 -0.6512 -0.1525
 4229SOL    HW124146   0.614   3.955   2.625 -0.0124  0.2308  1.3552
 4229SOL    HW224147   0.523   3.909   2.528 -0.7225  0.1816 -0.7907
 4230SOL     OW24148   1.854   2.071   2.661  0.1976 -0.1165  0.1589
 4230SOL    HW124149   1.908   2.003   2.620  0.8052  1.2048 -1.1980
 4230SOL    HW224150   1.897   2.149   2.627 -2.0488  0.8990 -0.3580
 4231SOL     OW24151   3.601   1.038   6.904 -0.5400  0.1627 -0.1014
 4231SOL    HW124152   3.576   1.064   6.992 -1.0638 -0.2451 -0.1307
 4231SOL    HW224153   3.696   1.033   6.901 -0.5292  1.1430 -1.7767
 4232SOL     OW24154   2.007   3.107   7.052  0.7759  0.7115  0.3232
 4232SOL    HW124155   1.926   3.146   7.084  1.3813  1.3596  1.0829
 4232SOL    HW224156   2.068   3.163   7.101  1.1397 -0.3687  1.0991
 4233SOL     OW24157   3.705   0.668   2.937  0.2634 -0.0205  0.3384
 4233SOL    HW124158   3.627   0.614   2.945  0.2778  0.0447  0.8973
 4233SOL    HW224159   3.723   0.688   3.029 -1.3489 -0.6204  0.7839
 4234SOL     OW24160   4.027   3.048  14.894  1.0083  0.0525  0.0466
 4234SOL    HW124161   3.956   3.015  14.949 -0.3134  2.0724 -0.4191
 4234SOL    HW224162   4.093   2.980  14.901  1.8320  0.5871 -2.2633
 4235SOL     OW24163   0.755   0.490  15.171 -0.4131 -0.6610 -0.1534
 4235SOL    HW124164   0.733   0.479  15.263 -1.5667 -0.0059 -0.3463
 4235SOL    HW224165   0.825   0.555  15.181  2.0419 -2.7741 -3.4157
 4236SOL     OW24166   0.037   2.996   7.712  0.5498  0.1986  0.0276
 4236SOL    HW124167   0.111   2.937   7.698  1.1020 -0.0223  3.8608
 4236SOL    HW224168   0.037   3.035   7.624  0.9221 -1.8486 -0.8715
 4237SOL     OW24169   2.903   0.540   6.936 -0.0644  0.1531 -0.2406
 4237SOL    HW124170   2.968   0.519   7.003 -0.0956  0.9560  0.0442
 4237SOL    HW224171   2.953   0.610   6.893 -0.8200  1.1464  0.5010
 4238SOL     OW24172   3.516   4.690   6.607 -0.1869  1.0883  0.8071
 4238SOL    HW124173   3.518   4.606   6.651  2.9873  0.9379  0.4229
 4238SOL    HW224174   3.429   4.691   6.567 -0.3315  0.8547  1.1231
 4239SOL     OW24175   4.658   0.669   6.678 -0.2484 -0.0693 -0.2744
 4239SOL    HW124176   0.027   0.676   6.646 -0.2398 -0.6294 -0.3612
 4239SOL    HW224177   4.668   0.744   6.737  0.2102  1.7289 -2.6214
 4240SOL     OW24178   3.802   2.594   2.700  0.2449  0.1926  0.5642
 4240SOL    HW124179   3.882   2.543   2.690  0.0581 -0.0218  0.1584
 4240SOL    HW224180   3.827   2.657   2.767 -0.3772  1.6803 -0.5948
 4241SOL     OW24181   1.968   1.663   5.562 -0.0353 -0.2413  0.4448
 4241SOL    HW124182   1.912   1.613   5.621 -0.6507 -1.3011 -1.0377
 4241SOL    HW224183   1.922   1.747   5.566  0.9477  0.2236  2.2828
 4242SOL     OW24184   2.592   3.725   0.201  0.2926  0.2496  0.2540
 4242SOL    HW124185   2.621   3.802   0.153 -1.1889  0.5788 -0.1238
 4242SOL    HW224186   2.508   3.705   0.159 -1.5957 -1.2106  4.7128
 4243SOL     OW24187   1.180   3.038   7.274 -0.0393  0.4341  0.5007
 4243SOL    HW124188   1.217   3.078   7.352 -0.5150  0.3782  0.7578
 4243SOL    HW224189   1.109   3.099   7.254 -1.0933 -0.9631 -0.0569
 4244SOL     OW24190   3.108   1.630   0.377  0.1100  0.1042  0.1674
 4244SOL    HW124191   3.016   1.632   0.403  0.4754  3.2411  1.2534
 4244SOL    HW224192   3.150   1.574   0.442  0.6884  0.4538  0.0980
 4245SOL     OW24193   0.800   4.485  11.574 -0.3392  0.3431 -0.3885
 4245SOL    HW124194   0.789   4.557  11.637  1.2219  0.1205  0.1409
 4245SOL    HW224195   0.709   4.477  11.543 -1.3870 -1.2539  3.0210
 4246SOL     OW24196   3.185   3.713   5.786 -0.5056 -0.0986 -0.0340
 4246SOL    HW124197   3.261   3.749   5.741  0.4838  1.8377  3.1806
 4246SOL    HW224198   3.204   3.621   5.804  0.4391  0.0313 -0.4069
 4247SOL     OW24199   2.596   2.357   8.453  0.0195 -0.0052 -0.1648
 4247SOL    HW124200   2.605   2.428   8.517 -1.1729 -0.4830  0.5279
 4247SOL    HW224201   2.581   2.422   8.385  0.3706 -0.2053 -0.4337
 4248SOL     OW24202   2.289   3.340   7.832  0.4926 -0.3306  0.4426
 4248SOL    HW124203   2.267   3.432   7.822 -0.7585 -0.5986  0.6791
 4248SOL    HW224204   2.372   3.337   7.879  1.9184  0.1318 -2.0631
 4249SOL     OW24205   4.227   3.297   2.035  0.3077  0.1020 -0.3117
 4249SOL    HW124206   4.189   3.385   2.027 -1.3034 -0.3686  2.1500
 4249SOL    HW224207   4.275   3.290   1.953  2.8787 -0.5399  1.2710
 4250SOL     OW24208   1.065   3.575   4.996  0.6754 -0.2230 -0.0642
 4250SOL    HW124209   0.998   3.624   4.949  0.5484 -0.9716 -0.6637
 4250SOL    HW224210   1.025   3.547   5.078  0.6888 -0.4279 -0.1270
 4251SOL     OW24211   3.308   4.265  16.205 -0.3904  0.3166  0.5202
 4251SOL    HW124212   3.296   4.282  16.298  2.1749  1.6839  0.6084
 4251SOL    HW224213   3.332   4.350  16.169 -2.0352  0.9037  0.8349
 4252SOL     OW24214   0.953   3.382   0.871 -0.1448  0.5853  0.1043
 4252SOL    HW124215   0.940   3.291   0.898 -0.5389  0.0003 -2.1330
 4252SOL    HW224216   1.047   3.388   0.884  0.0548 -2.2834  0.0850
 4253SOL     OW24217   1.889   1.484   1.962 -0.4052 -0.0311 -0.2754
 4253SOL    HW124218   1.941   1.414   2.000 -2.0109 -1.5794 -0.9208
 4253SOL    HW224219   1.804   1.441   1.950 -0.6667  1.1413 -2.6508
 4254SOL     OW24220   3.639   4.443   9.300  0.3695  0.3784 -0.4601
 4254SOL    HW124221   3.594   4.368   9.261  1.3296 -0.6960  0.4909
 4254SOL    HW224222   3.592   4.455   9.382  0.9149 -2.0544  0.2001
 4255SOL     OW24223   1.408   1.536   5.157 -0.3289  0.8180  0.4020
 4255SOL    HW124224   1.461   1.613   5.138 -2.2343  2.3017  1.1179
 4255SOL    HW224225   1.468   1.468   5.189 -0.4360  1.4892  2.0389
 4256SOL     OW24226   0.059   2.922   0.307  0.3571 -0.0762  0.1383
 4256SOL    HW124227   0.103   2.994   0.352 -1.0337  1.0608 -0.2963
 4256SOL    HW224228   0.110   2.903   0.228 -0.1597 -0.6598 -0.0557
 4257SOL     OW24229   0.211   0.495   6.391  0.2156  0.0572 -0.1366
 4257SOL    HW124230   0.305   0.477   6.397  0.3851  1.5806  2.0522
 4257SOL    HW224231   0.177   0.439   6.460  1.1229  0.6962  0.8415
 4258SOL     OW24232   0.424   0.345   6.554 -0.0187 -0.0948 -0.2302
 4258SOL    HW124233   0.476   0.396   6.491 -0.2174  0.0150 -0.3074
 4258SOL    HW224234   0.467   0.371   6.636 -1.3487  1.9362 -0.1664
 4259SOL     OW24235   0.469   0.409   2.579 -0.1002 -0.0333  0.0291
 4259SOL    HW124236   0.374   0.409   2.591 -0.2412 -1.9223 -1.0516
 4259SOL    HW224237   0.473   0.397   2.484  2.1752  0.7779  0.0372
 4260SOL     OW24238   1.241   2.197   4.397  0.5576 -0.1333 -0.4112
 4260SOL    HW124239   1.286   2.212   4.314 -3.1103  2.4425 -1.9502
 4260SOL    HW224240   1.152   2.180   4.366  0.4111  1.2093 -0.7187
 4261SOL     OW24241   1.622   1.325   8.487 -0.1358 -0.4713 -0.0019
 4261SOL    HW124242   1.657   1.291   8.569 -1.6875 -1.3889  0.2919
 4261SOL    HW224243   1.699   1.347   8.435 -0.0559  0.4044  0.4808
 4262SOL     OW24244   0.318   0.549   4.747 -0.0681 -0.2026  0.1229
 4262SOL    HW124245   0.396   0.598   4.771  2.1359 -2.8010 -1.7000
 4262SOL    HW224246   0.344   0.512   4.663  0.1776 -1.3273  0.6943
 4263SOL     OW24247   1.428   2.136   2.427  0.0083  0.2863 -0.3767
 4263SOL    HW124248   1.475   2.161   2.507 -0.6738  0.7417 -0.1091
 4263SOL    HW224249   1.361   2.204   2.414  1.0293  1.3518 -0.0670
 4264SOL     OW24250   0.986   2.235   7.568 -0.4804 -0.0736  0.5599
 4264SOL    HW124251   0.939   2.157   7.539  0.2063  0.3498 -1.7297
 4264SOL    HW224252   1.061   2.193   7.611  0.4162  1.0623  0.1126
 4265SOL     OW24253   1.962   1.999   5.666 -0.2553 -0.3851 -0.1635
 4265SOL    HW124254   1.925   2.087   5.665  0.7973  0.0521 -0.5648
 4265SOL    HW224255   1.910   1.963   5.594  0.4776  0.1402 -0.9515
 4266SOL     OW24256   0.691   0.645   7.280  0.1012 -0.8910 -0.5133
 4266SOL    HW124257   0.724   0.589   7.350 -0.1764  0.3440  0.5983
 4266SOL    HW224258   0.712   0.592   7.203 -3.4759 -0.3955 -1.8220
 4267SOL     OW24259   0.047   0.868   1.616 -0.4924 -0.2943  0.4861
 4267SOL    HW124260   0.130   0.850   1.659 -0.6206 -0.3872  0.6937
 4267SOL    HW224261   4.713   0.890   1.691 -1.1572  0.2052 -0.1498
 4268SOL     OW24262   3.766   1.209   5.877 -0.0225  0.1606  0.9851
 4268SOL    HW124263   3.833   1.275   5.893  1.3184 -1.0681  0.4248
 4268SOL    HW224264   3.712   1.253   5.811  1.7265 -0.4923 -0.9157
 4269SOL     OW24265   0.043   1.074   0.558  0.0684 -0.6309  0.0854
 4269SOL    HW124266   4.698   1.017   0.518  0.2787 -1.1351  0.4581
 4269SOL    HW224267   0.082   1.016   0.623 -2.1671  0.1375  2.0822
 4270SOL     OW24268   3.060   1.776   7.781 -0.1566  0.7042  0.4612
 4270SOL    HW124269   3.094   1.831   7.711 -0.2947  3.2990  2.4251
 4270SOL    HW224270   3.140   1.755   7.829 -0.7753  2.2352  2.1703
 4271SOL     OW24271   2.485   2.601   9.898 -0.0730  0.0639  0.6097
 4271SOL    HW124272   2.438   2.546   9.960  0.3547 -0.4241  0.4931
 4271SOL    HW224273   2.538   2.542   9.844  1.0669  0.6579  1.0895
 4272SOL     OW24274   4.016   2.144  16.106  0.6243 -0.4139  0.3202
 4272SOL    HW124275   4.068   2.216  16.071 -3.5718  2.6241  0.3303
 4272SOL    HW224276   3.931   2.184  16.124  0.6711  0.0452 -0.5042
 4273SOL     OW24277   1.082   1.178   2.694  0.4286 -0.2088 -0.4248
 4273SOL    HW124278   1.020   1.241   2.657  0.1769  0.2696  0.8111
 4273SOL    HW224279   1.145   1.179   2.622 -0.9120  2.3331 -1.5616
 4274SOL     OW24280   4.497   4.455  10.983  0.8886  0.6066  0.3086
 4274SOL    HW124281   4.581   4.501  10.975  1.8454 -1.0905  0.3789
 4274SOL    HW224282   4.438   4.529  10.969  0.6639  0.2459 -0.6524
 4275SOL     OW24283   2.168   2.056   8.462 -0.2409  0.1687 -0.6704
 4275SOL    HW124284   2.246   2.096   8.424  1.3674 -1.0024  1.4854
 4275SOL    HW224285   2.160   1.964   8.437 -1.9697  0.0961  0.1633
 4276SOL     OW24286   1.252   3.304   5.798  0.0491 -0.3180 -0.0945
 4276SOL    HW124287   1.266   3.306   5.892 -1.2862  2.8524  0.0637
 4276SOL    HW224288   1.343   3.300   5.768  0.9566 -3.4975  3.2158
 4277SOL     OW24289   3.262   3.813   8.712 -0.2335 -0.6114  0.2186
 4277SOL    HW124290   3.246   3.906   8.696 -1.0207 -0.6876  0.5691
 4277SOL    HW224291   3.350   3.818   8.750 -0.1718  1.5822 -0.2045
 4278SOL     OW24292   3.210   1.537   2.066 -0.7198  0.0722 -0.0388
 4278SOL    HW124293   3.283   1.551   2.127  1.7369 -0.5088 -2.8089
 4278SOL    HW224294   3.215   1.441   2.056  1.0767  0.1663 -0.1063
 4279SOL     OW24295   0.971   2.858  11.496 -0.4605  0.1224 -0.4221
 4279SOL    HW124296   0.968   2.817  11.583 -0.8693  2.0322  0.4800
 4279SOL    HW224297   1.004   2.944  11.523  3.1662 -0.7661 -2.0609
 4280SOL     OW24298   4.088   3.913   2.585 -0.0758  0.5850  0.4056
 4280SOL    HW124299   4.162   3.948   2.536 -1.4686  1.5333 -1.0106
 4280SOL    HW224300   4.024   3.897   2.516 -0.5506  1.1825  0.7121
 4281SOL     OW24301   3.892   0.555   3.614 -0.2207  0.4997 -0.5710
 4281SOL    HW124302   3.825   0.547   3.546  0.0667 -3.7983 -0.4049
 4281SOL    HW224303   3.835   0.552   3.690 -0.2504  1.1657 -0.5725
 4282SOL     OW24304   1.810   0.528   7.501 -0.7386 -0.4658  0.4658
 4282SOL    HW124305   1.825   0.586   7.575 -2.2605  0.2408  0.2021
 4282SOL    HW224306   1.871   0.457   7.525 -0.1569 -0.5062 -1.1221
 4283SOL     OW24307   3.566   3.101   5.893 -0.1255 -0.4802  0.7883
 4283SOL    HW124308   3.546   3.080   5.984 -1.1109  1.3850  0.9910
 4283SOL    HW224309   3.485   3.112   5.844  0.6271  0.4635 -0.2396
 4284SOL     OW24310   2.276   0.298   5.268 -0.1110 -0.1683 -0.0948
 4284SOL    HW124311   2.247   0.342   5.189 -1.1093  0.4775  0.6368
 4284SOL    HW224312   2.294   0.366   5.333 -2.7963  2.3447 -2.0099
 4285SOL     OW24313   1.355   4.473   3.557 -0.5846 -0.0911  0.2218
 4285SOL    HW124314   1.359   4.536   3.629 -4.4900 -0.5944  0.8391
 4285SOL    HW224315   1.350   4.532   3.482 -2.7937  0.2552  0.6640
 4286SOL     OW24316   1.478   0.719  15.136 -0.1090 -0.2869  0.3146
 4286SOL    HW124317   1.416   0.645  15.135 -3.2338  2.3430 -0.1828
 4286SOL    HW224318   1.419   0.790  15.162  0.8163  1.5901 -2.7859
 4287SOL     OW24319   2.880   2.151   7.224 -0.6173 -0.0034  0.4493
 4287SOL    HW124320   2.816   2.180   7.289 -0.7459 -0.5010  0.5498
 4287SOL    HW224321   2.850   2.188   7.141 -1.6079  0.7428  1.1394
 4288SOL     OW24322   0.948   3.682   5.256  0.1463  0.6722  0.5348
 4288SOL    HW124323   0.989   3.760   5.218  1.9898  0.5509  2.2326
 4288SOL    HW224324   0.870   3.711   5.303 -1.0367 -0.9035 -0.4861
 4289SOL     OW24325   4.478   0.631   6.228 -0.1397  0.5919  0.1690
 4289SOL    HW124326   4.572   0.618   6.232 -0.2527 -0.4151 -0.4132
 4289SOL    HW224327   4.476   0.725   6.243 -1.8601  0.1491  2.9024
 4290SOL     OW24328   4.579   0.432   4.448 -0.1678  0.3051 -0.1068
 4290SOL    HW124329   4.548   0.467   4.364 -1.6444 -2.0390 -0.5442
 4290SOL    HW224330   4.668   0.463   4.460  0.7112 -1.8328 -1.2062
 4291SOL     OW24331   0.144   0.552   4.149  0.1345 -0.2008  0.2788
 4291SOL    HW124332   0.157   0.607   4.072  1.1872 -0.5203  0.2284
 4291SOL    HW224333   0.223   0.499   4.140 -1.7643 -3.0026  0.2727
 4292SOL     OW24334   4.567   2.789   0.423 -0.4431  0.3390  0.6078
 4292SOL    HW124335   4.645   2.832   0.389 -0.6115 -0.0564 -0.2570
 4292SOL    HW224336   4.557   2.727   0.351  0.4423  1.2374 -0.2824
 4293SOL     OW24337   4.327   4.577   8.663  0.3349 -0.0753 -0.2859
 4293SOL    HW124338   4.284   4.599   8.745  1.0508  2.8992 -0.7052
 4293SOL    HW224339   4.259   4.553   8.599  0.3450 -0.0287 -0.3146
 4294SOL     OW24340   3.996   2.859   8.992  0.0689  0.1661  0.0727
 4294SOL    HW124341   3.928   2.871   8.926 -1.5538 -1.1561  1.4879
 4294SOL    HW224342   3.930   2.865   9.061  1.5443 -1.1477  1.6083
 4295SOL     OW24343   4.128   2.286   9.711 -0.3026 -0.3602 -0.6269
 4295SOL    HW124344   4.152   2.279   9.618  0.0949  0.5480 -0.5945
 4295SOL    HW224345   4.046   2.335   9.705 -0.0404 -0.0191 -1.4294
 4296SOL     OW24346   1.083   2.504  15.377  0.3542 -0.1260  0.2628
 4296SOL    HW124347   1.156   2.471  15.430 -0.1120  0.9964  1.5900
 4296SOL    HW224348   1.121   2.574  15.324 -1.1434 -0.5085 -1.2982
 4297SOL     OW24349   2.562   3.609   3.374 -0.2019 -0.4172 -0.0359
 4297SOL    HW124350   2.515   3.693   3.378 -1.2183 -1.0076  0.3872
 4297SOL    HW224351   2.629   3.642   3.314 -0.8312  0.3571 -0.3215
 4298SOL     OW24352   2.148   0.761   7.961 -0.2314  0.0585 -0.2168
 4298SOL    HW124353   2.108   0.791   8.042 -0.5931 -0.9454 -0.0178
 4298SOL    HW224354   2.239   0.749   7.985  0.0611  2.6738 -0.0874
 4299SOL     OW24355   1.118   2.061   9.848 -0.8699  0.2305 -0.2857
 4299SOL    HW124356   1.086   2.017   9.770 -3.9767 -2.3315  2.4375
 4299SOL    HW224357   1.191   2.113   9.813 -0.1683 -1.0290 -0.6997
 4300SOL     OW24358   0.106   1.164  17.511  0.0155 -0.4005  0.3846
 4300SOL    HW124359   0.187   1.213  17.520 -0.0133 -0.3309  0.2543
 4300SOL    HW224360   0.128   1.109  17.436  1.1074  0.3349  0.1790
 4301SOL     OW24361   4.340   1.990   3.024  0.4846  0.0028 -0.0906
 4301SOL    HW124362   4.312   2.080   3.038  0.5301  0.2204 -1.4108
 4301SOL    HW224363   4.380   1.976   3.110  2.3911  0.0415 -0.9701
 4302SOL     OW24364   2.955   3.140   9.789 -0.0339 -0.3960  0.6902
 4302SOL    HW124365   3.006   3.109   9.715 -1.2846 -0.9281  0.0440
 4302SOL    HW224366   3.004   3.220   9.807 -2.3198  0.6858  2.2422
 4303SOL     OW24367   4.641   3.568   0.862 -0.3272  0.1899  0.0958
 4303SOL    HW124368   4.677   3.648   0.899 -0.9426  0.8976 -0.8380
 4303SOL    HW224369   4.669   3.562   0.770 -0.9910  0.8263 -0.1456
 4304SOL     OW24370   2.472   3.767   6.299 -0.0793 -0.0847 -0.0692
 4304SOL    HW124371   2.427   3.726   6.225  1.5418 -0.5835 -0.7796
 4304SOL    HW224372   2.464   3.860   6.280 -2.8393 -0.0019  1.6588
 4305SOL     OW24373   2.379   0.999  14.676  0.3166  0.3073  0.0438
 4305SOL    HW124374   2.347   0.920  14.720  0.9606  0.9449  1.6080
 4305SOL    HW224375   2.474   1.003  14.681  0.2733  0.5314  0.6351
 4306SOL     OW24376   4.658   2.132  12.368 -0.1015  0.0555 -0.1392
 4306SOL    HW124377   4.611   2.069  12.424  1.7766 -1.0492  0.1827
 4306SOL    HW224378   4.583   2.171  12.323  0.8682  1.1087 -0.8335
 4307SOL     OW24379   3.015   4.176  13.836  0.2809 -0.0857  0.4026
 4307SOL    HW124380   2.963   4.254  13.815  1.8948  0.2486 -2.3888
 4307SOL    HW224381   2.955   4.127  13.892  1.1538  0.7984  2.0940
 4308SOL     OW24382   1.728   4.586   6.639 -0.6643  0.7363 -0.1569
 4308SOL    HW124383   1.673   4.598   6.562  1.2461  1.4936 -1.4064
 4308SOL    HW224384   1.787   4.520   6.602  0.4058  0.6432  1.7381
 4309SOL     OW24385   3.546   1.089  15.741 -0.3448  0.2185  0.2330
 4309SOL    HW124386   3.525   1.112  15.650  0.0060 -0.1454  0.0650
 4309SOL    HW224387   3.599   1.165  15.766  2.4161 -1.1808 -1.4071
 4310SOL     OW24388   0.026   0.848  16.098 -0.4505 -0.2341  0.1616
 4310SOL    HW124389   0.099   0.893  16.056  0.9090 -0.6178  2.1103
 4310SOL    HW224390   4.695   0.812  16.025 -0.1117 -3.1786  1.3792
 4311SOL     OW24391   2.930   1.846  11.783 -0.2386 -0.1153 -0.3733
 4311SOL    HW124392   2.884   1.844  11.867  0.6562 -1.1312  0.0939
 4311SOL    HW224393   3.014   1.811  11.812  0.8899  2.8642 -0.1043
 4312SOL     OW24394   3.459   1.810   8.693  0.0108  0.6113 -0.0840
 4312SOL    HW124395   3.391   1.750   8.663  0.7946  0.3510 -1.3364
 4312SOL    HW224396   3.456   1.873   8.620 -0.3332 -0.0311 -0.6242
 4313SOL     OW24397   4.105   3.021   0.087 -0.4500 -0.1001 -0.1168
 4313SOL    HW124398   4.106   2.967   0.008 -2.0976 -0.1389 -0.1075
 4313SOL    HW224399   4.035   3.082   0.063  0.8141  1.6000  0.4655
 4314SOL     OW24400   2.478   2.526   7.059 -0.4041  0.2249 -0.0546
 4314SOL    HW124401   2.395   2.522   7.013 -0.0052 -0.6722 -0.7149
 4314SOL    HW224402   2.515   2.593   7.002 -0.0829 -0.7522 -1.0072
 4315SOL     OW24403   0.930   4.574   7.862 -0.3043  0.1159 -0.5354
 4315SOL    HW124404   0.892   4.631   7.928 -0.3279 -0.0314 -0.4206
 4315SOL    HW224405   0.887   4.490   7.874  2.6650 -1.3806 -0.2222
 4316SOL     OW24406   1.389   2.015   9.510 -0.7672 -0.5445  0.3110
 4316SOL    HW124407   1.417   2.076   9.442  1.8556  0.4522  2.2886
 4316SOL    HW224408   1.296   2.037   9.509 -1.0035 -1.6482 -1.2120
 4317SOL     OW24409   2.752   1.316   1.853  0.1526  0.0352  0.2382
 4317SOL    HW124410   2.800   1.237   1.825  0.5303  0.0028  0.9609
 4317SOL    HW224411   2.827   1.372   1.875 -0.2343  0.4061  0.6050
 4318SOL     OW24412   1.000   3.806   4.105 -0.2287 -0.0381  0.2913
 4318SOL    HW124413   0.980   3.713   4.092  2.6171 -1.1436  3.6949
 4318SOL    HW224414   1.085   3.812   4.150 -0.7268  0.1505  1.2066
 4319SOL     OW24415   0.976   2.876  16.639 -0.0803 -0.2527 -0.2296
 4319SOL    HW124416   1.018   2.886  16.553 -1.6706  0.0789 -0.9724
 4319SOL    HW224417   0.988   2.781  16.648 -2.3171 -0.4635  0.5282
 4320SOL     OW24418   1.711   1.570   4.836  0.3421 -0.1563  0.4224
 4320SOL    HW124419   1.726   1.530   4.921  1.7219 -0.5762 -0.0129
 4320SOL    HW224420   1.681   1.658   4.858  0.9483 -0.8004  3.8089
 4321SOL     OW24421   1.142   1.183   4.915 -0.0980 -0.5806 -0.1068
 4321SOL    HW124422   1.132   1.253   4.850 -0.1616 -0.4800  0.0104
 4321SOL    HW224423   1.067   1.195   4.974 -0.2239  1.2119 -0.6350
 4322SOL     OW24424   0.093   4.635   2.039  0.1306 -0.1921 -0.0707
 4322SOL    HW124425   0.073   4.695   1.967  0.0060  0.2719  0.3497
 4322SOL    HW224426   0.017   4.577   2.029 -1.9435  2.4127  0.6869
 4323SOL     OW24427   0.090   0.489  11.286 -0.2303 -0.3884 -0.0326
 4323SOL    HW124428   4.719   0.462  11.279 -0.6835  1.2849 -0.7390
 4323SOL    HW224429   0.092   0.558  11.219 -0.6389 -1.5371 -1.2123
 4324SOL     OW24430   2.849   2.902   3.313  0.3753  0.0242  0.1779
 4324SOL    HW124431   2.837   2.948   3.396 -1.9412 -1.3694  0.6409
 4324SOL    HW224432   2.828   2.810   3.332  2.7179 -0.7982 -1.2691
 4325SOL     OW24433   3.230   2.135  15.351 -0.0127 -0.0806 -0.0040
 4325SOL    HW124434   3.323   2.118  15.338 -0.0597 -0.3656  0.0418
 4325SOL    HW224435   3.223   2.118  15.444  1.1560  0.2098  0.1400
 4326SOL     OW24436   3.012   2.452   8.486  0.0151 -0.4269 -0.5599
 4326SOL    HW124437   2.959   2.423   8.561 -3.1628 -2.5345 -3.6442
 4326SOL    HW224438   2.974   2.397   8.418 -2.4148  0.6289 -0.0616
 4327SOL     OW24439   3.554   0.188   2.649  0.5874  0.2809  0.4474
 4327SOL    HW124440   3.601   0.269   2.633 -0.1227  0.3896 -1.0551
 4327SOL    HW224441   3.477   0.187   2.593  0.0915 -0.1753  1.1299
 4328SOL     OW24442   2.047   3.183   6.800 -0.5155  0.0718  0.1452
 4328SOL    HW124443   2.024   3.142   6.883 -0.4092  2.3859  1.3081
 4328SOL    HW224444   2.071   3.273   6.822 -0.8584  0.6203 -1.7693
 4329SOL     OW24445   3.460   4.651   4.553  0.3768  0.4206  0.3775
 4329SOL    HW124446   3.547   4.642   4.514 -0.1036 -0.5107 -0.4710
 4329SOL    HW224447   3.423   4.687   4.473  0.8266 -0.0918 -0.0639
 4330SOL     OW24448   0.160   3.205  13.619 -0.4872 -0.0574  0.0273
 4330SOL    HW124449   0.073   3.166  13.625 -1.1095  1.2702 -0.4261
 4330SOL    HW224450   0.145   3.299  13.607 -1.3631 -0.3647 -1.2485
 4331SOL     OW24451   3.885   2.253   9.268 -0.1826 -0.2928 -0.2420
 4331SOL    HW124452   3.926   2.168   9.255  0.6011 -0.6290  4.5626
 4331SOL    HW224453   3.840   2.235   9.350 -0.9808 -0.5129 -0.7299
 4332SOL     OW24454   2.954   1.716   3.033  0.3699  0.1983  0.2518
 4332SOL    HW124455   2.967   1.680   2.945 -0.8684 -0.1543  0.2148
 4332SOL    HW224456   3.037   1.762   3.047  0.3802  0.0741  0.5907
 4333SOL     OW24457   3.483   1.552  16.207  0.5944 -0.0592  0.2427
 4333SOL    HW124458   3.390   1.531  16.198  0.2496  0.1347  3.1429
 4333SOL    HW224459   3.484   1.543  16.303  0.2414 -0.4569  0.2096
 4334SOL     OW24460   3.673   3.947   7.056  0.0292  0.1401  0.5128
 4334SOL    HW124461   3.593   4.000   7.050 -1.1067 -1.5319  0.8584
 4334SOL    HW224462   3.637   3.862   7.082 -0.0221 -0.3846 -1.2273
 4335SOL     OW24463   0.511   0.055   4.365 -0.5755 -0.0594  0.0327
 4335SOL    HW124464   0.536   0.055   4.458 -0.3832 -1.2637 -0.0164
 4335SOL    HW224465   0.467   4.690   4.363  0.4167 -0.6207  1.8409
 4336SOL     OW24466   3.101   2.122   8.371  0.3104 -0.1292  0.1028
 4336SOL    HW124467   3.131   2.131   8.280 -2.2193 -1.9215 -0.8911
 4336SOL    HW224468   3.010   2.151   8.368  0.8954  1.5510 -1.9071
 4337SOL     OW24469   3.118   3.085  16.663  0.3650  0.2340 -0.4547
 4337SOL    HW124470   3.194   3.087  16.720  1.4208  1.3596 -1.9017
 4337SOL    HW224471   3.047   3.087  16.727 -0.2220  3.0674 -1.1889
 4338SOL     OW24472   4.597   1.838   4.594 -0.1781  0.0077 -0.1190
 4338SOL    HW124473   4.687   1.815   4.618 -0.5005  1.4321  2.5595
 4338SOL    HW224474   4.563   1.832   4.684 -1.8313  1.4774 -0.6455
 4339SOL     OW24475   4.234   3.029  11.985  0.1919  0.4425  0.7619
 4339SOL    HW124476   4.175   2.970  12.033  2.3549 -1.9830  0.4294
 4339SOL    HW224477   4.301   2.967  11.958  0.0950  0.5878  0.1982
 4340SOL     OW24478   0.390   4.267   4.977 -0.1212  0.4642  0.3039
 4340SOL    HW124479   0.344   4.209   5.038 -2.0934  1.3929 -0.2903
 4340SOL    HW224480   0.326   4.339   4.972  0.6654  1.1113 -0.4282
 4341SOL     OW24481   2.348   2.076   5.129  0.5285  0.7170 -0.0530
 4341SOL    HW124482   2.424   2.019   5.138 -0.6068 -0.4323  2.1048
 4341SOL    HW224483   2.373   2.158   5.172 -0.6842 -0.7823  3.4640
 4342SOL     OW24484   0.192   1.073   7.631  0.1260 -0.0362  0.3994
 4342SOL    HW124485   0.109   1.027   7.616 -0.5687  0.6228  2.2433
 4342SOL    HW224486   0.225   1.020   7.703 -1.6858 -0.1083  1.1798
 4343SOL     OW24487   0.555   0.486   6.778 -0.1929 -0.3492  0.0043
 4343SOL    HW124488   0.644   0.521   6.780  0.4338 -1.9704  0.4665
 4343SOL    HW224489   0.505   0.568   6.783  0.1970 -0.0634 -0.9323
 4344SOL     OW24490   3.462   2.060   4.869  0.0797 -0.0526 -0.3762
 4344SOL    HW124491   3.487   2.146   4.904  0.2351 -0.3412  0.2082
 4344SOL    HW224492   3.506   2.062   4.784 -0.1118  0.1160 -0.4724
 4345SOL     OW24493   3.290   1.339   5.469 -0.0706  0.1605 -0.0130
 4345SOL    HW124494   3.381   1.366   5.453 -0.8095  1.6252 -1.7070
 4345SOL    HW224495   3.306   1.245   5.475  1.3475  0.3485 -0.6575
 4346SOL     OW24496   3.513   1.607   7.270 -0.0540 -0.1778  0.7574
 4346SOL    HW124497   3.564   1.569   7.342  0.6524 -1.3846 -0.3572
 4346SOL    HW224498   3.428   1.563   7.278  1.0134 -1.8551  3.0151
 4347SOL     OW24499   0.287   4.258  15.923 -0.2890 -0.4185  0.0219
 4347SOL    HW124500   0.193   4.276  15.916 -0.1118 -0.0703 -1.6478
 4347SOL    HW224501   0.311   4.326  15.986  0.2444  0.4413 -1.1093
 4348SOL     OW24502   1.002   3.962  11.906  0.4428  0.3366  0.1192
 4348SOL    HW124503   0.937   4.030  11.927 -4.0470 -3.8179 -0.3804
 4348SOL    HW224504   1.090   3.983  11.936 -0.1241  3.5655 -0.3944
 4349SOL     OW24505   0.974   2.467  11.902 -0.1658 -0.4167 -0.5455
 4349SOL    HW124506   1.057   2.453  11.947  0.7986  3.3838 -1.1213
 4349SOL    HW224507   0.985   2.420  11.819  0.7775 -0.8364 -0.1767
 4350SOL     OW24508   0.872   4.285   2.727 -0.1873  0.3440  0.1942
 4350SOL    HW124509   0.803   4.291   2.793 -0.5194 -1.3881  0.0144
 4350SOL    HW224510   0.909   4.373   2.735  1.2741 -0.1775 -0.7652
 4351SOL     OW24511   3.162   2.159   8.088  1.0079 -0.0571 -0.0269
 4351SOL    HW124512   3.136   2.205   8.008 -0.9493 -1.3845 -0.1667
 4351SOL    HW224513   3.256   2.172   8.095  1.1804 -0.4800 -1.5065
 4352SOL     OW24514   3.134   1.633   0.074 -0.4572  0.2187  0.8847
 4352SOL    HW124515   3.076   1.695   0.031  0.9621  0.8095 -0.1595
 4352SOL    HW224516   3.079   1.555   0.064 -1.0061  0.4458  2.0818
 4353SOL     OW24517   1.152   3.284   3.524  0.3673  0.0193  0.2663
 4353SOL    HW124518   1.188   3.358   3.573  0.5728 -0.4108  0.7673
 4353SOL    HW224519   1.199   3.307   3.444  0.7984  2.3831  1.2016
 4354SOL     OW24520   0.418   3.501   5.056 -0.5438 -0.6476 -0.2363
 4354SOL    HW124521   0.474   3.578   5.045  1.8344 -2.1713  1.1465
 4354SOL    HW224522   0.353   3.532   5.119  0.3433  1.8117 -0.5168
 4355SOL     OW24523   0.280   2.942   6.331  0.2933 -0.0094 -0.0873
 4355SOL    HW124524   0.360   2.967   6.286  0.2318 -0.6467 -0.5570
 4355SOL    HW224525   0.256   2.859   6.290  0.3379 -0.2104  0.2936
 4356SOL     OW24526   3.837   4.354   8.729  0.4749  0.0805  0.2185
 4356SOL    HW124527   3.828   4.440   8.769  2.8169  0.7651 -0.7019
 4356SOL    HW224528   3.930   4.336   8.741  0.2652 -1.9674 -1.1115
 4357SOL     OW24529   3.230   2.792   4.002  0.2732 -0.1450  0.2659
 4357SOL    HW124530   3.281   2.717   4.033  0.9066  0.2841  0.2748
 4357SOL    HW224531   3.236   2.780   3.907  2.7703  0.8519  0.2911
 4358SOL     OW24532   0.058   1.441   9.198 -0.5356  0.1167  0.2426
 4358SOL    HW124533   0.032   1.380   9.129  3.3459 -1.5302  0.2641
 4358SOL    HW224534   4.699   1.466   9.245 -1.2743 -0.2394 -0.8227
 4359SOL     OW24535   1.578   2.622   9.474  0.2613 -0.1713  0.1135
 4359SOL    HW124536   1.506   2.651   9.530  0.2227 -0.3101  0.1356
 4359SOL    HW224537   1.610   2.549   9.527 -3.8205 -1.1859  1.1593
 4360SOL     OW24538   1.747   1.106  16.883 -0.0688  0.2935  0.2725
 4360SOL    HW124539   1.760   1.094  16.977 -0.7427  1.2745  0.4907
 4360SOL    HW224540   1.658   1.139  16.877 -0.3621 -0.5927 -0.1264
 4361SOL     OW24541   2.339   1.492  17.047  0.2544 -0.1109  0.1576
 4361SOL    HW124542   2.410   1.498  17.111 -1.6144  0.9256  2.1307
 4361SOL    HW224543   2.288   1.423  17.088 -1.8896  0.8672 -0.8348
 4362SOL     OW24544   2.098   2.748  13.530  0.5661 -0.4963 -0.3522
 4362SOL    HW124545   2.181   2.708  13.558 -1.1114 -2.7191  1.5179
 4362SOL    HW224546   2.081   2.690  13.455 -0.7273  0.2390 -0.6199
 4363SOL     OW24547   2.802   3.147   7.799  0.0520 -0.1552 -0.1099
 4363SOL    HW124548   2.846   3.222   7.839 -0.0705 -0.0579 -0.1580
 4363SOL    HW224549   2.730   3.193   7.756 -1.6674 -1.2812  1.5450
 4364SOL     OW24550   1.198   0.376   2.834  0.0300  0.7755 -0.3248
 4364SOL    HW124551   1.211   0.284   2.812 -1.4247  0.5515 -0.2524
 4364SOL    HW224552   1.288   0.393   2.863 -0.4698  1.9153  0.6010
 4365SOL     OW24553   1.566   4.066   9.131  0.1295 -0.0609 -0.3329
 4365SOL    HW124554   1.644   4.121   9.121  0.7843 -0.7195  1.3138
 4365SOL    HW224555   1.500   4.129   9.160 -1.6740 -2.9696  1.9453
 4366SOL     OW24556   3.900   0.641   6.720 -0.3440  0.1221  0.4958
 4366SOL    HW124557   3.967   0.677   6.662  0.1576 -1.4352  0.1146
 4366SOL    HW224558   3.819   0.690   6.703 -0.1837  0.4985  0.8116
 4367SOL     OW24559   2.812   0.261   3.986  0.0373  0.3160  0.4381
 4367SOL    HW124560   2.831   0.317   3.911 -0.3210  0.0349  0.1324
 4367SOL    HW224561   2.836   0.322   4.055 -0.6871  0.6476  0.3998
 4368SOL     OW24562   1.079   2.481   6.864 -0.3744 -0.2208 -0.1196
 4368SOL    HW124563   1.138   2.554   6.846 -1.7224  1.1950  1.2098
 4368SOL    HW224564   1.095   2.456   6.955  0.8035 -1.4097 -0.6497
 4369SOL     OW24565   4.071   1.919   4.420 -0.2388 -0.5986 -0.0861
 4369SOL    HW124566   4.064   1.956   4.508  1.0832 -1.3536  0.3385
 4369SOL    HW224567   4.146   1.862   4.432 -1.8941 -2.6794  0.2260
 4370SOL     OW24568   2.495   0.041   6.957  0.4317  0.4070  0.2403
 4370SOL    HW124569   2.533   4.717   7.032 -0.5619  0.6380  0.8844
 4370SOL    HW224570   2.573   0.056   6.904  0.1474  0.3182 -0.2057
 4371SOL     OW24571   1.896   3.070   8.911  0.0171 -0.1006 -0.7557
 4371SOL    HW124572   1.822   3.093   8.968  1.7453  4.4113 -0.3938
 4371SOL    HW224573   1.893   2.977   8.935 -3.3564 -0.0942 -1.0602
 4372SOL     OW24574   4.474   2.994   2.104 -0.7640 -0.2812  0.0113
 4372SOL    HW124575   4.401   2.952   2.059 -1.4296 -0.4419  1.2577
 4372SOL    HW224576   4.488   2.936   2.179  1.7702  0.8368  0.4047
 4373SOL     OW24577   2.638   1.682   6.567  0.0626 -0.7260 -0.6806
 4373SOL    HW124578   2.656   1.600   6.613  0.4080 -0.1459  0.2153
 4373SOL    HW224579   2.641   1.645   6.479 -0.9283  1.8694 -1.8308
 4374SOL     OW24580   4.161   3.280  14.915 -1.0905 -0.0957 -0.2260
 4374SOL    HW124581   4.171   3.292  15.009 -0.3367 -1.9912 -0.0539
 4374SOL    HW224582   4.105   3.203  14.905 -0.1987 -0.9107  1.0544
 4375SOL     OW24583   0.928   1.117   2.961  0.1415 -0.1493  0.1442
 4375SOL    HW124584   0.846   1.072   2.942  0.4265 -0.1781 -0.9892
 4375SOL    HW224585   0.991   1.071   2.906 -1.0073 -1.9531  0.3697
 4376SOL     OW24586   0.213   1.455   0.206  0.4791  0.3249  0.4429
 4376SOL    HW124587   0.264   1.528   0.240  0.9338 -0.2555  1.0193
 4376SOL    HW224588   0.280   1.387   0.194  0.3442  0.4582 -0.9695
 4377SOL     OW24589   1.714   4.602  16.805  0.2934 -0.0838 -0.0548
 4377SOL    HW124590   1.693   4.526  16.750  1.1054  1.5559 -2.6400
 4377SOL    HW224591   1.754   4.574  16.887 -0.7798  0.0230  0.5007
 4378SOL     OW24592   0.202   3.002  15.477  0.5099  0.2883 -0.3936
 4378SOL    HW124593   0.218   3.006  15.571  0.8334  0.6039 -0.4634
 4378SOL    HW224594   0.179   2.909  15.469  0.2286 -0.0318  4.0632
 4379SOL     OW24595   0.502   0.723   5.124 -0.1491  0.4531  0.4175
 4379SOL    HW124596   0.460   0.644   5.158 -2.8849  1.7243  0.0462
 4379SOL    HW224597   0.467   0.729   5.035  0.4085 -0.2220  0.1517
 4380SOL     OW24598   0.180   0.303   6.107  0.8658 -0.4738  0.0886
 4380SOL    HW124599   0.101   0.310   6.160  0.5570 -0.8484 -0.3301
 4380SOL    HW224600   0.209   0.395   6.105  0.4294 -0.3562 -0.5525
 4381SOL     OW24601   1.548   4.257   6.896  0.0145 -0.0501  0.3053
 4381SOL    HW124602   1.519   4.325   6.835 -0.2659 -0.8952 -0.4828
 4381SOL    HW224603   1.643   4.267   6.887  0.0325  0.0220  0.5667
 4382SOL     OW24604   0.731   3.536   8.465 -0.3234  0.1092  0.0878
 4382SOL    HW124605   0.722   3.520   8.559 -2.2558 -2.9681 -0.6086
 4382SOL    HW224606   0.713   3.449   8.429 -2.0558 -0.1892  1.6915
 4383SOL     OW24607   0.635   1.298   8.326  0.0101  0.3586  0.2533
 4383SOL    HW124608   0.672   1.386   8.317 -0.3816  0.3504 -1.4281
 4383SOL    HW224609   0.678   1.263   8.404 -0.4400 -2.0562 -0.5691
 4384SOL     OW24610   2.277   2.536   6.634  0.1044 -0.1875  0.2922
 4384SOL    HW124611   2.248   2.446   6.646 -0.7732  0.1223  0.4820
 4384SOL    HW224612   2.217   2.556   6.563 -0.3115 -1.3177  0.3213
 4385SOL     OW24613   1.430   0.315   8.957  0.0120  0.2436 -0.3104
 4385SOL    HW124614   1.452   0.408   8.963  4.0883 -0.8014  0.4326
 4385SOL    HW224615   1.445   0.296   8.865  0.2765  1.9605 -0.6139
 4386SOL     OW24616   3.295   2.923   5.535  0.0380  0.3123  0.1359
 4386SOL    HW124617   3.331   3.011   5.544  1.1619  0.1954 -3.3087
 4386SOL    HW224618   3.258   2.925   5.447 -0.0630  2.9448  0.2465
 4387SOL     OW24619   1.241   0.267  12.042  0.1091 -0.9381  0.3029
 4387SOL    HW124620   1.241   0.179  12.005 -0.2752 -0.5079 -0.7210
 4387SOL    HW224621   1.215   0.252  12.133  0.3696 -1.4760  0.2885
 4388SOL     OW24622   0.884   1.308  11.407 -0.1547  0.0966 -0.1598
 4388SOL    HW124623   0.877   1.397  11.374 -1.1873 -0.3039 -1.0253
 4388SOL    HW224624   0.972   1.306  11.445 -0.7574 -0.3842  1.2304
 4389SOL     OW24625   1.743   1.861   4.991  0.1194  0.1026 -0.1726
 4389SOL    HW124626   1.707   1.947   4.969 -0.4510 -0.1603 -0.2738
 4389SOL    HW224627   1.831   1.878   5.026  0.8509 -0.2687 -1.8605
 4390SOL     OW24628   1.937   3.691   2.954 -0.5485  0.1916 -0.1663
 4390SOL    HW124629   1.876   3.624   2.985 -0.6907  1.1380  1.5942
 4390SOL    HW224630   1.896   3.737   2.881  0.0161  0.3189 -0.3992
 4391SOL     OW24631   1.428   0.707   4.531 -0.2056  0.0179 -0.4059
 4391SOL    HW124632   1.364   0.749   4.474  1.4408  0.6688 -1.7856
 4391SOL    HW224633   1.402   0.616   4.517 -0.1867  0.0000 -0.3245
 4392SOL     OW24634   2.953   1.095  10.886  0.0861  0.8059  0.6502
 4392SOL    HW124635   2.990   1.141  10.961  0.0578 -0.0088  1.1555
 4392SOL    HW224636   2.944   1.011  10.929 -3.0747  0.6101 -0.3920
 4393SOL     OW24637   1.398   3.988   9.821  0.6604 -0.5736  0.2761
 4393SOL    HW124638   1.492   3.978   9.837  0.5437 -4.5674 -1.5310
 4393SOL    HW224639   1.404   3.960   9.730  2.0791  1.0244 -0.1295
 4394SOL     OW24640   0.935   2.233  11.286  0.5624  0.4716  0.9330
 4394SOL    HW124641   0.908   2.172  11.354  0.2727 -1.6034 -1.0673
 4394SOL    HW224642   0.918   2.321  11.321 -1.5373  1.6199 -3.0022
 4395SOL     OW24643   2.586   2.603   8.280  0.3396  0.0873  0.0743
 4395SOL    HW124644   2.669   2.639   8.250  0.4250 -1.8718 -2.0777
 4395SOL    HW224645   2.521   2.669   8.254 -0.4312 -0.8073 -0.2844
 4396SOL     OW24646   4.427   0.388  17.367 -0.3589 -0.4137 -0.1741
 4396SOL    HW124647   4.479   0.345  17.299  1.2515  1.0361  0.1693
 4396SOL    HW224648   4.337   0.362  17.346 -1.0082  1.4404  0.3551
 4397SOL     OW24649   1.075   0.898   7.591 -0.0022  0.2136 -0.3675
 4397SOL    HW124650   1.162   0.934   7.606 -0.8183  1.3935  1.6111
 4397SOL    HW224651   1.034   0.947   7.520  0.6894  2.7156  0.9613
 4398SOL     OW24652   1.767   4.244   9.730  0.4059  0.3394 -0.1642
 4398SOL    HW124653   1.717   4.164   9.749 -2.1823  1.6064 -1.6399
 4398SOL    HW224654   1.851   4.209   9.758 -0.1150 -0.8305 -0.0316
 4399SOL     OW24655   2.428   4.356  16.592 -0.0146 -0.2322 -0.0942
 4399SOL    HW124656   2.377   4.387  16.518 -0.5594  0.4795  0.5723
 4399SOL    HW224657   2.370   4.385  16.663  0.5657  2.8738 -0.8882
 4400SOL     OW24658   1.081   3.538   2.743  0.1181 -0.7599 -0.2827
 4400SOL    HW124659   1.145   3.602   2.713  1.0039  0.4679  4.1937
 4400SOL    HW224660   1.144   3.466   2.742 -0.2273 -1.0354 -1.3766
 4401SOL     OW24661   3.844   1.717   3.887 -0.2668  0.4675 -0.5776
 4401SOL    HW124662   3.927   1.760   3.864  0.1010 -0.9277 -1.8611
 4401SOL    HW224663   3.885   1.637   3.919  0.8850  1.4789  0.4934
 4402SOL     OW24664   1.850   2.898   4.686 -0.4544 -0.2129 -0.8357
 4402SOL    HW124665   1.826   2.900   4.594 -1.6391 -1.1131 -0.5408
 4402SOL    HW224666   1.782   2.954   4.724 -1.1580 -0.5651 -1.5850
 4403SOL     OW24667   1.276   3.229   9.308  0.2959  0.1547  0.2165
 4403SOL    HW124668   1.202   3.191   9.261  1.3192 -0.1240 -1.1681
 4403SOL    HW224669   1.256   3.322   9.307 -1.7487 -0.2879  0.1753
 4404SOL     OW24670   0.226   1.450   7.786 -0.2511  0.0508  0.4623
 4404SOL    HW124671   0.138   1.480   7.766  0.1277  0.5361 -0.5111
 4404SOL    HW224672   0.258   1.523   7.839 -0.0100  0.7325 -0.6160
 4405SOL     OW24673   2.947   0.395   0.700 -1.3435  0.0829  0.4351
 4405SOL    HW124674   2.992   0.461   0.647  2.5164 -1.0590  2.2207
 4405SOL    HW224675   2.865   0.441   0.714 -2.1782 -0.9905 -0.9888
 4406SOL     OW24676   3.319   2.468   3.040  0.0469 -0.0056  0.1004
 4406SOL    HW124677   3.231   2.465   3.078 -1.4475 -0.8017 -3.3749
 4406SOL    HW224678   3.379   2.520   3.092 -2.9491  1.9387  1.5738
 4407SOL     OW24679   1.815   3.556   5.599 -0.7774  0.2678  0.3917
 4407SOL    HW124680   1.854   3.621   5.540  1.6406 -3.6594 -2.3761
 4407SOL    HW224681   1.747   3.520   5.542  0.3583 -1.4505  0.1186
 4408SOL     OW24682   0.968   0.798   5.085 -0.2692 -0.5155 -0.0113
 4408SOL    HW124683   0.888   0.840   5.053  0.8195  0.2563 -1.7538
 4408SOL    HW224684   1.028   0.829   5.017  0.2067 -0.3898  0.4662
 4409SOL     OW24685   0.199   3.729   7.843  0.1049 -0.0677  0.9433
 4409SOL    HW124686   0.243   3.650   7.811 -0.3874 -0.6640  1.7294
 4409SOL    HW224687   0.114   3.690   7.863 -0.1984 -0.3602 -0.9442
 4410SOL     OW24688   3.044   0.790   4.745  0.2464  0.2582 -0.2292
 4410SOL    HW124689   3.008   0.842   4.673 -1.8381 -2.5168 -1.1850
 4410SOL    HW224690   3.079   0.864   4.794 -2.2067  1.4934 -0.3438
 4411SOL     OW24691   3.276   3.098  12.654 -0.4202 -0.4123  0.0851
 4411SOL    HW124692   3.347   3.085  12.591  0.2630  0.8304  0.6079
 4411SOL    HW224693   3.198   3.049  12.628 -1.2624  1.8945 -1.7176
 4412SOL     OW24694   3.532   1.056   2.043  0.5490 -0.3361  0.3124
 4412SOL    HW124695   3.443   1.030   2.021  1.3343 -1.6090 -1.3621
 4412SOL    HW224696   3.565   1.091   1.960  1.4824 -1.0727  0.3739
 4413SOL     OW24697   3.130   3.682   9.257 -0.0510 -0.1122  0.1253
 4413SOL    HW124698   3.156   3.591   9.270  0.2496  0.0055  0.3618
 4413SOL    HW224699   3.126   3.684   9.162  2.0454 -0.4637  0.0215
 4414SOL     OW24700   4.250   0.775   6.383 -0.2889 -0.3535  0.1327
 4414SOL    HW124701   4.205   0.731   6.311 -0.3827  1.3556 -0.8662
 4414SOL    HW224702   4.305   0.838   6.336  1.8366 -1.6391  0.9118
 4415SOL     OW24703   0.146   2.055   9.888 -0.7929  0.0360 -0.3292
 4415SOL    HW124704   0.194   2.039   9.968 -0.2282 -1.4501 -0.9699
 4415SOL    HW224705   0.058   2.027   9.914 -0.4261 -1.0690 -0.3012
 4416SOL     OW24706   2.122   2.010   9.015 -0.7034 -0.8859 -0.2951
 4416SOL    HW124707   2.210   2.046   9.007 -1.7649  1.4670 -1.3076
 4416SOL    HW224708   2.105   1.962   8.934  1.6115 -1.8662 -0.2025
 4417SOL     OW24709   2.498   3.128   6.754  0.3678 -0.0976  0.1992
 4417SOL    HW124710   2.557   3.202   6.739  1.9339 -1.4826 -0.4542
 4417SOL    HW224711   2.426   3.164   6.806 -1.6742 -2.4119 -1.0584
 4418SOL     OW24712   1.386   3.290   6.872 -0.7213 -0.4595  0.4186
 4418SOL    HW124713   1.409   3.361   6.933  0.4742  1.1496 -1.9096
 4418SOL    HW224714   1.360   3.219   6.931 -0.7514  1.0330  2.2303
 4419SOL     OW24715   0.465   1.329   0.170  0.5132  0.0728 -0.2831
 4419SOL    HW124716   0.545   1.294   0.208  0.6027 -0.5974 -1.0765
 4419SOL    HW224717   0.501   1.418   0.166 -1.2470  0.8872  2.4101
 4420SOL     OW24718   0.294   0.328  10.407  0.5212 -0.1478  0.2417
 4420SOL    HW124719   0.354   0.378  10.462  1.2424  0.0944 -0.7652
 4420SOL    HW224720   0.267   0.397  10.347 -2.3715  0.5297  2.3586
 4421SOL     OW24721   4.425   4.555   7.256 -0.5792  0.0973 -0.1630
 4421SOL    HW124722   4.374   4.635   7.242 -1.3436 -0.2932  0.3419
 4421SOL    HW224723   4.445   4.547   7.349 -2.0775  0.7256  0.2134
 4422SOL     OW24724   1.236   2.181   0.248 -0.0254  0.8829 -0.2887
 4422SOL    HW124725   1.246   2.275   0.232  1.6252  0.5763 -1.0648
 4422SOL    HW224726   1.330   2.167   0.234 -0.3968 -1.7155 -0.1148
 4423SOL     OW24727   0.169   3.197   6.261  0.1864  0.2421  0.4488
 4423SOL    HW124728   0.221   3.277   6.259 -3.1202  2.4032  0.9928
 4423SOL    HW224729   0.235   3.127   6.261  0.7476  0.7641 -2.1778
 4424SOL     OW24730   0.078   4.215  16.174  0.1396  0.0198  0.3574
 4424SOL    HW124731   4.704   4.229  16.180 -0.0211 -0.9951  0.0626
 4424SOL    HW224732   0.101   4.294  16.224  0.9069 -0.4413  0.7260
 4425SOL     OW24733   1.559   4.555   5.247 -0.2170 -0.2552  0.2546
 4425SOL    HW124734   1.530   4.490   5.311  2.9178 -1.8941  0.0234
 4425SOL    HW224735   1.474   4.591   5.223  0.3692 -0.0022 -1.4548
 4426SOL     OW24736   4.374   3.590   0.896 -0.5539 -0.0624 -0.3912
 4426SOL    HW124737   4.468   3.584   0.881 -0.5877  2.7083 -1.7868
 4426SOL    HW224738   4.345   3.564   0.809 -2.6334 -0.5179  0.4242
 4427SOL     OW24739   3.856   2.171   1.331 -0.6385  0.5614 -0.1841
 4427SOL    HW124740   3.873   2.256   1.290  1.2226 -0.3745 -1.3531
 4427SOL    HW224741   3.795   2.186   1.404 -1.1657 -0.7058 -0.3691
 4428SOL     OW24742   0.133   4.611   5.060  0.0724 -1.0184  0.2815
 4428SOL    HW124743   0.171   4.572   5.139 -1.1197  0.3731  1.5484
 4428SOL    HW224744   0.112   4.700   5.089  0.1599 -0.0439 -2.6973
 4429SOL     OW24745   2.665   1.187   4.184 -0.0624 -0.0661 -0.3706
 4429SOL    HW124746   2.596   1.123   4.202  1.9170 -1.6336  1.6376
 4429SOL    HW224747   2.614   1.265   4.208  2.2121  0.9652  1.1137
 4430SOL     OW24748   0.499   1.777   2.959 -0.1670 -0.3520 -0.3979
 4430SOL    HW124749   0.567   1.793   2.894  0.1614  0.5533  0.1814
 4430SOL    HW224750   0.501   1.860   3.006 -1.9889 -0.9268  0.6971
 4431SOL     OW24751   3.103   3.533   3.465  0.2155  0.7418  0.2158
 4431SOL    HW124752   3.093   3.566   3.376  2.7580 -1.2236 -0.8162
 4431SOL    HW224753   3.022   3.555   3.510  0.2637  1.3194  0.0267
 4432SOL     OW24754   3.534   2.015   7.376 -0.1320 -0.2155 -0.2599
 4432SOL    HW124755   3.485   2.074   7.319 -0.7051 -0.5132 -0.0809
 4432SOL    HW224756   3.557   2.073   7.449 -0.0458 -0.6331  0.0504
 4433SOL     OW24757   3.599   2.363   4.378  0.6751 -0.2220 -0.0527
 4433SOL    HW124758   3.622   2.360   4.471 -1.3400 -0.6308  0.4260
 4433SOL    HW224759   3.615   2.271   4.358  1.1298  0.2968 -2.0261
 4434SOL     OW24760   1.192   0.417   4.234  0.5564 -0.1708 -0.1718
 4434SOL    HW124761   1.106   0.430   4.274  1.2403  0.4204  1.0901
 4434SOL    HW224762   1.167   0.444   4.146 -0.0664 -1.9791 -0.5592
 4435SOL     OW24763   3.938   0.447  12.112 -0.3325  0.1257  0.0176
 4435SOL    HW124764   3.937   0.406  12.198 -0.3145  0.5380  0.2167
 4435SOL    HW224765   3.848   0.478  12.105 -1.1238 -2.1524  0.2770
 4436SOL     OW24766   1.181   0.648   6.575  0.3746 -0.3609 -0.1182
 4436SOL    HW124767   1.262   0.602   6.551  0.2401 -0.8026  0.2848
 4436SOL    HW224768   1.116   0.599   6.525  0.7084 -0.3668 -0.5510
 4437SOL     OW24769   2.201   2.542   4.111  0.5239  0.5268  0.6172
 4437SOL    HW124770   2.116   2.581   4.090  0.5881  0.3436  0.0213
 4437SOL    HW224771   2.239   2.539   4.023  0.3832 -0.2026  0.5835
 4438SOL     OW24772   0.678   2.875  15.433  0.2777 -0.5443  0.1594
 4438SOL    HW124773   0.625   2.882  15.513 -0.8300 -0.0234 -0.6098
 4438SOL    HW224774   0.727   2.957  15.435 -0.5745 -0.0728  1.5330
 4439SOL     OW24775   2.188   2.694   7.130  0.4447 -0.4826  0.4607
 4439SOL    HW124776   2.223   2.650   7.053 -3.7791 -2.2012 -0.5369
 4439SOL    HW224777   2.172   2.776   7.084 -1.0447  0.3899  2.5331
 4440SOL     OW24778   2.205   0.870   3.301  0.3242  0.1691 -0.2201
 4440SOL    HW124779   2.278   0.839   3.355  1.1035  0.1444 -1.2834
 4440SOL    HW224780   2.134   0.826   3.347  0.7983 -0.8984 -0.4912
 4441SOL     OW24781   3.452   4.008   4.352  0.1248 -0.2755 -0.0258
 4441SOL    HW124782   3.414   3.939   4.297  1.0054 -0.1525 -0.7818
 4441SOL    HW224783   3.545   4.001   4.332 -0.3346 -0.7255 -2.0636
 4442SOL     OW24784   2.289   4.158   8.752 -0.3946  0.2195  0.3574
 4442SOL    HW124785   2.257   4.232   8.803 -0.8031  0.6460 -0.5252
 4442SOL    HW224786   2.375   4.186   8.723 -0.5952  1.7749  1.2787
 4443SOL     OW24787   2.169   4.614   2.790  0.2503  0.2759  0.1386
 4443SOL    HW124788   2.243   4.561   2.762  0.1109  0.1140  0.0747
 4443SOL    HW224789   2.157   4.670   2.713 -1.0934  0.3073  0.3727
 4444SOL     OW24790   0.753   2.101  17.588 -0.2624  0.4541  0.1203
 4444SOL    HW124791   0.803   2.041  17.532 -0.6595 -0.5113  0.7845
 4444SOL    HW224792   0.778   2.189  17.561  1.4243  0.2294  0.9837
 4445SOL     OW24793   2.224   2.735   9.902 -0.8141 -0.4581  0.2153
 4445SOL    HW124794   2.262   2.768   9.984  1.5280  1.1309 -1.5378
 4445SOL    HW224795   2.302   2.683   9.883 -0.4581  0.4995 -0.9510
 4446SOL     OW24796   2.934   2.290   3.872  0.1380  0.6939 -0.3186
 4446SOL    HW124797   2.955   2.381   3.848 -1.3814  0.7148 -1.6024
 4446SOL    HW224798   2.890   2.307   3.956 -1.2925 -3.6707 -0.1942
 4447SOL     OW24799   0.235   4.130   6.276 -0.4493  0.6978 -0.4303
 4447SOL    HW124800   0.191   4.147   6.193 -0.2724 -1.4637 -0.9823
 4447SOL    HW224801   0.165   4.155   6.336 -0.2462 -1.7781  0.8734
 4448SOL     OW24802   2.137   3.249   2.685  0.2176  0.4251  0.4181
 4448SOL    HW124803   2.116   3.236   2.592  2.8577 -2.0728  0.1658
 4448SOL    HW224804   2.063   3.304   2.710  0.5816  0.9303  0.3674
 4449SOL     OW24805   0.854   3.507  14.109  0.1206 -0.0711  0.1954
 4449SOL    HW124806   0.930   3.487  14.163  0.2089  1.1926  0.5428
 4449SOL    HW224807   0.810   3.574  14.161 -0.5202  0.1425 -0.6118
 4450SOL     OW24808   3.885   2.446  15.998 -0.0075  0.8750 -0.0244
 4450SOL    HW124809   3.977   2.421  16.006  0.1984  1.2162 -1.3177
 4450SOL    HW224810   3.887   2.472  15.906  0.7879 -1.6192 -0.7091
 4451SOL     OW24811   2.707   3.297   6.712  0.4488 -0.3573  0.2848
 4451SOL    HW124812   2.721   3.350   6.634  0.6748 -1.2103 -0.2568
 4451SOL    HW224813   2.796   3.268   6.732  1.4203  0.8557 -2.2929
 4452SOL     OW24814   0.366   3.366   2.042  0.1483  0.3538  0.5823
 4452SOL    HW124815   0.282   3.366   2.087 -0.9503  1.4125 -1.4977
 4452SOL    HW224816   0.400   3.454   2.060  0.4243  1.1440 -3.8798
 4453SOL     OW24817   1.033   3.266   7.559 -0.2396  0.1006 -0.4427
 4453SOL    HW124818   1.021   3.315   7.640  0.8873  0.4078 -0.4555
 4453SOL    HW224819   0.980   3.188   7.575  0.1231  0.1584  1.1011
 4454SOL     OW24820   1.305   1.128   2.266 -0.2184  0.1450 -0.3150
 4454SOL    HW124821   1.337   1.124   2.176 -0.2319  0.0612 -0.3162
 4454SOL    HW224822   1.329   1.218   2.288  0.4127 -0.1254  0.1112
 4455SOL     OW24823   0.278   0.873   3.418  0.8679 -0.9435 -0.2293
 4455SOL    HW124824   0.246   0.845   3.332  1.9107 -1.8757 -0.3054
 4455SOL    HW224825   0.360   0.827   3.433  1.3624  0.5831  1.7201
 4456SOL     OW24826   0.896   0.664   7.671  0.2466 -0.1455 -0.0364
 4456SOL    HW124827   0.942   0.740   7.635 -0.6959  0.7785  0.7342
 4456SOL    HW224828   0.973   0.627   7.715 -0.0774  1.3773  1.7688
 4457SOL     OW24829   4.445   0.214   6.026 -0.3372  1.0448 -0.3754
 4457SOL    HW124830   4.385   0.178   5.961 -1.0175  2.7102 -0.6739
 4457SOL    HW224831   4.419   0.160   6.100  2.3861 -1.6125 -1.3527
 4458SOL     OW24832   4.433   1.696   3.262 -0.3182 -0.0888  0.8762
 4458SOL    HW124833   4.487   1.685   3.184  0.2178  1.4797  1.0146
 4458SOL    HW224834   4.454   1.788   3.280 -2.2186  0.8406 -1.4991
 4459SOL     OW24835   2.733   1.523   7.778 -0.0286 -0.1611  0.4174
 4459SOL    HW124836   2.776   1.600   7.814  2.3788 -2.0978  1.6695
 4459SOL    HW224837   2.669   1.511   7.849  0.3036 -0.7526  0.6132
 4460SOL     OW24838   2.247   3.423   2.933 -0.5075 -0.7829 -0.1170
 4460SOL    HW124839   2.188   3.370   2.880 -0.7563 -1.2733  0.6550
 4460SOL    HW224840   2.197   3.438   3.014 -0.7858 -0.8294 -0.2800
 4461SOL     OW24841   3.347   1.048   5.134 -0.0945  0.7415  0.9733
 4461SOL    HW124842   3.401   0.977   5.166 -1.9100 -1.7917 -1.6197
 4461SOL    HW224843   3.288   1.016   5.066  0.9205 -0.0168  0.4548
 4462SOL     OW24844   1.760   0.723  15.221  0.5195 -0.4970 -0.1281
 4462SOL    HW124845   1.740   0.664  15.294  2.2429  0.0505  0.8025
 4462SOL    HW224846   1.670   0.746  15.201 -0.3788 -1.6927  2.5201
 4463SOL     OW24847   1.081   0.204   5.822 -0.1698  0.5508 -0.3392
 4463SOL    HW124848   1.158   0.177   5.872 -0.3704 -4.2514 -2.5835
 4463SOL    HW224849   1.111   0.199   5.732 -0.1793  1.7482 -0.4083
 4464SOL     OW24850   1.168   2.034   2.796 -0.1516  0.5371  0.0950
 4464SOL    HW124851   1.250   1.985   2.808  1.3578  2.7571 -1.0555
 4464SOL    HW224852   1.129   2.000   2.716  0.2162  0.3703 -0.0137
 4465SOL     OW24853   2.234   2.268   1.867  0.4578  0.1971  0.4141
 4465SOL    HW124854   2.212   2.247   1.958  0.1746  0.2635  0.3604
 4465SOL    HW224855   2.290   2.192   1.846  1.9325  1.0665  1.1606
 4466SOL     OW24856   3.864   1.920   9.260 -0.2967 -0.0568 -0.1783
 4466SOL    HW124857   3.776   1.939   9.230 -0.1422  0.5299 -0.2701
 4466SOL    HW224858   3.860   1.825   9.267  2.0936 -0.0682  1.1941
 4467SOL     OW24859   0.218   1.713   4.050 -0.0630 -0.1101 -0.2879
 4467SOL    HW124860   0.129   1.697   4.079 -0.7188  0.8897 -1.7445
 4467SOL    HW224861   0.268   1.635   4.074 -3.2807 -2.1232 -0.1328
 4468SOL     OW24862   1.580   3.407   5.824 -0.1415  0.5942  0.3092
 4468SOL    HW124863   1.580   3.427   5.730 -0.8188  0.8951  0.3704
 4468SOL    HW224864   1.597   3.494   5.860 -0.5489  2.0179 -2.8830
 4469SOL     OW24865   3.308   1.238  10.890  0.0328 -0.2518  0.2742
 4469SOL    HW124866   3.403   1.223  10.891  0.1813  0.5752 -0.9710
 4469SOL    HW224867   3.278   1.161  10.937 -0.9431  0.2303  0.4376
 4470SOL     OW24868   1.935   0.299   0.218  0.3364  0.5021 -0.2601
 4470SOL    HW124869   1.865   0.238   0.240  0.7712 -0.3174 -1.2016
 4470SOL    HW224870   1.995   0.300   0.294  0.2568  2.5339 -0.2100
 4471SOL     OW24871   0.250   0.942  10.917  0.2136 -0.3181  0.0048
 4471SOL    HW124872   0.176   1.003  10.912 -0.1823 -0.8374 -0.5460
 4471SOL    HW224873   0.212   0.859  10.887  2.0817 -0.9440 -0.6147
 4472SOL     OW24874   4.296   2.618   5.068  0.1893 -0.0528  0.4131
 4472SOL    HW124875   4.383   2.654   5.087  1.0864 -1.3863 -1.1976
 4472SOL    HW224876   4.290   2.578   5.155  0.4930 -0.3345  0.3042
 4473SOL     OW24877   0.924   2.098  14.532 -0.2693  0.9071  0.7328
 4473SOL    HW124878   0.978   2.150  14.472  1.7876 -1.5227  0.4782
 4473SOL    HW224879   0.941   2.013  14.491 -0.5600  0.5301  1.3911
 4474SOL     OW24880   4.481   2.495   8.744  0.3192  0.3373 -0.2364
 4474SOL    HW124881   4.507   2.527   8.830 -0.5325  0.0027  0.1508
 4474SOL    HW224882   4.509   2.404   8.741 -1.2931 -0.1118 -1.8550
 4475SOL     OW24883   1.644   1.765   6.737  0.2260 -0.2320 -0.5995
 4475SOL    HW124884   1.636   1.792   6.828 -1.7316 -0.9307 -0.5716
 4475SOL    HW224885   1.732   1.801   6.729  0.0429  0.1717 -0.7943
 4476SOL     OW24886   4.301   1.735   8.381 -0.2513  0.3964 -0.3269
 4476SOL    HW124887   4.238   1.737   8.309 -2.4154 -0.2116  1.5769
 4476SOL    HW224888   4.253   1.675   8.438  1.2196  0.7503  1.2948
 4477SOL     OW24889   4.052   1.176   8.434 -0.4041  0.5847 -0.3382
 4477SOL    HW124890   4.070   1.130   8.352  0.2656 -0.7274  0.5509
 4477SOL    HW224891   4.127   1.152   8.488 -0.9438  1.9710  1.0293
 4478SOL     OW24892   0.961   2.455   0.089  0.3548 -0.4152  0.4507
 4478SOL    HW124893   0.997   2.367   0.078 -0.6186 -0.9747  1.6864
 4478SOL    HW224894   0.972   2.494   0.003 -0.9688 -1.2031 -0.0726
 4479SOL     OW24895   2.719   2.351   2.986 -0.5427  0.2999 -0.1745
 4479SOL    HW124896   2.791   2.288   2.993 -1.5025 -1.0283 -2.3360
 4479SOL    HW224897   2.666   2.298   2.926 -1.2029 -0.2325  0.8649
 4480SOL     OW24898   1.391   1.382   0.784 -0.0432  0.0252 -0.4470
 4480SOL    HW124899   1.451   1.310   0.802  0.8702  0.8116 -0.3910
 4480SOL    HW224900   1.316   1.336   0.745 -0.3608 -0.3737  0.6230
 4481SOL     OW24901   4.232   3.905   3.872  0.8886 -0.2670  0.4239
 4481SOL    HW124902   4.307   3.929   3.927  1.8099 -0.0566 -0.9336
 4481SOL    HW224903   4.187   3.989   3.861  1.2700  0.0301  1.0934
 4482SOL     OW24904   1.080   4.650   5.678 -1.1785  0.1872  0.2493
 4482SOL    HW124905   1.042   4.614   5.758 -2.1903  2.4311  0.7694
 4482SOL    HW224906   1.163   4.691   5.699 -1.3516  0.5386  0.2558
 4483SOL     OW24907   2.344   4.194   2.155 -0.2319 -1.1966  0.2548
 4483SOL    HW124908   2.286   4.150   2.092 -0.5797  0.7975 -0.8125
 4483SOL    HW224909   2.421   4.139   2.145  1.3064  0.9566  0.3830
 4484SOL     OW24910   4.079   4.160   3.895 -0.1935  0.6967 -0.2184
 4484SOL    HW124911   4.151   4.194   3.949  0.3008  1.2349 -1.2130
 4484SOL    HW224912   4.001   4.183   3.946 -0.6196  0.7437 -0.8894
 4485SOL     OW24913   2.850   2.270   8.352 -0.2022 -0.3396  0.3102
 4485SOL    HW124914   2.806   2.227   8.279  3.2924 -0.6830 -1.6010
 4485SOL    HW224915   2.778   2.328   8.378 -0.0670 -0.4944  1.0268
 4486SOL     OW24916   2.800   0.787   8.961  0.1708  0.1294  0.3294
 4486SOL    HW124917   2.805   0.704   8.914  0.7105  0.8568 -0.9083
 4486SOL    HW224918   2.734   0.775   9.029  0.4826  0.9907  0.7881
 4487SOL     OW24919   4.032   1.377  14.887 -0.0860 -1.1553 -0.3925
 4487SOL    HW124920   4.096   1.316  14.852 -0.8470 -1.7040 -0.8085
 4487SOL    HW224921   4.075   1.461  14.872  2.5996 -2.7377 -1.3396
 4488SOL     OW24922   1.485   4.108  17.283 -0.0961 -0.1395  0.6977
 4488SOL    HW124923   1.569   4.097  17.327  0.8667 -0.5307 -1.2101
 4488SOL    HW224924   1.499   4.184  17.226 -1.8232  0.7865  1.5006
 4489SOL     OW24925   2.905   0.285  16.837  0.0068 -0.7078  0.2785
 4489SOL    HW124926   2.856   0.366  16.855 -1.4024 -1.4868  0.0001
 4489SOL    HW224927   2.877   0.268  16.747  0.4508  0.6022 -0.1087
 4490SOL     OW24928   4.053   3.774   4.458 -0.1068 -0.4200 -0.2075
 4490SOL    HW124929   4.083   3.777   4.549  0.7852 -0.9028 -0.4846
 4490SOL    HW224930   4.038   3.680   4.448 -1.0524 -0.3175  0.2189
 4491SOL     OW24931   0.643   1.908  13.970  0.0243 -0.0362  0.1969
 4491SOL    HW124932   0.660   1.902  13.876  0.9600 -1.7519  0.4685
 4491SOL    HW224933   0.579   1.979  13.965 -0.3871 -0.3458  1.0929
 4492SOL     OW24934   3.208   1.470   8.387  0.2383  0.2172  0.1352
 4492SOL    HW124935   3.146   1.478   8.315  1.4610  3.3370 -0.5510
 4492SOL    HW224936   3.262   1.545   8.364  0.2434  0.7350  1.8581
 4493SOL     OW24937   3.792   1.025  10.363  0.2159 -0.0261 -0.2421
 4493SOL    HW124938   3.724   1.027  10.431  2.3072  2.0897  1.7388
 4493SOL    HW224939   3.765   1.108  10.323 -0.7986 -0.0053  0.4642
 4494SOL     OW24940   2.657   0.506   7.237  0.3856  0.6840 -0.2669
 4494SOL    HW124941   2.688   0.596   7.233 -1.2469  1.1610 -1.8791
 4494SOL    HW224942   2.587   0.517   7.301  0.1534  1.6854 -0.6986
 4495SOL     OW24943   4.638   0.430   2.463  0.2020 -0.5387 -0.4158
 4495SOL    HW124944   4.690   0.356   2.495  2.2517  1.4031  0.7249
 4495SOL    HW224945   4.703   0.460   2.400  0.0744 -0.8630 -0.7000
 4496SOL     OW24946   2.284   1.455   6.929 -0.0106 -0.5151 -0.2056
 4496SOL    HW124947   2.277   1.473   7.023 -0.8705  1.1574 -0.5877
 4496SOL    HW224948   2.208   1.499   6.890 -0.2809  0.8421  1.8242
 4497SOL     OW24949   2.719   0.801  13.424  0.4727  0.0226  0.5061
 4497SOL    HW124950   2.755   0.713  13.438 -0.5965 -0.1359  2.3463
 4497SOL    HW224951   2.775   0.838  13.356 -1.6158  1.6653 -0.3247
 4498SOL     OW24952   1.611   2.098   4.916  0.0743  0.2746 -0.7358
 4498SOL    HW124953   1.644   2.174   4.964 -2.8354  1.0361  0.0173
 4498SOL    HW224954   1.628   2.123   4.825  0.4698 -2.3372 -1.3735
 4499SOL     OW24955   1.612   4.354  16.260 -0.1957  0.9877  0.2279
 4499SOL    HW124956   1.706   4.338  16.253 -0.2987 -0.2041  1.4912
 4499SOL    HW224957   1.618   4.441  16.301 -1.4291  0.4392  1.5973
 4500SOL     OW24958   2.225   3.946   8.556 -0.2960  0.7062  0.2820
 4500SOL    HW124959   2.253   4.011   8.620  0.7481  3.1397 -2.6241
 4500SOL    HW224960   2.130   3.944   8.570 -0.2039  1.6468  1.0536
 4501SOL     OW24961   2.077   0.971  13.280  0.1792 -0.5298 -0.5526
 4501SOL    HW124962   2.016   0.958  13.352 -0.9363 -0.5882 -1.5055
 4501SOL    HW224963   2.142   0.906  13.305  1.7500  1.0675 -0.5036
 4502SOL     OW24964   4.579   2.745   7.699  0.9522  0.4788 -0.2180
 4502SOL    HW124965   4.593   2.824   7.647  0.5995 -0.3640 -1.5949
 4502SOL    HW224966   4.643   2.682   7.667  1.0105  1.3596 -1.8086
 4503SOL     OW24967   1.893   4.548   2.300  0.2734  0.4050 -0.3088
 4503SOL    HW124968   1.846   4.468   2.275 -1.1581  1.2420 -0.2748
 4503SOL    HW224969   1.818   4.593   2.338 -0.3615 -1.2745  0.4640
 4504SOL     OW24970   1.729   4.281   7.359  0.3496 -0.0608  0.2397
 4504SOL    HW124971   1.740   4.238   7.275 -1.2548  1.0552 -0.5500
 4504SOL    HW224972   1.679   4.360   7.339  0.4092 -0.4319 -1.3360
 4505SOL     OW24973   2.987   3.637  12.828 -1.1829  0.2533 -0.6721
 4505SOL    HW124974   3.015   3.675  12.745  1.9869  1.1079  0.7861
 4505SOL    HW224975   2.892   3.652  12.829 -1.2991 -0.4347 -0.9386
 4506SOL     OW24976   2.718   3.324  10.867  0.1035 -0.3387  0.1726
 4506SOL    HW124977   2.656   3.396  10.878  2.3012  1.6555 -0.2945
 4506SOL    HW224978   2.768   3.335  10.948 -0.1529  1.3675  0.1038
 4507SOL     OW24979   0.976   4.355   3.376  0.0820 -0.0005 -0.0092
 4507SOL    HW124980   0.960   4.321   3.464 -1.4995 -0.3981 -0.4423
 4507SOL    HW224981   0.897   4.315   3.338  0.8449 -0.8633 -0.7092
 4508SOL     OW24982   2.132   3.206  13.464 -0.1858 -0.4200  0.5287
 4508SOL    HW124983   2.158   3.298  13.456  2.2158 -1.2313 -1.2852
 4508SOL    HW224984   2.051   3.210  13.514 -0.2715 -1.6109  0.4693
 4509SOL     OW24985   2.155   2.555   1.948  0.0354 -0.2766 -0.1876
 4509SOL    HW124986   2.195   2.471   1.928  0.0809 -0.5896  1.1783
 4509SOL    HW224987   2.101   2.530   2.023  1.3919 -2.9205 -0.0819
 4510SOL     OW24988   3.226   4.011  13.907  0.0029 -0.4584 -0.3530
 4510SOL    HW124989   3.155   4.063  13.871  0.4959  2.0656  2.2545
 4510SOL    HW224990   3.181   3.973  13.982  1.2924 -0.3126  0.4923
 4511SOL     OW24991   0.649   0.217  11.702  0.5245  0.0207 -0.3203
 4511SOL    HW124992   0.701   0.231  11.623 -1.6305  0.7125 -1.6379
 4511SOL    HW224993   0.584   0.287  11.700  1.3914  0.8268  0.5467
 4512SOL     OW24994   2.165   3.415  16.780 -0.0343 -0.6626  0.1191
 4512SOL    HW124995   2.260   3.415  16.769 -0.2603  1.0933 -1.7930
 4512SOL    HW224996   2.144   3.477  16.850  1.5877 -1.0065  0.8952
 4513SOL     OW24997   4.465   2.340   7.501  0.8439 -0.6421 -0.5449
 4513SOL    HW124998   4.553   2.303   7.493  1.6583  1.8801 -3.2393
 4513SOL    HW224999   4.444   2.327   7.594  0.8068  3.3932 -0.0133
 4514SOL     OW25000   2.048   4.514   5.010 -0.3784 -0.1613 -0.0223
 4514SOL    HW125001   1.966   4.540   5.053 -0.3729  3.7584 -2.4086
 4514SOL    HW225002   2.052   4.429   5.055 -0.1698  1.7592  3.5603
 4515SOL     OW25003   0.168   2.102   1.180  0.3591  0.5093  0.0099
 4515SOL    HW125004   0.245   2.084   1.234  0.0985 -0.1053  0.1834
 4515SOL    HW225005   0.181   2.191   1.148  3.1628 -0.1601 -0.7622
 4516SOL     OW25006   0.550   0.693   2.556 -0.4934 -0.0041 -0.4431
 4516SOL    HW125007   0.643   0.701   2.532 -0.3795 -0.0899 -0.0214
 4516SOL    HW225008   0.538   0.599   2.573 -0.4021 -0.3612 -2.3458
 4517SOL     OW25009   4.474   4.179   4.951 -0.0903 -0.1873 -0.5002
 4517SOL    HW125010   4.473   4.085   4.966  0.4045 -0.4429 -2.1045
 4517SOL    HW225011   4.386   4.205   4.978  0.8715  2.5108  0.0601
 4518SOL     OW25012   1.629   3.381   1.873 -0.1521  0.1556 -0.4123
 4518SOL    HW125013   1.563   3.345   1.931  1.3791 -2.4473 -0.3038
 4518SOL    HW225014   1.614   3.311   1.810 -1.4256  0.5919 -0.5869
 4519SOL     OW25015   0.032   2.408   5.280  1.0559  0.1577 -0.1133
 4519SOL    HW125016   0.061   2.322   5.311 -0.2082 -0.9191 -1.9331
 4519SOL    HW225017   0.090   2.459   5.337  1.5705 -1.4070  0.7856
 4520SOL     OW25018   4.628   1.306  16.896  0.0475  0.9214  0.0784
 4520SOL    HW125019   4.619   1.230  16.838 -0.0087 -1.3996  3.1283
 4520SOL    HW225020   4.704   1.344  16.852 -1.3861 -0.8051 -3.9247
 4521SOL     OW25021   4.656   4.614   7.996  0.4872 -0.1234 -0.1190
 4521SOL    HW125022   4.697   4.563   7.925 -1.8191 -1.2846 -0.6167
 4521SOL    HW225023   4.566   4.615   7.964  1.0806 -0.1599 -1.7825
 4522SOL     OW25024   1.334   4.117   6.692 -0.2372 -0.9020 -0.7290
 4522SOL    HW125025   1.304   4.109   6.783  0.2580 -0.3715 -0.5207
 4522SOL    HW225026   1.365   4.206   6.706 -0.3768 -0.9796  0.1056
 4523SOL     OW25027   1.695   0.510   5.681 -0.3876  0.0259  0.1042
 4523SOL    HW125028   1.697   0.494   5.775  2.4089  1.8429  0.3536
 4523SOL    HW225029   1.628   0.578   5.676  0.6810  1.2534  2.6502
 4524SOL     OW25030   1.167   0.586  13.524  0.2890 -0.1032  0.0062
 4524SOL    HW125031   1.178   0.673  13.563  0.2958  0.8686 -2.1762
 4524SOL    HW225032   1.244   0.540  13.559  0.3379  0.2524  0.3722
 4525SOL     OW25033   0.042   0.151   0.769  0.0766  0.2740 -0.1693
 4525SOL    HW125034   0.008   0.061   0.770  1.4413 -0.2270  2.2731
 4525SOL    HW225035   0.033   0.172   0.862 -0.0228 -1.1182  0.1395
 4526SOL     OW25036   3.535   3.546   7.417 -0.4928  0.2936 -0.3378
 4526SOL    HW125037   3.441   3.556   7.403 -0.2363  0.6211 -1.7776
 4526SOL    HW225038   3.546   3.551   7.512 -0.1863  0.2373 -0.3701
 4527SOL     OW25039   1.029   3.329   5.222 -0.4554  0.4945 -0.0873
 4527SOL    HW125040   1.066   3.295   5.140  2.9827  2.6536  0.5430
 4527SOL    HW225041   0.946   3.365   5.191 -1.9604 -2.2214  0.8421
 4528SOL     OW25042   4.488   1.497   6.634 -0.0137  0.3145  0.1223
 4528SOL    HW125043   4.476   1.402   6.631 -0.7127  0.3747  0.9992
 4528SOL    HW225044   4.562   1.515   6.576  0.3371  0.7979  0.7207
 4529SOL     OW25045   3.236   2.866   9.408 -0.4924 -0.2494 -0.1691
 4529SOL    HW125046   3.222   2.946   9.459  0.9839  0.1921 -0.4715
 4529SOL    HW225047   3.161   2.873   9.348 -0.9630 -2.6770  0.1244
 4530SOL     OW25048   4.679   4.133   8.935 -0.2873 -0.6517 -0.3841
 4530SOL    HW125049   4.659   4.041   8.917  1.9519 -1.4336  1.2770
 4530SOL    HW225050   0.020   4.155   8.865 -2.4496  0.5578 -1.9175
 4531SOL     OW25051   3.897   2.108   2.610  0.2356  0.5464 -0.5105
 4531SOL    HW125052   3.926   2.128   2.699  1.7336  0.6786 -1.0282
 4531SOL    HW225053   3.893   2.012   2.613 -0.2589  0.6206  0.8708
 4532SOL     OW25054   1.824   1.380  14.816  0.1414  0.0749  0.0161
 4532SOL    HW125055   1.829   1.310  14.882  1.2586  0.9823  0.8801
 4532SOL    HW225056   1.852   1.327  14.741  2.1604  1.0055  0.1198
 4533SOL     OW25057   0.342   2.788  13.245  0.4931 -0.3432  0.5677
 4533SOL    HW125058   0.300   2.802  13.330  1.0593 -1.1146  0.9807
 4533SOL    HW225059   0.421   2.841  13.258  0.5864 -0.7304  1.5924
 4534SOL     OW25060   1.035   0.566  10.751 -0.4035 -0.2850 -0.4029
 4534SOL    HW125061   1.025   0.471  10.755  0.7872 -0.4528 -1.4656
 4534SOL    HW225062   1.045   0.601  10.839  0.2964  0.7177 -0.8814
 4535SOL     OW25063   4.195   1.352   7.812  0.1238 -0.6142  0.7089
 4535SOL    HW125064   4.150   1.279   7.769 -2.0051  1.2667 -0.2318
 4535SOL    HW225065   4.204   1.313   7.899 -1.0793  1.5811  1.7976
 4536SOL     OW25066   0.629   3.258   7.544  0.0163  0.1382  0.5576
 4536SOL    HW125067   0.577   3.338   7.547  0.6246  0.4920  1.6187
 4536SOL    HW225068   0.664   3.261   7.455 -0.0760  0.3744  0.5295
 4537SOL     OW25069   3.322   3.242   1.401 -0.3805 -0.0831 -0.3328
 4537SOL    HW125070   3.302   3.335   1.393  0.5758  0.0901 -0.7040
 4537SOL    HW225071   3.306   3.207   1.313  3.0738  0.1028 -1.0178
 4538SOL     OW25072   2.320   1.652  16.233 -0.0638 -0.1247  0.0982
 4538SOL    HW125073   2.376   1.622  16.161  0.4371 -2.2752  1.3900
 4538SOL    HW225074   2.279   1.569  16.258 -1.2280  0.1189 -0.9905
 4539SOL     OW25075   4.449   2.806  10.996  0.7637 -0.0949 -0.2182
 4539SOL    HW125076   4.355   2.792  10.992  0.8930 -0.6940 -1.1487
 4539SOL    HW225077   4.460   2.899  10.976 -0.0848  0.2115  0.7046
 4540SOL     OW25078   2.331   3.390   9.554 -0.1550  0.0030  0.3639
 4540SOL    HW125079   2.275   3.447   9.607 -0.2634  0.4978 -0.2836
 4540SOL    HW225080   2.273   3.385   9.478  0.8553 -0.0203 -0.3890
 4541SOL     OW25081   4.064   0.374   6.424 -0.0200 -0.0675 -0.4374
 4541SOL    HW125082   4.082   0.350   6.514  2.0770  0.9928 -0.5718
 4541SOL    HW225083   4.139   0.428   6.401  0.1972  0.4925  1.6411
 4542SOL     OW25084   2.593   2.576   8.962  0.6151  0.4788 -0.0629
 4542SOL    HW125085   2.517   2.529   8.928  0.6758  1.3633 -1.3990
 4542SOL    HW225086   2.568   2.590   9.053  0.1944 -0.0769 -0.0890
 4543SOL     OW25087   1.049   4.258   7.737  0.0621 -0.3425 -0.5975
 4543SOL    HW125088   1.046   4.165   7.714 -0.4792 -0.6507  0.7363
 4543SOL    HW225089   0.970   4.269   7.790  0.1664  2.4159 -0.9973
 4544SOL     OW25090   3.852   1.330   7.416  0.3841 -0.4033  0.0823
 4544SOL    HW125091   3.820   1.250   7.457  0.2128 -1.3995 -1.9611
 4544SOL    HW225092   3.946   1.317   7.431 -0.0127  0.8521  3.6335
 4545SOL     OW25093   2.527   3.081   2.640  0.1371 -0.4126  0.0190
 4545SOL    HW125094   2.538   2.986   2.637 -0.9857 -0.4747 -2.4814
 4545SOL    HW225095   2.444   3.090   2.686 -0.8141 -0.1638 -1.7609
 4546SOL     OW25096   3.248   3.852   5.179 -0.2412  0.5551  0.0783
 4546SOL    HW125097   3.240   3.921   5.114  1.4077 -0.2576 -0.9879
 4546SOL    HW225098   3.324   3.891   5.222 -0.0129 -0.5977  0.7197
 4547SOL     OW25099   2.172   0.244   2.820 -0.2405  0.1868  0.1509
 4547SOL    HW125100   2.121   0.175   2.862 -1.2171  0.2132 -0.9957
 4547SOL    HW225101   2.250   0.201   2.785 -0.3600  1.9590 -2.3077
 4548SOL     OW25102   4.361   1.452  14.350  0.2717 -0.7554  0.0318
 4548SOL    HW125103   4.454   1.467  14.332 -0.2937  2.2761 -0.5174
 4548SOL    HW225104   4.348   1.363  14.319 -1.7547 -0.3907 -0.1692
 4549SOL     OW25105   4.229   0.240   2.545  0.1536 -0.1390 -0.1554
 4549SOL    HW125106   4.145   0.278   2.519 -0.6375 -2.4366 -0.9499
 4549SOL    HW225107   4.246   0.180   2.472 -0.7504 -0.2607 -0.2627
 4550SOL     OW25108   1.798   0.300  13.188  0.0682 -0.1976 -0.0115
 4550SOL    HW125109   1.880   0.338  13.157 -0.5786 -2.0537 -3.9959
 4550SOL    HW225110   1.799   0.211  13.153 -1.4768  1.1192 -3.4929
 4551SOL     OW25111   1.865   0.327  11.207  0.5147 -0.2237  0.4908
 4551SOL    HW125112   1.909   0.338  11.122 -1.2876  0.3852 -0.3526
 4551SOL    HW225113   1.808   0.253  11.188  0.3540 -0.1297  0.6109
 4552SOL     OW25114   2.820   2.511   7.850  0.1265 -0.2461 -0.5671
 4552SOL    HW125115   2.749   2.474   7.903  0.4671  0.0825  0.1145
 4552SOL    HW225116   2.891   2.516   7.914  0.2816  0.4581 -0.7966
 4553SOL     OW25117   3.647   0.833   8.966  0.6810  0.7462  0.3798
 4553SOL    HW125118   3.693   0.907   8.927 -0.7229  0.6315 -1.5018
 4553SOL    HW225119   3.697   0.760   8.930 -0.3154  0.8516 -1.2255
 4554SOL     OW25120   3.201   1.497  13.704  0.5807 -0.1409  0.9640
 4554SOL    HW125121   3.137   1.480  13.635 -0.5096  2.7193  1.2874
 4554SOL    HW225122   3.249   1.573  13.670  0.8249 -1.1383 -0.9638
 4555SOL     OW25123   2.113   1.263   5.424 -0.2177 -0.3079 -0.4170
 4555SOL    HW125124   2.108   1.168   5.434 -0.9522 -0.2434 -0.2018
 4555SOL    HW225125   2.063   1.290   5.501 -0.0941  1.2722 -0.8842
 4556SOL     OW25126   2.700   2.678  12.118 -0.1716  0.0651  0.2948
 4556SOL    HW125127   2.708   2.609  12.184  0.1617 -0.3064 -0.1237
 4556SOL    HW225128   2.608   2.704  12.126 -0.6123 -1.7419  1.0184
 4557SOL     OW25129   1.307   2.346   5.786  0.8335 -0.1999 -0.1645
 4557SOL    HW125130   1.391   2.302   5.798  0.8542  0.8424  3.4510
 4557SOL    HW225131   1.247   2.272   5.802 -1.4633  1.5062 -0.8541
 4558SOL     OW25132   0.941   0.561   8.177  0.1532 -0.0098 -0.0344
 4558SOL    HW125133   0.853   0.577   8.142  0.6689  0.3573 -1.1694
 4558SOL    HW225134   0.978   0.516   8.101  2.2063 -0.1432  1.0521
 4559SOL     OW25135   2.856   0.434   5.754 -0.3050  0.0233 -0.1554
 4559SOL    HW125136   2.795   0.366   5.784  0.5724 -1.2504 -1.2788
 4559SOL    HW225137   2.868   0.429   5.660 -0.7815  1.6755 -0.2980
 4560SOL     OW25138   2.310   4.145  16.811  0.1849 -0.1914 -0.5290
 4560SOL    HW125139   2.272   4.068  16.768 -0.2026 -0.1506 -0.2576
 4560SOL    HW225140   2.257   4.147  16.891  0.5475  2.1957 -0.3330
 4561SOL     OW25141   2.053   0.750   1.502  0.6301  0.1475 -0.5698
 4561SOL    HW125142   2.024   0.819   1.562 -1.0398 -0.7279 -0.3403
 4561SOL    HW225143   2.035   0.669   1.549  0.3135  1.7798  2.1155
 4562SOL     OW25144   1.647   2.421   2.526  0.0831  0.6246  0.0515
 4562SOL    HW125145   1.653   2.453   2.615  0.6928 -0.7164  0.4933
 4562SOL    HW225146   1.737   2.404   2.498 -0.3137  0.9407 -1.4144
 4563SOL     OW25147   4.088   4.314   4.751  0.6770  0.2397 -0.0296
 4563SOL    HW125148   4.160   4.323   4.688  1.5099  0.6881  0.9850
 4563SOL    HW225149   4.031   4.387   4.729 -0.9337 -0.8961  0.3643
 4564SOL     OW25150   2.883   0.052   5.505  0.3344 -0.0154  0.1194
 4564SOL    HW125151   2.877   4.706   5.437 -1.0853 -2.1927  2.3846
 4564SOL    HW225152   2.936   0.121   5.466 -1.7317  0.3772 -2.0654
 4565SOL     OW25153   1.752   2.373   7.963  0.2065 -0.5870 -0.4322
 4565SOL    HW125154   1.672   2.426   7.955 -0.8587 -2.0668  0.3991
 4565SOL    HW225155   1.813   2.446   7.977 -0.0309 -0.1071 -1.8634
 4566SOL     OW25156   3.110   4.036   8.932  0.1273 -0.3076  0.9600
 4566SOL    HW125157   3.110   4.111   8.873 -0.7032  0.0396  1.4076
 4566SOL    HW225158   3.197   4.033   8.972  0.0639  0.5420  1.1405
 4567SOL     OW25159   3.493   2.514  15.540  0.2862 -0.8242  0.1679
 4567SOL    HW125160   3.552   2.439  15.544 -1.0611 -1.8765  0.1525
 4567SOL    HW225161   3.414   2.473  15.574  0.2131 -0.5572  0.3163
 4568SOL     OW25162   3.830   3.034   4.289  0.4037  0.1599  0.0933
 4568SOL    HW125163   3.848   2.947   4.253  0.8016  0.7760 -1.2357
 4568SOL    HW225164   3.844   3.022   4.383 -0.4991  1.6286  0.4004
 4569SOL     OW25165   1.144   2.061  13.953  0.0575  0.7834 -0.4469
 4569SOL    HW125166   1.136   2.151  13.924  0.4115  0.5888 -1.1541
 4569SOL    HW225167   1.065   2.041  14.003 -0.0813 -0.4138 -1.1420
 4570SOL     OW25168   3.210   1.303   1.451  0.3520  0.5178 -0.0420
 4570SOL    HW125169   3.217   1.385   1.404  1.7572  1.6137  2.0423
 4570SOL    HW225170   3.119   1.300   1.480  0.5896 -2.0390  0.5094
 4571SOL     OW25171   1.456   4.490   5.736 -0.1622  0.0157 -0.2334
 4571SOL    HW125172   1.550   4.486   5.752 -0.5171 -1.9239  1.3156
 4571SOL    HW225173   1.422   4.416   5.786  1.5328 -2.1456 -2.2841
 4572SOL     OW25174   0.335   0.049  10.889  0.1266 -0.4459 -0.1825
 4572SOL    HW125175   0.391   0.029  10.813 -1.1531 -0.4094 -1.1272
 4572SOL    HW225176   0.248   0.073  10.859 -0.7708 -0.0639  2.7938
 4573SOL     OW25177   4.681   0.512  15.065 -0.1415 -0.7730  0.1000
 4573SOL    HW125178   4.647   0.501  14.976  1.9992 -0.4482 -0.7549
 4573SOL    HW225179   4.593   0.529  15.099  0.8108  2.3932  0.9200
 4574SOL     OW25180   3.999   0.698  11.645 -0.1309 -0.0842  0.0069
 4574SOL    HW125181   3.919   0.742  11.615  0.6399  0.1040 -1.7464
 4574SOL    HW225182   4.006   0.630  11.579 -1.0380  0.5170 -0.7052
 4575SOL     OW25183   0.720   3.280   7.288 -0.0319 -0.2741  0.6760
 4575SOL    HW125184   0.705   3.193   7.250 -0.1011  1.1583 -2.6234
 4575SOL    HW225185   0.815   3.293   7.283 -0.1398 -0.5735 -2.6647
 4576SOL     OW25186   2.930   2.495  17.651  0.3764  0.1322 -0.4732
 4576SOL    HW125187   2.899   2.480   0.055  0.4174  2.0263 -0.1262
 4576SOL    HW225188   2.915   2.410  17.612 -1.6514  0.4129 -0.2933
 4577SOL     OW25189   4.397   3.865   7.675 -0.6334  0.3761  0.1028
 4577SOL    HW125190   4.325   3.831   7.728  0.1824 -3.6480 -1.3483
 4577SOL    HW225191   4.416   3.790   7.618  2.0014  0.5594  0.7274
 4578SOL     OW25192   3.136   4.081   6.932 -0.2735 -0.0823  0.4889
 4578SOL    HW125193   3.129   3.990   6.901 -0.4790 -1.1892  3.8201
 4578SOL    HW225194   3.177   4.077   7.018 -0.3413  2.7860  0.6615
 4579SOL     OW25195   1.920   3.769   5.900 -0.1421 -0.4853 -0.1105
 4579SOL    HW125196   1.926   3.804   5.988 -1.5373 -0.1199 -0.1558
 4579SOL    HW225197   1.906   3.845   5.844 -0.3102 -0.7521 -0.4377
 4580SOL     OW25198   2.145   2.969   9.130 -0.1289 -0.2194  0.9232
 4580SOL    HW125199   2.158   3.063   9.134  1.1829 -0.3160 -1.2348
 4580SOL    HW225200   2.102   2.969   9.044  0.9240  0.2542  0.4001
 4581SOL     OW25201   1.398   3.976  14.344 -0.1513  0.0129 -0.2169
 4581SOL    HW125202   1.340   3.964  14.268 -1.2742 -3.0842  1.1394
 4581SOL    HW225203   1.363   4.050  14.394 -1.1508  0.4740 -1.5799
 4582SOL     OW25204   2.943   0.412   9.415  0.1727 -0.4606 -0.0800
 4582SOL    HW125205   2.929   0.363   9.334 -0.8353  0.2411 -0.3294
 4582SOL    HW225206   3.000   0.348   9.458  0.5193  0.1180  0.3044
 4583SOL     OW25207   0.063   2.852   6.501 -0.0250 -0.0580  1.0699
 4583SOL    HW125208   0.018   2.914   6.442 -1.8380 -1.9353  0.5000
 4583SOL    HW225209   0.110   2.795   6.440 -1.9959 -0.7316  0.1903
 4584SOL     OW25210   2.967   3.191   8.811 -0.0533 -0.1656  0.1357
 4584SOL    HW125211   2.996   3.282   8.812  2.1405 -0.8557 -0.7232
 4584SOL    HW225212   2.872   3.203   8.811 -0.3719 -2.7708  2.2345
 4585SOL     OW25213   3.924   4.356   6.040 -0.4005  0.1082 -0.3095
 4585SOL    HW125214   3.886   4.365   5.953 -0.1191 -1.0174 -0.5508
 4585SOL    HW225215   3.952   4.265   6.047  0.6039  0.3568 -0.9908
 4586SOL     OW25216   2.254   2.596   5.131  0.4346  0.7003 -0.5202
 4586SOL    HW125217   2.281   2.683   5.160  0.7324 -0.2573  2.0535
 4586SOL    HW225218   2.169   2.578   5.172  0.8333 -0.5694 -0.2323
 4587SOL     OW25219   0.894   4.330  14.776  0.0773  0.1751 -0.2980
 4587SOL    HW125220   0.875   4.318  14.869  1.4351  1.0754  0.1021
 4587SOL    HW225221   0.981   4.370  14.780  2.4339 -4.9555  0.9428
 4588SOL     OW25222   2.008   1.006  12.245 -0.6814 -0.2743 -0.2681
 4588SOL    HW125223   2.049   1.059  12.314  1.0107 -1.6666 -0.2117
 4588SOL    HW225224   1.984   0.926  12.292  0.3495  0.0193  0.7501
 4589SOL     OW25225   1.067   2.313  13.838  0.1528 -0.0841 -0.6077
 4589SOL    HW125226   1.035   2.382  13.896 -0.6285 -0.6061 -0.4110
 4589SOL    HW225227   1.092   2.369  13.765  0.7416  1.8580  1.0967
 4590SOL     OW25228   1.798   3.086   2.325 -0.2055  0.1640  0.0753
 4590SOL    HW125229   1.876   3.120   2.282 -0.1346 -1.1472 -0.8338
 4590SOL    HW225230   1.774   3.023   2.257 -1.4203 -0.5526  1.1719
 4591SOL     OW25231   2.139   2.824   0.783 -0.5718  0.2446  0.2855
 4591SOL    HW125232   2.135   2.887   0.711 -2.0010  0.0336  0.1780
 4591SOL    HW225233   2.145   2.877   0.862  0.8175 -0.7184  0.8201
 4592SOL     OW25234   3.261   1.761  10.466  0.0174  0.3646  0.6300
 4592SOL    HW125235   3.215   1.706  10.530  1.2358 -0.4032  0.8469
 4592SOL    HW225236   3.191   1.806  10.418  1.8868  4.3832  1.6805
 4593SOL     OW25237   4.318   1.361   0.284  0.1578  0.0477  0.2406
 4593SOL    HW125238   4.347   1.275   0.254  0.0138  0.2659 -0.5013
 4593SOL    HW225239   4.341   1.416   0.210  0.1565  0.3129  0.4373
 4594SOL     OW25240   4.560   3.710   7.356  0.3036  0.1466  0.1620
 4594SOL    HW125241   4.591   3.739   7.271  0.4158  0.7043  0.3977
 4594SOL    HW225242   4.475   3.754   7.363 -1.2662 -2.9546  0.8903
 4595SOL     OW25243   2.316   3.195  16.485 -0.2668 -0.1441  0.2445
 4595SOL    HW125244   2.301   3.163  16.395  0.6118  0.4977 -0.1220
 4595SOL    HW225245   2.299   3.289  16.482  2.5667  0.3528  0.2681
 4596SOL     OW25246   0.410   3.202   2.481 -0.2081 -0.3912  0.0942
 4596SOL    HW125247   0.420   3.166   2.570 -0.5244 -0.1282  0.2352
 4596SOL    HW225248   0.424   3.296   2.491  1.1851 -0.6423  0.5819
 4597SOL     OW25249   3.465   1.604   5.131 -0.3817  0.4419 -0.5327
 4597SOL    HW125250   3.477   1.515   5.164  0.0512  0.2759 -1.1554
 4597SOL    HW225251   3.394   1.633   5.189 -3.3501 -3.6535 -2.1162
 4598SOL     OW25252   1.022   3.103   3.862 -0.5405 -0.1882 -0.3158
 4598SOL    HW125253   0.954   3.060   3.914 -2.1751  3.1404  0.2819
 4598SOL    HW225254   0.968   3.164   3.812  0.4121  1.4586  0.6652
 4599SOL     OW25255   4.688   2.171   3.887  0.5166  0.2683 -0.2327
 4599SOL    HW125256   4.707   2.080   3.909  1.0688  0.6696  0.9729
 4599SOL    HW225257   4.598   2.162   3.854  0.2548  0.6600  0.3611
 4600SOL     OW25258   3.509   1.327   6.059  0.1619 -0.1816  0.0908
 4600SOL    HW125259   3.452   1.404   6.049 -1.0669 -1.0635  0.2228
 4600SOL    HW225260   3.578   1.351   5.998 -0.7157  0.1268 -0.7894
 4601SOL     OW25261   1.857   1.529  15.869 -0.0946  0.2834  0.0633
 4601SOL    HW125262   1.776   1.579  15.876 -0.9289 -1.1951  0.9104
 4601SOL    HW225263   1.822   1.450  15.827 -1.3777  0.9205 -0.0325
 4602SOL     OW25264   2.826   0.142  16.288 -0.0599 -0.2088 -0.3906
 4602SOL    HW125265   2.897   0.198  16.258 -0.5384  0.5446 -0.1076
 4602SOL    HW225266   2.771   0.206  16.333  3.1770 -0.2404  3.4915
 4603SOL     OW25267   3.497   4.161   5.104 -0.5016 -0.2787 -0.4336
 4603SOL    HW125268   3.474   4.245   5.063  0.8759  0.1582 -0.3198
 4603SOL    HW225269   3.590   4.161   5.079 -0.0079 -0.3684  1.4515
 4604SOL     OW25270   4.158   2.406   2.469  0.1729 -0.3611 -0.5183
 4604SOL    HW125271   4.070   2.425   2.501  0.5301  0.3646  0.0229
 4604SOL    HW225272   4.209   2.442   2.541 -2.1563  0.0319  0.9150
 4605SOL     OW25273   2.816   2.898  16.628 -0.2640  0.0258  0.3182
 4605SOL    HW125274   2.795   2.930  16.716 -0.8176 -1.5142  0.7356
 4605SOL    HW225275   2.822   2.806  16.653  1.9314 -0.0283 -0.3939
 4606SOL     OW25276   3.009   0.837  10.715  0.9716  0.0101 -0.8596
 4606SOL    HW125277   3.072   0.796  10.774  0.5640 -0.3034 -0.6365
 4606SOL    HW225278   3.009   0.925  10.752  0.4461 -0.2662 -0.1987
 4607SOL     OW25279   1.957   0.994   7.886  0.3098 -0.5945  0.1116
 4607SOL    HW125280   1.983   1.041   7.807  0.8044  0.0197  0.6508
 4607SOL    HW225281   2.009   0.914   7.889 -1.1612 -1.5345  0.7751
 4608SOL     OW25282   1.859   0.719   8.954 -0.4226 -0.6434  0.1209
 4608SOL    HW125283   1.948   0.728   8.987 -0.2132  0.8473 -0.9021
 4608SOL    HW225284   1.877   0.735   8.862 -0.1274  0.1046  0.3085
 4609SOL     OW25285   3.986   1.668  16.000 -0.2607 -0.4958  0.0884
 4609SOL    HW125286   3.999   1.757  15.968 -0.3978 -0.5454 -0.1037
 4609SOL    HW225287   3.893   1.649  16.009 -0.1020 -0.9878  0.7279
 4610SOL     OW25288   0.993   1.427   3.410  0.7547  0.7336 -0.3201
 4610SOL    HW125289   1.007   1.468   3.495 -1.4722 -1.2166  1.0066
 4610SOL    HW225290   1.025   1.490   3.346 -0.2984  0.8642 -0.7126
 4611SOL     OW25291   0.812   3.582   7.659  0.2768 -0.7070 -0.8163
 4611SOL    HW125292   0.741   3.564   7.598  0.2310 -0.2606 -0.8957
 4611SOL    HW225293   0.861   3.501   7.670  0.7043 -0.4719 -0.9889
 4612SOL     OW25294   0.548   3.781  10.483  0.2249  0.1278  0.3034
 4612SOL    HW125295   0.601   3.843  10.433  0.9146  0.7503  1.8251
 4612SOL    HW225296   0.461   3.792  10.443  0.0323 -0.2059  0.6270
 4613SOL     OW25297   3.749   0.629   4.478  0.2955 -0.5016  0.2821
 4613SOL    HW125298   3.659   0.649   4.453  0.5054 -0.3495 -0.3482
 4613SOL    HW225299   3.745   0.533   4.481  2.2400 -0.6506 -1.8134
 4614SOL     OW25300   3.419   3.094   9.044  0.4396 -0.4087  0.4678
 4614SOL    HW125301   3.367   3.058   9.116  0.1110 -1.1119 -0.1247
 4614SOL    HW225302   3.497   3.123   9.092  0.5042  0.1986 -0.0043
 4615SOL     OW25303   4.603   2.797   3.205 -0.1611  0.1589 -0.3692
 4615SOL    HW125304   4.688   2.839   3.214  0.6026 -1.7367  1.1779
 4615SOL    HW225305   4.629   2.709   3.178  1.0949 -0.1560  1.9027
 4616SOL     OW25306   0.766   0.743   4.148 -0.4142  0.2413  0.3298
 4616SOL    HW125307   0.786   0.794   4.070  0.2949 -0.0842  0.2982
 4616SOL    HW225308   0.699   0.797   4.191  0.2921  1.6836 -0.3709
 4617SOL     OW25309   1.124   0.431   9.580  0.0761  0.1663 -0.2886
 4617SOL    HW125310   1.093   0.342   9.596 -0.2922  0.1505 -1.1003
 4617SOL    HW225311   1.218   0.416   9.588 -0.4225 -3.0515 -0.7472
 4618SOL     OW25312   3.929   4.303  15.329 -0.6127 -0.2354  0.5666
 4618SOL    HW125313   3.901   4.238  15.264 -0.2908  0.3356 -0.1390
 4618SOL    HW225314   3.899   4.257  15.408 -3.0981 -0.2052 -0.3433
 4619SOL     OW25315   1.868   0.587   9.301  0.4455  0.2154 -0.2444
 4619SOL    HW125316   1.868   0.682   9.303  0.9024  0.2134 -0.0171
 4619SOL    HW225317   1.963   0.577   9.294  0.7074  2.6742 -0.0523
 4620SOL     OW25318   2.843   4.397  13.788  0.3672 -0.3155 -0.2291
 4620SOL    HW125319   2.920   4.451  13.770  0.0376  0.3325  0.3325
 4620SOL    HW225320   2.799   4.423  13.868  0.0849  1.3003 -0.9138
 4621SOL     OW25321   4.438   2.279  17.503 -0.2375 -0.2301  0.9146
 4621SOL    HW125322   4.470   2.260  17.415 -2.1028  0.3952  0.0820
 4621SOL    HW225323   4.352   2.236  17.512 -1.5519  2.4685  1.2590
 4622SOL     OW25324   1.516   0.830  15.990 -0.2617 -0.2214  0.5529
 4622SOL    HW125325   1.486   0.860  16.075 -3.6179  2.0287 -1.4337
 4622SOL    HW225326   1.559   0.911  15.962  1.2042 -1.6415 -1.3314
 4623SOL     OW25327   4.300   2.316   9.485 -0.3393 -0.0703 -0.0298
 4623SOL    HW125328   4.300   2.379   9.413  2.5333 -1.0455 -0.8846
 4623SOL    HW225329   4.263   2.241   9.440 -0.9961 -0.0408  0.4639
 4624SOL     OW25330   0.065   1.526   6.341  0.3833 -0.0662 -0.2983
 4624SOL    HW125331   0.099   1.589   6.277 -2.5588  0.9381 -0.8597
 4624SOL    HW225332   0.134   1.539   6.406 -0.3290 -2.0439  0.8316
 4625SOL     OW25333   4.012   3.841   2.095  0.0272 -0.8065  0.4070
 4625SOL    HW125334   4.049   3.898   2.027 -1.7988 -1.4997 -1.1532
 4625SOL    HW225335   3.979   3.900   2.163  0.9835 -1.7317  1.6835
 4626SOL     OW25336   2.745   2.433   1.672  0.2040 -0.7719 -0.5345
 4626SOL    HW125337   2.668   2.477   1.637  2.0651  0.9807 -2.5002
 4626SOL    HW225338   2.727   2.359   1.613 -2.7031  0.2835 -0.9175
 4627SOL     OW25339   0.292   3.923   6.998 -0.5520  0.0985 -0.2930
 4627SOL    HW125340   0.357   3.864   7.038 -2.6726 -2.8511 -1.2347
 4627SOL    HW225341   0.324   4.010   7.019 -0.0266 -0.6934  2.2882
 4628SOL     OW25342   4.310   1.561   2.183  0.1152  0.6649 -0.7876
 4628SOL    HW125343   4.393   1.607   2.196  0.9186 -0.5534 -1.6092
 4628SOL    HW225344   4.308   1.495   2.252 -1.5581  0.2481 -1.2394
 4629SOL     OW25345   0.023   3.700   5.309 -0.0845 -0.5762 -0.2717
 4629SOL    HW125346   0.049   3.660   5.392 -1.3362 -0.3535  0.2259
 4629SOL    HW225347   0.066   3.642   5.245  2.1186 -0.0727  0.7600
 4630SOL     OW25348   2.270   3.976   3.154  0.6483  0.1591  0.4005
 4630SOL    HW125349   2.308   3.986   3.067 -0.3485  0.2316 -0.0168
 4630SOL    HW225350   2.213   3.901   3.139 -0.0012  0.9973 -1.2539
 4631SOL     OW25351   2.582   2.673   5.158 -0.0317 -0.5403  0.1213
 4631SOL    HW125352   2.494   2.645   5.184 -1.0271  1.6310 -0.9646
 4631SOL    HW225353   2.589   2.749   5.215 -2.3063 -0.8860  0.8721
 4632SOL     OW25354   2.949   1.451   6.837 -0.0297 -0.2781 -0.3635
 4632SOL    HW125355   2.864   1.493   6.833 -0.3853 -0.9372  0.0796
 4632SOL    HW225356   2.927   1.389   6.907 -1.6791 -1.7264 -2.1539
 4633SOL     OW25357   3.422   1.718  10.956 -0.6480 -0.2892 -0.5993
 4633SOL    HW125358   3.343   1.665  10.949 -1.4205  0.7404  0.4804
 4633SOL    HW225359   3.399   1.786  11.019 -0.5025  0.6808 -1.5813
 4634SOL     OW25360   1.962   3.072   8.645 -0.1730 -0.1168 -0.1538
 4634SOL    HW125361   1.933   3.033   8.727  1.2173  0.4990  0.6355
 4634SOL    HW225362   1.890   3.131   8.627  1.9858  2.4175 -0.5142
 4635SOL     OW25363   1.646   4.171   9.487  0.4896  0.3793  0.1161
 4635SOL    HW125364   1.571   4.229   9.502  0.2112  0.2529 -0.7543
 4635SOL    HW225365   1.696   4.199   9.564  1.1023  0.1409 -0.1956
 4636SOL     OW25366   4.702   3.364   3.464  0.2137 -0.4754 -0.1929
 4636SOL    HW125367   4.675   3.350   3.555 -1.6254  1.2207 -0.4704
 4636SOL    HW225368   4.650   3.301   3.414 -1.1015  1.0431 -0.7354
 4637SOL     OW25369   0.457   3.401   4.709  0.3523  0.1483 -0.0103
 4637SOL    HW125370   0.531   3.463   4.708  1.0310 -0.6466  2.3453
 4637SOL    HW225371   0.461   3.349   4.629  2.1805 -0.3741  0.4141
 4638SOL     OW25372   0.939   0.235  15.368 -0.4792  0.1900  0.1625
 4638SOL    HW125373   0.868   0.227  15.304 -0.4726  2.7193 -0.1806
 4638SOL    HW225374   0.928   0.322  15.407 -2.0308 -0.1797  0.5585
 4639SOL     OW25375   0.423   0.975   3.662  0.2111  0.3595  0.1040
 4639SOL    HW125376   0.417   1.045   3.597 -0.1098 -1.9639 -2.4095
 4639SOL    HW225377   0.339   0.930   3.654 -0.2263  0.8750  1.9373
 4640SOL     OW25378   3.596   1.393  17.669 -0.3471  0.4577 -0.2997
 4640SOL    HW125379   3.683   1.359  17.646  0.0328 -1.9384  4.6459
 4640SOL    HW225380   3.543   1.347  17.604  2.9763 -0.5004 -2.3244
 4641SOL     OW25381   2.976   1.153   8.574 -0.0651  0.0755  0.3691
 4641SOL    HW125382   2.979   1.234   8.626  1.8487  0.4733 -0.3534
 4641SOL    HW225383   2.948   1.085   8.635 -2.7511  0.7820 -0.0882
 4642SOL     OW25384   1.254   4.599  15.026  0.3591 -0.1726  0.1851
 4642SOL    HW125385   1.275   4.514  15.065  0.8491 -0.1471 -0.0217
 4642SOL    HW225386   1.181   4.620  15.084 -0.0961  2.0253 -1.2211
 4643SOL     OW25387   1.542   1.585   8.440 -0.0657  0.1773 -0.2181
 4643SOL    HW125388   1.458   1.587   8.394 -0.6998  1.9312  1.0012
 4643SOL    HW225389   1.551   1.495   8.470 -2.4957  0.0419  0.1123
 4644SOL     OW25390   0.597   3.081   8.145  0.4130  0.6451 -0.1823
 4644SOL    HW125391   0.601   3.058   8.238 -1.2628 -2.1201 -0.7855
 4644SOL    HW225392   0.502   3.092   8.138  0.0558 -2.3780 -0.1993
 4645SOL     OW25393   2.949   2.221  11.284  0.2437  0.7192 -0.6979
 4645SOL    HW125394   2.979   2.171  11.360 -1.0696  2.9150  1.2907
 4645SOL    HW225395   3.033   2.215  11.239  1.0145 -2.4817  1.1647
 4646SOL     OW25396   1.940   1.788   6.453 -0.7544  0.4372  0.5115
 4646SOL    HW125397   1.855   1.831   6.446 -0.6423  0.3705 -1.2488
 4646SOL    HW225398   1.950   1.814   6.545 -0.6074 -0.0550  0.6346
 4647SOL     OW25399   0.795   2.474   2.478  0.1978 -0.3599 -0.3463
 4647SOL    HW125400   0.882   2.438   2.460 -0.8016 -3.6243  1.2822
 4647SOL    HW225401   0.746   2.464   2.396 -1.0082  1.4999  0.1332
 4648SOL     OW25402   3.251   0.968   0.389  0.2450  0.1735  0.3884
 4648SOL    HW125403   3.293   1.052   0.372 -1.0670  0.9172  0.8417
 4648SOL    HW225404   3.322   0.935   0.444  1.1393 -2.0042 -2.0420
 4649SOL     OW25405   3.495   1.011   0.018  0.4962  0.1753 -0.2535
 4649SOL    HW125406   3.498   1.019   0.113 -0.4239 -1.4280 -0.0930
 4649SOL    HW225407   3.540   1.088  17.668  3.8513 -2.3622 -1.5358
 4650SOL     OW25408   0.219   0.221   7.923 -0.2739 -0.6233 -0.0134
 4650SOL    HW125409   0.167   0.265   7.990 -0.9578 -0.1690 -0.8373
 4650SOL    HW225410   0.289   0.187   7.978  1.8813  0.5360 -2.0392
 4651SOL     OW25411   4.208   4.248   8.247  0.1033 -0.0056 -0.4227
 4651SOL    HW125412   4.293   4.239   8.290  0.1619  1.6962 -0.2127
 4651SOL    HW225413   4.211   4.184   8.175 -0.3764  0.5594 -0.9444
 4652SOL     OW25414   2.915   3.808   6.637 -0.2769 -0.0828  0.4226
 4652SOL    HW125415   2.913   3.783   6.545 -1.0605  0.6749  0.2404
 4652SOL    HW225416   2.820   3.802   6.649 -0.1655 -1.0918  0.8099
 4653SOL     OW25417   3.195   0.705   6.122  0.6299  0.3786  0.1835
 4653SOL    HW125418   3.252   0.628   6.129  1.3511  0.8951 -0.0351
 4653SOL    HW225419   3.131   0.680   6.056  0.6403  1.7097 -0.3385
 4654SOL     OW25420   0.670   4.530   5.846 -0.5203 -0.8397 -0.1504
 4654SOL    HW125421   0.761   4.502   5.841 -0.0472  0.5930  0.5763
 4654SOL    HW225422   0.665   4.593   5.774 -0.5580 -0.4068  0.2329
 4655SOL     OW25423   1.933   0.176   8.263  0.4929  0.0501  0.1500
 4655SOL    HW125424   1.852   0.126   8.270 -0.7259  1.6492 -2.4153
 4655SOL    HW225425   1.946   0.214   8.350  0.6075 -2.8868  1.4093
 4656SOL     OW25426   2.208   4.488  15.135  0.1653 -0.4287 -0.4730
 4656SOL    HW125427   2.180   4.521  15.220  0.1493 -1.0912 -0.2157
 4656SOL    HW225428   2.187   4.562  15.079 -1.8536 -0.5168  0.1584
 4657SOL     OW25429   1.682   2.863  13.392  0.1401  0.6372  0.1958
 4657SOL    HW125430   1.641   2.939  13.434  0.8184  1.0975  0.0265
 4657SOL    HW225431   1.733   2.828  13.465  0.0574  2.0767  0.9404
 4658SOL     OW25432   2.840   2.372   8.680 -0.3193 -0.3134  0.0256
 4658SOL    HW125433   2.803   2.288   8.708  0.3970  0.1141  2.2022
 4658SOL    HW225434   2.768   2.416   8.634 -0.3612 -0.0100  0.3844
 4659SOL     OW25435   4.067   2.068   9.862  0.3037  0.1509 -0.2448
 4659SOL    HW125436   4.041   2.087   9.952  0.8913 -0.5906  0.0830
 4659SOL    HW225437   4.080   2.153   9.819 -2.0667  0.3804 -0.4984
 4660SOL     OW25438   1.889   2.990   3.704  0.1982 -0.2714  0.3055
 4660SOL    HW125439   1.892   3.033   3.618  0.0114  0.9401  0.8970
 4660SOL    HW225440   1.875   3.061   3.767 -0.1158 -0.5370  0.5324
 4661SOL     OW25441   0.204   1.589   8.146  0.3256 -0.1350  0.3400
 4661SOL    HW125442   0.241   1.654   8.206 -0.1549 -0.6771  1.2287
 4661SOL    HW225443   0.242   1.507   8.180 -0.9481 -1.1666 -0.7474
 4662SOL     OW25444   4.180   4.445   3.032 -0.7500 -0.5381 -0.4552
 4662SOL    HW125445   4.132   4.431   2.950  0.1985  0.8863 -1.2478
 4662SOL    HW225446   4.235   4.518   3.006 -1.7180  0.4262  0.1901
 4663SOL     OW25447   3.861   0.803   7.154 -0.3625 -0.1376  0.1591
 4663SOL    HW125448   3.871   0.782   7.247  0.5027  1.2703  0.3789
 4663SOL    HW225449   3.894   0.734   7.096  0.4809  0.2522  0.1779
 4664SOL     OW25450   2.899   4.088  11.674 -0.3726  0.1399 -0.3150
 4664SOL    HW125451   2.937   4.134  11.599 -1.5105  1.8720  0.1559
 4664SOL    HW225452   2.820   4.048  11.637  0.0221 -0.6503 -0.2916
 4665SOL     OW25453   4.285   3.574   4.238  0.5350  0.7383  0.0508
 4665SOL    HW125454   4.362   3.605   4.285  0.8608  0.2148 -0.1436
 4665SOL    HW225455   4.331   3.510   4.184  0.0279  0.9342 -0.6064
 4666SOL     OW25456   3.379   1.758   6.616  0.4495 -0.0858 -0.1496
 4666SOL    HW125457   3.393   1.829   6.679 -1.9335  0.0417  0.2450
 4666SOL    HW225458   3.373   1.674   6.662 -2.7505  1.3147  2.0295
 4667SOL     OW25459   0.595   3.279   6.338 -0.0098  0.2571 -0.4192
 4667SOL    HW125460   0.567   3.260   6.427  2.8383 -0.6030  0.2932
 4667SOL    HW225461   0.607   3.373   6.351 -3.1999  1.2141 -4.0860
 4668SOL     OW25462   1.903   2.590   8.790  0.0654  0.5923  0.3386
 4668SOL    HW125463   1.924   2.509   8.837  0.5200  0.5735  0.1046
 4668SOL    HW225464   1.916   2.563   8.699  0.0970 -2.0836  1.1327
 4669SOL     OW25465   3.787   4.052   2.926  0.1190 -0.2060  0.4403
 4669SOL    HW125466   3.711   4.079   2.875  2.5552  3.8712 -0.9964
 4669SOL    HW225467   3.743   4.059   3.011  1.1435 -0.1425  0.9715
 4670SOL     OW25468   3.510   0.363   4.510  0.0253 -0.4138  0.1542
 4670SOL    HW125469   3.461   0.309   4.448 -0.2752 -1.4993  1.3524
 4670SOL    HW225470   3.593   0.318   4.527 -0.7099 -2.7142 -2.1850
 4671SOL     OW25471   3.338   1.810   3.585 -0.3631 -0.1676  0.0249
 4671SOL    HW125472   3.393   1.863   3.527  0.3705 -0.5899  0.3227
 4671SOL    HW225473   3.251   1.840   3.558 -0.7843  0.5813  2.2004
 4672SOL     OW25474   3.017   4.129  10.406  0.0380  0.2899 -0.1907
 4672SOL    HW125475   2.941   4.077  10.435  0.9170 -0.4011  0.8850
 4672SOL    HW225476   3.005   4.137  10.312 -1.7140  0.0002 -0.0049
 4673SOL     OW25477   2.029   1.138   5.858  0.1168  0.1408  0.3764
 4673SOL    HW125478   2.038   1.067   5.921  0.7422 -1.0685 -1.0941
 4673SOL    HW225479   2.056   1.100   5.775  1.8803  0.2718  0.8844
 4674SOL     OW25480   4.064   3.169   0.349 -0.0476 -1.1239 -0.1678
 4674SOL    HW125481   4.072   3.108   0.276  1.2614  3.4395 -3.8264
 4674SOL    HW225482   4.009   3.243   0.322 -1.1599 -1.2706  1.6689
 4675SOL     OW25483   4.016   4.009   7.508 -0.7988  0.0089 -0.0337
 4675SOL    HW125484   3.957   4.040   7.439 -1.0977 -0.4513  0.0177
 4675SOL    HW225485   4.088   4.068   7.487  0.0290 -0.7236  0.7650
 4676SOL     OW25486   3.056   3.727   8.130 -0.5400 -0.2127 -1.1382
 4676SOL    HW125487   2.979   3.783   8.140 -0.4940 -0.0092 -1.8768
 4676SOL    HW225488   3.048   3.690   8.042 -2.1701 -0.8394 -0.7171
 4677SOL     OW25489   4.584   0.944   1.843 -0.7596 -0.7319  0.3799
 4677SOL    HW125490   4.583   0.848   1.845  0.1123 -0.7771 -2.3336
 4677SOL    HW225491   4.507   0.962   1.790  0.5255  1.0654 -0.8582
 4678SOL     OW25492   4.042   1.198   2.992  0.3256  0.3396  0.3780
 4678SOL    HW125493   3.996   1.274   2.956  1.3222  1.2915  1.0863
 4678SOL    HW225494   4.118   1.178   2.938 -1.0032  0.2897 -1.4736
 4679SOL     OW25495   3.929   2.860   9.687  0.4513  0.8478  0.0104
 4679SOL    HW125496   3.975   2.777   9.694 -1.1544 -0.2323 -2.1929
 4679SOL    HW225497   3.840   2.824   9.687  0.4922  0.7414 -1.7973
 4680SOL     OW25498   2.500   0.982   3.027  0.1257 -0.3867 -0.2951
 4680SOL    HW125499   2.494   1.028   2.943  0.0354  0.3881  0.1338
 4680SOL    HW225500   2.407   0.961   3.033 -0.3702  1.7801 -0.2008
 4681SOL     OW25501   1.369   3.069   3.599  0.2890  0.3813  0.2458
 4681SOL    HW125502   1.282   3.096   3.571 -0.2768 -2.1615 -0.4907
 4681SOL    HW225503   1.366   3.103   3.688 -0.1342 -0.4906  0.5656
 4682SOL     OW25504   1.130   3.165   5.403  0.9030 -0.2288  0.3469
 4682SOL    HW125505   1.102   3.212   5.325  1.4305  0.5659  0.6305
 4682SOL    HW225506   1.060   3.178   5.467 -0.4777 -1.2334 -0.9749
 4683SOL     OW25507   3.581   4.651   7.113  0.2073 -0.0930 -0.1344
 4683SOL    HW125508   3.652   4.590   7.093 -1.3799 -1.8944 -0.2791
 4683SOL    HW225509   3.601   4.668   7.205 -1.3438  1.5042 -0.0947
 4684SOL     OW25510   4.062   0.809   4.173 -0.7342 -0.7826  0.1645
 4684SOL    HW125511   4.084   0.890   4.127  1.3394  0.4050  3.2860
 4684SOL    HW225512   4.068   0.836   4.265 -2.5361 -0.1413  0.0854
 4685SOL     OW25513   3.141   3.078   9.548 -0.3073  0.2014  0.1594
 4685SOL    HW125514   3.140   3.162   9.502  1.5341  0.0114 -0.2078
 4685SOL    HW225515   3.206   3.089   9.616 -1.7093 -0.9205  1.6862
 4686SOL     OW25516   4.113   0.398   7.122  0.1566 -0.4573 -0.5079
 4686SOL    HW125517   4.117   0.465   7.191 -1.8838 -0.9270  0.0646
 4686SOL    HW225518   4.055   0.452   7.068  3.0807  2.4771 -0.7005
 4687SOL     OW25519   3.813   2.637   4.781 -0.3739 -0.3173 -0.4169
 4687SOL    HW125520   3.719   2.656   4.785  0.1015  1.9864 -0.1758
 4687SOL    HW225521   3.835   2.647   4.688 -0.5289  0.1285 -0.4049
 4688SOL     OW25522   2.568   2.056  17.156 -0.4463 -0.0433  0.2091
 4688SOL    HW125523   2.636   2.110  17.195  1.6027 -2.3955 -0.1617
 4688SOL    HW225524   2.614   2.042  17.073  0.5457  0.5557  0.6615
 4689SOL     OW25525   2.998   3.119   1.927  0.0225  0.2124  0.5020
 4689SOL    HW125526   3.033   3.157   1.846 -1.9450  2.0150  0.4930
 4689SOL    HW225527   2.990   3.198   1.980 -0.1160  1.5090 -1.4273
 4690SOL     OW25528   2.297   2.574   4.472 -0.6394  0.6726  0.2087
 4690SOL    HW125529   2.326   2.590   4.562 -1.4114 -0.0857  0.5950
 4690SOL    HW225530   2.242   2.496   4.474 -0.7749  0.7695  0.2901
 4691SOL     OW25531   0.951   2.422  17.403  0.3194 -0.6390  0.0837
 4691SOL    HW125532   0.856   2.410  17.413  0.0393  1.3166 -0.2905
 4691SOL    HW225533   0.968   2.513  17.427  2.6061 -1.1516  0.4339
 4692SOL     OW25534   4.074   2.048   6.290 -0.2415 -0.4842 -0.7219
 4692SOL    HW125535   4.052   2.108   6.360 -0.6149 -2.1986  0.6218
 4692SOL    HW225536   3.991   2.005   6.270 -0.7203  0.6697 -1.1616
 4693SOL     OW25537   4.116   3.175   9.374  0.0604 -0.0290 -0.2129
 4693SOL    HW125538   4.159   3.105   9.325  0.1725  0.3740 -0.6908
 4693SOL    HW225539   4.156   3.163   9.460 -1.0553 -2.4073 -0.0266
 4694SOL     OW25540   4.142   4.326   5.773 -0.0353  0.5783 -0.4637
 4694SOL    HW125541   4.210   4.274   5.730 -2.8896 -1.3113 -2.6733
 4694SOL    HW225542   4.151   4.294   5.863 -0.2066 -0.3108 -0.7614
 4695SOL     OW25543   2.888   1.688  12.805 -0.1951 -0.7870 -0.0546
 4695SOL    HW125544   2.864   1.659  12.893 -2.1328  2.5990  0.5367
 4695SOL    HW225545   2.913   1.778  12.826 -2.8461  0.1397 -0.7912
 4696SOL     OW25546   0.670   4.470  16.442 -0.1106  0.7895  0.4986
 4696SOL    HW125547   0.638   4.399  16.499 -0.6343 -0.6647 -1.5813
 4696SOL    HW225548   0.701   4.417  16.367 -2.2369  0.3350 -0.0627
 4697SOL     OW25549   0.211   2.047   5.645 -0.0750  0.1311  0.3184
 4697SOL    HW125550   0.159   2.113   5.691 -1.6933 -1.1593  0.3406
 4697SOL    HW225551   0.144   1.992   5.605 -1.5085  0.7888  1.7985
 4698SOL     OW25552   2.484   3.465   2.810 -0.5673 -0.3915 -0.0300
 4698SOL    HW125553   2.432   3.432   2.883 -0.7632 -0.0110  0.0008
 4698SOL    HW225554   2.526   3.539   2.852  0.0309 -0.6109 -0.2351
 4699SOL     OW25555   0.689   2.837   8.638  0.1406 -0.0085 -0.1871
 4699SOL    HW125556   0.783   2.826   8.629  0.4063  1.3676  0.8514
 4699SOL    HW225557   0.687   2.917   8.691  3.9136 -0.3481  0.4387
 4700SOL     OW25558   2.843   3.566   8.794  0.3566 -0.1072 -0.3655
 4700SOL    HW125559   2.919   3.524   8.833 -1.3984 -0.2828  2.8906
 4700SOL    HW225560   2.836   3.643   8.851 -0.9288  0.0940 -0.7859
 4701SOL     OW25561   0.466   1.604   1.632 -0.1052 -0.2234  0.9001
 4701SOL    HW125562   0.437   1.513   1.639  0.6360 -0.6025 -1.2214
 4701SOL    HW225563   0.498   1.619   1.721  1.9918  2.8355 -0.3973
 4702SOL     OW25564   2.943   4.658   6.779 -0.3281 -0.0811 -0.1943
 4702SOL    HW125565   2.891   4.703   6.846 -1.5044 -0.1272 -1.0631
 4702SOL    HW225566   2.903   4.694   6.700 -0.3244 -0.1689 -0.2360
 4703SOL     OW25567   3.640   1.646   7.949  0.0885  0.4843 -0.1491
 4703SOL    HW125568   3.665   1.715   8.010 -0.2653  2.3085 -2.0724
 4703SOL    HW225569   3.726   1.613   7.921  0.3168  1.5743 -0.7116
 4704SOL     OW25570   0.152   2.053   0.673  0.2166 -0.6197 -0.2097
 4704SOL    HW125571   0.198   2.054   0.589 -1.1947  0.7000 -0.9620
 4704SOL    HW225572   0.137   1.959   0.680 -0.5391 -0.3775  1.3802
 4705SOL     OW25573   3.353   0.028   3.609 -0.1440  0.1683  0.5438
 4705SOL    HW125574   3.425   4.690   3.633 -0.9654 -0.7612  0.7493
 4705SOL    HW225575   3.340   4.708   3.523  0.4711 -1.6075  1.2778
 4706SOL     OW25576   1.441   1.472   4.826 -0.2326 -0.1705  0.1202
 4706SOL    HW125577   1.488   1.552   4.849 -0.1023 -0.5680  1.2185
 4706SOL    HW225578   1.515   1.434   4.779  0.6488 -0.1271  1.5006
 4707SOL     OW25579   2.662   1.604   3.588  0.2949 -0.7866 -0.3616
 4707SOL    HW125580   2.652   1.542   3.660 -0.9263 -1.5368 -1.1693
 4707SOL    HW225581   2.634   1.540   3.522 -0.8043 -0.6047 -0.0730
 4708SOL     OW25582   1.643   2.088   1.192 -0.4856  0.1243  0.1177
 4708SOL    HW125583   1.730   2.098   1.230 -0.5836  1.3662  0.0237
 4708SOL    HW225584   1.628   2.171   1.146  1.7196 -1.1111 -2.8805
 4709SOL     OW25585   0.239   2.598   6.623  0.1676  0.9554 -0.4539
 4709SOL    HW125586   0.276   2.510   6.620 -0.5368  0.6038  1.1909
 4709SOL    HW225587   0.222   2.598   6.717  0.4717 -0.2633 -0.3961
 4710SOL     OW25588   0.053   2.540  11.729  0.5262  0.2383  0.4293
 4710SOL    HW125589   0.125   2.490  11.768 -0.2717 -0.7431  0.6516
 4710SOL    HW225590   0.059   2.625  11.772  2.1452  0.8107 -0.9488
 4711SOL     OW25591   1.956   3.663   5.000 -0.6337 -0.1569 -0.4627
 4711SOL    HW125592   1.954   3.746   4.952  1.7228  1.1210  1.6283
 4711SOL    HW225593   1.884   3.620   4.954 -1.0804 -0.2661  0.3454
 4712SOL     OW25594   4.572   3.704   5.755  0.1734 -0.4146  0.2311
 4712SOL    HW125595   4.485   3.694   5.717  1.0601  1.3825 -2.2912
 4712SOL    HW225596   4.628   3.656   5.695  1.8250 -1.8470  2.9308
 4713SOL     OW25597   2.626   4.435  11.783  0.4568  1.0113  0.6474
 4713SOL    HW125598   2.710   4.426  11.737  0.8491  4.6052  0.6101
 4713SOL    HW225599   2.569   4.387  11.723 -0.0995  0.9882  1.2046
 4714SOL     OW25600   2.190   0.036  12.224  0.0787 -0.3419  0.3184
 4714SOL    HW125601   2.178   4.696  12.297  1.2532  1.0685  1.6937
 4714SOL    HW225602   2.107   0.084  12.221 -0.1889 -0.8580 -0.3380
 4715SOL     OW25603   2.373   3.977   4.292  0.4435 -1.2390 -0.1904
 4715SOL    HW125604   2.366   4.035   4.367 -0.7940 -1.7297  0.0826
 4715SOL    HW225605   2.467   3.967   4.277  0.4356 -2.0486  0.2878
 4716SOL     OW25606   1.780   1.840   8.078  0.0449  0.7562  0.3881
 4716SOL    HW125607   1.754   1.750   8.059  1.2522  0.3927  0.4568
 4716SOL    HW225608   1.835   1.857   8.002  2.9029  2.1047  2.7648
 4717SOL     OW25609   2.288   0.572   2.806 -0.1682 -0.6079 -0.1759
 4717SOL    HW125610   2.197   0.551   2.826 -0.7586  0.3189 -1.9048
 4717SOL    HW225611   2.339   0.555   2.886  0.7403  0.1924 -0.5793
 4718SOL     OW25612   1.828   2.957   1.281 -0.2825  0.5166 -0.1439
 4718SOL    HW125613   1.840   2.932   1.372  1.0301 -0.8430 -0.6938
 4718SOL    HW225614   1.740   2.931   1.253 -0.6627  0.9727  0.6169
 4719SOL     OW25615   0.889   0.831  15.763 -0.4501 -0.5027  0.4608
 4719SOL    HW125616   0.929   0.906  15.806 -1.8646  0.6838 -0.2878
 4719SOL    HW225617   0.840   0.795  15.837  0.8869 -3.2192  0.0168
 4720SOL     OW25618   1.366   2.401   4.778  0.1316 -0.1912 -0.2235
 4720SOL    HW125619   1.441   2.458   4.757 -0.2033 -0.0812 -1.1264
 4720SOL    HW225620   1.386   2.328   4.719  0.3121 -0.0264 -0.3662
 4721SOL     OW25621   2.375   2.503   9.246 -0.4377 -0.7891  0.1439
 4721SOL    HW125622   2.327   2.585   9.254  1.5829  0.5607 -1.7602
 4721SOL    HW225623   2.435   2.509   9.321  0.9979  1.9983 -1.2353
 4722SOL     OW25624   2.964   4.470   2.577  0.3842 -0.7791  0.0489
 4722SOL    HW125625   3.038   4.498   2.523  0.2567  1.5866  1.0872
 4722SOL    HW225626   3.009   4.493   2.658 -1.8999  2.2523  0.4686
 4723SOL     OW25627   3.553   4.372  15.949  0.1895  0.3643  0.4160
 4723SOL    HW125628   3.630   4.367  15.893 -0.3779 -0.7556 -0.2635
 4723SOL    HW225629   3.562   4.464  15.975 -0.3842 -0.6839  4.2197
 4724SOL     OW25630   4.414   0.762   0.903  0.1559 -0.0922  0.2276
 4724SOL    HW125631   4.318   0.754   0.902 -0.0185  2.1554 -1.5050
 4724SOL    HW225632   4.448   0.776   0.991  2.6580 -1.1100 -0.5992
 4725SOL     OW25633   1.325   1.389   6.173 -0.5656  0.2733 -0.6260
 4725SOL    HW125634   1.307   1.296   6.159  0.0657 -0.5662  4.2276
 4725SOL    HW225635   1.420   1.382   6.176 -0.5657  0.5810 -0.0347
 4726SOL     OW25636   4.662   1.316   9.767 -0.0643 -0.4776 -0.3890
 4726SOL    HW125637   4.608   1.240   9.746  1.4113 -1.8214  0.6583
 4726SOL    HW225638   0.025   1.279   9.741 -0.4355 -2.4050  1.1508
 4727SOL     OW25639   2.927   0.795   6.305 -0.3792  0.6104  0.4079
 4727SOL    HW125640   2.933   0.814   6.211 -0.5739  2.3406  0.7394
 4727SOL    HW225641   3.005   0.844   6.332 -0.7687  0.3986  1.9009
 4728SOL     OW25642   3.372   1.497   6.726 -0.0950 -0.1571  0.3872
 4728SOL    HW125643   3.321   1.416   6.720 -0.9297  0.4366 -0.5413
 4728SOL    HW225644   3.440   1.462   6.783  1.7820  0.3540 -1.4914
 4729SOL     OW25645   0.566   4.321  16.162 -0.4156 -0.1168 -0.7356
 4729SOL    HW125646   0.519   4.252  16.209  0.0380 -1.5264 -2.3361
 4729SOL    HW225647   0.498   4.387  16.151  0.0916  0.4286 -0.5803
 4730SOL     OW25648   3.257   2.405   3.848  0.7764 -0.0634 -0.1945
 4730SOL    HW125649   3.208   2.451   3.781 -0.7381  0.9747  1.6184
 4730SOL    HW225650   3.248   2.464   3.922 -1.4744 -1.0900  0.3577
 4731SOL     OW25651   2.385   3.765   5.698  0.7899  0.0945 -0.2992
 4731SOL    HW125652   2.399   3.814   5.779  3.1964  1.5632 -1.6282
 4731SOL    HW225653   2.297   3.787   5.666  0.5583 -0.8174 -0.2942
 4732SOL     OW25654   2.144   2.640   5.888  0.4154 -0.1280  0.4565
 4732SOL    HW125655   2.104   2.724   5.911  1.1867  0.8560 -1.8403
 4732SOL    HW225656   2.233   2.646   5.923  0.4668  4.1066 -0.3237
 4733SOL     OW25657   1.503   2.008   7.080  0.0222  0.2167 -0.4298
 4733SOL    HW125658   1.420   1.960   7.073  0.0085 -0.0224  1.4083
 4733SOL    HW225659   1.492   2.026   7.173 -2.4981  1.1528 -0.9149
 4734SOL     OW25660   3.388   0.470   6.158  0.1439 -0.3059 -0.4951
 4734SOL    HW125661   3.432   0.472   6.243 -0.9295  0.4746  0.0478
 4734SOL    HW225662   3.463   0.456   6.100 -0.7473 -0.8219 -1.5336
 4735SOL     OW25663   4.421   2.695   3.379  0.5057  0.3477 -0.2235
 4735SOL    HW125664   4.342   2.749   3.373 -0.4368 -0.8143  1.5771
 4735SOL    HW225665   4.481   2.745   3.323 -0.1166 -0.0597 -1.2466
 4736SOL     OW25666   4.404   4.134   9.831 -0.4225 -0.3333 -0.0420
 4736SOL    HW125667   4.435   4.205   9.888  2.6339 -2.2384  0.6999
 4736SOL    HW225668   4.355   4.188   9.770 -1.8048 -0.9228  0.5371
 4737SOL     OW25669   0.781   1.414  13.447  0.1768 -0.1868  0.1102
 4737SOL    HW125670   0.761   1.326  13.416  0.5639  0.2113 -1.2884
 4737SOL    HW225671   0.848   1.440  13.384  1.7134 -0.0165  1.8232
 4738SOL     OW25672   1.361   1.106   5.297  0.2020 -0.1784 -0.0304
 4738SOL    HW125673   1.346   1.035   5.359  1.2893  0.7918  1.3416
 4738SOL    HW225674   1.273   1.138   5.276 -1.0801 -0.8978  4.2177
 4739SOL     OW25675   2.433   3.138   7.311 -0.4409 -0.3501  0.2563
 4739SOL    HW125676   2.411   3.109   7.399  0.9704  0.4074  0.8624
 4739SOL    HW225677   2.465   3.228   7.314 -0.2969 -0.4056  0.3954
 4740SOL     OW25678   1.210   1.591  10.209 -0.3269 -0.2041 -0.5652
 4740SOL    HW125679   1.210   1.664  10.147 -1.2737 -0.3977 -0.7882
 4740SOL    HW225680   1.300   1.603  10.240  0.2007 -1.4106 -1.6891
 4741SOL     OW25681   4.491   0.363   8.657  0.3668  0.2896 -0.2524
 4741SOL    HW125682   4.579   0.344   8.688  0.2809  0.6376  0.2121
 4741SOL    HW225683   4.454   0.279   8.630 -0.6285  0.6451 -0.0048
 4742SOL     OW25684   0.872   0.192   4.948  0.2318  0.5574 -0.0932
 4742SOL    HW125685   0.877   0.162   5.039  4.9302  2.5592  0.2981
 4742SOL    HW225686   0.829   0.270   4.982 -0.3010  0.3910 -0.3857
 4743SOL     OW25687   3.187   0.851   2.894  0.2576 -0.3337 -0.0600
 4743SOL    HW125688   3.183   0.756   2.890 -0.1344 -0.4468  2.8036
 4743SOL    HW225689   3.281   0.853   2.914  0.0750 -1.0051  0.8834
 4744SOL     OW25690   0.532   1.442   1.158  0.6628 -0.4628 -0.4168
 4744SOL    HW125691   0.565   1.531   1.157 -1.2904  0.2632  0.3307
 4744SOL    HW225692   0.531   1.428   1.253  3.7088  1.3896 -0.1273
 4745SOL     OW25693   0.816   4.345   8.593  0.5324  0.1317  0.1433
 4745SOL    HW125694   0.877   4.276   8.568  1.5113  1.9901 -2.6339
 4745SOL    HW225695   0.841   4.347   8.685  0.9366  0.7004  0.0209
 4746SOL     OW25696   1.370   4.674   4.397 -0.5483 -0.3581 -0.3882
 4746SOL    HW125697   1.289   0.001   4.417 -0.9587 -1.5768  0.8563
 4746SOL    HW225698   1.398   4.648   4.485 -1.3740 -1.9635 -0.6044
 4747SOL     OW25699   1.161   4.687   8.800  0.3524 -0.1985 -0.0801
 4747SOL    HW125700   1.184   0.009   8.883 -1.5372  0.5869  0.0433
 4747SOL    HW225701   1.071   4.719   8.800  0.8081  1.1327  0.3555
 4748SOL     OW25702   3.787   3.763   8.975 -0.7769  0.3737  0.4682
 4748SOL    HW125703   3.783   3.785   9.067 -1.6592  2.9877 -0.2146
 4748SOL    HW225704   3.832   3.840   8.940  0.3499 -1.0755 -1.2928
 4749SOL     OW25705   2.510   0.412   2.686  0.4312 -0.2491 -0.0023
 4749SOL    HW125706   2.498   0.372   2.600  0.4638 -0.2726  0.0043
 4749SOL    HW225707   2.421   0.396   2.717 -0.0348 -0.4536 -1.4470
 4750SOL     OW25708   2.320   0.590   5.875 -0.1092 -0.3524  0.0218
 4750SOL    HW125709   2.404   0.548   5.859  0.1015 -0.3834  1.2133
 4750SOL    HW225710   2.263   0.526   5.832  0.5327 -0.3058 -0.8881
 4751SOL     OW25711   2.959   1.604   8.678 -0.5347 -0.0851 -0.3500
 4751SOL    HW125712   2.971   1.517   8.715 -3.0514  1.0309  3.1176
 4751SOL    HW225713   3.046   1.638   8.697  0.2593 -0.2378 -3.6940
 4752SOL     OW25714   3.968   3.891   0.865 -0.0892 -0.0482 -0.0190
 4752SOL    HW125715   3.970   3.951   0.940  1.4821  0.0669 -0.1459
 4752SOL    HW225716   3.893   3.921   0.814 -2.2072 -0.4962  2.8089
 4753SOL     OW25717   2.738   3.855   2.544  0.1232  0.1853 -0.2731
 4753SOL    HW125718   2.802   3.898   2.487 -0.2175  1.0809  0.0245
 4753SOL    HW225719   2.661   3.853   2.487  0.7737  0.4482 -1.1739
 4754SOL     OW25720   4.696   0.074   5.380  0.3009  0.7052  0.5983
 4754SOL    HW125721   0.024   0.114   5.308  0.9309 -3.0436 -1.0756
 4754SOL    HW225722   4.663   4.715   5.341  3.2163  0.5345 -1.5373
 4755SOL     OW25723   0.555   4.644   9.416  0.5154 -0.3931 -0.2369
 4755SOL    HW125724   0.577   4.594   9.338  1.0318  2.0274 -1.6643
 4755SOL    HW225725   0.631   4.702   9.407  0.3572 -0.2822 -0.8117
 4756SOL     OW25726   4.117   0.168  12.671  0.3698 -0.5875  0.5443
 4756SOL    HW125727   4.112   0.239  12.735  0.7395  0.5686 -0.6976
 4756SOL    HW225728   4.026   0.151  12.650  0.4859 -0.6316  0.0912
 4757SOL     OW25729   4.635   4.488   3.233 -0.1727 -0.8194 -0.2936
 4757SOL    HW125730   4.671   4.399   3.240 -0.4964 -0.9522 -0.3172
 4757SOL    HW225731   4.640   4.503   3.139  0.8483  0.6397 -0.0062
 4758SOL     OW25732   4.354   0.118   8.251 -0.4571  0.3461 -0.7402
 4758SOL    HW125733   4.418   0.061   8.294  0.6652  0.9318 -1.6383
 4758SOL    HW225734   4.355   0.073   8.166 -2.0379 -0.3124 -0.4131
 4759SOL     OW25735   3.167   2.828   3.737 -0.5664  0.0988  0.3337
 4759SOL    HW125736   3.080   2.866   3.752  0.2385  2.3024 -0.7155
 4759SOL    HW225737   3.215   2.910   3.742 -2.1734  1.0255  0.3318
 4760SOL     OW25738   2.153   0.547   4.860  0.5833  0.2786 -0.1993
 4760SOL    HW125739   2.232   0.600   4.862 -0.5560  1.9430  2.6145
 4760SOL    HW225740   2.097   0.607   4.811  0.4445 -0.4617 -0.9543
 4761SOL     OW25741   0.154   3.903  10.292 -0.1953 -0.1826  0.0561
 4761SOL    HW125742   0.118   3.916  10.205  1.3437  0.9109 -0.4370
 4761SOL    HW225743   0.202   3.985  10.307 -2.7426  1.1077  1.1626
 4762SOL     OW25744   4.481   3.006   9.793  0.1489  0.1960 -0.2665
 4762SOL    HW125745   4.501   3.017   9.886 -1.5972  0.1919  0.1124
 4762SOL    HW225746   4.513   2.917   9.786 -0.6123 -0.2724  2.1141
 4763SOL     OW25747   4.223   0.426   3.698  0.3867  0.4319  0.0024
 4763SOL    HW125748   4.317   0.423   3.715 -0.0952  0.1586  2.5262
 4763SOL    HW225749   4.199   0.519   3.692  1.1529  0.5128 -1.9499
 4764SOL     OW25750   0.615   4.311   2.594 -0.3063  0.0332 -0.0444
 4764SOL    HW125751   0.707   4.308   2.617 -0.1588 -3.3399 -1.0558
 4764SOL    HW225752   0.616   4.256   2.515  3.6182  0.1129 -0.0514
 4765SOL     OW25753   2.380   0.103   4.906 -0.5577  0.3578  0.4136
 4765SOL    HW125754   2.442   0.143   4.967  0.9252 -2.0241  0.4472
 4765SOL    HW225755   2.387   0.168   4.836 -2.2569  1.0678  0.8775
 4766SOL     OW25756   1.365   2.953   4.556  0.0072 -0.6257  0.6218
 4766SOL    HW125757   1.455   2.925   4.538  0.0567  0.5730 -0.9842
 4766SOL    HW225758   1.307   2.914   4.491 -0.5914 -1.3845  1.6116
 4767SOL     OW25759   3.956   0.018   1.582 -0.2645 -0.5463  0.2362
 4767SOL    HW125760   3.876   4.690   1.559  0.0880 -1.2729  0.5575
 4767SOL    HW225761   3.979   4.706   1.669  2.5955  1.0096  0.0426
 4768SOL     OW25762   3.958   0.761   8.094  0.5223 -0.4547  0.0144
 4768SOL    HW125763   3.913   0.756   8.178 -0.4553 -0.0134 -0.4920
 4768SOL    HW225764   4.016   0.686   8.113  0.7343 -0.0683  0.8518
 4769SOL     OW25765   0.902   4.006   5.246  0.0220  0.0751 -0.1591
 4769SOL    HW125766   0.889   4.002   5.341  1.0239  1.7630  0.0503
 4769SOL    HW225767   0.818   4.040   5.218 -1.0400 -1.1820  1.5191
 4770SOL     OW25768   4.321   3.266  13.408  0.4148 -0.1747 -0.1406
 4770SOL    HW125769   4.371   3.286  13.330  0.4073 -1.1154 -0.3872
 4770SOL    HW225770   4.387   3.298  13.469  1.0063 -1.0339 -0.3247
 4771SOL     OW25771   4.119   4.312   8.707  0.1928 -0.0384 -0.1407
 4771SOL    HW125772   4.169   4.275   8.779  0.1161 -2.2639 -1.2515
 4771SOL    HW225773   4.153   4.284   8.622  0.9111 -0.9726  0.4574
 4772SOL     OW25774   2.651   0.163   4.496 -0.2832 -0.2700  0.1413
 4772SOL    HW125775   2.651   0.092   4.431  2.3212  0.4003 -0.5903
 4772SOL    HW225776   2.725   0.216   4.466 -1.0874  1.6462  1.5473
 4773SOL     OW25777   3.083   4.453  15.496 -0.6186  0.6153 -0.5339
 4773SOL    HW125778   3.025   4.514  15.540 -1.1021  0.0053 -0.3199
 4773SOL    HW225779   3.013   4.410  15.447 -0.8608  0.4889 -0.0707
 4774SOL     OW25780   3.619   2.922   5.499  0.2068  0.3816 -0.0333
 4774SOL    HW125781   3.709   2.903   5.472 -0.2773 -1.9550 -0.0655
 4774SOL    HW225782   3.571   2.872   5.432  0.9205  0.5050 -0.6382
 4775SOL     OW25783   1.427   0.478   9.348 -0.0962  0.3418  0.0488
 4775SOL    HW125784   1.480   0.425   9.408 -1.7029 -2.8203 -1.3191
 4775SOL    HW225785   1.480   0.457   9.271 -1.4605 -2.1653 -0.1935
 4776SOL     OW25786   0.218   1.785  13.182  0.0459 -0.3483 -0.1702
 4776SOL    HW125787   0.311   1.770  13.197 -0.0051 -0.7589 -0.2596
 4776SOL    HW225788   0.176   1.707  13.219  0.3571  0.7606  2.5018
 4777SOL     OW25789   3.904   3.586   6.638 -0.1876 -0.2030 -0.1582
 4777SOL    HW125790   3.986   3.539   6.650 -0.1066 -0.7093 -2.7905
 4777SOL    HW225791   3.930   3.677   6.653  1.8443 -1.3261  3.2044
 4778SOL     OW25792   0.259   3.582   4.170  0.5685 -0.0633 -0.7382
 4778SOL    HW125793   0.279   3.527   4.245 -0.8724  3.0538  1.9097
 4778SOL    HW225794   0.174   3.553   4.136  0.6003  0.5194 -1.3282
 4779SOL     OW25795   4.104   2.138   3.970 -1.0303  0.2639 -0.1193
 4779SOL    HW125796   4.168   2.210   3.968 -2.9528  1.9695 -0.7874
 4779SOL    HW225797   4.098   2.121   4.063  0.7231 -0.2343 -0.1024
 4780SOL     OW25798   4.203   2.853   3.341  0.0572  0.8709 -0.5488
 4780SOL    HW125799   4.126   2.870   3.396  0.0189 -1.3848  0.0708
 4780SOL    HW225800   4.206   2.944   3.310  3.5279  1.4978  1.5869
 4781SOL     OW25801   1.590   2.916   1.054 -0.2878 -0.1722  0.2374
 4781SOL    HW125802   1.634   2.851   0.998 -0.6747 -0.7918  0.6508
 4781SOL    HW225803   1.564   2.983   0.991 -1.4156  0.1819  1.0924
 4782SOL     OW25804   1.025   0.637   2.996  0.0769 -0.2420  0.5810
 4782SOL    HW125805   0.975   0.611   2.919  0.5956  1.2962 -0.2522
 4782SOL    HW225806   0.971   0.705   3.035 -1.4831 -2.2443  1.9492
 4783SOL     OW25807   1.667   1.167  16.013  0.4907 -0.4083  0.2115
 4783SOL    HW125808   1.748   1.173  16.063 -0.6495  0.8517  1.9110
 4783SOL    HW225809   1.607   1.208  16.075 -0.9370 -2.0113 -0.0981
 4784SOL     OW25810   3.821   2.077   1.064 -0.1200  0.1869 -0.4087
 4784SOL    HW125811   3.824   2.089   1.159  2.0659  0.7551 -0.5419
 4784SOL    HW225812   3.900   2.124   1.036 -0.1642  1.1983  1.1710
 4785SOL     OW25813   2.244   3.006  13.594 -0.2668 -0.0485 -0.6371
 4785SOL    HW125814   2.186   2.930  13.584 -1.1526  0.5396  0.0063
 4785SOL    HW225815   2.199   3.069  13.538 -0.6169  1.9722  1.9378
 4786SOL     OW25816   4.599   0.045   3.208 -0.0724 -0.5254  0.0146
 4786SOL    HW125817   4.633   4.679   3.229 -2.0714 -0.9015  1.7430
 4786SOL    HW225818   4.530   0.055   3.275  0.0240  1.7046 -0.2047
 4787SOL     OW25819   0.458   3.841   8.638 -0.1171 -0.0211 -0.0185
 4787SOL    HW125820   0.474   3.789   8.559 -1.0106  1.9426 -1.4721
 4787SOL    HW225821   0.385   3.891   8.602  1.5219 -0.3247 -3.7344
 4788SOL     OW25822   1.328   0.975   7.644 -0.3738 -0.3252  0.4443
 4788SOL    HW125823   1.377   1.020   7.712 -3.3517  1.8683  1.1088
 4788SOL    HW225824   1.350   0.882   7.654  1.8499  0.1323 -0.1002
 4789SOL     OW25825   1.141   4.237  12.729  0.0439  0.6401  0.1575
 4789SOL    HW125826   1.141   4.332  12.717 -2.4656  0.6822  0.3946
 4789SOL    HW225827   1.085   4.199  12.661  1.7464 -1.6084  0.0252
 4790SOL     OW25828   3.685   1.546   2.433 -0.2258 -0.0877 -0.3732
 4790SOL    HW125829   3.634   1.473   2.397 -2.3433  1.7139 -1.0750
 4790SOL    HW225830   3.668   1.522   2.524  0.8418  0.1254 -0.1179
 4791SOL     OW25831   4.641   4.660   6.797  0.3154 -0.5275 -0.1230
 4791SOL    HW125832   4.672   4.629   6.711  2.8916 -0.2578  0.7319
 4791SOL    HW225833   4.631   0.034   6.794  2.4060 -0.3070 -0.1173
 4792SOL     OW25834   2.195   4.111  14.450 -0.3940  0.2646  0.0953
 4792SOL    HW125835   2.151   4.193  14.474 -0.7761  0.3956 -1.0602
 4792SOL    HW225836   2.203   4.128  14.356 -1.7767  2.5757  0.4054
 4793SOL     OW25837   4.384   0.802   5.505  0.2706  0.0427 -0.4666
 4793SOL    HW125838   4.339   0.718   5.494  1.1290 -0.4977  0.1595
 4793SOL    HW225839   4.448   0.763   5.564  1.3983  0.2919 -1.5224
 4794SOL     OW25840   4.589   2.898   7.914 -0.2583  0.2644  0.0221
 4794SOL    HW125841   4.603   2.807   7.887 -1.8867  0.4631 -1.4837
 4794SOL    HW225842   4.646   2.943   7.852 -1.4086  1.1926 -0.3805
 4795SOL     OW25843   0.241   3.325   0.717 -0.0970 -0.3318 -0.8946
 4795SOL    HW125844   0.231   3.399   0.657  0.0246  0.8982  0.6001
 4795SOL    HW225845   0.329   3.296   0.693 -0.7541 -2.2319 -1.0026
 4796SOL     OW25846   2.067   4.083   7.070  0.4708  0.2478  0.1032
 4796SOL    HW125847   2.086   4.090   6.976  0.8398 -0.1335  0.1455
 4796SOL    HW225848   1.976   4.110   7.068  0.3839 -0.1358 -2.0536
 4797SOL     OW25849   3.556   0.676  13.775 -0.3006  0.6213  0.3466
 4797SOL    HW125850   3.637   0.696  13.822 -0.5566 -0.5521  1.2802
 4797SOL    HW225851   3.506   0.639  13.848  2.3489 -0.9990  1.3687
 4798SOL     OW25852   1.943   4.617  14.786  0.1661 -0.0574 -0.1855
 4798SOL    HW125853   1.997   4.696  14.792 -1.0757  0.6833  1.1116
 4798SOL    HW225854   1.945   4.604  14.691 -0.4618  0.2961 -0.2437
 4799SOL     OW25855   2.278   2.841   5.228 -0.0895  0.5336  0.4338
 4799SOL    HW125856   2.293   2.890   5.147 -0.6242 -0.6279 -0.3894
 4799SOL    HW225857   2.260   2.914   5.286  1.5623  1.0410  0.2945
 4800SOL     OW25858   2.198   0.156   8.388  0.2380  0.1922 -0.4798
 4800SOL    HW125859   2.203   0.082   8.328  0.5759  0.7989 -1.1962
 4800SOL    HW225860   2.286   0.165   8.425 -0.1717 -0.6350  0.7262
 4801SOL     OW25861   0.264   4.678  12.424  0.2337  0.1004 -0.0998
 4801SOL    HW125862   0.271   0.038  12.373  1.7565  0.5669  0.8325
 4801SOL    HW225863   0.298   4.706  12.509 -2.8972 -1.3433  1.6277
 4802SOL     OW25864   2.932   2.024   8.682 -0.5777 -0.3065  0.2836
 4802SOL    HW125865   3.006   1.967   8.658  1.1295  1.3332  1.6601
 4802SOL    HW225866   2.999   2.092   8.690 -0.6669 -0.1876  0.0402
 4803SOL     OW25867   1.252   3.743   8.974  0.1158 -0.0557  0.0902
 4803SOL    HW125868   1.246   3.826   8.927  2.1048  0.5151  0.8332
 4803SOL    HW225869   1.331   3.764   9.025  1.4954  1.0027 -2.5073
 4804SOL     OW25870   0.716   0.223   5.474 -0.0749  0.1223 -0.0789
 4804SOL    HW125871   0.668   0.301   5.444 -1.7804 -0.3409  1.4445
 4804SOL    HW225872   0.804   0.255   5.495  1.6110 -4.2252 -0.5571
 4805SOL     OW25873   1.593   2.554   4.698  0.3443 -0.1427  0.0796
 4805SOL    HW125874   1.689   2.563   4.697  0.6744 -3.7281 -1.6212
 4805SOL    HW225875   1.585   2.530   4.606 -1.7813  3.3328 -0.6014
 4806SOL     OW25876   3.169   2.502   7.351 -0.7666 -0.1492 -0.5862
 4806SOL    HW125877   3.128   2.527   7.268  0.2577 -0.7614 -1.2787
 4806SOL    HW225878   3.206   2.585   7.382  1.4116 -1.3769  0.1062
 4807SOL     OW25879   0.390   4.183   7.551 -0.0454 -0.0877 -0.6971
 4807SOL    HW125880   0.408   4.122   7.479  0.0403 -0.3664 -0.4394
 4807SOL    HW225881   0.298   4.192   7.527 -0.2004  1.6530  0.5417
 4808SOL     OW25882   2.807   2.956   2.444 -0.2652 -0.2137  0.0071
 4808SOL    HW125883   2.788   3.050   2.439  2.6368  0.3589 -0.3337
 4808SOL    HW225884   2.725   2.922   2.409  0.5656 -0.9686 -1.1770
 4809SOL     OW25885   4.360   2.668  10.238  0.2952 -0.1179  0.1954
 4809SOL    HW125886   4.386   2.626  10.320 -1.4055 -1.5877 -0.0274
 4809SOL    HW225887   4.333   2.594  10.183  0.8246  0.9591 -1.5000
 4810SOL     OW25888   3.974   0.484   8.367  0.2003  0.2563  0.0526
 4810SOL    HW125889   4.046   0.429   8.399 -0.5174  0.5240  2.1180
 4810SOL    HW225890   4.001   0.498   8.276  0.2746  2.4108  0.4180
 4811SOL     OW25891   4.126   0.944   0.370 -0.2140 -0.1710  0.5366
 4811SOL    HW125892   4.118   1.038   0.390 -0.4807 -0.0959  0.0740
 4811SOL    HW225893   4.036   0.940   0.338 -0.2935  0.0422  0.7294
 4812SOL     OW25894   2.823   4.547   7.507 -0.1392  0.2219 -0.0109
 4812SOL    HW125895   2.818   4.634   7.547  4.6242 -0.1198  1.2955
 4812SOL    HW225896   2.857   4.576   7.422  2.0725 -0.6569  0.5758
 4813SOL     OW25897   2.672   1.960   4.406  0.5586  0.5331 -0.7042
 4813SOL    HW125898   2.611   1.924   4.470  0.7625  0.7234 -0.4034
 4813SOL    HW225899   2.686   2.053   4.423  0.5388 -0.3062  3.8641
 4814SOL     OW25900   1.263   1.532   4.145 -0.0710  0.4716 -0.0097
 4814SOL    HW125901   1.298   1.470   4.081 -2.4240 -2.8905  1.9188
 4814SOL    HW225902   1.289   1.488   4.226  2.3255  0.4402 -0.8065
 4815SOL     OW25903   1.027   3.220  17.143 -0.0486  0.1499 -0.0898
 4815SOL    HW125904   0.985   3.291  17.095  0.5788 -0.2164 -1.1833
 4815SOL    HW225905   1.044   3.158  17.072  1.1435 -1.6175  1.7398
 4816SOL     OW25906   3.180   0.935   4.936 -0.5762  0.1395 -0.8857
 4816SOL    HW125907   3.153   1.010   4.885 -0.2994  0.9542  0.1605
 4816SOL    HW225908   3.266   0.918   4.898 -0.4330 -0.6724 -0.2188
 4817SOL     OW25909   4.410   2.228   8.744  0.0514 -0.2169 -0.3966
 4817SOL    HW125910   4.392   2.188   8.829  1.7638 -1.2566 -0.5097
 4817SOL    HW225911   4.453   2.157   8.696  2.2983  0.9554 -0.1350
 4818SOL     OW25912   0.204   0.519  11.521 -0.5705  0.4703  0.5905
 4818SOL    HW125913   0.187   0.611  11.499  2.2478  1.0080  0.7150
 4818SOL    HW225914   0.156   0.487  11.445 -1.0559  0.0006  1.0930
 4819SOL     OW25915   1.865   2.250   2.340 -0.6573  0.2296  0.0693
 4819SOL    HW125916   1.833   2.164   2.367 -1.5820  0.8251  0.8588
 4819SOL    HW225917   1.934   2.259   2.406 -2.3407  2.5665  1.5129
 4820SOL     OW25918   2.278   1.510  15.658  0.2214  0.2327 -0.0238
 4820SOL    HW125919   2.195   1.557  15.664  0.2995 -0.0516  3.5821
 4820SOL    HW225920   2.299   1.507  15.752 -1.7891  0.9956  0.4522
 4821SOL     OW25921   2.714   0.371  10.609 -0.1368  0.2315 -0.0203
 4821SOL    HW125922   2.763   0.450  10.633  2.2380 -1.0766 -0.6071
 4821SOL    HW225923   2.728   0.363  10.515  1.6496 -1.7921  0.4220
 4822SOL     OW25924   0.886   0.157  13.592  0.2144 -0.1621 -0.1569
 4822SOL    HW125925   0.962   0.211  13.573 -0.0851 -0.2605 -1.6121
 4822SOL    HW225926   0.832   0.226  13.631 -0.2246  0.2806 -1.5291
 4823SOL     OW25927   1.039   1.930  15.644 -0.6175  0.3055 -0.1668
 4823SOL    HW125928   1.103   1.866  15.678 -0.5343  0.7803  0.5711
 4823SOL    HW225929   1.098   2.005  15.632  0.5949 -0.5852  0.1384
 4824SOL     OW25930   3.656   1.970   7.942 -0.1529 -0.2303  0.7960
 4824SOL    HW125931   3.663   2.066   7.948 -0.6115 -0.0528 -1.7768
 4824SOL    HW225932   3.682   1.948   7.853  0.2101  1.4373  0.4801
 4825SOL     OW25933   2.776   3.918   5.133 -0.1083  0.6383 -0.0880
 4825SOL    HW125934   2.841   3.980   5.164  0.2458  0.3387 -0.2297
 4825SOL    HW225935   2.703   3.971   5.165 -0.2782 -1.2532  2.6131
 4826SOL     OW25936   2.626   4.296   5.693 -0.0308 -0.2644  0.2724
 4826SOL    HW125937   2.650   4.236   5.623  0.9938  1.4910 -0.8690
 4826SOL    HW225938   2.711   4.328   5.723  0.1102  0.7280 -1.1893
 4827SOL     OW25939   3.727   2.948   2.234 -0.5636 -0.2031  0.5565
 4827SOL    HW125940   3.780   2.989   2.301  1.4419  1.0925 -1.8417
 4827SOL    HW225941   3.718   2.860   2.271  0.3989 -0.3137  0.5124
 4828SOL     OW25942   1.470   4.218  13.248  0.0375 -0.4316  0.6910
 4828SOL    HW125943   1.536   4.250  13.309 -0.9657  2.1586  0.4254
 4828SOL    HW225944   1.523   4.222  13.169  0.7464 -0.0237  1.1901
 4829SOL     OW25945   3.154   1.516   4.921  0.1014  0.4086  0.2463
 4829SOL    HW125946   3.074   1.515   4.972  0.8044  0.9310  1.3678
 4829SOL    HW225947   3.225   1.534   4.984 -0.8556  2.2487  0.8105
 4830SOL     OW25948   0.210   4.506   4.831  0.3413 -0.1447  0.1704
 4830SOL    HW125949   0.168   4.438   4.882  0.9669 -0.7092 -0.0702
 4830SOL    HW225950   0.197   4.580   4.891  0.9751  1.3167 -1.4845
 4831SOL     OW25951   0.266   0.708   2.243 -0.3844  0.8110  0.4813
 4831SOL    HW125952   0.345   0.754   2.271 -0.3135  1.6557 -1.1232
 4831SOL    HW225953   0.277   0.735   2.152  0.3149  0.1040  0.3507
 4832SOL     OW25954   3.697   2.874   1.370 -0.6065  0.2318  0.5212
 4832SOL    HW125955   3.644   2.804   1.333  1.5305 -0.5658 -1.0159
 4832SOL    HW225956   3.664   2.949   1.320 -2.3864 -0.9351 -0.0384
 4833SOL     OW25957   0.646   4.268   4.929  0.8314  0.4402  0.0618
 4833SOL    HW125958   0.650   4.277   5.025  0.3709  1.0308  0.0283
 4833SOL    HW225959   0.551   4.260   4.923  0.8950 -0.5689  0.3848
 4834SOL     OW25960   3.638   1.694   5.929 -0.0723 -0.5207 -0.2749
 4834SOL    HW125961   3.570   1.737   5.981  2.0401  1.1981  1.0980
 4834SOL    HW225962   3.634   1.747   5.850  4.2070 -1.4403 -1.1493
 4835SOL     OW25963   1.267   2.759   7.177 -0.2637  0.5995 -0.4791
 4835SOL    HW125964   1.223   2.844   7.184 -0.1968  0.5752  0.2451
 4835SOL    HW225965   1.203   2.694   7.206 -0.7709  0.9192 -0.8844
 4836SOL     OW25966   3.941   1.428  11.178  0.1420 -0.0286 -0.7097
 4836SOL    HW125967   3.998   1.499  11.148  0.7231  0.5812  1.8373
 4836SOL    HW225968   3.900   1.391  11.100  1.4143 -0.2367 -1.2812
 4837SOL     OW25969   3.618   0.352  14.218  0.1368 -0.3086 -0.0558
 4837SOL    HW125970   3.541   0.310  14.257 -0.3163  0.1326 -0.4794
 4837SOL    HW225971   3.692   0.307  14.259  0.1738  0.1374  0.3627
 4838SOL     OW25972   2.947   0.395  13.284 -0.2723 -0.4505  0.6377
 4838SOL    HW125973   2.870   0.446  13.309  0.3748  0.8759 -0.0496
 4838SOL    HW225974   2.931   0.367  13.194  1.6539  2.6094 -0.6575
 4839SOL     OW25975   3.345   0.973  13.357 -0.4783  0.0518  0.2199
 4839SOL    HW125976   3.319   1.022  13.435  1.7193  2.6938 -0.6899
 4839SOL    HW225977   3.256   0.960  13.325  0.0042 -2.3362 -0.1414
 4840SOL     OW25978   4.642   2.844  17.317  0.2227 -0.2004 -0.2461
 4840SOL    HW125979   4.595   2.772  17.276  2.9719 -1.7493 -0.6921
 4840SOL    HW225980   4.642   2.811  17.407 -0.9143  0.8821  0.1555
 4841SOL     OW25981   1.667   2.147   3.549  0.0097  0.1471 -0.6218
 4841SOL    HW125982   1.719   2.195   3.614 -0.7642 -1.5013  1.2374
 4841SOL    HW225983   1.582   2.186   3.570  0.0800  0.3344 -0.6882
 4842SOL     OW25984   3.669   0.051   9.922 -0.4271 -0.1668  0.3492
 4842SOL    HW125985   3.653   4.691   9.874 -0.1430  0.9296 -1.6318
 4842SOL    HW225986   3.584   0.096   9.921  0.0515  0.7481  1.3248
 4843SOL     OW25987   4.191   1.260   1.030 -0.0982 -0.1565  0.1272
 4843SOL    HW125988   4.204   1.165   1.021 -1.4641 -0.2893 -0.5187
 4843SOL    HW225989   4.183   1.289   0.939  2.4890  0.9439  0.2508
 4844SOL     OW25990   1.933   0.763  14.999 -0.0808 -0.3743 -0.5170
 4844SOL    HW125991   1.935   0.847  15.043 -0.7780 -0.1604 -0.8985
 4844SOL    HW225992   1.873   0.726  15.064  0.4844  0.8758  0.7089
 4845SOL     OW25993   0.651   0.438  14.795 -0.2128  0.2692 -0.2880
 4845SOL    HW125994   0.727   0.425  14.739 -0.5890  0.7571 -0.9034
 4845SOL    HW225995   0.579   0.384  14.763 -0.2825 -0.7231  1.4990
 4846SOL     OW25996   0.191   4.596   4.586  0.3101 -0.3589 -0.7971
 4846SOL    HW125997   0.205   4.578   4.679 -2.2354 -0.2913 -0.3906
 4846SOL    HW225998   0.114   4.541   4.570  0.1347 -0.3289 -0.0912
 4847SOL     OW25999   2.677   3.409   0.911 -0.4070  0.2332 -0.0938
 4847SOL    HW126000   2.667   3.341   0.844  0.9283  2.1777 -2.2860
 4847SOL    HW226001   2.599   3.461   0.891  0.5092  1.2639 -1.0268
 4848SOL     OW26002   2.051   1.594  12.994  0.0704 -0.0917 -0.2414
 4848SOL    HW126003   2.046   1.503  12.967 -2.8016  0.5325 -1.8154
 4848SOL    HW226004   2.132   1.599  13.046  0.7333 -3.1429 -0.9831
 4849SOL     OW26005   2.245   0.591   0.421 -0.9122 -0.2033  0.0325
 4849SOL    HW126006   2.173   0.617   0.363 -1.3711 -0.3547  0.5296
 4849SOL    HW226007   2.209   0.514   0.464 -1.1029 -0.4211 -0.5173
 4850SOL     OW26008   3.638   0.750  16.168 -0.1657  0.0314 -0.0129
 4850SOL    HW126009   3.712   0.757  16.108 -0.2091 -0.1340 -0.0848
 4850SOL    HW226010   3.685   0.775  16.248  1.2442 -4.5408  0.6162
 4851SOL     OW26011   1.878   3.116   7.488  0.5601  0.1318  0.6338
 4851SOL    HW126012   1.934   3.047   7.453 -0.0131 -1.2300  2.3845
 4851SOL    HW226013   1.805   3.075   7.534  1.6223 -1.1856  1.1449
 4852SOL     OW26014   3.820   0.779   8.728 -0.4508  1.0311  0.6007
 4852SOL    HW126015   3.756   0.810   8.664 -1.1305  0.9426  1.2335
 4852SOL    HW226016   3.894   0.832   8.698  0.9855 -0.4264  1.5623
 4853SOL     OW26017   0.843   1.339  13.693 -0.0283  0.1803  0.0517
 4853SOL    HW126018   0.824   1.404  13.761  1.2944  0.4917  0.1406
 4853SOL    HW226019   0.825   1.392  13.615  0.3764  0.6180  0.2503
 4854SOL     OW26020   0.415   2.941  15.026  0.2121 -0.2243  0.1658
 4854SOL    HW126021   0.508   2.963  15.031  0.0660  0.1653  1.1804
 4854SOL    HW226022   0.393   2.961  15.117 -0.3957  0.0704 -0.0463
 4855SOL     OW26023   2.334   4.301   8.980  0.0373 -0.2258  0.0918
 4855SOL    HW126024   2.313   4.212   9.008 -2.3486  0.2471 -0.1645
 4855SOL    HW226025   2.429   4.296   8.986 -0.0821 -0.4418  1.8086
 4856SOL     OW26026   2.574   1.659   8.201 -0.0803  0.6511  0.0457
 4856SOL    HW126027   2.644   1.698   8.148  0.4780 -1.3198 -0.6593
 4856SOL    HW226028   2.530   1.743   8.214  0.1704  1.2277 -2.8783
 4857SOL     OW26029   2.259   4.302   6.915 -0.4301 -0.0396 -0.4202
 4857SOL    HW126030   2.340   4.322   6.961 -0.4420  1.8537 -1.2150
 4857SOL    HW226031   2.296   4.232   6.861  2.5572  0.4490  1.0253
 4858SOL     OW26032   4.293   4.642   0.510  0.8146 -0.2698  0.3021
 4858SOL    HW126033   4.383   4.674   0.514  0.0588  1.9409 -0.6552
 4858SOL    HW226034   4.256   4.675   0.592  3.6570  0.0831  1.4284
 4859SOL     OW26035   0.046   1.976   2.751 -0.0026  0.3068 -0.3952
 4859SOL    HW126036   0.140   1.993   2.740 -0.2222  1.7709 -0.0969
 4859SOL    HW226037   0.037   1.901   2.809  2.5407  0.6176  0.4266
 4860SOL     OW26038   2.773   3.875   7.319 -0.1535 -0.3217 -0.0241
 4860SOL    HW126039   2.843   3.881   7.383  1.8603 -0.7906 -2.1942
 4860SOL    HW226040   2.699   3.875   7.381 -0.5598  1.0370 -0.4997
 4861SOL     OW26041   0.558   2.870   7.417  0.6309 -0.1880  0.2956
 4861SOL    HW126042   0.496   2.915   7.474 -0.4386  0.5408 -1.4620
 4861SOL    HW226043   0.503   2.793   7.400 -1.4957  1.3172  0.4085
 4862SOL     OW26044   2.055   0.488   7.951 -0.3512 -0.3398  0.0351
 4862SOL    HW126045   2.098   0.572   7.942 -1.3556  0.0250 -1.3047
 4862SOL    HW226046   1.977   0.505   8.005  0.6852  0.6919  1.1918
 4863SOL     OW26047   4.288   2.069   9.337  0.7977 -0.2935 -0.2174
 4863SOL    HW126048   4.282   2.000   9.272  0.0331 -0.4573  0.0323
 4863SOL    HW226049   4.208   2.056   9.387 -0.2613  0.6580 -1.6576
 4864SOL     OW26050   0.920   2.484   7.630 -0.2549 -0.2107 -0.1522
 4864SOL    HW126051   0.977   2.469   7.705 -0.9177 -0.6382  0.2583
 4864SOL    HW226052   0.931   2.402   7.582 -0.3567 -0.5181  0.3553
 4865SOL     OW26053   4.664   2.520   9.354  0.3398  0.2808  0.1668
 4865SOL    HW126054   4.589   2.533   9.295  0.2071  0.9006  0.4706
 4865SOL    HW226055   4.654   2.601   9.405 -0.9797  0.1643  0.0839
 4866SOL     OW26056   2.486   1.991   5.618 -0.3876 -0.9032 -0.5460
 4866SOL    HW126057   2.410   2.038   5.653  0.4972  1.8095 -2.2875
 4866SOL    HW226058   2.562   2.022   5.668 -1.5502  0.6964  0.2227
 4867SOL     OW26059   2.267   1.686   7.849  0.1973  0.6275  0.0060
 4867SOL    HW126060   2.247   1.716   7.937  0.7263  0.3320  0.2261
 4867SOL    HW226061   2.274   1.771   7.807  2.5131 -0.4657 -1.8207
 4868SOL     OW26062   0.059   1.078   2.291  0.1363 -0.6726 -0.6537
 4868SOL    HW126063   0.119   1.141   2.251 -0.5933 -0.0823 -0.8276
 4868SOL    HW226064   0.007   1.133   2.349  2.6689  0.7042  0.2909
 4869SOL     OW26065   0.799   0.547   3.186 -0.3211 -0.2462 -0.4524
 4869SOL    HW126066   0.824   0.639   3.181  3.5103 -1.3671 -2.1429
 4869SOL    HW226067   0.708   0.558   3.212 -0.3008 -2.8250  0.6717
 4870SOL     OW26068   1.736   2.116   6.743 -0.2368 -0.3841  0.2946
 4870SOL    HW126069   1.662   2.098   6.802  0.3232  2.1872  1.7954
 4870SOL    HW226070   1.711   2.204   6.713  1.6354 -0.1666 -0.6180
 4871SOL     OW26071   1.560   2.784   3.573 -0.3517 -0.5418 -0.3264
 4871SOL    HW126072   1.581   2.703   3.620  1.0637 -1.1310 -1.9371
 4871SOL    HW226073   1.552   2.845   3.646 -3.3168 -1.9448  0.5317
 4872SOL     OW26074   3.060   2.658   5.461  0.1060 -0.0828  0.4113
 4872SOL    HW126075   3.073   2.733   5.403 -2.2105  0.4578  0.6113
 4872SOL    HW226076   3.142   2.657   5.510 -0.7823  1.4685  1.9208
 4873SOL     OW26077   4.055   0.190   6.961 -0.1959  0.7524  0.0389
 4873SOL    HW126078   3.993   0.255   6.929 -1.1983 -0.5031 -0.5337
 4873SOL    HW226079   4.086   0.232   7.042  0.3105  0.9157 -0.2396
 4874SOL     OW26080   4.712   1.610   6.884 -0.1352 -0.1956 -0.1869
 4874SOL    HW126081   4.621   1.634   6.899 -0.4794 -2.2516  1.0555
 4874SOL    HW226082   0.020   1.585   6.972 -0.9492 -0.2566  0.0668
 4875SOL     OW26083   0.305   2.336   5.946  0.5465 -0.0953  0.0910
 4875SOL    HW126084   0.242   2.292   5.889  0.4778 -1.3132  1.1025
 4875SOL    HW226085   0.349   2.369   5.868 -0.3935 -2.1985 -1.3406
 4876SOL     OW26086   2.652   1.743   1.980 -0.4443  0.2678 -0.4869
 4876SOL    HW126087   2.681   1.720   1.892 -0.1911  0.5765 -0.4866
 4876SOL    HW226088   2.694   1.828   1.996  0.0494 -0.0765  0.0499
 4877SOL     OW26089   0.205   3.198   8.367  0.4442  0.3694 -0.1144
 4877SOL    HW126090   0.145   3.135   8.406  0.7310  0.5676  0.6514
 4877SOL    HW226091   0.223   3.247   8.447  0.6094  1.3755 -0.7719
 4878SOL     OW26092   0.091   2.417   4.159 -0.3494 -0.3241 -0.0790
 4878SOL    HW126093   0.058   2.346   4.215  0.8935 -2.1135 -1.6283
 4878SOL    HW226094   0.150   2.458   4.222 -1.0862 -1.6624  1.5184
 4879SOL     OW26095   0.447   1.994   0.511  0.3664  0.0887  0.2083
 4879SOL    HW126096   0.458   1.967   0.602  0.0278  1.5117  0.6665
 4879SOL    HW226097   0.537   1.996   0.479 -0.3998  3.4538 -1.7683
 4880SOL     OW26098   0.306   1.784   1.024  0.0071  0.1756 -0.0500
 4880SOL    HW126099   0.383   1.830   0.990  0.2822  0.3582  0.8062
 4880SOL    HW226100   0.347   1.700   1.047 -0.1536  0.0578 -0.1998
 4881SOL     OW26101   0.483   1.043   7.674  0.8393 -0.3244 -0.1168
 4881SOL    HW126102   0.444   1.130   7.677 -1.3985 -1.2949 -1.3756
 4881SOL    HW226103   0.465   1.029   7.581  2.6079  2.1906 -0.8326
 4882SOL     OW26104   4.412   2.271   5.882  0.4783 -0.1314 -0.2927
 4882SOL    HW126105   4.440   2.189   5.923 -1.6862 -0.2833  0.8338
 4882SOL    HW226106   4.320   2.247   5.876  0.3661 -0.0358  1.1017
 4883SOL     OW26107   2.311   2.366  11.160  0.0903  0.1662  0.1836
 4883SOL    HW126108   2.231   2.337  11.118 -0.6684  2.0506  0.3535
 4883SOL    HW226109   2.378   2.306  11.126  0.8047  1.1980 -0.2619
 4884SOL     OW26110   0.605   3.397   0.071  0.2042  0.0834 -0.1621
 4884SOL    HW126111   0.606   3.310   0.110  1.7589  0.3746  0.4604
 4884SOL    HW226112   0.549   3.440   0.136  0.0161 -0.5048  0.0681
 4885SOL     OW26113   2.431   2.686   5.937 -0.4444  0.7081  0.1445
 4885SOL    HW126114   2.519   2.697   5.901 -0.3170  0.3425  0.3442
 4885SOL    HW226115   2.438   2.698   6.032  0.1217  1.1655  0.0484
 4886SOL     OW26116   4.302   3.809   7.329  0.1228 -0.4681  0.4823
 4886SOL    HW126117   4.302   3.904   7.342 -0.3283 -0.0763 -2.3310
 4886SOL    HW226118   4.289   3.804   7.234  1.6584  3.3280  0.0561
 4887SOL     OW26119   3.320   2.369   0.145 -0.0381 -0.1637 -0.0616
 4887SOL    HW126120   3.248   2.370   0.209  0.3758  2.6764  0.3438
 4887SOL    HW226121   3.300   2.448   0.095 -0.1174 -0.4513 -0.4817
 4888SOL     OW26122   0.122   2.899   2.010 -0.0005  0.1738 -0.1038
 4888SOL    HW126123   0.205   2.857   2.033 -0.6867 -0.7655  0.6193
 4888SOL    HW226124   0.062   2.845   2.061 -1.0951  0.7675 -0.7697
 4889SOL     OW26125   1.042   1.542   3.654 -0.0355 -0.9694 -0.4776
 4889SOL    HW126126   1.123   1.537   3.603  0.1753  0.3238 -0.2754
 4889SOL    HW226127   1.071   1.620   3.701  0.9943 -2.0977  0.7728
 4890SOL     OW26128   4.158   2.677   1.843  0.5999 -0.1986  0.1053
 4890SOL    HW126129   4.081   2.716   1.801 -1.7887 -2.1503  2.5988
 4890SOL    HW226130   4.215   2.666   1.767  1.9560  0.0075  1.0958
 4891SOL     OW26131   3.324   2.225   2.677 -0.7683 -0.7414 -0.0249
 4891SOL    HW126132   3.267   2.208   2.602 -1.1037  2.7671 -0.5515
 4891SOL    HW226133   3.338   2.318   2.661 -1.3803 -0.9457 -1.7912
 4892SOL     OW26134   1.143   3.933   2.456 -0.1924  0.0624  0.1216
 4892SOL    HW126135   1.233   3.961   2.471 -0.6528  0.3509  2.3505
 4892SOL    HW226136   1.097   3.971   2.531  1.6493  2.9488 -0.2047
 4893SOL     OW26137   2.542   3.082   4.099  0.1650  0.6078 -0.2782
 4893SOL    HW126138   2.464   3.138   4.098 -0.4446 -0.2136  1.2374
 4893SOL    HW226139   2.540   3.046   4.010 -1.9281  0.8636 -0.3421
 4894SOL     OW26140   3.407   4.628   9.053 -0.5153  0.7688 -0.1652
 4894SOL    HW126141   3.490   4.672   9.034 -1.6642  3.2531  0.5746
 4894SOL    HW226142   3.416   4.553   8.995 -1.6656  2.1320 -2.1076
 4895SOL     OW26143   0.627   4.632  17.145 -0.6227 -0.2665 -0.3652
 4895SOL    HW126144   0.629   4.718  17.101 -0.0561 -0.5644 -0.9175
 4895SOL    HW226145   0.713   4.604  17.115 -1.2222 -0.8569 -1.5101
 4896SOL     OW26146   2.692   2.778   5.471  0.3283  0.4597  0.2520
 4896SOL    HW126147   2.736   2.832   5.537 -0.3384  2.4592 -0.9180
 4896SOL    HW226148   2.608   2.820   5.449  0.0358  0.6019  1.6338
 4897SOL     OW26149   4.683   3.488   6.502  0.2640  0.4234 -0.0464
 4897SOL    HW126150   0.018   3.529   6.568  0.3110 -0.3250  0.3761
 4897SOL    HW226151   4.678   3.399   6.537 -1.6780  0.3633 -0.4715
 4898SOL     OW26152   1.701   1.383   7.219 -0.1713 -0.2691 -0.1893
 4898SOL    HW126153   1.704   1.288   7.229 -0.0477 -0.2027  0.3954
 4898SOL    HW226154   1.640   1.402   7.290 -0.5248  0.3572 -0.6527
 4899SOL     OW26155   1.832   2.319   4.809  0.0639  0.7736 -0.2194
 4899SOL    HW126156   1.781   2.261   4.752  0.0518 -0.9473  1.5758
 4899SOL    HW226157   1.839   2.395   4.750  0.8596  2.1581  1.6449
 4900SOL     OW26158   4.266   3.406  12.604 -0.3253  0.3773 -0.0097
 4900SOL    HW126159   4.253   3.311  12.606  0.3159  0.3065  0.8761
 4900SOL    HW226160   4.235   3.438  12.689 -1.2303  1.7510 -0.8781
 4901SOL     OW26161   1.325   0.725  11.806  0.1397  0.3408  1.3187
 4901SOL    HW126162   1.282   0.641  11.821 -0.5332  0.2944 -0.8006
 4901SOL    HW226163   1.344   0.749  11.896 -2.2218 -0.9825  2.1583
 4902SOL     OW26164   1.411   4.629   2.067  0.0677 -0.7853  0.2502
 4902SOL    HW126165   1.415   4.684   1.989  0.1856  0.2105  0.9588
 4902SOL    HW226166   1.337   4.582   2.027 -1.1395  0.5576  0.9127
 4903SOL     OW26167   0.640   0.776   7.875  0.0162 -0.2582  0.4430
 4903SOL    HW126168   0.554   0.753   7.840 -0.4795 -0.3108  1.7028
 4903SOL    HW226169   0.684   0.692   7.860  1.7152  0.7505 -0.1548
 4904SOL     OW26170   3.328   1.961   2.679 -0.1804  0.2152 -0.4246
 4904SOL    HW126171   3.320   2.055   2.695 -0.0510 -0.1702  1.8956
 4904SOL    HW226172   3.423   1.949   2.685 -0.3442 -0.4419  0.8958
 4905SOL     OW26173   4.285   2.033  16.957  0.1687  0.1350 -0.1826
 4905SOL    HW126174   4.307   1.967  16.891 -1.6396 -0.8171  0.1634
 4905SOL    HW226175   4.189   2.034  16.955  0.1596 -2.2143 -0.5301
 4906SOL     OW26176   3.301   0.398  14.096  0.1603 -0.1797  0.2466
 4906SOL    HW126177   3.338   0.370  14.179  1.6494 -0.7544 -0.6114
 4906SOL    HW226178   3.224   0.346  14.070 -0.2980  1.2463 -1.2163
 4907SOL     OW26179   2.295   0.958   5.814 -0.1757 -0.9521 -0.4739
 4907SOL    HW126180   2.249   0.956   5.898  0.1851  0.8103 -0.2377
 4907SOL    HW226181   2.354   0.884   5.831 -1.2289 -1.6744  0.0280
 4908SOL     OW26182   0.141   2.329   9.204 -0.1378 -0.3714 -0.1639
 4908SOL    HW126183   0.104   2.392   9.266  1.2625  1.4938 -1.2240
 4908SOL    HW226184   0.224   2.374   9.187 -0.7340  1.2497  1.2414
 4909SOL     OW26185   3.274   3.329   8.443 -0.3856  0.7130  0.3481
 4909SOL    HW126186   3.268   3.383   8.521 -2.8351 -0.7039  1.1211
 4909SOL    HW226187   3.280   3.398   8.377 -1.4114  1.1438  0.7112
 4910SOL     OW26188   1.503   2.938  17.358 -0.2851 -0.2018 -0.3002
 4910SOL    HW126189   1.512   3.024  17.317  0.3905 -0.7677 -1.3361
 4910SOL    HW226190   1.537   2.949  17.446  1.7271 -0.5439 -1.0432
 4911SOL     OW26191   0.338   1.431  15.642  0.3586  0.1089 -0.0574
 4911SOL    HW126192   0.388   1.423  15.724 -0.0462 -2.0359 -0.0170
 4911SOL    HW226193   0.332   1.525  15.663 -0.3756  0.2907 -1.0848
 4912SOL     OW26194   2.999   4.073   9.179 -0.3392  0.4442 -1.0404
 4912SOL    HW126195   3.054   4.041   9.250  1.0620  2.1276 -1.3610
 4912SOL    HW226196   3.031   4.023   9.103 -1.0312 -0.3623 -0.8014
 4913SOL     OW26197   0.162   0.064   2.255 -0.3167  0.1922 -0.8749
 4913SOL    HW126198   0.128   0.002   2.191 -2.8372  0.6699 -0.0089
 4913SOL    HW226199   0.242   0.092   2.211  0.8101 -1.5496  0.0738
 4914SOL     OW26200   0.879   0.489  15.494  0.0887  0.7663  0.0738
 4914SOL    HW126201   0.802   0.440  15.525  1.5620 -1.4187  0.2210
 4914SOL    HW226202   0.845   0.577  15.479 -0.3530  0.3952 -1.1613
 4915SOL     OW26203   2.301   0.420   7.302  0.0164 -0.2491 -0.7180
 4915SOL    HW126204   2.358   0.352   7.264 -0.8515 -0.2138 -2.0824
 4915SOL    HW226205   2.357   0.449   7.374  2.2735 -2.2783 -1.6138
 4916SOL     OW26206   0.467   1.080  10.863  0.4320 -0.0131  0.0112
 4916SOL    HW126207   0.527   1.086  10.937  0.7871  3.1675 -0.5390
 4916SOL    HW226208   0.395   1.025  10.895 -2.2057  3.5090  0.1092
 4917SOL     OW26209   0.548   4.410   8.558 -0.4721 -0.0804 -0.4485
 4917SOL    HW126210   0.510   4.322   8.549 -0.0005 -0.3107 -0.1741
 4917SOL    HW226211   0.639   4.382   8.556 -1.1419 -2.1265 -2.8038
 4918SOL     OW26212   4.321   1.186  15.436 -0.2941 -0.3059 -0.1973
 4918SOL    HW126213   4.300   1.104  15.481  1.9385 -1.0757 -0.5327
 4918SOL    HW226214   4.346   1.242  15.509  0.0553  1.1374 -1.4308
 4919SOL     OW26215   0.160   0.508  13.001 -0.3282  0.0314 -0.2893
 4919SOL    HW126216   0.141   0.585  13.055 -1.2435 -0.6894  0.4145
 4919SOL    HW226217   0.255   0.500  13.005 -0.6055 -2.5570  1.2809
 4920SOL     OW26218   4.102   3.975  16.459  0.1220  0.1401 -0.0540
 4920SOL    HW126219   4.019   4.023  16.463  0.5341  0.8567 -0.0408
 4920SOL    HW226220   4.123   3.966  16.552 -0.0358  0.4408  0.0123
 4921SOL     OW26221   4.690   1.853   3.526 -0.3485 -0.1687  0.4258
 4921SOL    HW126222   4.687   1.846   3.622 -1.7683  1.9707  0.5313
 4921SOL    HW226223   4.704   1.944   3.503  2.6911 -0.7109  0.1430
 4922SOL     OW26224   0.852   4.550  15.656  0.1486 -0.8618  0.4532
 4922SOL    HW126225   0.806   4.604  15.720 -1.0693  0.3970 -1.4573
 4922SOL    HW226226   0.774   4.523  15.607  0.7792 -0.3662 -0.8381
 4923SOL     OW26227   0.380   4.504  12.738 -0.0500  0.0460  0.0900
 4923SOL    HW126228   0.346   4.463  12.817 -0.1522 -0.3920 -0.1790
 4923SOL    HW226229   0.471   4.474  12.739  0.4143  1.4948  1.1894
 4924SOL     OW26230   2.489   3.352   9.006 -0.3598 -0.2916  0.3477
 4924SOL    HW126231   2.492   3.378   8.913  2.9661  0.2691  0.6036
 4924SOL    HW226232   2.517   3.260   9.010 -0.6153 -0.3866  0.0239
 4925SOL     OW26233   3.777   4.421  12.872  0.0107 -0.2428 -0.3228
 4925SOL    HW126234   3.828   4.432  12.953 -1.5875  0.9684  0.5244
 4925SOL    HW226235   3.805   4.335  12.841  1.8587 -0.3850  1.7232
 4926SOL     OW26236   2.974   1.280   4.646 -0.2377 -0.3490  0.1860
 4926SOL    HW126237   3.000   1.355   4.593  0.6734  0.4787  1.8020
 4926SOL    HW226238   2.933   1.327   4.719 -0.8515 -2.5113  1.2338
 4927SOL     OW26239   3.347   2.639   2.355  0.1648  0.2271 -0.2024
 4927SOL    HW126240   3.403   2.585   2.410 -0.9883 -0.2382  0.5125
 4927SOL    HW226241   3.385   2.727   2.364 -0.8205  0.5733  0.5410
 4928SOL     OW26242   0.084   4.594   2.749  0.1646  0.2444 -0.3740
 4928SOL    HW126243   0.090   4.555   2.662  0.4334  0.0679 -0.2782
 4928SOL    HW226244   0.006   4.647   2.734  0.0747 -0.0840 -1.0518
 4929SOL     OW26245   2.600   2.379   5.723  0.5603 -0.3405  0.3004
 4929SOL    HW126246   2.686   2.339   5.735  1.4517  1.2635 -0.8118
 4929SOL    HW226247   2.631   2.466   5.748 -2.0069  0.6748 -0.0480
 4930SOL     OW26248   2.049   3.369   8.055 -0.4953 -0.7526 -0.0366
 4930SOL    HW126249   2.123   3.417   8.018  0.3381 -0.9097  1.4027
 4930SOL    HW226250   2.095   3.312   8.117  0.5521 -0.1922 -0.3001
 4931SOL     OW26251   4.183   3.541   8.000 -0.5519 -0.4500 -0.4251
 4931SOL    HW126252   4.137   3.485   7.938 -1.7295 -0.4571  0.4439
 4931SOL    HW226253   4.255   3.484   8.028  0.2626  1.8955  2.3223
 4932SOL     OW26254   1.056   3.734  11.784  0.5849 -0.2548  0.1397
 4932SOL    HW126255   1.060   3.741  11.689 -2.1573  1.6019  0.1766
 4932SOL    HW226256   1.029   3.823  11.803  0.1046  0.4200 -3.6909
 4933SOL     OW26257   1.912   2.822  11.226  0.7109  0.6985  0.6028
 4933SOL    HW126258   1.895   2.729  11.234 -1.4348  0.9983 -0.3197
 4933SOL    HW226259   1.870   2.852  11.306  0.0030 -0.2925  0.5980
 4934SOL     OW26260   2.133   4.556   8.879  0.4257 -0.1058  0.1378
 4934SOL    HW126261   2.160   4.548   8.970  0.0950  3.8024  0.5571
 4934SOL    HW226262   2.085   4.476   8.857 -1.0686 -0.2983  4.2423
 4935SOL     OW26263   2.551   2.498   3.127 -0.4659  0.1268  0.7374
 4935SOL    HW126264   2.641   2.470   3.112 -0.6557  0.7973 -1.6826
 4935SOL    HW226265   2.519   2.415   3.160  0.6690 -1.0770 -1.1686
 4936SOL     OW26266   1.053   1.709   8.108 -0.3896 -0.2570  0.3953
 4936SOL    HW126267   1.124   1.682   8.166 -1.4001  1.5827  2.4862
 4936SOL    HW226268   1.023   1.621   8.087  0.2817 -0.5396  0.6311
 4937SOL     OW26269   1.000   1.100   7.457 -0.1693  0.2569 -0.3494
 4937SOL    HW126270   0.912   1.065   7.469  0.1198 -0.3357  0.1061
 4937SOL    HW226271   0.982   1.189   7.429 -0.7288  0.6981  1.4288
 4938SOL     OW26272   0.066   1.569   1.835  0.3100 -0.1263  0.9708
 4938SOL    HW126273   0.039   1.547   1.924  2.0191  0.1078  1.5506
 4938SOL    HW226274   0.031   1.492   1.790  0.5363  1.4825 -1.9610
 4939SOL     OW26275   3.045   3.337   5.874  0.5439  0.4978 -0.2826
 4939SOL    HW126276   3.131   3.365   5.845 -0.1015  1.4770 -1.2323
 4939SOL    HW226277   2.997   3.310   5.796  0.0660  1.6549 -0.3840
 4940SOL     OW26278   0.720   0.985  10.721  0.4831 -0.4217 -0.3899
 4940SOL    HW126279   0.658   1.035  10.774 -0.5880 -2.5230  0.3169
 4940SOL    HW226280   0.667   0.913  10.686 -0.9012  1.1958 -1.6522
 4941SOL     OW26281   3.245   4.152   6.167 -0.1792  0.1996 -0.2050
 4941SOL    HW126282   3.191   4.136   6.090  1.5278 -0.5151 -1.2518
 4941SOL    HW226283   3.333   4.126   6.140 -0.8585  1.1054 -3.3501
 4942SOL     OW26284   2.689   2.580   8.574  0.1470  0.3063  0.1694
 4942SOL    HW126285   2.645   2.637   8.637 -0.6206  0.1278 -0.1979
 4942SOL    HW226286   2.755   2.638   8.537  0.2932  1.1225  1.6941
 4943SOL     OW26287   1.334   2.070   4.904 -0.2187 -0.3348  0.3874
 4943SOL    HW126288   1.322   2.156   4.945  0.0384 -0.3474  0.4843
 4943SOL    HW226289   1.425   2.048   4.922  0.1834 -0.6598 -2.0032
 4944SOL     OW26290   3.372   4.174   6.755 -0.4750 -0.1673  0.2541
 4944SOL    HW126291   3.366   4.134   6.668  0.0945  2.1574 -0.8562
 4944SOL    HW226292   3.305   4.143   6.816 -0.6602 -0.5974 -0.1745
 4945SOL     OW26293   2.284   1.767   5.007  0.1036 -0.0071  0.2359
 4945SOL    HW126294   2.192   1.746   4.994  0.3103 -0.2597 -0.8269
 4945SOL    HW226295   2.288   1.846   4.954 -0.5634 -0.8459 -1.0642
 4946SOL     OW26296   3.508   4.392   8.874 -0.0574  0.2671  0.2369
 4946SOL    HW126297   3.543   4.365   8.789 -1.2335 -0.7171  0.0629
 4946SOL    HW226298   3.415   4.402   8.853 -0.1365  0.7839  0.8133
 4947SOL     OW26299   3.977   1.076   1.624 -0.4652  0.3220  1.2125
 4947SOL    HW126300   3.998   1.105   1.535  0.2213 -2.2656  0.5038
 4947SOL    HW226301   4.029   0.998   1.647 -1.7437 -1.0576 -0.5354
 4948SOL     OW26302   0.298   2.110  16.880  0.8124 -0.3993 -0.4787
 4948SOL    HW126303   0.280   2.180  16.818 -3.2248 -1.0158  0.0342
 4948SOL    HW226304   0.382   2.073  16.853  0.9048  1.2438 -2.3533
 4949SOL     OW26305   0.824   4.665  13.954  0.2619  1.0301  0.3890
 4949SOL    HW126306   0.838   4.676  14.048  1.2481 -0.6775  0.4471
 4949SOL    HW226307   0.838   0.034  13.923 -0.9255  1.4566  1.1233
 4950SOL     OW26308   3.231   3.755   4.471 -0.1034 -0.2472  0.4390
 4950SOL    HW126309   3.324   3.729   4.474  0.3719  1.5310  0.8757
 4950SOL    HW226310   3.196   3.667   4.453 -0.1083 -0.2519  0.4722
 4951SOL     OW26311   2.655   4.580   6.139 -0.3935 -0.5810  0.3359
 4951SOL    HW126312   2.572   4.561   6.096 -0.3690  0.2526 -0.0904
 4951SOL    HW226313   2.615   4.640   6.202  0.8978 -0.4509  1.0178
 4952SOL     OW26314   3.765   0.797  11.566 -0.5218 -0.1669 -0.3545
 4952SOL    HW126315   3.743   0.888  11.585 -1.2275 -0.7935  1.7570
 4952SOL    HW226316   3.695   0.770  11.506 -0.0920  1.1127 -1.4419
 4953SOL     OW26317   3.865   0.440   3.149  0.3435  0.7574  0.6065
 4953SOL    HW126318   3.921   0.438   3.072  0.5635 -0.3688  0.8096
 4953SOL    HW226319   3.885   0.530   3.175 -4.1917  2.0528 -0.2779
 4954SOL     OW26320   2.947   1.247   8.010 -0.4536  0.2330  0.0172
 4954SOL    HW126321   2.963   1.315   7.945 -0.5541  2.1540  2.0068
 4954SOL    HW226322   2.874   1.296   8.047  1.5039  1.9013  1.6933
 4955SOL     OW26323   2.189   2.330   4.277  0.4882  0.6444  0.3725
 4955SOL    HW126324   2.181   2.408   4.221 -1.8725  0.8196  0.9442
 4955SOL    HW226325   2.254   2.275   4.235  1.6099  0.2069  2.7055
 4956SOL     OW26326   2.581   4.308  12.064  0.2204 -0.1813  0.4113
 4956SOL    HW126327   2.651   4.284  12.004  0.2461  1.8791 -0.3930
 4956SOL    HW226328   2.538   4.382  12.021  1.1446  0.5690  0.7881
 4957SOL     OW26329   3.569   0.277   1.512 -0.0401 -0.5945 -0.4764
 4957SOL    HW126330   3.598   0.194   1.549  0.5190  0.3973  1.2918
 4957SOL    HW226331   3.476   0.257   1.508 -0.1040 -0.7490  2.4772
 4958SOL     OW26332   0.725   0.406   2.256  0.1386  0.5910  1.2289
 4958SOL    HW126333   0.752   0.340   2.320  1.9628  1.3717  1.2754
 4958SOL    HW226334   0.810   0.451   2.254  1.1930 -1.4870  0.0134
 4959SOL     OW26335   2.214   0.637   7.713  0.7404  0.7714  0.2802
 4959SOL    HW126336   2.186   0.670   7.798  0.2178  2.7823 -0.6851
 4959SOL    HW226337   2.290   0.689   7.690 -0.5001  2.2280 -0.5261
 4960SOL     OW26338   3.873   0.683   0.422 -0.4045  0.2325 -0.0296
 4960SOL    HW126339   3.881   0.623   0.348  1.1133 -0.9448  1.0730
 4960SOL    HW226340   3.916   0.628   0.488 -1.3647 -0.0672  0.3348
 4961SOL     OW26341   1.958   1.711   9.867 -0.0704 -0.2987  0.5136
 4961SOL    HW126342   1.993   1.800   9.864  0.1489 -0.4648 -1.4987
 4961SOL    HW226343   1.863   1.715   9.875 -0.1787  0.5357 -1.2566
 4962SOL     OW26344   4.712   3.555   0.598  0.4637  0.0266  0.1241
 4962SOL    HW126345   0.080   3.567   0.565  1.1298 -0.2284  1.8357
 4962SOL    HW226346   4.668   3.495   0.537  1.2388 -0.2546 -0.1525
 4963SOL     OW26347   4.496   2.385  14.984 -0.4379  0.0286  0.0818
 4963SOL    HW126348   4.500   2.313  14.922  0.4006  1.4643 -1.5559
 4963SOL    HW226349   4.421   2.361  15.039 -0.9448 -0.4557 -0.8312
 4964SOL     OW26350   2.453   2.845   9.379 -0.5700 -0.1617 -0.6555
 4964SOL    HW126351   2.445   2.932   9.416 -1.9036  0.0081 -1.3469
 4964SOL    HW226352   2.400   2.794   9.441  0.9533 -1.5901 -0.5164
 4965SOL     OW26353   4.687   2.522  12.188 -0.1975  0.5709 -0.1697
 4965SOL    HW126354   4.645   2.525  12.274  0.3868 -1.2348  0.1782
 4965SOL    HW226355   4.618   2.499  12.126 -0.0617  1.6803 -0.7392
 4966SOL     OW26356   1.685   3.882  17.152  0.1652 -0.4559  0.1299
 4966SOL    HW126357   1.739   3.926  17.217  0.2479  0.2612 -0.4290
 4966SOL    HW226358   1.605   3.860  17.198 -0.0584  2.2899  1.0450
 4967SOL     OW26359   1.935   0.412  10.288  0.6184 -0.1340 -0.0056
 4967SOL    HW126360   1.988   0.377  10.216 -2.1489 -0.3822 -1.9278
 4967SOL    HW226361   1.932   0.333  10.342 -0.3767 -0.4948 -0.5962
 4968SOL     OW26362   0.478   2.413  16.600  0.1588  0.1217 -0.1712
 4968SOL    HW126363   0.524   2.410  16.517  0.2323 -2.0141 -0.0621
 4968SOL    HW226364   0.499   2.333  16.648 -0.6964 -0.1362 -0.2113
 4969SOL     OW26365   1.835   3.001   8.275  0.2728 -0.4432 -0.7149
 4969SOL    HW126366   1.821   3.095   8.291  1.4350 -0.6181  1.2374
 4969SOL    HW226367   1.741   2.982   8.278 -0.0897  0.9542 -2.6689
 4970SOL     OW26368   1.171   0.094  15.403 -0.0738  0.6357  0.6686
 4970SOL    HW126369   1.224   0.173  15.400  1.5566 -0.4924 -0.2627
 4970SOL    HW226370   1.083   0.133  15.401  0.9254  2.7687 -1.2074
 4971SOL     OW26371   2.227   2.743   7.996  0.2589 -0.1181 -0.6185
 4971SOL    HW126372   2.284   2.674   7.962 -0.6973 -0.7431 -0.9542
 4971SOL    HW226373   2.163   2.695   8.049  1.9601 -1.1833  0.4766
 4972SOL     OW26374   0.710   0.023   2.025  0.1876  0.3373 -0.0511
 4972SOL    HW126375   0.660   0.097   2.060 -0.9323 -0.5313  0.1645
 4972SOL    HW226376   0.775   0.068   1.971 -0.8287  0.6268 -1.0476
 4973SOL     OW26377   2.376   3.457   0.145  0.3898  0.4074  0.5241
 4973SOL    HW126378   2.341   3.391   0.205 -0.9184  0.6073 -0.0190
 4973SOL    HW226379   2.438   3.404   0.095  1.6860  1.3645  1.1296
 4974SOL     OW26380   0.667   3.661   4.661 -0.2945 -0.4597 -0.0037
 4974SOL    HW126381   0.626   3.747   4.667 -2.0414 -1.2687 -0.4350
 4974SOL    HW226382   0.696   3.654   4.570  0.1027 -1.3299  0.1866
 4975SOL     OW26383   1.429   3.224   1.954 -0.8252 -0.2137  0.2193
 4975SOL    HW126384   1.444   3.199   2.045 -4.8205  1.0505  1.2191
 4975SOL    HW226385   1.339   3.196   1.941 -0.7510 -0.1562 -0.4400
 4976SOL     OW26386   1.141   1.444   4.469 -0.1367 -0.5113  0.2569
 4976SOL    HW126387   1.151   1.414   4.560 -1.0041  0.5231  0.6963
 4976SOL    HW226388   1.061   1.496   4.477 -0.5459 -0.5586 -3.7603
 4977SOL     OW26389   1.009   4.194  15.381 -0.3457  0.7376 -0.4435
 4977SOL    HW126390   1.036   4.120  15.436 -2.4930 -0.7015 -1.3612
 4977SOL    HW226391   1.017   4.159  15.293 -0.7587 -0.7983  0.1392
 4978SOL     OW26392   1.410   3.930   4.117 -0.0764  0.9197  0.3921
 4978SOL    HW126393   1.434   3.839   4.134  1.5936  1.1014 -1.0324
 4978SOL    HW226394   1.397   3.926   4.022  0.3858  0.6736  0.3430
 4979SOL     OW26395   3.632   0.757  12.819  0.4666 -0.6171  0.2396
 4979SOL    HW126396   3.654   0.807  12.898  1.5192  0.2353 -0.5925
 4979SOL    HW226397   3.554   0.715  12.855  0.4416 -0.0172  0.8797
 4980SOL     OW26398   0.952   0.542   5.911 -0.2014 -0.5593  0.1296
 4980SOL    HW126399   0.872   0.505   5.873 -1.7372  0.0327  2.7747
 4980SOL    HW226400   0.923   0.633   5.922 -1.8555 -0.9225 -1.1718
 4981SOL     OW26401   4.651   3.640   4.716  0.0688  0.2258 -0.4869
 4981SOL    HW126402   4.569   3.688   4.705  0.5135  0.5539 -2.3772
 4981SOL    HW226403   4.714   3.706   4.687  0.5369  0.0496  0.1239
 4982SOL     OW26404   3.366   3.498  17.229 -0.1448  0.3151  0.3938
 4982SOL    HW126405   3.284   3.543  17.249 -1.1784 -1.6995  0.6879
 4982SOL    HW226406   3.317   3.418  17.212 -1.2711  1.2781 -0.8338
 4983SOL     OW26407   2.062   3.179  15.366 -0.7747 -0.2721 -0.3942
 4983SOL    HW126408   2.116   3.140  15.297 -0.1774 -2.1720  1.1403
 4983SOL    HW226409   1.981   3.130  15.354 -0.7927 -0.4159  0.3097
 4984SOL     OW26410   0.160   2.678  11.211 -0.3084  0.2338 -0.7007
 4984SOL    HW126411   0.130   2.658  11.300  2.4708  1.1729  0.4347
 4984SOL    HW226412   0.227   2.743  11.231  0.7287  0.0534 -3.6081
 4985SOL     OW26413   4.518   0.803   2.930 -0.9235 -0.4474 -0.0454
 4985SOL    HW126414   4.436   0.797   2.881 -1.9096  2.4575  1.2576
 4985SOL    HW226415   4.512   0.897   2.947 -2.6401 -0.8937  1.7031
 4986SOL     OW26416   2.181   0.362   4.164  0.4856 -0.2882  0.2233
 4986SOL    HW126417   2.181   0.325   4.076 -2.5330 -0.8628  0.4466
 4986SOL    HW226418   2.235   0.438   4.144 -0.1096 -0.2534 -1.2796
 4987SOL     OW26419   2.068   2.564   9.377 -0.0023 -0.2333  0.4813
 4987SOL    HW126420   2.062   2.626   9.450  0.5476 -0.1437  0.4511
 4987SOL    HW226421   2.124   2.612   9.316  0.2122 -1.2490 -0.1092
 4988SOL     OW26422   1.988   2.006   1.936  0.6505  1.0831 -0.5665
 4988SOL    HW126423   2.010   1.913   1.946  2.7511  1.5242 -1.1181
 4988SOL    HW226424   2.033   2.050   2.008 -0.3469 -0.1511  0.8058
 4989SOL     OW26425   1.934   1.838  13.321 -0.2519 -0.5357  0.3319
 4989SOL    HW126426   1.876   1.789  13.262  0.4068 -1.7233  0.6714
 4989SOL    HW226427   1.968   1.907  13.263  0.9888 -1.2188  0.2556
 4990SOL     OW26428   0.590   0.160  16.383  0.8321 -0.2360  0.1192
 4990SOL    HW126429   0.638   0.195  16.308 -0.8745 -0.0637 -0.8837
 4990SOL    HW226430   0.534   0.236  16.398  1.4524  0.3234 -0.3620
 4991SOL     OW26431   4.012   2.024   3.312  0.3658 -0.0392  0.5601
 4991SOL    HW126432   3.967   1.951   3.356 -0.7348  0.4937  0.3069
 4991SOL    HW226433   3.938   2.082   3.297 -0.6687 -0.7082  3.1080
 4992SOL     OW26434   2.888   2.351   7.463 -0.2425  0.0193  0.0448
 4992SOL    HW126435   2.959   2.416   7.459 -1.0395  0.9216  0.7059
 4992SOL    HW226436   2.939   2.270   7.464 -2.2896 -1.2602  1.0336
 4993SOL     OW26437   1.208   0.354   1.792  0.0853 -0.1423 -0.5482
 4993SOL    HW126438   1.169   0.293   1.730 -1.1955 -0.5958  0.6989
 4993SOL    HW226439   1.300   0.329   1.782 -0.5347 -2.9414  0.8358
 4994SOL     OW26440   0.469   3.565   6.765 -0.1139  0.2805 -0.3916
 4994SOL    HW126441   0.440   3.504   6.698 -0.0305  0.6271 -0.7480
 4994SOL    HW226442   0.481   3.638   6.705  3.2317  0.5826  0.6467
 4995SOL     OW26443   4.250   0.501   0.421 -0.0547 -0.3528 -0.5269
 4995SOL    HW126444   4.269   0.589   0.453 -0.4760 -0.1582 -0.8131
 4995SOL    HW226445   4.336   0.468   0.397  0.8283  2.6004 -1.4768
 4996SOL     OW26446   0.039   1.379  16.645  0.1427  0.5510  0.3119
 4996SOL    HW126447   0.040   1.284  16.636 -2.3003  0.6114 -0.6551
 4996SOL    HW226448   0.091   1.397  16.723  0.6670 -0.2229  0.1306
 4997SOL     OW26449   4.013   2.775  11.835  0.6278 -0.1567 -0.4008
 4997SOL    HW126450   3.999   2.813  11.749  0.2002  0.1467 -0.1989
 4997SOL    HW226451   3.928   2.780  11.879  0.1205 -0.0842 -1.3853
 4998SOL     OW26452   0.652   0.097   8.901 -0.8486  0.0781  0.2833
 4998SOL    HW126453   0.583   0.098   8.834 -0.1209  0.3588 -0.4565
 4998SOL    HW226454   0.675   0.190   8.909 -0.6069  0.0844 -0.4834
 4999SOL     OW26455   1.621   1.795  12.333  0.4278  0.2458  0.4009
 4999SOL    HW126456   1.531   1.762  12.325  0.6035  0.2844 -1.6025
 4999SOL    HW226457   1.656   1.728  12.391  0.5643  0.4518  0.5585
 5000SOL     OW26458   3.580   1.761   4.638 -0.4913  0.1078 -0.5845
 5000SOL    HW126459   3.594   1.724   4.725  1.6285  2.0654 -0.0753
 5000SOL    HW226460   3.491   1.730   4.628  0.3430 -1.8497 -1.8958
 5001SOL     OW26461   4.485   0.568   3.463  0.0376  0.1658  0.2288
 5001SOL    HW126462   4.520   0.497   3.517  0.3035  1.4000  1.6628
 5001SOL    HW226463   4.424   0.515   3.412 -4.0475  1.4721  3.6907
 5002SOL     OW26464   1.283   1.292  14.737  0.4054  0.7287  0.0482
 5002SOL    HW126465   1.331   1.325  14.661  0.3906 -1.2419 -0.8224
 5002SOL    HW226466   1.355   1.300  14.800  0.6469 -0.7577 -0.0304
 5003SOL     OW26467   2.528   1.755   4.606 -0.1822 -0.5405 -0.4147
 5003SOL    HW126468   2.574   1.794   4.681  0.7352 -2.5901  0.0862
 5003SOL    HW226469   2.455   1.816   4.602 -1.4584 -1.9969  0.8684
 5004SOL     OW26470   4.498   1.676   7.504  0.1627 -0.2129  0.0786
 5004SOL    HW126471   4.477   1.769   7.496 -1.9003 -0.8207 -1.6685
 5004SOL    HW226472   4.456   1.655   7.588 -0.8719 -1.4214 -0.7418
 5005SOL     OW26473   2.996   4.078   1.845  0.0039  0.3754 -0.2477
 5005SOL    HW126474   3.007   4.025   1.766 -2.6999 -1.2823  0.4859
 5005SOL    HW226475   3.046   4.151   1.808 -0.5884  0.2526 -1.2907
 5006SOL     OW26476   1.903   2.299  10.325  0.1858 -0.2308  0.3410
 5006SOL    HW126477   1.966   2.371  10.318 -0.4466  0.3844  1.0622
 5006SOL    HW226478   1.820   2.334  10.293 -0.5559  0.6753  3.2669
 5007SOL     OW26479   3.170   2.388   6.974  0.4691 -0.0582  0.2380
 5007SOL    HW126480   3.094   2.382   6.915  0.1456 -1.5673  0.8053
 5007SOL    HW226481   3.149   2.327   7.045 -0.5371 -0.5320 -0.4611
 5008SOL     OW26482   4.615   0.132   4.750 -0.4362 -0.1302 -0.0812
 5008SOL    HW126483   4.702   0.093   4.742 -0.5030  0.2661 -2.6398
 5008SOL    HW226484   4.646   0.222   4.760  0.4921 -0.3083 -1.3516
 5009SOL     OW26485   0.433   3.689   5.976 -0.2258 -0.1480  0.0658
 5009SOL    HW126486   0.443   3.620   6.042  1.4673 -0.8465 -0.9036
 5009SOL    HW226487   0.501   3.670   5.911  1.2182  0.0313  1.4976
 5010SOL     OW26488   1.494   4.430   7.892 -0.1080  0.4842  0.2758
 5010SOL    HW126489   1.422   4.386   7.848 -0.7065  0.8175  0.9350
 5010SOL    HW226490   1.568   4.390   7.845 -0.5534 -2.1703  1.8478
 5011SOL     OW26491   3.895   2.700   6.253 -0.3909 -0.2177 -0.2320
 5011SOL    HW126492   3.967   2.761   6.271  0.3128 -0.8572 -0.8702
 5011SOL    HW226493   3.847   2.739   6.181 -0.2285  0.6493  0.1297
 5012SOL     OW26494   4.512   1.890   8.248  0.3970  0.4080 -0.0461
 5012SOL    HW126495   4.487   1.801   8.225 -1.4484  0.8728  0.1848
 5012SOL    HW226496   4.530   1.870   8.340  1.5130 -1.9973 -0.7867
 5013SOL     OW26497   3.551   3.096   7.248 -0.2730  0.5825 -0.2015
 5013SOL    HW126498   3.486   3.037   7.286 -0.4993  1.3865  0.6576
 5013SOL    HW226499   3.612   3.085   7.321  2.8921  1.3513 -2.7321
 5014SOL     OW26500   3.885   2.398   9.699  0.0586  0.1403 -0.3445
 5014SOL    HW126501   3.863   2.400   9.792 -1.1535 -1.0206 -0.5926
 5014SOL    HW226502   3.932   2.477   9.674  0.4050  0.1481  0.3589
 5015SOL     OW26503   1.820   1.493   3.438 -0.0350 -0.4477 -0.4496
 5015SOL    HW126504   1.785   1.406   3.418  1.3227 -1.0405 -0.2149
 5015SOL    HW226505   1.913   1.473   3.445 -0.1203 -0.2132  1.2846
 5016SOL     OW26506   0.010   2.370   2.200  0.1614 -0.0848 -0.2293
 5016SOL    HW126507   4.689   2.380   2.285 -0.6669  0.7051 -0.7261
 5016SOL    HW226508   0.086   2.429   2.204 -1.0826  1.6398 -1.6051
 5017SOL     OW26509   0.059   1.050  12.786 -0.4389 -0.1507 -0.2260
 5017SOL    HW126510   0.033   0.958  12.772  0.3696 -0.7071  1.9373
 5017SOL    HW226511   0.082   1.046  12.879 -1.8720  0.1318  0.1362
 5018SOL     OW26512   2.209   0.346   5.031  0.2098  0.3913 -0.0092
 5018SOL    HW126513   2.164   0.412   4.978 -1.8308 -1.5197 -0.6396
 5018SOL    HW226514   2.162   0.269   4.999  1.4104  0.2412 -1.3846
 5019SOL     OW26515   2.658   0.454  12.639  0.3975  0.3196 -0.3977
 5019SOL    HW126516   2.653   0.549  12.637 -1.7424  0.2625  3.2719
 5019SOL    HW226517   2.752   0.449  12.620  0.2473  2.2457 -1.6308
 5020SOL     OW26518   2.293   1.197   6.852  0.6010  0.3515  0.0173
 5020SOL    HW126519   2.279   1.286   6.883 -0.4742  0.4579 -0.7625
 5020SOL    HW226520   2.235   1.192   6.776  1.5772 -0.3689 -0.6969
 5021SOL     OW26521   4.056   3.040   2.140  0.3735  0.2965  0.3881
 5021SOL    HW126522   3.998   2.967   2.120  0.6345  0.8351 -2.3759
 5021SOL    HW226523   4.065   3.082   2.054 -0.6848 -1.3483 -0.5153
 5022SOL     OW26524   0.255   3.236   2.979 -0.3096 -0.4493 -0.0051
 5022SOL    HW126525   0.220   3.318   2.946 -0.2012  0.4528  2.1646
 5022SOL    HW226526   0.261   3.186   2.897  1.4818  0.5092 -0.4484
 5023SOL     OW26527   4.051   0.665   8.955  0.7673 -0.1757 -0.5475
 5023SOL    HW126528   4.138   0.642   8.989  0.1923 -1.5878 -0.0685
 5023SOL    HW226529   4.069   0.687   8.863 -0.3500 -1.7577 -1.1406
 5024SOL     OW26530   2.694   1.946   8.671  0.1686  0.1080 -0.6894
 5024SOL    HW126531   2.653   2.027   8.702  0.7097 -0.0928  0.5413
 5024SOL    HW226532   2.784   1.976   8.664  0.7409 -1.6701 -0.8336
 5025SOL     OW26533   0.860   1.369   6.806  0.0735  0.2123 -0.3428
 5025SOL    HW126534   0.931   1.381   6.869  0.0260  0.3505 -0.3154
 5025SOL    HW226535   0.894   1.418   6.732 -2.4274  0.3422 -1.4181
 5026SOL     OW26536   1.326   3.660   5.962 -0.1733 -0.1187 -0.2567
 5026SOL    HW126537   1.386   3.712   6.016  1.2051 -1.2265 -0.7305
 5026SOL    HW226538   1.321   3.583   6.018 -0.4634  0.1223  0.0545
 5027SOL     OW26539   0.875   3.001   6.433  0.0100  0.5321  0.3310
 5027SOL    HW126540   0.898   2.941   6.362 -1.9637 -3.2177  2.9147
 5027SOL    HW226541   0.919   3.070   6.383  3.8878 -1.6102  0.8510
 5028SOL     OW26542   2.289   2.266   6.373  0.1177  0.1760  0.2065
 5028SOL    HW126543   2.278   2.248   6.467 -2.9493  0.1884 -0.1632
 5028SOL    HW226544   2.384   2.280   6.371  0.4708 -2.5803 -2.0737
 5029SOL     OW26545   0.082   1.199   6.536 -0.3884 -0.0007  0.2290
 5029SOL    HW126546   0.158   1.252   6.559  1.1373 -2.4614  0.9424
 5029SOL    HW226547   0.027   1.194   6.614  0.2188  1.9046  0.7653
 5030SOL     OW26548   2.750   2.248   9.266 -0.0327 -0.2201 -0.6528
 5030SOL    HW126549   2.750   2.176   9.203 -0.1805 -2.7085  2.1498
 5030SOL    HW226550   2.659   2.245   9.295  0.1215 -1.9023 -0.3224
 5031SOL     OW26551   0.434   0.135   7.292 -0.0153  0.9387 -0.2698
 5031SOL    HW126552   0.377   0.085   7.233 -1.8556  2.5506  0.1571
 5031SOL    HW226553   0.484   0.067   7.337 -0.6270  1.2574  0.8958
 5032SOL     OW26554   0.679   3.527  14.495 -0.4385 -0.3084  0.3989
 5032SOL    HW126555   0.741   3.456  14.512 -0.4981 -0.2777  0.7475
 5032SOL    HW226556   0.722   3.586  14.433 -3.0230 -0.2332 -1.3094
 5033SOL     OW26557   3.692   1.849  15.602 -0.3545 -0.0361 -0.1669
 5033SOL    HW126558   3.693   1.861  15.507 -0.2784 -2.1050 -0.4465
 5033SOL    HW226559   3.699   1.753  15.608 -0.5526  0.0737  1.6419
 5034SOL     OW26560   2.857   4.112   0.760  0.3284 -0.4950  0.3214
 5034SOL    HW126561   2.912   4.156   0.826 -0.0191 -1.3297  1.1628
 5034SOL    HW226562   2.919   4.095   0.689  0.3752  0.1525  0.2091
 5035SOL     OW26563   1.493   3.018   1.327 -0.7363 -0.3257  0.1326
 5035SOL    HW126564   1.522   2.985   1.242  0.4430 -0.1134  0.4520
 5035SOL    HW226565   1.506   2.941   1.383 -0.8177 -2.5450 -2.9306
 5036SOL     OW26566   0.208   0.228  13.080 -0.5981  0.5879  1.0087
 5036SOL    HW126567   0.160   0.279  13.145 -1.0443 -1.2924  2.1842
 5036SOL    HW226568   0.223   0.303  13.023  1.1561 -1.4491 -1.2346
 5037SOL     OW26569   3.713   4.551   3.437 -0.2089 -0.6243  0.6394
 5037SOL    HW126570   3.763   4.486   3.487  3.1307  2.0329  0.7264
 5037SOL    HW226571   3.783   4.609   3.407  0.0945 -0.4908  1.5875
 5038SOL     OW26572   3.781   1.097   0.151  0.6071 -0.1231 -0.1694
 5038SOL    HW126573   3.850   1.073   0.089 -0.5062 -0.6654 -1.1963
 5038SOL    HW226574   3.798   1.034   0.221 -0.8910 -0.8814 -0.4945
 5039SOL     OW26575   0.803   1.588   2.437 -0.1212 -0.0862  0.5256
 5039SOL    HW126576   0.735   1.554   2.379  2.1872 -0.0761 -2.2183
 5039SOL    HW226577   0.770   1.675   2.459 -0.3915  0.1018 -0.6015
 5040SOL     OW26578   2.736   4.004  11.471  0.2213 -0.1029  0.2992
 5040SOL    HW126579   2.693   4.073  11.419 -0.2783 -0.0897  0.7278
 5040SOL    HW226580   2.669   3.965  11.526 -0.9534  0.3487 -0.7965
 5041SOL     OW26581   3.718   1.813   3.395  0.1999  0.1948 -0.2395
 5041SOL    HW126582   3.671   1.743   3.440  0.6083  0.5495  0.7617
 5041SOL    HW226583   3.795   1.804   3.452 -2.2845 -1.1581  2.8923
 5042SOL     OW26584   1.782   3.963   6.082  0.8069  0.1421 -0.7228
 5042SOL    HW126585   1.704   3.908   6.072 -0.4595  1.7738  0.1877
 5042SOL    HW226586   1.774   4.004   5.996  1.5645 -1.1130 -1.3758
 5043SOL     OW26587   2.761   1.987   0.046 -0.0377 -0.2142  0.7151
 5043SOL    HW126588   2.745   1.893   0.046 -3.0563  0.3179  0.6257
 5043SOL    HW226589   2.737   2.010  17.641  1.3874  1.8510  0.8497
 5044SOL     OW26590   1.501   0.352   2.441  0.3041  0.2539 -0.3503
 5044SOL    HW126591   1.521   0.433   2.395 -0.0820  2.2455  2.9897
 5044SOL    HW226592   1.586   0.333   2.481  0.1911 -2.7074 -1.5008
 5045SOL     OW26593   2.789   1.892  14.702 -0.3402  0.1435  0.8258
 5045SOL    HW126594   2.820   1.802  14.690  0.8110  0.5740  0.5430
 5045SOL    HW226595   2.857   1.935  14.754 -0.1412 -1.3665  1.8355
 5046SOL     OW26596   1.027   0.339   1.248  0.1179 -0.0147 -0.2697
 5046SOL    HW126597   1.103   0.282   1.263 -1.5327 -2.5747 -1.6847
 5046SOL    HW226598   1.045   0.363   1.157 -0.9057 -2.0468 -1.0063
 5047SOL     OW26599   4.590   3.611  15.833 -0.2674  0.8033 -0.6730
 5047SOL    HW126600   4.634   3.693  15.853  2.8654 -1.1146  0.2211
 5047SOL    HW226601   4.506   3.625  15.878 -0.8913 -1.1369 -1.2181
 5048SOL     OW26602   1.183   2.725   2.591  0.2949  0.1723  0.1284
 5048SOL    HW126603   1.232   2.658   2.639  0.6158  1.0081  0.9724
 5048SOL    HW226604   1.241   2.747   2.519 -0.8204 -0.0057 -0.8188
 5049SOL     OW26605   0.553   2.737   3.314  0.4778 -0.2662  0.1708
 5049SOL    HW126606   0.525   2.693   3.234 -1.1646 -1.7979  1.5787
 5049SOL    HW226607   0.618   2.793   3.270  1.6154  0.0955  2.2865
 5050SOL     OW26608   4.656   4.571   0.264 -0.2230 -0.0322  0.0775
 5050SOL    HW126609   0.001   4.510   0.297  1.6567  4.2024  4.1202
 5050SOL    HW226610   4.667   4.574   0.169 -1.4259  0.5230 -0.0393
 5051SOL     OW26611   2.173   3.797   6.097  0.3203 -0.6992 -0.2809
 5051SOL    HW126612   2.221   3.880   6.093 -2.6311  0.9400 -2.0353
 5051SOL    HW226613   2.215   3.745   6.029  1.4402  0.3418 -0.3879
 5052SOL     OW26614   0.190   4.180   2.036  0.8272 -0.8172 -0.6299
 5052SOL    HW126615   0.140   4.233   2.098 -0.0100 -1.3259 -0.8715
 5052SOL    HW226616   0.147   4.095   2.027 -2.0534  0.5339  0.1766
 5053SOL     OW26617   2.018   0.924  10.053 -0.0083  0.9357  0.4241
 5053SOL    HW126618   2.113   0.920  10.058 -0.1455 -2.5224  0.1384
 5053SOL    HW226619   1.989   0.875  10.130  0.0382 -0.8523 -0.6933
 5054SOL     OW26620   2.423   0.767   7.559  0.3030  0.8436 -0.1879
 5054SOL    HW126621   2.457   0.833   7.499  0.7855  0.6770 -0.1018
 5054SOL    HW226622   2.481   0.785   7.633  0.8800 -0.8024 -0.2234
 5055SOL     OW26623   1.872   1.099   2.498 -0.4166  0.0777  0.1922
 5055SOL    HW126624   1.790   1.147   2.493 -0.6976 -0.5135 -0.8499
 5055SOL    HW226625   1.929   1.173   2.520 -1.4526  0.8937  0.1454
 5056SOL     OW26626   0.813   1.039   5.217 -0.2758 -0.0496  0.5374
 5056SOL    HW126627   0.872   1.096   5.168 -0.1718  0.5348  1.3450
 5056SOL    HW226628   0.781   0.992   5.140  0.3107 -0.3935  0.5091
 5057SOL     OW26629   0.653   1.756  14.186 -0.5700  0.0836 -0.1124
 5057SOL    HW126630   0.623   1.766  14.096 -1.3408  3.3007  0.5206
 5057SOL    HW226631   0.598   1.822  14.227  0.1916  0.7214 -0.1173
 5058SOL     OW26632   1.977   4.090   8.501 -0.4180 -0.2919 -0.0373
 5058SOL    HW126633   1.886   4.104   8.474  0.5313  1.2611 -2.3821
 5058SOL    HW226634   1.989   4.171   8.550  2.2646  0.2906 -1.6739
 5059SOL     OW26635   1.158   1.552  13.104 -1.1375  0.3066  0.0944
 5059SOL    HW126636   1.137   1.544  13.012  3.2268  0.1921 -0.9296
 5059SOL    HW226637   1.250   1.523  13.108 -1.0114  0.2718 -3.0356
 5060SOL     OW26638   3.646   4.043  13.643  0.5328  0.0413  0.4567
 5060SOL    HW126639   3.585   4.013  13.711  0.0619  3.7575  1.6580
 5060SOL    HW226640   3.573   4.056  13.582  1.0417  0.0090 -0.1527
 5061SOL     OW26641   4.342   0.547   8.794 -0.1719  0.0923  0.3719
 5061SOL    HW126642   4.401   0.483   8.754  0.5759  0.6343  0.6026
 5061SOL    HW226643   4.333   0.523   8.887 -0.2780 -1.4005 -0.0233
 5062SOL     OW26644   3.587   2.517  15.964  0.3261  0.6476  0.2229
 5062SOL    HW126645   3.579   2.565  15.882 -2.1631  0.2636  0.2309
 5062SOL    HW226646   3.622   2.431  15.941  0.5772  1.0415 -0.8363
 5063SOL     OW26647   0.087   3.185   2.603 -0.2916 -0.4179  0.7880
 5063SOL    HW126648   0.113   3.230   2.523  0.2450  1.1294  1.8246
 5063SOL    HW226649   0.173   3.157   2.637 -1.2788 -0.3465  3.3852
 5064SOL     OW26650   1.925   0.756   0.745 -0.0431  0.6804  0.2121
 5064SOL    HW126651   1.943   0.674   0.790 -0.8019  0.8475  0.8151
 5064SOL    HW226652   2.012   0.790   0.723  0.1830  0.2489  0.4292
 5065SOL     OW26653   0.901   1.972  14.098  0.0778  0.1625  0.5077
 5065SOL    HW126654   0.819   1.930  14.072 -0.3285  0.2882  1.5729
 5065SOL    HW226655   0.894   1.944  14.189 -0.0073 -0.2332  0.3771
 5066SOL     OW26656   1.799   2.157   3.813  0.7678  0.1600 -0.0934
 5066SOL    HW126657   1.870   2.215   3.784  2.6876 -0.6811  2.8422
 5066SOL    HW226658   1.827   2.070   3.785  1.4874  0.1319  0.6896
 5067SOL     OW26659   2.940   2.726   9.216 -0.2960  0.1388  0.9635
 5067SOL    HW126660   2.877   2.659   9.189 -0.0375 -0.1869  1.1670
 5067SOL    HW226661   2.930   2.719   9.311  1.2380 -0.5303  1.0828
 5068SOL     OW26662   0.657   1.633   4.013  0.1183  0.3174  0.2946
 5068SOL    HW126663   0.658   1.638   3.917 -2.0270 -0.3730  0.2422
 5068SOL    HW226664   0.673   1.724   4.036  0.8228  0.0673  0.7972
 5069SOL     OW26665   3.205   0.283  11.385  0.3881  0.2550 -0.2766
 5069SOL    HW126666   3.248   0.365  11.360 -0.4666  1.3180  1.7787
 5069SOL    HW226667   3.117   0.319  11.396  1.3476  3.3646 -2.6366
 5070SOL     OW26668   2.047   0.023   6.379  0.3072 -0.8129  0.4461
 5070SOL    HW126669   2.031   0.018   6.473 -0.1904  0.1383  0.4182
 5070SOL    HW226670   2.103   0.101   6.375  0.5345 -1.0080 -0.1687
 5071SOL     OW26671   2.420   2.338   5.224 -0.5238  0.8144  0.0245
 5071SOL    HW126672   2.452   2.353   5.313  1.6596 -1.5233 -0.3609
 5071SOL    HW226673   2.363   2.414   5.211  0.7602  1.7875  0.0951
 5072SOL     OW26674   4.349   0.923   3.972 -0.0539  0.3185 -0.0027
 5072SOL    HW126675   4.386   0.934   4.059 -0.7712 -2.3447  0.6524
 5072SOL    HW226676   4.325   1.012   3.945  0.4916 -0.0356 -1.6420
 5073SOL     OW26677   3.756   2.723   2.414 -0.3366  0.0864 -0.2064
 5073SOL    HW126678   3.751   2.642   2.364  2.8057 -1.0712  1.3980
 5073SOL    HW226679   3.739   2.695   2.503 -1.8710  1.9994  0.1182
 5074SOL     OW26680   0.291   1.715  14.668  0.1188 -0.2096  0.5572
 5074SOL    HW126681   0.208   1.672  14.649  0.5835 -1.6543  1.8337
 5074SOL    HW226682   0.312   1.759  14.585 -0.8514 -0.6582  0.0654
 5075SOL     OW26683   3.746   0.585   7.892 -0.2819 -0.3299 -0.2655
 5075SOL    HW126684   3.696   0.589   7.974 -2.0771 -0.0243 -1.3799
 5075SOL    HW226685   3.764   0.492   7.884  1.8924  0.0294  0.4437
 5076SOL     OW26686   4.194   0.258   5.673  0.2220  0.6282 -0.2899
 5076SOL    HW126687   4.244   0.191   5.720 -1.1465  0.6158  1.1771
 5076SOL    HW226688   4.165   0.213   5.594  1.1519  0.5065 -0.5675
 5077SOL     OW26689   2.744   2.121   8.152  0.1480 -0.0619 -0.4802
 5077SOL    HW126690   2.711   2.114   8.063  1.9904  1.4112 -1.2714
 5077SOL    HW226691   2.687   2.068   8.208 -1.8616  1.0760 -1.4575
 5078SOL     OW26692   2.137   4.136   5.053 -0.0334 -0.3679 -0.2644
 5078SOL    HW126693   2.066   4.118   4.991  1.3023 -2.6163 -1.1435
 5078SOL    HW226694   2.081   4.183   5.114 -1.0151 -0.6368 -0.9525
 5079SOL     OW26695   1.011   0.010  11.531  0.5069  0.2444  0.7462
 5079SOL    HW126696   1.004   0.064  11.610 -1.2558 -0.6218  1.1764
 5079SOL    HW226697   1.037   0.075  11.466 -0.9963 -0.0257 -0.0986
 5080SOL     OW26698   3.205   1.162  10.588  0.9382 -0.6812  0.1849
 5080SOL    HW126699   3.239   1.106  10.658  1.0135  0.0203  0.7064
 5080SOL    HW226700   3.212   1.106  10.511 -2.8419 -1.3277  0.3563
 5081SOL     OW26701   0.569   0.004  13.441  0.3949 -0.4764 -0.3135
 5081SOL    HW126702   0.619   4.706  13.520 -0.3031 -1.4623 -0.1061
 5081SOL    HW226703   0.597   4.651  13.387  0.7962  0.3457 -1.2312
 5082SOL     OW26704   4.688   4.169   8.356  0.0606  0.8800  0.1529
 5082SOL    HW126705   4.625   4.126   8.298  0.8911  1.2786 -1.0490
 5082SOL    HW226706   0.042   4.190   8.301  0.0283  1.4133  0.3198
 5083SOL     OW26707   0.580   1.344   3.886 -0.4504  0.0117 -0.1072
 5083SOL    HW126708   0.540   1.302   3.810 -0.7864 -2.3206  1.3410
 5083SOL    HW226709   0.653   1.386   3.841  1.1991 -1.8208  0.9015
 5084SOL     OW26710   4.237   3.754   7.857 -0.1388  0.6684 -0.1423
 5084SOL    HW126711   4.148   3.770   7.826 -0.1891  1.1665  0.2510
 5084SOL    HW226712   4.222   3.674   7.906  1.1479 -0.7065 -2.0008
 5085SOL     OW26713   0.525   1.262  11.158 -0.3849  0.5697 -0.4613
 5085SOL    HW126714   0.592   1.194  11.156 -0.4665  0.4637  0.2785
 5085SOL    HW226715   0.513   1.250  11.252  1.3343  0.7506 -0.2219
 5086SOL     OW26716   3.760   2.697  14.415 -0.3059 -1.0139  1.0772
 5086SOL    HW126717   3.839   2.643  14.416  0.6045  0.3155 -0.2168
 5086SOL    HW226718   3.707   2.645  14.476 -0.7089  0.3617  1.8782
 5087SOL     OW26719   1.844   3.980   9.394  0.2412  0.1743 -0.1708
 5087SOL    HW126720   1.762   4.011   9.433  1.6165  0.5755  2.4118
 5087SOL    HW226721   1.818   3.893   9.365 -1.7434  0.7643 -0.1929
 5088SOL     OW26722   1.287   1.661   6.864  0.0607  1.0328 -0.1826
 5088SOL    HW126723   1.349   1.733   6.855 -0.9671  1.8743 -0.5460
 5088SOL    HW226724   1.211   1.707   6.827  1.2799  2.8113 -0.4593
 5089SOL     OW26725   3.688   3.243   9.092 -0.3889 -0.2227 -0.1376
 5089SOL    HW126726   3.775   3.260   9.130 -0.9019  0.2837  0.8064
 5089SOL    HW226727   3.653   3.327   9.122  1.6510  1.3236 -2.0981
 5090SOL     OW26728   3.310   1.043   9.385 -0.1193  0.1428 -0.4250
 5090SOL    HW126729   3.275   1.109   9.325 -1.4285  0.0831  0.2638
 5090SOL    HW226730   3.273   1.069   9.469  1.9066  1.3781  0.0795
 5091SOL     OW26731   3.794   1.042   8.843 -0.4132  0.3968  0.3605
 5091SOL    HW126732   3.879   1.013   8.812 -0.3662  1.2167 -0.2794
 5091SOL    HW226733   3.771   1.088   8.762  1.2778  1.7360  0.6423
 5092SOL     OW26734   2.910   0.757  12.661  0.2629  0.1385  0.2084
 5092SOL    HW126735   2.983   0.696  12.653  1.0447  0.7187  2.8926
 5092SOL    HW226736   2.928   0.821  12.593  0.8684  3.1317  3.2371
 5093SOL     OW26737   0.960   3.547  15.190 -0.0027  0.0725 -0.4282
 5093SOL    HW126738   0.970   3.597  15.109  0.1678 -0.6082 -0.8335
 5093SOL    HW226739   1.015   3.593  15.254 -0.1724  0.4627 -0.5610
 5094SOL     OW26740   3.373   4.402  16.797 -0.5917  0.3518  0.1694
 5094SOL    HW126741   3.293   4.354  16.775 -1.0236  1.1837 -0.0741
 5094SOL    HW226742   3.335   4.489  16.810 -1.0945  0.0780  0.5576
 5095SOL     OW26743   3.268   3.198   9.767 -0.4479 -0.1540  0.0884
 5095SOL    HW126744   3.331   3.190   9.839 -0.6600 -0.5014  0.2375
 5095SOL    HW226745   3.234   3.286   9.783  0.3521  0.3766 -1.0617
 5096SOL     OW26746   1.060   2.773   5.098  0.1332 -0.3065 -0.4204
 5096SOL    HW126747   0.965   2.772   5.112  0.5542 -0.5121  2.5233
 5096SOL    HW226748   1.066   2.697   5.041 -2.8583 -0.0501 -1.0814
 5097SOL     OW26749   0.171   1.334   8.583 -0.6032  0.3034 -0.5424
 5097SOL    HW126750   0.146   1.338   8.490  0.6486  0.4266 -0.8778
 5097SOL    HW226751   0.263   1.362   8.582 -0.5031  0.0142  0.5524
 5098SOL     OW26752   2.916   2.163   4.901 -1.1563 -0.4603 -0.1829
 5098SOL    HW126753   2.886   2.072   4.899  1.8407 -1.4826  1.1402
 5098SOL    HW226754   2.847   2.193   4.961 -1.9160 -0.4095 -1.0899
 5099SOL     OW26755   1.472   3.835   3.879 -0.1248  0.0658  0.0175
 5099SOL    HW126756   1.489   3.863   3.789 -0.3839  0.0846 -0.0257
 5099SOL    HW226757   1.562   3.806   3.896 -0.1430  0.5454  0.9268
 5100SOL     OW26758   2.005   3.525   7.152 -0.2982  0.0984  0.1585
 5100SOL    HW126759   1.974   3.533   7.062  0.4237 -0.8618 -0.1708
 5100SOL    HW226760   2.081   3.583   7.146  1.2391 -1.9474 -0.2209
 5101SOL     OW26761   0.509   3.393  17.423 -0.1510 -0.9553 -0.2930
 5101SOL    HW126762   0.503   3.432  17.336 -0.6558 -1.9703 -0.7111
 5101SOL    HW226763   0.557   3.465  17.464 -1.8484  1.2665 -2.2043
 5102SOL     OW26764   1.695   0.937   8.271  0.2683  0.3675  0.2961
 5102SOL    HW126765   1.766   0.999   8.288 -1.5457  2.5465 -0.0258
 5102SOL    HW226766   1.635   0.994   8.222  1.4420  0.8474 -0.5622
 5103SOL     OW26767   3.160   4.055   3.038  0.3695  0.0794 -0.0297
 5103SOL    HW126768   3.169   4.071   2.944 -2.4661 -2.9297 -0.8246
 5103SOL    HW226769   3.066   4.034   3.031  0.4069 -0.0610 -0.1137
 5104SOL     OW26770   1.502   0.676  12.857 -0.2875  0.2467  0.0987
 5104SOL    HW126771   1.441   0.724  12.801  0.0619 -0.5656 -0.9824
 5104SOL    HW226772   1.458   0.661  12.940  0.0224 -0.3210  0.1645
 5105SOL     OW26773   4.522   0.178   3.905  0.2654 -0.2028 -0.7343
 5105SOL    HW126774   4.570   0.143   3.830 -1.1174 -0.1206 -1.6613
 5105SOL    HW226775   4.582   0.246   3.934 -0.0628 -0.1869 -0.1052
 5106SOL     OW26776   1.860   2.767   8.133  0.7723 -0.2404 -0.3208
 5106SOL    HW126777   1.858   2.801   8.043 -1.2016  3.5135  1.1173
 5106SOL    HW226778   1.840   2.853   8.171  2.4801  0.7119 -1.5315
 5107SOL     OW26779   0.898   0.143   5.199 -0.0990 -0.4994 -0.3223
 5107SOL    HW126780   0.865   0.117   5.285 -0.1691  0.8511  0.0675
 5107SOL    HW226781   0.981   0.188   5.219 -1.3106  0.9689  1.3774
 5108SOL     OW26782   1.869   1.096   2.792 -0.2530 -0.0173 -0.5151
 5108SOL    HW126783   1.908   1.109   2.706 -1.2550 -2.5609 -1.3446
 5108SOL    HW226784   1.926   1.143   2.853 -1.6342 -0.0658  0.8160
 5109SOL     OW26785   3.309   3.437   6.746 -0.6784  0.5332  0.1735
 5109SOL    HW126786   3.264   3.412   6.826  0.0450 -0.0619  0.4022
 5109SOL    HW226787   3.388   3.382   6.746 -1.3063 -0.4145 -3.6821
 5110SOL     OW26788   2.508   4.029   8.049  0.1180  0.9416 -0.2217
 5110SOL    HW126789   2.553   3.979   7.981  0.5740  2.3093 -0.9459
 5110SOL    HW226790   2.576   4.088   8.083  1.0264  0.1213 -0.5938
 5111SOL     OW26791   1.686   4.198   3.329  0.3410  0.3108  0.1908
 5111SOL    HW126792   1.599   4.166   3.305 -0.0981  1.4066  0.3508
 5111SOL    HW226793   1.671   4.211   3.422  2.2618 -1.7217  0.7989
 5112SOL     OW26794   1.272   4.316  10.410  0.0778  0.5846  0.3745
 5112SOL    HW126795   1.255   4.410  10.408 -0.9968  0.3717 -0.3258
 5112SOL    HW226796   1.367   4.313  10.393 -0.0001  0.7147 -0.0816
 5113SOL     OW26797   1.414   1.159   2.019  0.5714 -0.0808 -0.1263
 5113SOL    HW126798   1.329   1.166   1.976  1.1435 -1.9134 -1.5435
 5113SOL    HW226799   1.469   1.222   1.972  1.9474 -0.9037  0.3855
 5114SOL     OW26800   4.174   3.129  13.220 -0.6385  0.1346  0.0738
 5114SOL    HW126801   4.222   3.144  13.302 -1.2905 -1.5252  0.7575
 5114SOL    HW226802   4.099   3.085  13.260 -0.0753 -1.6694 -0.8480
 5115SOL     OW26803   3.863   2.607   8.464 -0.0721 -0.4888  0.3620
 5115SOL    HW126804   3.942   2.656   8.487  0.7934 -0.5527 -2.6016
 5115SOL    HW226805   3.893   2.517   8.451 -1.1676 -0.4737 -2.1041
 5116SOL     OW26806   0.997   1.166   3.345 -0.2498  0.2848  0.1420
 5116SOL    HW126807   1.035   1.196   3.263  0.6678 -1.2802  0.0110
 5116SOL    HW226808   0.982   1.251   3.387 -0.7842  0.3265 -0.1278
 5117SOL     OW26809   4.305   2.898   0.657  0.0397  0.0496 -0.4854
 5117SOL    HW126810   4.227   2.942   0.622  0.8368  1.8266 -0.0152
 5117SOL    HW226811   4.366   2.917   0.586  0.3474 -0.9749 -0.4823
 5118SOL     OW26812   0.771   3.261   4.913  0.1639  0.2010 -0.2095
 5118SOL    HW126813   0.738   3.271   4.824 -0.1124  0.2588 -0.1006
 5118SOL    HW226814   0.866   3.259   4.904  0.2674 -0.7786  0.9976
 5119SOL     OW26815   3.725   2.201   9.539 -0.3208  0.2822 -0.3893
 5119SOL    HW126816   3.772   2.253   9.603 -0.0948 -0.2375 -0.1324
 5119SOL    HW226817   3.690   2.132   9.595  1.4868  0.2608  0.7065
 5120SOL     OW26818   2.876   0.781   9.971 -0.7515 -0.1420 -0.2144
 5120SOL    HW126819   2.830   0.709   9.929 -2.5226  0.3734  0.8681
 5120SOL    HW226820   2.825   0.853   9.934 -0.4766 -0.1553 -0.6222
 5121SOL     OW26821   4.480   3.506   9.869  0.5156  0.2276 -0.5898
 5121SOL    HW126822   4.570   3.474   9.859  0.4071  0.0265 -0.9152
 5121SOL    HW226823   4.438   3.474   9.789  0.3639  2.1500 -1.2704
 5122SOL     OW26824   2.416   2.673   8.706 -0.1934  0.2871 -0.2024
 5122SOL    HW126825   2.354   2.653   8.636  0.1660 -0.6761 -0.2541
 5122SOL    HW226826   2.460   2.756   8.689 -1.2588  1.5193  3.0681
 5123SOL     OW26827   4.216   4.005   4.373  0.2558  0.0213 -0.1837
 5123SOL    HW126828   4.230   3.989   4.466  0.7901 -3.1499 -0.8079
 5123SOL    HW226829   4.165   3.930   4.343  0.9379 -0.6275  0.2813
 5124SOL     OW26830   3.520   2.525   6.812  0.1979 -0.2142 -0.7962
 5124SOL    HW126831   3.474   2.566   6.885  0.7060 -2.6586  0.8984
 5124SOL    HW226832   3.509   2.432   6.830  2.1522 -0.2528  0.2971
 5125SOL     OW26833   2.532   4.354   9.361 -0.0037  0.4905 -0.2349
 5125SOL    HW126834   2.437   4.348   9.371 -0.3090  2.5316 -1.9915
 5125SOL    HW226835   2.551   4.405   9.282 -2.1976  1.0855 -0.3585
 5126SOL     OW26836   3.300   1.297  16.418  0.0826 -0.1131 -0.8244
 5126SOL    HW126837   3.221   1.291  16.364 -0.7925  1.0606  0.3537
 5126SOL    HW226838   3.361   1.250  16.360  0.6442 -1.5827  0.9554
 5127SOL     OW26839   0.383   2.265   5.294  0.4980 -0.4808  0.2885
 5127SOL    HW126840   0.304   2.211   5.292  0.7113 -0.7513 -0.9218
 5127SOL    HW226841   0.354   2.345   5.250  2.3069  1.4584  2.6565
 5128SOL     OW26842   1.340   1.569  11.354 -0.2326  0.1109  0.0482
 5128SOL    HW126843   1.361   1.486  11.397  2.0640  0.9303  0.4979
 5128SOL    HW226844   1.337   1.542  11.262 -0.3797  0.6271 -0.0991
 5129SOL     OW26845   1.464   0.229   3.957  0.1614  0.7783  0.2579
 5129SOL    HW126846   1.470   0.320   3.930 -0.0219  1.0689  1.2104
 5129SOL    HW226847   1.373   0.213   3.933  0.7454 -0.4440 -1.1626
 5130SOL     OW26848   0.230   1.824   9.036  0.2227 -0.5497 -0.3875
 5130SOL    HW126849   0.195   1.764   9.102  0.6640  1.2267  1.4364
 5130SOL    HW226850   0.218   1.904   9.086 -1.2238 -0.8905 -0.1988
 5131SOL     OW26851   2.895   0.705  13.232 -0.4935 -0.4859  0.2079
 5131SOL    HW126852   2.959   0.665  13.173  0.7257 -1.1951  1.9866
 5131SOL    HW226853   2.812   0.693  13.186 -0.2200  1.4464 -0.7583
 5132SOL     OW26854   2.887   1.493   5.194  0.4473  0.7701  0.1770
 5132SOL    HW126855   2.875   1.414   5.246 -0.5496  0.5357 -0.4136
 5132SOL    HW226856   2.979   1.506   5.217  0.3919  2.7670 -0.7069
 5133SOL     OW26857   2.030   4.301   8.889 -0.2952 -0.4079 -0.0939
 5133SOL    HW126858   1.943   4.278   8.854 -0.1277  1.4345 -1.6665
 5133SOL    HW226859   2.042   4.230   8.953  2.7867 -0.4944 -0.7686
 5134SOL     OW26860   3.538   4.389   5.724 -0.2949  0.3905  0.4984
 5134SOL    HW126861   3.622   4.422   5.758 -1.1031  0.9934  1.8875
 5134SOL    HW226862   3.555   4.305   5.682  1.1708  1.1392 -0.4382
 5135SOL     OW26863   3.586   3.589   4.052  0.0432 -0.4745 -0.1244
 5135SOL    HW126864   3.528   3.550   4.117 -0.6735  1.7126  0.5643
 5135SOL    HW226865   3.667   3.551   4.087  0.9190  0.6312 -0.9326
 5136SOL     OW26866   1.953   2.828   3.201  0.0352  0.8291  0.0606
 5136SOL    HW126867   1.928   2.850   3.111  0.3507  0.9907  0.0119
 5136SOL    HW226868   2.027   2.767   3.195 -0.5846 -0.1337  2.2280
 5137SOL     OW26869   3.708   4.684  13.192  0.1387 -0.3567  0.7298
 5137SOL    HW126870   3.661   0.038  13.155  0.3024 -0.1291  0.9752
 5137SOL    HW226871   3.714   4.697  13.287  0.3205 -0.7428  0.7689
 5138SOL     OW26872   0.486   4.353   9.308 -0.0542 -0.5339  0.2597
 5138SOL    HW126873   0.488   4.392   9.220 -0.1687  0.6415  0.7709
 5138SOL    HW226874   0.574   4.372   9.341 -0.4372 -0.6309  1.3448
 5139SOL     OW26875   3.481   4.677  14.078  0.2951  0.0140 -0.0109
 5139SOL    HW126876   3.465   4.645  14.167 -0.4401  0.5887  0.0656
 5139SOL    HW226877   3.551   4.616  14.055 -0.0426 -0.3304 -0.1355
 5140SOL     OW26878   2.380   0.527   3.693  0.4216  0.2287  0.5073
 5140SOL    HW126879   2.468   0.560   3.676  0.4528  0.1191  0.4538
 5140SOL    HW226880   2.346   0.502   3.607  0.9028  1.1654  0.0496
 5141SOL     OW26881   3.347   1.453   2.343  0.2354 -0.3920  0.4367
 5141SOL    HW126882   3.417   1.509   2.310 -0.1019 -1.1754 -1.5945
 5141SOL    HW226883   3.393   1.383   2.389  1.1804  0.3826  0.6610
 5142SOL     OW26884   2.778   3.419   3.113 -0.1344  0.1807 -0.1345
 5142SOL    HW126885   2.870   3.395   3.098  0.0380 -0.4148  1.8774
 5142SOL    HW226886   2.767   3.469   3.032  2.0012 -1.1981 -1.2731
 5143SOL     OW26887   0.881   4.155   1.911  0.4547  0.4958  0.2470
 5143SOL    HW126888   0.971   4.151   1.877  0.0667 -0.5317 -0.6920
 5143SOL    HW226889   0.871   4.060   1.920  2.6318 -0.0230 -2.7616
 5144SOL     OW26890   0.720   3.142   5.227 -0.0617  0.0828  0.4103
 5144SOL    HW126891   0.712   3.103   5.140  1.6033  0.4595  0.0901
 5144SOL    HW226892   0.718   3.070   5.290  0.6636  1.1788  1.6661
 5145SOL     OW26893   0.747   3.810  14.593  0.0999 -0.2600 -0.3151
 5145SOL    HW126894   0.772   3.736  14.648  0.2550  0.1471  0.1630
 5145SOL    HW226895   0.790   3.882  14.639 -0.0656  0.3712 -1.1599
 5146SOL     OW26896   3.761   1.694   9.092 -0.2862 -0.1279  0.1242
 5146SOL    HW126897   3.739   1.634   9.163  2.4865 -1.1572  0.1159
 5146SOL    HW226898   3.842   1.658   9.055 -0.3009  0.9196 -0.9296
 5147SOL     OW26899   0.122   0.439  14.735 -0.4304 -0.0522 -0.6589
 5147SOL    HW126900   0.071   0.455  14.656 -0.5592 -0.8397 -0.7347
 5147SOL    HW226901   0.051   0.469  14.792 -0.1978 -0.5430 -0.1082
 5148SOL     OW26902   4.549   0.871   2.519 -0.2605 -0.2180  0.2443
 5148SOL    HW126903   4.587   0.853   2.433  0.8897  1.8976  0.3072
 5148SOL    HW226904   4.532   0.781   2.544 -1.6884  0.8387  3.0174
 5149SOL     OW26905   3.328   1.333   6.371  0.0684  0.4183  0.3379
 5149SOL    HW126906   3.233   1.326   6.377  0.0447 -1.0861 -1.8880
 5149SOL    HW226907   3.336   1.292   6.285  1.5299 -0.4899  0.8937
 5150SOL     OW26908   0.492   3.046  17.390  0.8254 -0.2522 -0.3822
 5150SOL    HW126909   0.422   3.068  17.328 -0.5195 -0.9263  0.8991
 5150SOL    HW226910   0.441   3.035  17.470 -1.5378 -1.0915 -2.0019
 5151SOL     OW26911   4.352   2.620   7.927  0.5172 -0.0177  0.2011
 5151SOL    HW126912   4.380   2.528   7.932 -1.0854 -0.5677 -0.6581
 5151SOL    HW226913   4.258   2.613   7.944  0.4680  1.7696  0.5930
 5152SOL     OW26914   1.158   2.593  12.358  0.2318 -0.0892  0.2536
 5152SOL    HW126915   1.187   2.533  12.426  2.1553  0.5390  0.0037
 5152SOL    HW226916   1.230   2.601  12.295 -1.3568  0.2251 -1.5570
 5153SOL     OW26917   3.674   2.940  14.783 -0.1166 -0.0207  0.5859
 5153SOL    HW126918   3.580   2.957  14.789 -0.4318 -1.2366 -1.0053
 5153SOL    HW226919   3.705   2.964  14.870 -2.6773  2.6991  0.7376
 5154SOL     OW26920   4.005   1.444   9.250 -0.4112  0.0017  0.0065
 5154SOL    HW126921   4.091   1.458   9.291 -0.8149 -1.6011  1.3941
 5154SOL    HW226922   4.006   1.348   9.241 -1.3030  0.0847 -0.9102
 5155SOL     OW26923   4.553   2.062   0.971 -0.1055  0.4973  0.1752
 5155SOL    HW126924   4.638   2.021   0.990 -0.7246 -0.6474  0.5208
 5155SOL    HW226925   4.503   2.006   1.030  0.4337  2.0730  2.1391
 5156SOL     OW26926   3.526   2.592   8.614  0.4428  0.3026  0.6901
 5156SOL    HW126927   3.616   2.570   8.638  0.8541  1.8219  0.4895
 5156SOL    HW226928   3.480   2.573   8.696  1.0705 -0.0693  0.9568
 5157SOL     OW26929   2.532   1.198   5.252  0.3659 -0.6067 -0.0545
 5157SOL    HW126930   2.479   1.246   5.314  1.5642 -1.8639  1.9603
 5157SOL    HW226931   2.618   1.203   5.294 -0.0559  0.0468  0.7307
 5158SOL     OW26932   0.663   2.401   3.812  0.1053 -0.2851  0.3617
 5158SOL    HW126933   0.607   2.436   3.743  2.4509  1.5682 -0.5875
 5158SOL    HW226934   0.680   2.310   3.790  1.7493  0.0798  0.0869
 5159SOL     OW26935   3.573   2.664   4.048  0.2154 -0.6843 -0.3352
 5159SOL    HW126936   3.532   2.664   3.962  0.4971 -0.8788 -0.4687
 5159SOL    HW226937   3.600   2.572   4.059  1.3877 -0.4587 -1.3594
 5160SOL     OW26938   3.568   1.415   8.640  0.4106 -0.1873 -0.1258
 5160SOL    HW126939   3.635   1.350   8.663  0.1071  0.1025  1.5308
 5160SOL    HW226940   3.610   1.494   8.672 -2.9234  1.2112  0.7570
 5161SOL     OW26941   1.527   0.957   5.873  0.5009  0.4701 -0.4207
 5161SOL    HW126942   1.481   0.876   5.848  1.8188 -1.2266  2.6111
 5161SOL    HW226943   1.471   1.025   5.837  0.0826 -0.4942 -1.5946
 5162SOL     OW26944   1.742   3.964  10.117  0.0353 -0.4428  0.5326
 5162SOL    HW126945   1.668   3.904  10.130  0.3222 -0.6625  1.1550
 5162SOL    HW226946   1.699   4.049  10.104  1.6912  0.2277 -0.4637
 5163SOL     OW26947   1.362   3.067   9.030 -0.4474  0.1179 -0.3361
 5163SOL    HW126948   1.426   3.072   9.101  0.2778 -0.1840 -0.9770
 5163SOL    HW226949   1.299   3.135   9.055 -0.1502  0.2577  0.0378
 5164SOL     OW26950   1.453   3.961   7.970  0.0727 -0.2615  0.1987
 5164SOL    HW126951   1.511   3.990   8.041 -1.7445 -0.8674  1.9432
 5164SOL    HW226952   1.378   4.018   7.987 -0.2577 -0.4316 -0.7426
 5165SOL     OW26953   1.807   3.294  15.066  0.2383 -0.6209  0.0999
 5165SOL    HW126954   1.809   3.315  14.973  3.0482 -1.5917 -0.0522
 5165SOL    HW226955   1.757   3.212  15.061  0.2995 -0.5578 -1.4395
 5166SOL     OW26956   0.866   2.632  14.810 -0.1497  0.2177 -0.1039
 5166SOL    HW126957   0.821   2.610  14.728 -0.9858 -1.7027  0.8911
 5166SOL    HW226958   0.793   2.668  14.861  0.1361  0.4657  0.1307
 5167SOL     OW26959   1.006   1.585   5.715  0.4463 -0.2887 -0.6076
 5167SOL    HW126960   1.089   1.633   5.722  0.3918 -0.4778  1.5120
 5167SOL    HW226961   1.027   1.494   5.737  0.3173 -0.2521 -0.3285
 5168SOL     OW26962   0.193   3.436   3.287  0.0888 -0.3538  0.3494
 5168SOL    HW126963   0.127   3.461   3.223  0.4232 -1.9839 -0.6454
 5168SOL    HW226964   0.144   3.384   3.350 -1.7475 -1.5779 -2.0876
 5169SOL     OW26965   0.973   1.482   7.025 -0.1556 -0.0303  0.5174
 5169SOL    HW126966   0.881   1.456   7.030 -0.0541 -0.3092  0.9343
 5169SOL    HW226967   0.999   1.488   7.117  0.4868  0.4942  0.2975
 5170SOL     OW26968   4.279   2.389   2.199  0.7805  0.6447 -0.1349
 5170SOL    HW126969   4.221   2.427   2.132  1.0148 -1.8466 -1.7350
 5170SOL    HW226970   4.236   2.410   2.281 -1.4595  1.0148 -1.3960
 5171SOL     OW26971   2.703   0.984   9.892 -0.3023 -0.8902  0.1261
 5171SOL    HW126972   2.674   1.035   9.817 -0.3230 -1.3496 -0.1751
 5171SOL    HW226973   2.712   1.052   9.959  0.2544 -0.2535 -0.5996
 5172SOL     OW26974   4.606   1.741   2.265 -0.5408  0.4674 -0.1881
 5172SOL    HW126975   4.626   1.818   2.320  1.1565  0.7161 -1.1295
 5172SOL    HW226976   4.591   1.773   2.176 -1.2477 -0.8479 -0.5241
 5173SOL     OW26977   2.151   3.089   6.303 -0.1743  0.4341 -0.1241
 5173SOL    HW126978   2.161   3.117   6.394 -2.6503 -0.1761  0.3232
 5173SOL    HW226979   2.241   3.073   6.273 -0.1790 -1.1172  0.7000
 5174SOL     OW26980   0.912   4.252  11.578  0.1392  0.6748  0.1873
 5174SOL    HW126981   0.864   4.334  11.592  1.1485  1.2988  0.0112
 5174SOL    HW226982   0.978   4.268  11.644  0.2854  2.7352 -0.4553
 5175SOL     OW26983   2.595   3.332   9.314 -0.4351  0.3232 -0.5749
 5175SOL    HW126984   2.536   3.407   9.309 -2.0605 -0.9952 -1.1647
 5175SOL    HW226985   2.648   3.360   9.389 -0.3797  0.2439 -0.5844
 5176SOL     OW26986   4.462   2.281   4.504 -0.3916 -1.1213  0.0729
 5176SOL    HW126987   4.556   2.303   4.500 -0.6871 -0.0184 -0.8197
 5176SOL    HW226988   4.463   2.194   4.463  0.2910 -1.0101 -0.1439
 5177SOL     OW26989   0.777   0.278   6.248  0.2239  0.0829 -0.5464
 5177SOL    HW126990   0.742   0.341   6.312  1.6175  1.1098 -0.7955
 5177SOL    HW226991   0.851   0.238   6.294 -1.2143  0.4159  2.0769
 5178SOL     OW26992   2.124   4.373  11.140 -0.9456  0.3266 -0.2523
 5178SOL    HW126993   2.135   4.398  11.232 -0.3757  0.4870 -0.3613
 5178SOL    HW226994   2.046   4.319  11.132 -0.3402 -0.4488 -0.8814
 5179SOL     OW26995   4.647   1.623   7.248  0.3151 -0.4776 -0.0634
 5179SOL    HW126996   4.620   1.585   7.332 -0.9215  0.5917  0.0204
 5179SOL    HW226997   4.710   1.558   7.216  1.1917  0.7398 -0.8348
 5180SOL     OW26998   0.526   0.828   8.247  0.0252  0.6322  0.0406
 5180SOL    HW126999   0.487   0.914   8.264  2.0113  1.3844  0.7005
 5180SOL    HW227000   0.612   0.845   8.284 -0.7580 -0.7958  2.4619
 5181SOL     OW27001   1.484   4.452   3.247 -0.3185 -0.1699 -0.3411
 5181SOL    HW127002   1.422   4.380   3.265  1.1788 -1.1279  1.0062
 5181SOL    HW227003   1.546   4.414   3.186  3.8418  4.2228  1.1333
 5182SOL     OW27004   2.715   4.223  10.952 -0.1530 -0.9191  0.3692
 5182SOL    HW127005   2.764   4.293  10.910 -1.2598 -1.3403 -1.6391
 5182SOL    HW227006   2.770   4.204  11.028 -1.8418 -3.9979  0.8646
 5183SOL     OW27007   4.161   4.279   4.278 -0.2738 -0.3052 -0.0634
 5183SOL    HW127008   4.212   4.280   4.197 -1.1341  1.8387 -0.5645
 5183SOL    HW227009   4.179   4.189   4.307  2.7081  0.4152  0.3363
 5184SOL     OW27010   0.180   2.544   7.818  0.2326  0.1035  0.0078
 5184SOL    HW127011   0.253   2.483   7.810 -0.2211  0.0846 -4.3670
 5184SOL    HW227012   0.145   2.554   7.729 -0.8201  1.9288  0.6430
 5185SOL     OW27013   3.341   3.324   4.719  0.0360 -0.1483  0.7053
 5185SOL    HW127014   3.270   3.363   4.668  0.7907  0.5957  0.2076
 5185SOL    HW227015   3.392   3.273   4.656 -1.1728 -1.8415  1.0978
 5186SOL     OW27016   1.386   4.706   2.928  0.1531  0.0772  0.4200
 5186SOL    HW127017   1.332   0.026   2.860  1.3176  1.9281  0.6120
 5186SOL    HW227018   1.345   0.014   3.009  2.2631  0.0867  1.4776
 5187SOL     OW27019   2.256   0.692  13.305  0.2697  0.1060 -0.5815
 5187SOL    HW127020   2.320   0.762  13.298  1.0317 -0.2875  2.2733
 5187SOL    HW227021   2.214   0.709  13.390  0.0541  1.8777 -1.0498
 5188SOL     OW27022   0.890   3.320   8.914 -0.0412  0.1875 -0.3264
 5188SOL    HW127023   0.921   3.391   8.858  1.0499 -0.9082 -1.1159
 5188SOL    HW227024   0.795   3.328   8.923 -0.0131  0.8703 -0.6636
 5189SOL     OW27025   1.466   3.264  14.334 -0.1586 -0.2912  0.0495
 5189SOL    HW127026   1.538   3.209  14.303 -1.5136 -0.7745 -2.2131
 5189SOL    HW227027   1.398   3.212  14.291  2.7122 -1.8156 -2.6525
 5190SOL     OW27028   1.097   2.063   2.159  0.1257 -0.3830 -0.6274
 5190SOL    HW127029   1.174   2.117   2.143  2.3100 -3.3440 -0.0893
 5190SOL    HW227030   1.068   2.057   2.068  0.3435 -0.7863 -0.6688
 5191SOL     OW27031   1.950   2.922  15.634 -0.2292 -0.6214  0.4999
 5191SOL    HW127032   1.951   2.919  15.538  0.2982  1.7006  0.4314
 5191SOL    HW227033   1.859   2.895  15.649 -0.0863  0.1617  2.7293
 5192SOL     OW27034   0.148   2.802  11.802  0.7998 -0.0836  0.2511
 5192SOL    HW127035   0.081   2.857  11.762  1.4052 -0.2709 -1.0149
 5192SOL    HW227036   0.197   2.866  11.854 -0.0639  0.8664 -0.1139
 5193SOL     OW27037   1.653   1.468  10.049 -0.8617  0.2778 -0.3490
 5193SOL    HW127038   1.703   1.417   9.985 -1.2130  1.2132 -1.3725
 5193SOL    HW227039   1.639   1.553  10.006 -0.7480  0.6959  0.4335
 5194SOL     OW27040   4.075   1.022  10.072  0.0992  0.4373  0.0508
 5194SOL    HW127041   4.064   0.931  10.101 -0.6657  0.4081 -0.3380
 5194SOL    HW227042   3.981   1.038  10.080 -0.4539 -2.5214 -0.5271
 5195SOL     OW27043   4.066   3.792   3.445  0.1443 -0.1548 -0.1482
 5195SOL    HW127044   4.086   3.870   3.393 -2.3814  1.1194  0.7960
 5195SOL    HW227045   4.016   3.748   3.377 -0.8276  1.9328 -0.7844
 5196SOL     OW27046   0.315   1.352   6.718  0.0071 -0.7097 -0.2716
 5196SOL    HW127047   0.317   1.320   6.808  1.4611  2.4173  0.8071
 5196SOL    HW227048   0.294   1.445   6.726  2.8619  0.1014 -2.3480
 5197SOL     OW27049   4.693   2.250   1.874 -0.8545 -0.0583 -0.3884
 5197SOL    HW127050   4.659   2.230   1.787  0.6866  0.2428 -1.0738
 5197SOL    HW227051   4.650   2.335   1.878  1.2670  1.0876 -1.9803
 5198SOL     OW27052   3.353   0.285   4.242  0.9212  0.1877 -0.1254
 5198SOL    HW127053   3.414   0.251   4.177 -0.6834 -2.2356 -0.3713
 5198SOL    HW227054   3.313   0.205   4.277  2.2256 -0.9861 -1.3547
 5199SOL     OW27055   1.133   1.157  17.078  0.1124 -0.1117 -0.5184
 5199SOL    HW127056   1.136   1.186  16.987  0.5681  0.7070 -0.2334
 5199SOL    HW227057   1.221   1.181  17.106 -0.1133  2.3821 -1.9954
 5200SOL     OW27058   0.016   0.547  13.965  0.0325 -0.0320 -0.4796
 5200SOL    HW127059   4.698   0.460  13.970 -1.0339  0.5517  1.5323
 5200SOL    HW227060   0.106   0.537  13.996 -0.3336 -2.0355 -0.0686
 5201SOL     OW27061   1.213   2.675  15.197 -0.0559  0.2583  0.2738
 5201SOL    HW127062   1.162   2.686  15.117 -0.6993  2.0828  0.9424
 5201SOL    HW227063   1.259   2.595  15.171 -1.2553 -0.5825  0.7113
 5202SOL     OW27064   3.983   0.128   9.219 -0.2562 -0.2435  0.2249
 5202SOL    HW127065   4.015   0.149   9.307  2.0370 -2.5524 -0.0560
 5202SOL    HW227066   3.914   0.066   9.244  0.3259 -1.1955 -0.5540
 5203SOL     OW27067   0.526   3.500   4.115 -0.3776 -0.1293 -0.1326
 5203SOL    HW127068   0.490   3.470   4.031 -0.0051 -0.5261 -0.1460
 5203SOL    HW227069   0.444   3.543   4.143  0.5791  2.2078 -0.9145
 5204SOL     OW27070   2.075   1.134   3.168  0.1281  0.5925  0.1077
 5204SOL    HW127071   2.054   1.167   3.080 -1.3782 -1.6722 -0.3931
 5204SOL    HW227072   2.100   1.046   3.138  1.5395  1.0917 -0.1998
 5205SOL     OW27073   0.933   2.985   0.704 -0.0373  0.0710  0.1316
 5205SOL    HW127074   0.887   3.023   0.779  1.1961 -0.4850  1.1700
 5205SOL    HW227075   1.000   2.927   0.742 -2.0805 -1.3324  1.5828
 5206SOL     OW27076   1.308   3.995   6.132  0.6564  0.3841 -0.2701
 5206SOL    HW127077   1.330   4.020   6.222 -0.3773  1.3756 -0.2847
 5206SOL    HW227078   1.233   3.938   6.151 -0.9411  2.0452 -1.6073
 5207SOL     OW27079   3.844   2.285   2.147 -0.0227  0.0556 -0.0912
 5207SOL    HW127080   3.861   2.351   2.080  0.7895  0.5435  0.6075
 5207SOL    HW227081   3.902   2.213   2.122 -2.7320 -1.5450 -1.8434
 5208SOL     OW27082   0.088   2.637   2.425 -0.2874 -0.3482  0.1190
 5208SOL    HW127083   0.163   2.597   2.469  2.0345  0.8407 -2.7319
 5208SOL    HW227084   0.019   2.572   2.443 -0.2410 -0.7227 -1.0198
 5209SOL     OW27085   3.137   3.390  16.673  0.1181  0.1977  0.0366
 5209SOL    HW127086   3.153   3.388  16.767 -0.0038 -0.1253  0.0472
 5209SOL    HW227087   3.220   3.356  16.639  0.6938  1.1684  0.4415
 5210SOL     OW27088   4.153   1.826   5.147  0.4115 -0.0351 -0.1384
 5210SOL    HW127089   4.097   1.879   5.090 -0.2628 -0.7751 -0.1655
 5210SOL    HW227090   4.090   1.775   5.197  0.1413 -1.9803 -2.5139
 5211SOL     OW27091   2.696   1.807   4.160  0.5478  0.1887  0.2973
 5211SOL    HW127092   2.718   1.845   4.245  1.5036  0.0970  0.0912
 5211SOL    HW227093   2.685   1.885   4.105 -0.9769 -0.7780 -0.7667
 5212SOL     OW27094   3.573   0.793   5.800  0.1485  0.0592  0.3124
 5212SOL    HW127095   3.638   0.830   5.860  1.5577  0.7372 -1.6373
 5212SOL    HW227096   3.536   0.871   5.757 -0.7955 -0.0605  0.9067
 5213SOL     OW27097   2.523   2.262   7.479 -0.4773 -0.2709  0.3373
 5213SOL    HW127098   2.593   2.295   7.535 -1.2868 -0.9451  1.7596
 5213SOL    HW227099   2.564   2.275   7.394 -0.8823 -0.0404  0.1785
 5214SOL     OW27100   0.826   2.041   7.455  0.0321  0.2480 -0.2362
 5214SOL    HW127101   0.760   2.074   7.516 -0.5896 -0.7058 -0.3995
 5214SOL    HW227102   0.807   1.948   7.458 -0.2040  0.3174  0.4727
 5215SOL     OW27103   1.149   2.873   5.350  0.2831  0.5063 -0.2128
 5215SOL    HW127104   1.134   2.831   5.265  1.3591  1.3897 -0.8464
 5215SOL    HW227105   1.166   2.963   5.321  0.6302 -0.2842 -2.5211
 5216SOL     OW27106   3.849   1.111   3.319 -0.2621  0.1415 -0.3904
 5216SOL    HW127107   3.895   1.079   3.397 -1.2697 -0.6941 -0.1486
 5216SOL    HW227108   3.895   1.194   3.329 -1.0511  0.3518  1.4655
 5217SOL     OW27109   0.730   1.287   4.653  0.1506  0.2448 -0.1797
 5217SOL    HW127110   0.815   1.317   4.622 -0.0579  1.6893  0.6563
 5217SOL    HW227111   0.672   1.346   4.605  0.5767  0.7066 -0.1160
 5218SOL     OW27112   3.923   0.374  17.405 -0.0945  0.3069 -0.0941
 5218SOL    HW127113   3.868   0.307  17.444  2.4753 -0.7561  1.7107
 5218SOL    HW227114   3.936   0.426  17.484  1.1307 -1.6146  0.9781
 5219SOL     OW27115   0.547   1.198  11.468 -0.3191 -0.1845  0.5520
 5219SOL    HW127116   0.597   1.117  11.470  1.1743  0.6731 -2.0049
 5219SOL    HW227117   0.549   1.218  11.562 -1.0284 -1.9975  0.9613
 5220SOL     OW27118   0.021   2.818   3.851  0.0418  0.7211 -0.4622
 5220SOL    HW127119   0.094   2.868   3.888 -0.3024  0.2523  0.8488
 5220SOL    HW227120   4.694   2.796   3.931  0.8240 -1.6246 -0.6633
 5221SOL     OW27121   3.839   2.531   0.570  0.4907  0.1800  0.5787
 5221SOL    HW127122   3.918   2.498   0.612  1.4732  0.5327 -1.0124
 5221SOL    HW227123   3.836   2.619   0.609  0.4297  0.5912 -0.3635
 5222SOL     OW27124   2.855   3.619   5.403  0.1138  0.0377 -0.5913
 5222SOL    HW127125   2.925   3.641   5.341 -0.0096  2.3089  0.0626
 5222SOL    HW227126   2.776   3.634   5.351  0.4545 -1.5618 -1.5749
 5223SOL     OW27127   3.649   3.462  15.435  0.2156 -0.2121  0.0503
 5223SOL    HW127128   3.667   3.506  15.351 -0.6851  1.3130  0.6577
 5223SOL    HW227129   3.691   3.377  15.424  0.4629 -0.1744  0.7110
 5224SOL     OW27130   1.082   4.568  15.394  0.1197  0.5279  0.0533
 5224SOL    HW127131   1.086   4.663  15.404 -0.5169  0.5244  0.3601
 5224SOL    HW227132   1.047   4.568  15.304 -1.9170 -1.3482  0.8487
 5225SOL     OW27133   2.968   1.691   1.478 -0.2281  0.0716 -0.1587
 5225SOL    HW127134   2.952   1.606   1.518 -2.0280  1.1516  1.4331
 5225SOL    HW227135   3.030   1.737   1.534  0.1818 -0.6239 -0.0486
 5226SOL     OW27136   2.882   2.097   6.898 -0.3844 -0.4818  0.1442
 5226SOL    HW127137   2.978   2.094   6.896 -0.4015 -0.4867 -0.8002
 5226SOL    HW227138   2.861   2.018   6.848 -2.6888 -0.4263  1.0479
 5227SOL     OW27139   3.068   1.383   5.970 -0.7914 -0.1851  0.0130
 5227SOL    HW127140   3.041   1.309   5.916  1.5433 -0.4971 -0.7520
 5227SOL    HW227141   3.063   1.455   5.907  0.2992  0.7174  0.9749
 5228SOL     OW27142   1.174   1.031   4.629  0.1310  0.0117 -0.2670
 5228SOL    HW127143   1.225   0.994   4.700  2.0142 -0.8976 -2.0818
 5228SOL    HW227144   1.242   1.043   4.562 -1.7736  1.2542 -1.9651
 5229SOL     OW27145   1.174   4.175   9.633  0.3290 -0.1488  0.0815
 5229SOL    HW127146   1.147   4.092   9.592 -0.9312  0.0330  0.5413
 5229SOL    HW227147   1.092   4.225   9.635 -0.0785 -0.7958 -0.2742
 5230SOL     OW27148   3.719   4.716   6.428 -0.2431 -0.1098 -0.6741
 5230SOL    HW127149   3.731   0.054   6.353  1.3666 -0.5949 -0.7893
 5230SOL    HW227150   3.628   0.005   6.456  0.2698  0.2103  0.8748
 5231SOL     OW27151   2.228   0.575   1.929  0.3581  0.6746  0.4984
 5231SOL    HW127152   2.226   0.561   2.023 -0.6635  0.3393  0.4281
 5231SOL    HW227153   2.271   0.661   1.924  1.4678  0.1221  0.5401
 5232SOL     OW27154   0.360   2.870   6.577  0.0036 -0.1994 -0.2549
 5232SOL    HW127155   0.320   2.786   6.598  4.3352 -2.1427  0.1978
 5232SOL    HW227156   0.325   2.891   6.491  0.7060  4.0380  0.4751
 5233SOL     OW27157   0.419   1.197  12.462  0.0289  0.3697  0.1559
 5233SOL    HW127158   0.416   1.138  12.386  1.3662  1.6888 -0.9439
 5233SOL    HW227159   0.404   1.144  12.540  0.0262  0.6835  0.3684
 5234SOL     OW27160   4.012   4.193   0.039  1.0509  0.0625 -0.0465
 5234SOL    HW127161   4.096   4.148   0.037 -0.1118 -1.9842 -2.1253
 5234SOL    HW227162   4.016   4.228   0.128  0.8661  0.0059 -0.0160
 5235SOL     OW27163   3.025   0.308   5.417 -0.4023 -0.0072  0.0448
 5235SOL    HW127164   3.028   0.396   5.454 -0.2757  0.5606 -1.3089
 5235SOL    HW227165   3.116   0.281   5.425 -1.3769 -2.4801  2.7598
 5236SOL     OW27166   4.188   0.391   3.977 -0.1902 -0.0702  0.2385
 5236SOL    HW127167   4.193   0.392   3.882  0.2407  1.1021  0.2622
 5236SOL    HW227168   4.232   0.475   3.992 -0.5781  0.1111  0.3517
 5237SOL     OW27169   3.111   3.974   7.205  0.1809  0.2402  0.3354
 5237SOL    HW127170   3.027   4.006   7.171 -0.5225 -1.8304  0.1299
 5237SOL    HW227171   3.091   3.963   7.298 -1.1264 -0.3517 -0.0093
 5238SOL     OW27172   3.100   3.817   1.122  0.1366  0.3903 -0.3222
 5238SOL    HW127173   3.010   3.785   1.129  0.2641 -0.3050 -1.8412
 5238SOL    HW227174   3.125   3.785   1.034 -0.2383 -0.5201 -0.0973
 5239SOL     OW27175   2.858   2.145  10.960 -0.1838 -0.0670 -0.0878
 5239SOL    HW127176   2.946   2.174  10.935  0.1053 -1.3421 -0.5815
 5239SOL    HW227177   2.859   2.147  11.055 -1.0256 -2.9948 -0.0029
 5240SOL     OW27178   3.364   1.405  10.625  0.5168  0.1510  0.4638
 5240SOL    HW127179   3.325   1.324  10.592  0.1397  0.5462 -0.0481
 5240SOL    HW227180   3.343   1.406  10.719 -2.5109 -1.0397 -0.2203
 5241SOL     OW27181   2.501   4.037   5.238 -0.0815  0.4777 -0.0000
 5241SOL    HW127182   2.446   3.959   5.242 -0.7888  0.9747  0.0210
 5241SOL    HW227183   2.472   4.084   5.160  0.8396  1.1116  0.0297
 5242SOL     OW27184   1.133   2.472   4.688 -0.3337 -0.0821  0.5993
 5242SOL    HW127185   1.213   2.457   4.738  0.3345 -1.5673 -0.9223
 5242SOL    HW227186   1.167   2.471   4.598 -0.7585  1.6487  0.4219
 5243SOL     OW27187   1.757   1.212   5.234 -0.3188 -1.1945  0.0777
 5243SOL    HW127188   1.847   1.201   5.204 -0.8106 -1.4374 -1.2661
 5243SOL    HW227189   1.758   1.145   5.303  1.6347 -0.0429  1.2003
 5244SOL     OW27190   4.574   4.533   2.352  0.2044  0.5205  0.6901
 5244SOL    HW127191   4.632   4.531   2.428 -0.0016  0.7609  0.8521
 5244SOL    HW227192   4.497   4.486   2.386  0.1222 -0.1673 -0.4577
 5245SOL     OW27193   3.608   2.844   3.501  0.0580  0.0567  0.5088
 5245SOL    HW127194   3.513   2.828   3.497 -0.3733  2.6595 -0.1668
 5245SOL    HW227195   3.643   2.759   3.527 -0.6653 -0.4641 -0.2093
 5246SOL     OW27196   3.724   1.321   6.716  0.3600 -0.2376  0.2152
 5246SOL    HW127197   3.679   1.351   6.795  2.0243 -2.4094  2.0116
 5246SOL    HW227198   3.660   1.294   6.651  1.2945 -0.6690 -0.5371
 5247SOL     OW27199   1.855   4.045  14.517  0.3984 -0.2233  0.0242
 5247SOL    HW127200   1.794   4.027  14.446  2.8658  0.8170 -2.4013
 5247SOL    HW227201   1.802   4.107  14.566 -0.0847 -0.7159  0.1226
 5248SOL     OW27202   1.865   1.472  13.231  0.0822  0.2924  0.0445
 5248SOL    HW127203   1.839   1.563  13.217  0.9840  0.5029 -0.2307
 5248SOL    HW227204   1.941   1.463  13.173 -0.0462 -0.2777 -0.0400
 5249SOL     OW27205   4.024   4.416   1.830  0.2663 -0.1626 -0.0882
 5249SOL    HW127206   4.040   4.336   1.880  0.1299 -1.0508 -1.4684
 5249SOL    HW227207   3.928   4.412   1.827  0.3305 -1.0115 -0.7782
 5250SOL     OW27208   0.396   3.404   6.550  0.3893 -0.7174 -0.8732
 5250SOL    HW127209   0.351   3.321   6.567 -0.2832  0.1642  1.5694
 5250SOL    HW227210   0.350   3.434   6.472  0.1097  0.0746 -0.4081
 5251SOL     OW27211   4.199   2.426   8.996 -0.1808  0.6226 -0.1106
 5251SOL    HW127212   4.268   2.364   8.973 -0.4139 -0.1479  1.2708
 5251SOL    HW227213   4.205   2.480   8.917  1.0241  0.1963 -0.3138
 5252SOL     OW27214   3.113   2.236   8.685  0.1369 -0.4158  0.0794
 5252SOL    HW127215   3.088   2.280   8.603  3.0385 -3.2973 -2.3306
 5252SOL    HW227216   3.152   2.302   8.742  0.9292  0.0500 -0.9999
 5253SOL     OW27217   4.533   2.531   5.530  0.0387  0.4926  0.0195
 5253SOL    HW127218   4.593   2.605   5.528  1.1501 -0.4016  0.4073
 5253SOL    HW227219   4.505   2.521   5.439 -0.5528  2.2387  0.0133
 5254SOL     OW27220   3.338   4.188   7.492  0.1112  0.2175 -0.1664
 5254SOL    HW127221   3.291   4.113   7.455  0.1733  0.6157 -1.0476
 5254SOL    HW227222   3.371   4.219   7.408  0.0655  1.4893  0.2906
 5255SOL     OW27223   4.196   0.392  13.071 -0.3073 -0.6588  0.1235
 5255SOL    HW127224   4.197   0.352  13.158  1.2177  1.4557  1.0767
 5255SOL    HW227225   4.268   0.345  13.029 -1.3406 -2.8124  0.7655
 5256SOL     OW27226   1.954   2.819   8.970  0.6828  0.2856 -0.1079
 5256SOL    HW127227   1.950   2.738   8.919 -2.7331  0.2323  0.3011
 5256SOL    HW227228   1.952   2.784   9.059 -0.1000 -1.5029 -0.8261
 5257SOL     OW27229   2.695   2.262  15.692  0.3678  0.7676  0.2861
 5257SOL    HW127230   2.664   2.326  15.755 -1.0528  0.2930  0.0649
 5257SOL    HW227231   2.668   2.302  15.609 -0.0598  1.1697  0.6197
 5258SOL     OW27232   2.577   1.392   3.439  0.4690 -0.4915 -0.0541
 5258SOL    HW127233   2.599   1.313   3.389  0.8732  0.2596 -1.0646
 5258SOL    HW227234   2.509   1.358   3.497 -0.2079 -0.2875 -0.7276
 5259SOL     OW27235   1.748   3.314  16.707  0.2670 -0.3010 -0.3231
 5259SOL    HW127236   1.818   3.270  16.659  1.2864 -1.4936  2.2496
 5259SOL    HW227237   1.779   3.405  16.711 -2.7499  0.7502 -0.7249
 5260SOL     OW27238   1.668   0.121   1.032  0.1006  0.0408 -0.7761
 5260SOL    HW127239   1.762   0.109   1.017  0.4489  1.6214  0.1372
 5260SOL    HW227240   1.658   0.181   0.959 -1.9391  3.8112  2.5905
 5261SOL     OW27241   0.645   1.039   7.896 -0.4357  0.1744 -0.3014
 5261SOL    HW127242   0.597   1.049   7.814 -0.5190  2.0795 -0.0134
 5261SOL    HW227243   0.649   0.943   7.899 -0.3790  0.2434  1.7230
 5262SOL     OW27244   2.854   2.230   4.418 -0.2965  0.4205  0.5100
 5262SOL    HW127245   2.836   2.323   4.406 -2.1775  0.3498  3.0596
 5262SOL    HW227246   2.798   2.207   4.492  0.3939  2.3443  1.6213
 5263SOL     OW27247   0.769   1.911   0.301  0.0645 -0.1626  0.1244
 5263SOL    HW127248   0.774   1.905   0.396  0.7343 -2.4857 -0.0694
 5263SOL    HW227249   0.859   1.894   0.271 -0.9604 -1.8250 -1.9618
 5264SOL     OW27250   4.608   0.142   3.661  0.1458 -0.2205 -0.6188
 5264SOL    HW127251   4.525   0.140   3.613 -0.1129  0.8383 -0.2215
 5264SOL    HW227252   4.662   0.098   3.595  0.1542 -2.8155  1.0978
 5265SOL     OW27253   1.092   0.149   1.638  0.3994 -0.2950  0.0433
 5265SOL    HW127254   1.077   0.057   1.660 -1.6156 -0.0190 -0.1455
 5265SOL    HW227255   1.049   0.152   1.552 -0.0672  1.8856  0.3322
 5266SOL     OW27256   3.839   0.979   6.252  0.2770  0.0652  0.0183
 5266SOL    HW127257   3.864   0.955   6.342 -0.7306 -0.3517  0.1843
 5266SOL    HW227258   3.775   1.048   6.268  0.2678  0.6202 -2.5124
 5267SOL     OW27259   1.031   3.146  10.116  0.2634 -0.7369 -0.3079
 5267SOL    HW127260   1.108   3.102  10.153  1.7036  2.0783  0.0772
 5267SOL    HW227261   0.963   3.128  10.181 -0.8676  0.8029 -1.0727
 5268SOL     OW27262   3.069   2.562   7.990  0.4559 -0.0923 -0.4305
 5268SOL    HW127263   3.122   2.537   8.066 -2.0958 -0.0920  1.3486
 5268SOL    HW227264   3.090   2.655   7.979  2.6779 -0.7063 -1.5407
 5269SOL     OW27265   0.999   2.790  12.448 -0.1995  0.1462  0.1482
 5269SOL    HW127266   1.041   2.717  12.402  1.2308  0.9558  0.1710
 5269SOL    HW227267   0.909   2.795  12.417 -0.2784 -1.9993  0.0052
 5270SOL     OW27268   3.557   3.610   4.891 -0.0168  0.0204 -0.0871
 5270SOL    HW127269   3.635   3.646   4.849  0.3325 -0.7305 -0.0933
 5270SOL    HW227270   3.589   3.530   4.933  1.4140 -0.7090 -2.5746
 5271SOL     OW27271   0.199   2.001   0.376  0.4196 -0.2257  0.1511
 5271SOL    HW127272   0.207   2.089   0.340 -1.2301 -0.8786 -1.8384
 5271SOL    HW227273   0.289   1.979   0.400  1.0907 -0.4334 -2.5616
 5272SOL     OW27274   3.318   2.050   9.204 -0.0749 -0.0575 -0.1106
 5272SOL    HW127275   3.319   2.099   9.286  2.6893 -0.9792  0.4172
 5272SOL    HW227276   3.263   1.977   9.232  0.9852 -1.0435 -0.5732
 5273SOL     OW27277   1.160   3.599   4.389 -0.2443  0.0135  0.3263
 5273SOL    HW127278   1.197   3.562   4.309  1.2490  0.3665  0.8523
 5273SOL    HW227279   1.231   3.584   4.451  2.2148 -0.9217 -2.7190
 5274SOL     OW27280   1.554   3.117  11.409 -0.5367 -0.0232  0.0858
 5274SOL    HW127281   1.549   3.081  11.498  1.6500  0.8450  0.5639
 5274SOL    HW227282   1.477   3.172  11.397  0.9214  1.9715 -0.0664
 5275SOL     OW27283   2.440   0.888  13.304  0.4994 -0.3867  0.1525
 5275SOL    HW127284   2.516   0.837  13.332  0.6320 -1.1100 -1.5279
 5275SOL    HW227285   2.485   0.950  13.247  0.1339  0.3024  0.6182
 5276SOL     OW27286   0.224   3.979  12.852 -0.2700 -0.3716 -0.1796
 5276SOL    HW127287   0.145   3.994  12.903 -0.1591  1.3669 -0.5009
 5276SOL    HW227288   0.235   4.067  12.816  0.7573 -0.9390 -1.2585
 5277SOL     OW27289   1.594   0.915   5.547  0.7373 -0.3779  0.1308
 5277SOL    HW127290   1.525   0.972   5.580 -0.3125 -3.3545  3.0816
 5277SOL    HW227291   1.679   0.946   5.580  0.8847 -0.7581  0.1136
 5278SOL     OW27292   1.525   3.402   3.624  0.0404  0.1424  0.3234
 5278SOL    HW127293   1.544   3.416   3.716  2.6755  0.2338 -0.2255
 5278SOL    HW227294   1.499   3.488   3.590  1.1421 -0.5461 -2.2592
 5279SOL     OW27295   4.011   0.203   1.398 -0.4691 -0.2797  0.6401
 5279SOL    HW127296   3.993   0.152   1.477  1.5289 -0.9357  0.6554
 5279SOL    HW227297   3.960   0.156   1.332  0.3145 -1.5163  0.9153
 5280SOL     OW27298   0.067   0.369   8.086 -0.1475 -0.0256 -0.2685
 5280SOL    HW127299   4.717   0.307   8.068  0.1841  0.1220 -2.0622
 5280SOL    HW227300   0.085   0.347   8.178  0.3089  0.5519 -0.2136
 5281SOL     OW27301   4.278   2.582  16.795  0.1190  0.4484  0.1098
 5281SOL    HW127302   4.207   2.519  16.811 -0.5780  1.0576 -0.5663
 5281SOL    HW227303   4.240   2.651  16.741 -0.0413  0.4213  0.1877
 5282SOL     OW27304   0.135   0.552  16.552  0.0193 -0.3396  0.7469
 5282SOL    HW127305   0.148   0.630  16.606  0.2325 -0.7956  1.3551
 5282SOL    HW227306   0.041   0.546  16.568 -0.4468 -0.0009 -1.9138
 5283SOL     OW27307   3.173   4.524  17.030 -0.3536  0.2953 -0.4374
 5283SOL    HW127308   3.193   4.610  16.992  2.3293 -0.3563 -0.4842
 5283SOL    HW227309   3.078   4.531  17.043 -0.4529  0.0140 -1.0406
 5284SOL     OW27310   4.490   2.177   7.756 -0.2028 -0.4402 -0.4621
 5284SOL    HW127311   4.428   2.105   7.770 -1.5025  0.9303  0.7946
 5284SOL    HW227312   4.565   2.151   7.811 -1.4624 -0.7144  1.1305
 5285SOL     OW27313   0.331   3.465   7.529  0.0866  0.0377 -0.0417
 5285SOL    HW127314   0.349   3.534   7.466  0.8149 -0.0737  0.0470
 5285SOL    HW227315   0.268   3.413   7.479 -0.8211 -0.0308  1.1534
 5286SOL     OW27316   3.173   2.834   2.181 -0.3895 -0.0151 -0.0070
 5286SOL    HW127317   3.137   2.790   2.104  1.3024 -2.5170  0.5994
 5286SOL    HW227318   3.257   2.856   2.142  1.1131 -0.4624  2.9816
 5287SOL     OW27319   1.239   3.082  10.739 -0.0028 -1.1933 -0.1499
 5287SOL    HW127320   1.164   3.121  10.694  1.1905 -1.3626 -2.2943
 5287SOL    HW227321   1.306   3.146  10.713 -0.4059 -1.0485 -0.8348
 5288SOL     OW27322   4.257   2.831   6.138 -0.6484 -0.2255 -0.2080
 5288SOL    HW127323   4.307   2.806   6.215 -3.0159 -0.5211  1.2417
 5288SOL    HW227324   4.185   2.884   6.172  0.6839  2.8055 -2.0875
 5289SOL     OW27325   4.535   4.714  13.588 -0.5724  0.1870 -0.2477
 5289SOL    HW127326   4.461   0.029  13.636  0.7355  1.7587  0.6183
 5289SOL    HW227327   4.495   4.694  13.504 -1.0901 -0.5989  0.1789
 5290SOL     OW27328   0.957   0.807   5.428  0.1222  0.1838  0.3290
 5290SOL    HW127329   0.894   0.877   5.415 -0.5648 -0.5403 -0.2485
 5290SOL    HW227330   0.897   0.740   5.460  1.6235 -0.7694  1.1952
 5291SOL     OW27331   3.846   2.351  16.352 -0.1062  0.4085  0.0091
 5291SOL    HW127332   3.759   2.386  16.330  0.7811  1.5440 -1.6952
 5291SOL    HW227333   3.835   2.274  16.296  0.8640 -0.8389  1.5456
 5292SOL     OW27334   3.533   0.510   5.909  0.2298 -0.1604  0.2848
 5292SOL    HW127335   3.625   0.484   5.901  0.2029 -0.3742  0.6724
 5292SOL    HW227336   3.537   0.605   5.920 -0.1354  0.2052 -2.6733
 5293SOL     OW27337   3.762   3.362   5.947  0.1537 -0.0014 -0.9365
 5293SOL    HW127338   3.705   3.401   6.013 -0.2395 -0.9686 -0.6956
 5293SOL    HW227339   3.720   3.276   5.938 -1.5384  0.6697  0.4860
 5294SOL     OW27340   4.404   2.859  10.049  0.4907 -0.0043  0.0053
 5294SOL    HW127341   4.318   2.849  10.008  0.5893 -0.4423 -0.0950
 5294SOL    HW227342   4.410   2.781  10.104  2.6743  0.3109  0.2014
 5295SOL     OW27343   4.201   1.390   9.001  0.3581 -0.4470  0.0707
 5295SOL    HW127344   4.285   1.380   9.044 -0.0793  1.8975  1.4775
 5295SOL    HW227345   4.154   1.329   9.059  0.2214 -1.9325 -1.5943
 5296SOL     OW27346   0.977   4.296  10.649 -0.4086  0.6756  0.3185
 5296SOL    HW127347   0.893   4.330  10.680 -2.0271  0.3974 -3.7258
 5296SOL    HW227348   1.017   4.381  10.631 -0.2816  0.0027 -2.5503
 5297SOL     OW27349   3.055   2.810   4.505  0.3630 -0.0108  0.2102
 5297SOL    HW127350   2.992   2.881   4.494 -1.3042 -1.5375 -0.0469
 5297SOL    HW227351   3.119   2.872   4.539 -0.6400  0.2131  1.7079
 5298SOL     OW27352   1.944   0.279  11.872 -0.0635  0.4748  0.6448
 5298SOL    HW127353   2.004   0.352  11.856  2.2007 -1.0842  1.9863
 5298SOL    HW227354   1.985   0.212  11.817  0.2500  2.3335 -1.3647
 5299SOL     OW27355   4.067   1.939   0.028  0.7618 -0.1287 -0.3333
 5299SOL    HW127356   3.999   1.873   0.038 -0.7390  1.2327 -1.7119
 5299SOL    HW227357   4.147   1.890   0.046 -0.1276 -1.0214  1.2190
 5300SOL     OW27358   4.061   1.830  13.855  0.7442 -0.5521 -0.1834
 5300SOL    HW127359   4.041   1.922  13.875 -0.6907 -0.3911 -2.3803
 5300SOL    HW227360   3.973   1.792  13.848  0.4933 -0.0666  0.2453
 5301SOL     OW27361   1.954   1.821   4.789  0.5964  0.0145 -0.5027
 5301SOL    HW127362   1.863   1.814   4.759 -0.1036  1.0441  1.3765
 5301SOL    HW227363   1.950   1.879   4.865 -1.2650 -2.0604  1.0155
 5302SOL     OW27364   3.849   0.939   0.357 -0.0648  0.1135 -0.4285
 5302SOL    HW127365   3.798   0.981   0.427 -0.1383  1.6606 -1.4032
 5302SOL    HW227366   3.861   0.849   0.386  2.1087  0.7923  0.7781
 5303SOL     OW27367   2.323   4.304  14.289  0.0836 -0.4624 -0.0477
 5303SOL    HW127368   2.411   4.276  14.314 -0.1964 -0.5430  0.8350
 5303SOL    HW227369   2.337   4.373  14.224 -2.6491  0.3531  0.2314
 5304SOL     OW27370   0.573   4.487   3.616  0.0572  0.0429 -0.1193
 5304SOL    HW127371   0.654   4.452   3.579  1.5982  1.2909  2.0604
 5304SOL    HW227372   0.610   4.575   3.628 -0.1299  0.1629 -0.4453
 5305SOL     OW27373   1.381   3.127   0.462 -0.4839  0.3053  0.3342
 5305SOL    HW127374   1.304   3.160   0.508 -0.1662  1.8455 -0.2132
 5305SOL    HW227375   1.386   3.186   0.387 -0.6145 -0.4023 -0.2309
 5306SOL     OW27376   0.650   0.311  16.145 -0.2140 -0.5380  0.2906
 5306SOL    HW127377   0.576   0.359  16.110 -0.3444  0.3865  1.8198
 5306SOL    HW227378   0.718   0.345  16.087 -1.6263  1.2754 -0.2699
 5307SOL     OW27379   1.348   2.548   4.046 -0.1360  0.9026 -0.0117
 5307SOL    HW127380   1.349   2.535   3.951 -0.4307 -1.8787  0.3816
 5307SOL    HW227381   1.433   2.515   4.077 -0.6738  0.7853  1.3469
 5308SOL     OW27382   1.198   3.914   4.281 -0.5130  0.1220  0.0733
 5308SOL    HW127383   1.280   3.903   4.233 -1.2213  2.7115 -1.7612
 5308SOL    HW227384   1.219   3.876   4.367  0.2331  0.1346 -0.0990
 5309SOL     OW27385   4.717   4.487   1.047  0.3342 -0.2153  0.3262
 5309SOL    HW127386   0.061   4.521   0.984 -0.1446 -0.4562 -0.3000
 5309SOL    HW227387   4.646   4.487   0.982  0.4177 -4.0516  0.2515
 5310SOL     OW27388   1.600   0.536   6.279 -0.8497 -0.0857  0.8112
 5310SOL    HW127389   1.676   0.518   6.225 -0.9374 -1.0307  0.9962
 5310SOL    HW227390   1.543   0.463   6.252 -0.5442 -1.0002  2.6087
 5311SOL     OW27391   1.032   3.137   5.868  0.2179  0.2929 -0.2402
 5311SOL    HW127392   1.045   3.175   5.955 -1.5355  1.6034 -0.5354
 5311SOL    HW227393   1.114   3.155   5.823 -0.9198  2.5093 -1.4439
 5312SOL     OW27394   1.052   1.194  15.609  0.1939  0.3498  0.6087
 5312SOL    HW127395   1.068   1.134  15.682  0.8387 -0.2326  0.0011
 5312SOL    HW227396   1.002   1.140  15.547 -0.2074  1.3638  0.0528
 5313SOL     OW27397   0.311   4.058   3.388 -0.6860 -0.2870 -0.7182
 5313SOL    HW127398   0.386   4.013   3.350 -1.2550  0.1123 -2.2895
 5313SOL    HW227399   0.274   4.107   3.315 -1.3054 -1.1432 -0.9846
 5314SOL     OW27400   2.374   4.315  16.266 -0.4521  0.3000 -0.7784
 5314SOL    HW127401   2.335   4.366  16.337 -0.6688 -0.3799 -0.4019
 5314SOL    HW227402   2.350   4.364  16.188 -1.6704 -1.0324 -1.2266
 5315SOL     OW27403   2.343   2.121   4.161 -0.0172  0.0308 -0.5496
 5315SOL    HW127404   2.298   2.038   4.177  0.3599 -0.4508 -2.0024
 5315SOL    HW227405   2.414   2.109   4.224 -0.1430  2.2905  0.0074
 5316SOL     OW27406   2.904   1.511  16.053 -0.0109  0.4813  0.2229
 5316SOL    HW127407   2.841   1.444  16.026 -1.7967  1.6953  1.3020
 5316SOL    HW227408   2.989   1.476  16.026 -0.2769 -0.6215  0.8173
 5317SOL     OW27409   4.616   2.156   8.427 -0.7954  0.0131 -0.2771
 5317SOL    HW127410   4.545   2.126   8.371 -0.1496  1.6856 -1.9857
 5317SOL    HW227411   4.632   2.066   8.456  1.1700  0.5693  0.4101
 5318SOL     OW27412   4.506   3.902  16.375  0.2350 -0.3081  0.3607
 5318SOL    HW127413   4.419   3.902  16.335  0.3122  0.9898  0.1761
 5318SOL    HW227414   4.497   3.981  16.429 -1.6755 -0.6931  0.6101
 5319SOL     OW27415   2.076   0.100   8.786 -0.7026 -0.1166 -0.6580
 5319SOL    HW127416   2.123   0.137   8.860 -0.7480 -1.9452  0.2920
 5319SOL    HW227417   2.105   0.009   8.787  1.3152  0.5425 -0.5292
 5320SOL     OW27418   3.859   1.443   4.613  0.5923 -0.1797 -0.1573
 5320SOL    HW127419   3.871   1.374   4.548  0.2321 -0.5059  0.1276
 5320SOL    HW227420   3.776   1.416   4.651 -0.2618  0.9191 -1.2528
 5321SOL     OW27421   1.504   2.949  14.448  0.0992  0.4655  1.0075
 5321SOL    HW127422   1.565   2.891  14.402 -1.6006 -0.8075  0.3859
 5321SOL    HW227423   1.537   3.033  14.417  2.1058 -0.0012  1.8593
 5322SOL     OW27424   3.027   2.534   9.629 -0.3349  0.1839  0.1224
 5322SOL    HW127425   3.081   2.613   9.640  0.4192 -0.2286 -0.5912
 5322SOL    HW227426   3.047   2.480   9.706  0.8771  1.7830  0.9557
 5323SOL     OW27427   3.190   0.813   6.467 -0.1796 -0.1660 -0.0556
 5323SOL    HW127428   3.212   0.803   6.560  3.7720  0.4987 -0.9062
 5323SOL    HW227429   3.224   0.732   6.429 -0.3885 -0.0237 -0.5432
 5324SOL     OW27430   3.154   4.093   5.890  0.0360 -0.2529  0.1145
 5324SOL    HW127431   3.059   4.108   5.884  0.4878  2.2368 -0.8988
 5324SOL    HW227432   3.186   4.134   5.810  0.7834  0.1348  0.6175
 5325SOL     OW27433   0.544   3.537  12.890  0.3392 -0.1961 -0.0664
 5325SOL    HW127434   0.532   3.575  12.977 -0.3663 -0.0517 -0.2242
 5325SOL    HW227435   0.494   3.605  12.845  0.4747  0.0811  0.2019
 5326SOL     OW27436   2.178   3.518   5.045 -0.0465  0.3869 -0.1563
 5326SOL    HW127437   2.157   3.511   5.138  3.3301 -0.6884  0.5206
 5326SOL    HW227438   2.101   3.566   5.015  0.3958  1.3672  0.2668
 5327SOL     OW27439   0.380   3.092   0.405  0.1377 -0.1425 -0.3999
 5327SOL    HW127440   0.298   3.137   0.420  0.2736 -0.6671  1.9498
 5327SOL    HW227441   0.399   3.072   0.497 -1.4438 -0.4188 -0.1325
 5328SOL     OW27442   1.867   2.073   1.373 -0.2101  0.2845 -0.1994
 5328SOL    HW127443   1.870   2.118   1.457  1.3358  1.3952 -0.8415
 5328SOL    HW227444   1.912   1.993   1.398  0.8714  0.7602 -0.6114
 5329SOL     OW27445   3.081   2.052  12.963  0.0212  0.1698  0.1543
 5329SOL    HW127446   3.101   2.132  13.011 -1.8525  0.1159  1.0202
 5329SOL    HW227447   3.113   1.985  13.023 -0.6415  3.4680  4.2243
 5330SOL     OW27448   0.575   0.581   4.667  0.1556  0.2378 -0.0253
 5330SOL    HW127449   0.547   0.514   4.604  0.1210 -0.2674  0.5371
 5330SOL    HW227450   0.572   0.659   4.611  1.3185  1.8107  2.1556
 5331SOL     OW27451   3.585   4.117  12.937  0.0002 -0.2818 -0.0779
 5331SOL    HW127452   3.542   4.199  12.961  0.9670  0.3796 -0.5686
 5331SOL    HW227453   3.654   4.154  12.881 -1.5100  1.0340 -1.0382
 5332SOL     OW27454   1.915   4.211  11.190  0.0125  0.4846 -0.2809
 5332SOL    HW127455   1.912   4.117  11.171  0.7791  0.3726  0.1459
 5332SOL    HW227456   1.820   4.221  11.199  0.0195  0.3529 -0.0595
 5333SOL     OW27457   3.783   3.839   2.442  0.1862  0.3238  0.1945
 5333SOL    HW127458   3.731   3.877   2.371  0.3805  1.6320  0.7712
 5333SOL    HW227459   3.786   3.918   2.495  1.4257  1.5445 -1.7172
 5334SOL     OW27460   4.572   2.032   5.984  0.1591 -0.7490 -0.3149
 5334SOL    HW127461   4.537   2.009   6.070  0.8577  1.1950  0.4821
 5334SOL    HW227462   4.523   1.965   5.937 -1.1824 -0.8123  1.1806
 5335SOL     OW27463   3.488   2.117  10.479 -0.0847  0.4932 -0.3418
 5335SOL    HW127464   3.464   2.047  10.418 -0.7014 -0.4054  0.9240
 5335SOL    HW227465   3.498   2.062  10.557 -0.5669  0.6849 -0.1476
 5336SOL     OW27466   0.425   4.320   5.513 -0.1620  0.0828  0.2879
 5336SOL    HW127467   0.392   4.387   5.572  0.9283  1.1333 -0.3142
 5336SOL    HW227468   0.387   4.248   5.563 -0.1230 -0.6673 -0.7469
 5337SOL     OW27469   1.193   2.179  15.609 -0.1064 -0.0691  0.2090
 5337SOL    HW127470   1.201   2.243  15.539  1.4854  0.0778  0.5176
 5337SOL    HW227471   1.175   2.239  15.682 -1.3813 -2.2404  1.6832
 5338SOL     OW27472   3.792   3.106   6.342  0.1738  0.0278  0.3549
 5338SOL    HW127473   3.701   3.085   6.364 -0.4954  0.3477 -2.1540
 5338SOL    HW227474   3.784   3.108   6.247  0.0437  2.3596  0.4270
 5339SOL     OW27475   1.210   2.477  12.010  0.6692  0.2094 -0.1388
 5339SOL    HW127476   1.254   2.537  12.070  2.0487  0.0832 -1.0341
 5339SOL    HW227477   1.281   2.453  11.951  1.7181 -0.7327  1.4997
 5340SOL     OW27478   2.740   0.376   8.222  0.3474 -0.1858  0.1206
 5340SOL    HW127479   2.798   0.337   8.157 -1.7657 -0.9876 -1.2839
 5340SOL    HW227480   2.796   0.349   8.295 -0.5107 -1.8040  0.1767
 5341SOL     OW27481   4.269   2.486  12.147 -0.1572 -0.3388  0.2602
 5341SOL    HW127482   4.196   2.468  12.087  1.0714 -0.4383 -1.2189
 5341SOL    HW227483   4.347   2.442  12.113 -0.8064 -0.4025 -1.1538
 5342SOL     OW27484   3.902   2.496   3.248 -0.3368 -0.1167  0.4464
 5342SOL    HW127485   3.982   2.526   3.291 -0.6372  0.6460  0.4622
 5342SOL    HW227486   3.833   2.506   3.313 -0.6563  1.0830 -0.0887
 5343SOL     OW27487   4.024   1.315  15.272 -0.8696  0.1875 -0.1531
 5343SOL    HW127488   4.091   1.265  15.319 -0.1780  1.6569  0.4446
 5343SOL    HW227489   4.062   1.404  15.271  0.8536 -0.5379  0.2147
 5344SOL     OW27490   2.374   3.912   9.755 -0.8947  0.1760 -0.0464
 5344SOL    HW127491   2.305   3.896   9.820  0.0906 -1.3498  0.6337
 5344SOL    HW227492   2.453   3.897   9.807 -1.1637 -0.6936  0.1224
 5345SOL     OW27493   1.265   0.753   1.867  0.6832  0.5512 -0.7810
 5345SOL    HW127494   1.219   0.803   1.800 -2.3896 -2.7013 -1.0646
 5345SOL    HW227495   1.353   0.772   1.833  1.2896 -0.2718  0.3235
 5346SOL     OW27496   1.227   3.711  14.282  0.6194 -0.3189  0.1509
 5346SOL    HW127497   1.321   3.706  14.302  0.3906 -0.8156  1.1369
 5346SOL    HW227498   1.228   3.772  14.208 -0.3856 -0.8562 -0.3059
 5347SOL     OW27499   1.428   2.284   5.453  0.1578 -0.4331 -0.2952
 5347SOL    HW127500   1.498   2.336   5.493  0.1676 -2.0761  1.7947
 5347SOL    HW227501   1.348   2.335   5.467 -1.0008 -2.8884  2.0037
 5348SOL     OW27502   2.369   3.051   0.606 -0.3285  0.3253 -0.1376
 5348SOL    HW127503   2.421   3.036   0.527 -0.3813 -1.7614  0.2524
 5348SOL    HW227504   2.410   3.130   0.643  0.4750  0.3326 -1.0364
 5349SOL     OW27505   3.177   2.417   6.181 -0.1469 -0.5263 -0.0482
 5349SOL    HW127506   3.197   2.367   6.260  1.1650  1.3238  0.8058
 5349SOL    HW227507   3.260   2.455   6.152 -0.5828 -2.0647 -3.2371
 5350SOL     OW27508   1.931   3.509   5.878 -0.1472  0.1170  0.2611
 5350SOL    HW127509   1.950   3.603   5.872 -1.4162  0.3305 -0.4189
 5350SOL    HW227510   1.902   3.496   5.788 -1.1474  0.8169  0.4882
 5351SOL     OW27511   1.177   3.169   1.896 -0.4839 -0.1193 -0.5716
 5351SOL    HW127512   1.192   3.196   1.806 -0.5546 -1.1050 -0.8777
 5351SOL    HW227513   1.082   3.172   1.901 -0.3903 -0.9043  1.8583
 5352SOL     OW27514   2.484   1.626   9.159  0.2219  0.0203 -0.2007
 5352SOL    HW127515   2.392   1.600   9.168  0.9262 -2.0168  1.0979
 5352SOL    HW227516   2.490   1.713   9.120 -0.5225 -0.3291 -1.0917
 5353SOL     OW27517   2.884   0.309   6.811 -0.0431  0.0334  0.0398
 5353SOL    HW127518   2.980   0.308   6.805 -0.1802 -1.5740 -1.9853
 5353SOL    HW227519   2.866   0.390   6.857 -1.1477  0.1517 -0.6084
 5354SOL     OW27520   3.166   4.032   4.529 -0.0204 -0.0907  0.5274
 5354SOL    HW127521   3.146   4.067   4.442  0.0028 -1.4609 -0.0381
 5354SOL    HW227522   3.185   3.939   4.514 -0.6123 -0.5236  2.3818
 5355SOL     OW27523   0.922   1.958   7.769  0.1488 -0.4004 -0.0872
 5355SOL    HW127524   0.988   1.985   7.833  1.6338 -0.7642 -1.4662
 5355SOL    HW227525   0.953   1.872   7.739 -0.4246 -1.4216  2.2649
 5356SOL     OW27526   2.787   2.983  13.164 -0.1339  0.1705 -0.0413
 5356SOL    HW127527   2.833   3.044  13.107  0.2718 -0.3066 -0.2297
 5356SOL    HW227528   2.844   2.906  13.171 -0.7977 -0.1119  2.2858
 5357SOL     OW27529   1.615   4.049  14.873 -0.0961 -0.2580  0.2314
 5357SOL    HW127530   1.636   3.969  14.824 -1.6377 -0.3889 -0.2192
 5357SOL    HW227531   1.646   4.112  14.808  0.1759 -1.7025 -1.0314
 5358SOL     OW27532   4.266   2.385   4.945 -0.0140 -0.4969  0.1718
 5358SOL    HW127533   4.358   2.361   4.936  0.2138 -0.0713  1.3273
 5358SOL    HW227534   4.282   2.472   4.981  1.1500 -0.4326 -0.4997
 5359SOL     OW27535   0.093   0.761  13.560 -0.2404  0.2297 -0.3136
 5359SOL    HW127536   0.023   0.723  13.614  0.5669  0.3889  0.8390
 5359SOL    HW227537   0.048   0.754  13.476  0.7330  0.9054 -0.8909
 5360SOL     OW27538   0.428   2.816   1.054 -0.0007  0.5014 -0.8898
 5360SOL    HW127539   0.415   2.862   1.137 -0.7627  0.2822 -0.8841
 5360SOL    HW227540   0.510   2.770   1.072 -0.0924  1.6589  2.5429
 5361SOL     OW27541   3.504   2.625   3.162 -0.3030  0.2196 -0.3382
 5361SOL    HW127542   3.565   2.636   3.090  1.6256  1.2641  1.4309
 5361SOL    HW227543   3.491   2.717   3.186  0.3281 -0.0606  1.1128
 5362SOL     OW27544   3.542   3.881  15.113  0.6392  0.5640  0.5091
 5362SOL    HW127545   3.537   3.837  15.029  0.1546 -0.5108  1.1031
 5362SOL    HW227546   3.513   3.970  15.092 -2.6529 -0.8594 -0.9273
 5363SOL     OW27547   2.406   0.683  16.916  0.4417  0.2143 -0.0853
 5363SOL    HW127548   2.464   0.752  16.885 -2.0664  1.1053 -2.8201
 5363SOL    HW227549   2.368   0.648  16.835 -0.1908  0.4512  0.1040
 5364SOL     OW27550   4.244   3.147  12.575  0.3399 -0.3648 -0.1173
 5364SOL    HW127551   4.190   3.123  12.500  1.0234  0.5112 -0.8866
 5364SOL    HW227552   4.327   3.105  12.551  0.5324  0.4697 -0.9152
 5365SOL     OW27553   4.481   2.928   3.669  0.7721 -0.5946 -0.4672
 5365SOL    HW127554   4.482   2.929   3.765  1.3141 -1.9740 -0.4536
 5365SOL    HW227555   4.441   3.013   3.653  1.5148 -0.2573 -0.5600
 5366SOL     OW27556   3.620   2.377   1.133  0.2603  0.1167 -0.3083
 5366SOL    HW127557   3.598   2.373   1.226 -1.7616  1.2411 -0.7240
 5366SOL    HW227558   3.714   2.386   1.148  0.1280  1.4486 -0.2040
 5367SOL     OW27559   2.885   2.229   5.837 -0.4115 -0.6348 -0.6130
 5367SOL    HW127560   2.834   2.149   5.847  0.3835 -1.2320 -1.3938
 5367SOL    HW227561   2.927   2.220   5.752 -0.8545  2.7923 -1.2069
 5368SOL     OW27562   4.143   2.661   9.357 -0.1701 -0.1936  0.4455
 5368SOL    HW127563   4.110   2.587   9.307  2.3235 -0.5297 -0.6517
 5368SOL    HW227564   4.065   2.716   9.351 -0.2958 -0.4252 -0.0004
 5369SOL     OW27565   2.637   1.363   5.024  0.6226  0.4379 -0.1835
 5369SOL    HW127566   2.567   1.426   5.037 -1.0480 -1.3794 -0.3851
 5369SOL    HW227567   2.632   1.316   5.108 -1.0475  0.1945 -0.4278
 5370SOL     OW27568   0.963   3.851  12.619  0.1698  0.2109 -0.4650
 5370SOL    HW127569   0.879   3.814  12.647 -0.5013  2.7068  0.8176
 5370SOL    HW227570   1.013   3.790  12.673 -0.3373  0.6541  0.5192
 5371SOL     OW27571   0.340   0.288   1.782  0.1632  0.1990 -0.2540
 5371SOL    HW127572   0.248   0.277   1.759  0.1868  1.5811 -1.0265
 5371SOL    HW227573   0.377   0.314   1.697 -1.3837 -0.0515 -0.9998
 5372SOL     OW27574   0.771   0.374   3.602  0.2604 -0.0682  0.3553
 5372SOL    HW127575   0.740   0.330   3.523 -0.5387  0.9063  0.1355
 5372SOL    HW227576   0.820   0.447   3.566 -1.3904  0.5443 -0.6056
 5373SOL     OW27577   2.138   4.627   8.252 -0.0301 -0.4721  0.1884
 5373SOL    HW127578   2.150   4.537   8.282  0.4543  0.1543  1.8906
 5373SOL    HW227579   2.044   4.642   8.239  0.3032 -1.2704 -3.0620
 5374SOL     OW27580   2.805   0.409   3.741  0.4484  0.3125 -0.0457
 5374SOL    HW127581   2.864   0.482   3.755 -0.9118  0.9598  2.2637
 5374SOL    HW227582   2.719   0.445   3.763 -0.3447 -1.1960 -0.6270
 5375SOL     OW27583   3.072   1.652   6.228  0.0693  0.0978  0.0217
 5375SOL    HW127584   3.146   1.661   6.288 -0.0108 -1.7798  0.4158
 5375SOL    HW227585   3.052   1.559   6.237  0.8973 -0.1089 -0.3354
 5376SOL     OW27586   2.903   4.440   4.845  0.1209 -0.8105  0.2066
 5376SOL    HW127587   2.896   4.517   4.790 -0.7720 -0.1187  1.2887
 5376SOL    HW227588   2.937   4.382   4.777  0.9696 -1.1112  0.8823
 5377SOL     OW27589   2.371   0.585   5.104 -0.2838 -0.2628  0.2881
 5377SOL    HW127590   2.329   0.501   5.084 -1.3114  1.0497 -3.1884
 5377SOL    HW227591   2.298   0.646   5.092 -1.6133 -1.5028  2.1818
 5378SOL     OW27592   4.008   0.027   8.730 -0.2482  0.1152  0.4500
 5378SOL    HW127593   3.978   4.671   8.779 -1.1753  0.4817  0.4621
 5378SOL    HW227594   4.047   0.082   8.798  0.1534  0.2302  0.1214
 5379SOL     OW27595   3.888   1.944   9.714 -0.6286  0.1292  0.0514
 5379SOL    HW127596   3.794   1.956   9.724 -0.2858  1.3975  1.7475
 5379SOL    HW227597   3.938   2.003   9.771 -0.2636 -1.0724  0.9527
 5380SOL     OW27598   2.242   2.900   6.645  1.0638 -0.1343  0.2977
 5380SOL    HW127599   2.259   2.994   6.632 -1.9133  0.1917 -1.4728
 5380SOL    HW227600   2.208   2.910   6.734 -3.3677  1.4019 -1.5438
 5381SOL     OW27601   0.475   2.464  15.276  0.3218 -0.1346  0.2637
 5381SOL    HW127602   0.451   2.433  15.188  1.0691  3.1490 -1.1203
 5381SOL    HW227603   0.508   2.383  15.315 -0.1536  0.6771  2.2910
 5382SOL     OW27604   1.475   3.031  16.748 -0.5064  0.4194  0.0149
 5382SOL    HW127605   1.541   3.035  16.817 -0.0618  2.5575 -0.5405
 5382SOL    HW227606   1.476   3.114  16.700  1.7117  0.3479 -0.0721
 5383SOL     OW27607   0.198   1.903   6.922 -0.0409  0.1193  0.1861
 5383SOL    HW127608   0.286   1.868   6.907  0.9461  1.6584  2.4330
 5383SOL    HW227609   0.186   1.875   7.013 -1.0107 -3.0452 -0.9121
 5384SOL     OW27610   0.833   0.294   3.102 -0.3717 -0.1137 -0.1103
 5384SOL    HW127611   0.815   0.387   3.116  0.7361 -0.0425  0.8395
 5384SOL    HW227612   0.917   0.300   3.148  0.9742  0.2534 -2.5684
 5385SOL     OW27613   1.956   4.363   3.271 -0.7181 -0.2956 -0.1493
 5385SOL    HW127614   1.887   4.296   3.276 -1.7762  0.8173  0.2527
 5385SOL    HW227615   2.016   4.336   3.201  0.6237 -1.3925  1.4183
 5386SOL     OW27616   3.421   3.796  11.720  0.0977  0.1870 -0.1540
 5386SOL    HW127617   3.336   3.822  11.683  0.1169  0.8176  0.2507
 5386SOL    HW227618   3.400   3.811  11.813  2.7125  4.5095 -0.2882
 5387SOL     OW27619   2.156   4.132  17.022 -0.1968 -0.1789  0.5672
 5387SOL    HW127620   2.104   4.209  16.998 -0.5811 -0.7457 -0.4380
 5387SOL    HW227621   2.083   4.073  17.040 -0.8188  0.4708  0.1716
 5388SOL     OW27622   3.964   2.658  16.205 -0.1566  0.3747 -0.3363
 5388SOL    HW127623   3.999   2.600  16.273  2.0424  1.3281 -0.6526
 5388SOL    HW227624   4.049   2.682  16.166  0.3229  1.0885  1.1407
 5389SOL     OW27625   1.713   3.017   7.646  0.1426  0.0565 -0.0139
 5389SOL    HW127626   1.639   3.078   7.644 -0.5954 -0.8435  0.0846
 5389SOL    HW227627   1.677   2.929   7.642 -4.1429  1.8346 -1.1528
 5390SOL     OW27628   4.269   1.860   2.425  0.1533  0.0930 -0.1982
 5390SOL    HW127629   4.226   1.892   2.347 -0.4016 -1.6360 -0.5984
 5390SOL    HW227630   4.268   1.934   2.486  2.4344  0.2873 -0.3767
 5391SOL     OW27631   3.278   2.964   6.172  0.0531  0.2727  0.4952
 5391SOL    HW127632   3.255   3.011   6.092  1.0664  1.4817  0.9134
 5391SOL    HW227633   3.193   2.969   6.215  0.6376  2.4383  1.3811
 5392SOL     OW27634   2.790   4.428   6.564  0.4040  0.2503 -0.5202
 5392SOL    HW127635   2.765   4.397   6.652 -0.2805 -0.4618 -0.9552
 5392SOL    HW227636   2.858   4.365   6.542  0.9295  0.9401 -0.8489
 5393SOL     OW27637   1.351   3.009   2.969 -0.0673  0.4224  0.1824
 5393SOL    HW127638   1.364   3.028   2.876  0.8732 -1.3162 -0.0378
 5393SOL    HW227639   1.282   3.066   3.001 -0.1065 -0.0129  0.8639
 5394SOL     OW27640   2.207   1.303   2.402 -0.4412  0.9941  0.1057
 5394SOL    HW127641   2.282   1.253   2.369 -0.2229  0.9702  0.6512
 5394SOL    HW227642   2.156   1.332   2.326  1.4635  0.0448 -1.5475
 5395SOL     OW27643   3.384   3.957   9.054 -0.1366  0.1808 -0.0701
 5395SOL    HW127644   3.386   3.873   9.101 -1.5932 -0.9647 -2.0389
 5395SOL    HW227645   3.414   4.019   9.121  1.3752 -0.6109 -0.0004
 5396SOL     OW27646   3.897   4.719   6.695 -0.1381  0.5266 -0.0766
 5396SOL    HW127647   3.925   0.083   6.662 -1.1839  0.2033 -1.7759
 5396SOL    HW227648   3.807   4.718   6.662  0.2352 -0.8560 -1.0586
 5397SOL     OW27649   3.417   2.375   5.146 -0.3753 -0.5735 -0.4591
 5397SOL    HW127650   3.473   2.334   5.080 -1.7219 -1.8917 -0.7717
 5397SOL    HW227651   3.435   2.323   5.223  0.5779 -0.4187 -0.5746
 5398SOL     OW27652   4.140   2.206  10.609  0.2470  0.4567  0.2694
 5398SOL    HW127653   4.190   2.215  10.528  0.3554 -0.6927  0.2159
 5398SOL    HW227654   4.177   2.128  10.649  1.0195  0.6551 -0.0514
 5399SOL     OW27655   0.755   1.536   8.434  0.1749  0.4331  0.5525
 5399SOL    HW127656   0.720   1.480   8.503 -1.2856  0.2836 -0.2976
 5399SOL    HW227657   0.844   1.503   8.428 -0.2778 -0.1729 -2.6552
 5400SOL     OW27658   2.572   3.162   7.587  0.5390 -0.5121  0.7910
 5400SOL    HW127659   2.491   3.111   7.590  0.7986 -0.8309  2.7821
 5400SOL    HW227660   2.543   3.251   7.606  2.9015  0.4868 -0.3047
 5401SOL     OW27661   0.525   2.988   8.890  0.4838  0.1313 -0.2661
 5401SOL    HW127662   0.451   2.986   8.950  0.9077 -0.3547  0.2436
 5401SOL    HW227663   0.555   2.899   8.904  1.5859  0.4610 -0.4742
 5402SOL     OW27664   0.452   4.492   4.762 -0.0224 -0.2390 -1.0797
 5402SOL    HW127665   0.358   4.483   4.781  0.4535 -2.0879  0.4200
 5402SOL    HW227666   0.481   4.515   4.850 -1.2885 -1.1185 -0.4333
 5403SOL     OW27667   2.870   3.103   9.475 -0.1321 -0.5710  0.0332
 5403SOL    HW127668   2.869   3.050   9.396  0.1490 -1.6425  0.7371
 5403SOL    HW227669   2.965   3.102   9.486 -0.0057 -0.0127 -1.0658
 5404SOL     OW27670   2.381   3.663   6.001 -0.1222  0.2584  0.0418
 5404SOL    HW127671   2.347   3.604   5.934  2.1431 -0.9484 -0.0461
 5404SOL    HW227672   2.473   3.680   5.979 -0.8315  1.9991 -1.5945
 5405SOL     OW27673   3.995   1.552  17.623 -0.0323  0.0987  1.1994
 5405SOL    HW127674   4.084   1.526  17.597 -0.5107 -0.2591 -0.0962
 5405SOL    HW227675   3.985   1.600  17.541 -0.5538 -3.3355 -0.7504
 5406SOL     OW27676   4.678   0.181   1.012  0.2920 -0.5725 -0.1930
 5406SOL    HW127677   4.690   0.183   1.107  0.3267 -0.9252 -0.1910
 5406SOL    HW227678   4.610   0.115   1.010  0.7595 -1.0595 -0.0731
 5407SOL     OW27679   0.078   1.002   2.001  0.2490 -0.3972  0.3040
 5407SOL    HW127680   4.720   0.979   1.952  0.6887 -2.1630  0.4211
 5407SOL    HW227681   0.060   0.990   2.094  0.6842 -1.0162  0.3159
 5408SOL     OW27682   3.084   4.369   8.146  0.1093  0.0502 -0.5147
 5408SOL    HW127683   3.177   4.347   8.151  0.5099  1.2581 -2.5442
 5408SOL    HW227684   3.048   4.280   8.153  1.0732 -0.5100 -2.6006
 5409SOL     OW27685   4.590   2.395   0.476 -0.5935 -0.4066  0.1193
 5409SOL    HW127686   4.541   2.316   0.454 -0.8107 -0.5402  1.0938
 5409SOL    HW227687   4.525   2.465   0.475 -0.8903 -0.6836  0.2404
 5410SOL     OW27688   4.075   0.855   3.139 -0.3103  0.5306  0.0491
 5410SOL    HW127689   4.010   0.889   3.076 -0.9955 -0.8164  0.0342
 5410SOL    HW227690   4.025   0.834   3.218 -2.8593  1.1800 -1.3630
 5411SOL     OW27691   4.208   2.172   0.391  0.4839 -0.4434  0.1788
 5411SOL    HW127692   4.275   2.118   0.348  2.3423  1.5146  0.6046
 5411SOL    HW227693   4.133   2.113   0.393  1.6151 -1.8805  0.6269
 5412SOL     OW27694   0.339   0.735  13.783  0.0371  0.3066  0.2786
 5412SOL    HW127695   0.288   0.721  13.703 -0.1335  0.2627  0.3950
 5412SOL    HW227696   0.425   0.741  13.741  0.4807 -2.5281  0.7953
 5413SOL     OW27697   4.254   1.707   9.532 -0.0472  0.0733  0.0290
 5413SOL    HW127698   4.324   1.763   9.567 -0.5681  1.2063 -0.7438
 5413SOL    HW227699   4.184   1.717   9.597  1.4276 -3.2956  2.1485
 5414SOL     OW27700   2.900   4.182   5.853 -0.6581  0.0739  0.0200
 5414SOL    HW127701   2.928   4.195   5.763  0.0991  0.7633  0.3566
 5414SOL    HW227702   2.933   4.259   5.900 -0.7731  0.6759 -0.8840
 5415SOL     OW27703   3.584   4.560   9.764 -0.2430 -0.3746  0.5974
 5415SOL    HW127704   3.608   4.492   9.827 -0.7930 -0.0989  1.1101
 5415SOL    HW227705   3.504   4.583   9.811  0.3418  0.5501  1.1435
 5416SOL     OW27706   3.846   4.379   6.614 -0.5661 -0.5942  0.1642
 5416SOL    HW127707   3.909   4.450   6.622 -0.2832 -0.7384 -0.7636
 5416SOL    HW227708   3.798   4.388   6.531  0.8977  0.6886 -0.5321
 5417SOL     OW27709   0.850   2.259  14.208 -0.1829  0.1467  0.4106
 5417SOL    HW127710   0.935   2.227  14.238  0.1517  0.6048 -0.0510
 5417SOL    HW227711   0.830   2.204  14.132  0.6958 -0.8760  0.9194
 5418SOL     OW27712   0.792   3.890   2.611 -0.1077 -0.1207  0.2065
 5418SOL    HW127713   0.839   3.910   2.691 -1.1590 -1.1711  1.0840
 5418SOL    HW227714   0.829   3.804   2.589  0.2943 -0.0078  0.4531
 5419SOL     OW27715   1.256   4.357   1.750 -0.6777 -0.5020  0.5955
 5419SOL    HW127716   1.250   4.385   1.658 -0.0574  0.2570  0.7820
 5419SOL    HW227717   1.310   4.278   1.748 -0.8608 -0.6300  0.7366
 5420SOL     OW27718   1.057   2.457  14.717 -0.5310  0.5110 -0.0142
 5420SOL    HW127719   1.014   2.529  14.762 -2.3721 -0.3211 -0.4542
 5420SOL    HW227720   1.107   2.414  14.786  1.1101 -2.1469 -2.8287
 5421SOL     OW27721   1.631   1.920   6.005 -0.3806 -0.8685  0.6370
 5421SOL    HW127722   1.724   1.914   6.029 -0.6968  0.0769  2.0859
 5421SOL    HW227723   1.637   1.898   5.912 -1.3775  1.8232 -0.0596
 5422SOL     OW27724   1.378   2.828   1.706 -0.2533  0.0270  0.1413
 5422SOL    HW127725   1.394   2.921   1.691  1.9275 -0.1017  1.5911
 5422SOL    HW227726   1.368   2.796   1.616 -0.6409 -0.8980  0.5183
 5423SOL     OW27727   0.314   4.459   6.172 -0.0037  0.4585 -0.2922
 5423SOL    HW127728   0.407   4.471   6.151 -0.1362  0.2842 -0.9840
 5423SOL    HW227729   0.287   4.547   6.145 -1.5608  0.2649  0.6489
 5424SOL     OW27730   4.604   1.883  12.866  0.4327  0.0182  0.5279
 5424SOL    HW127731   4.571   1.821  12.930  1.8119 -0.4565  0.7888
 5424SOL    HW227732   4.698   1.872  12.881  0.6136  0.1121 -0.5273
 5425SOL     OW27733   1.944   2.877  11.745  0.1839 -0.1315 -0.0861
 5425SOL    HW127734   1.990   2.958  11.721 -1.4069  0.2446 -1.8945
 5425SOL    HW227735   1.921   2.845  11.658  0.4681 -1.6153  0.3994
 5426SOL     OW27736   2.481   1.526   6.764 -0.1638  0.1921 -0.0116
 5426SOL    HW127737   2.411   1.514   6.828 -0.7879 -1.5613 -1.0279
 5426SOL    HW227738   2.431   1.540   6.685  0.3924  0.5216 -0.3026
 5427SOL     OW27739   3.604   2.733   2.861  0.2676  0.4591  0.7746
 5427SOL    HW127740   3.547   2.750   2.786  1.9427 -0.8617 -0.8018
 5427SOL    HW227741   3.645   2.819   2.870 -0.3296  0.9489 -1.1460
 5428SOL     OW27742   3.648   1.193   3.537 -0.0535  0.2223 -0.2483
 5428SOL    HW127743   3.707   1.235   3.600  0.7526  0.5267 -1.2180
 5428SOL    HW227744   3.611   1.262   3.481  2.6092  1.3944 -0.5651
 5429SOL     OW27745   3.797   0.587   8.993 -0.7447  0.7908  0.6963
 5429SOL    HW127746   3.866   0.625   8.938 -1.0898 -2.3979 -1.9475
 5429SOL    HW227747   3.843   0.515   9.036  0.5779  0.9030 -0.5229
 5430SOL     OW27748   3.613   3.589   6.854  0.2643  0.2177 -0.1155
 5430SOL    HW127749   3.574   3.673   6.830 -0.7700 -0.4471 -0.7743
 5430SOL    HW227750   3.639   3.558   6.767 -0.0353  0.3663 -0.2572
 5431SOL     OW27751   3.021   0.642   7.321  0.1402  0.4948 -0.1590
 5431SOL    HW127752   3.068   0.723   7.304 -1.6135  0.9620 -2.7485
 5431SOL    HW227753   3.078   0.582   7.273  0.2740  1.3923 -1.1020
 5432SOL     OW27754   1.751   4.541   7.054 -0.5526  0.3403 -0.3043
 5432SOL    HW127755   1.797   4.601   6.995 -0.8826  2.2492  1.4196
 5432SOL    HW227756   1.661   4.572   7.043 -0.5190 -0.7287 -3.7576
 5433SOL     OW27757   3.742   0.111  12.846 -0.0179 -0.3365 -0.1193
 5433SOL    HW127758   3.673   0.054  12.882  0.5636  0.0623  1.6468
 5433SOL    HW227759   3.811   0.052  12.818 -0.1403 -0.0442 -1.0193
 5434SOL     OW27760   0.664   4.285  13.750  0.7560  0.3701  0.3654
 5434SOL    HW127761   0.743   4.292  13.697  1.6691 -3.4686  1.1686
 5434SOL    HW227762   0.627   4.206  13.710 -1.2336  0.4243  2.0617
 5435SOL     OW27763   0.871   3.097   8.253  0.4095  0.4858  0.8140
 5435SOL    HW127764   0.895   3.005   8.263 -0.8109  0.0732 -0.1633
 5435SOL    HW227765   0.794   3.079   8.200 -0.3031  2.3908  1.2154
 5436SOL     OW27766   4.548   2.263   5.641 -0.1498  0.0229  0.1300
 5436SOL    HW127767   4.490   2.254   5.717 -0.8449  1.0440 -0.2796
 5436SOL    HW227768   4.530   2.349   5.604  0.3866 -1.3548 -3.3790
 5437SOL     OW27769   4.266   2.802   4.186 -1.0320 -0.6551 -0.2045
 5437SOL    HW127770   4.225   2.806   4.272 -1.8836 -1.1288 -0.5917
 5437SOL    HW227771   4.187   2.792   4.134  0.0678 -0.1239 -1.9674
 5438SOL     OW27772   2.943   4.263  15.746  0.1347 -0.8094  0.9654
 5438SOL    HW127773   2.973   4.224  15.827 -0.5730  1.8005  2.4735
 5438SOL    HW227774   3.024   4.256  15.695 -1.4689  0.7095 -1.7894
 5439SOL     OW27775   4.477   1.051   8.028 -0.0106 -0.2749 -0.3988
 5439SOL    HW127776   4.389   1.017   8.046 -0.3083  0.3395 -0.7177
 5439SOL    HW227777   4.536   0.980   8.055 -1.6940 -1.8406 -0.7887
 5440SOL     OW27778   2.852   1.827  11.541  0.1399  0.9186  0.0427
 5440SOL    HW127779   2.877   1.840  11.633  2.2445 -0.9869 -0.2760
 5440SOL    HW227780   2.917   1.884  11.500  2.0253  0.7695  2.8167
 5441SOL     OW27781   3.476   2.489   2.820 -0.1333  0.7722 -0.3268
 5441SOL    HW127782   3.420   2.485   2.898 -0.3942  0.0733 -0.5469
 5441SOL    HW227783   3.540   2.554   2.849 -1.0395  1.3488  0.3732
 5442SOL     OW27784   2.524   1.545   5.676 -0.2407  0.1182  0.3902
 5442SOL    HW127785   2.501   1.551   5.769  0.0362  0.2381  0.4516
 5442SOL    HW227786   2.446   1.585   5.636 -0.8102 -1.7968 -0.4116
 5443SOL     OW27787   3.540   4.289  13.842 -0.2307 -0.1187  0.2213
 5443SOL    HW127788   3.567   4.206  13.802  0.7542  0.7547 -0.9019
 5443SOL    HW227789   3.486   4.322  13.771 -0.9031 -2.2204 -0.2559
 5444SOL     OW27790   2.759   0.017   2.657 -0.3370 -0.1846 -0.6333
 5444SOL    HW127791   2.841   4.710   2.697 -0.4996 -1.3610 -1.1187
 5444SOL    HW227792   2.686   4.690   2.697  0.7481  1.8502  3.7463
 5445SOL     OW27793   1.978   1.627   4.432  0.2444 -0.0431  0.1353
 5445SOL    HW127794   1.997   1.580   4.514 -1.5047 -0.8060  0.0895
 5445SOL    HW227795   1.897   1.588   4.400  0.5073 -1.0595  0.6771
 5446SOL     OW27796   2.549   4.465   6.441  0.2451  0.6774  0.4289
 5446SOL    HW127797   2.637   4.454   6.479  0.2877  0.8061  0.3668
 5446SOL    HW227798   2.496   4.473   6.520  0.0184 -1.1085  0.4527
 5447SOL     OW27799   0.699   1.849   7.902 -0.2644 -0.5390  0.1854
 5447SOL    HW127800   0.753   1.902   7.844  0.0905  1.4133  2.3158
 5447SOL    HW227801   0.767   1.784   7.923 -0.3195 -0.6230  0.1023
 5448SOL     OW27802   2.149   2.830   2.073  0.3558  0.1046  0.1782
 5448SOL    HW127803   2.171   2.744   2.037 -1.9020  0.0406 -1.0220
 5448SOL    HW227804   2.108   2.868   1.995 -0.3393 -0.1772  0.4067
 5449SOL     OW27805   1.377   3.618   3.562  0.5058  0.1319 -0.2877
 5449SOL    HW127806   1.301   3.568   3.593  1.1527  0.7307  2.2454
 5449SOL    HW227807   1.346   3.643   3.475 -1.2653  0.6200  0.4879
 5450SOL     OW27808   3.882   1.111   2.471  0.4260 -0.3905 -0.6058
 5450SOL    HW127809   3.945   1.040   2.474  0.4782 -0.3582 -0.8761
 5450SOL    HW227810   3.846   1.098   2.383 -0.0655  0.0317 -0.4731
 5451SOL     OW27811   3.373   4.604   9.919  0.7787  0.5313  0.0860
 5451SOL    HW127812   3.297   4.609   9.862  0.7474 -1.1211 -0.0061
 5451SOL    HW227813   3.353   4.679   9.975  2.1615  0.1724  1.0555
 5452SOL     OW27814   3.008   0.835  10.429 -0.0112  0.2435 -0.2220
 5452SOL    HW127815   3.003   0.815  10.523  1.2058  2.0080  0.2307
 5452SOL    HW227816   3.100   0.861  10.420 -0.4354  1.2218 -1.7155
 5453SOL     OW27817   4.561   0.969  17.121  0.6490 -0.4962  0.2082
 5453SOL    HW127818   4.557   1.063  17.135 -0.1396 -0.4901 -0.0491
 5453SOL    HW227819   4.491   0.938  17.179 -1.8266  0.7747 -2.0877
 5454SOL     OW27820   0.438   1.023   4.531  0.0671 -0.0193  0.1461
 5454SOL    HW127821   0.397   1.052   4.613 -0.9458 -0.3097 -0.2624
 5454SOL    HW227822   0.454   1.105   4.483  0.3168  1.3828  2.6004
 5455SOL     OW27823   3.477   3.121   9.556 -0.0349  0.4451  0.3078
 5455SOL    HW127824   3.428   3.204   9.554  1.9055  1.5494 -0.6155
 5455SOL    HW227825   3.556   3.144   9.604  0.6488  0.5126 -0.8690
 5456SOL     OW27826   3.034   0.766   6.871 -0.0558 -0.0448  0.4185
 5456SOL    HW127827   3.128   0.784   6.862  0.1289 -0.7437  1.0289
 5456SOL    HW227828   3.002   0.821   6.943 -0.8045  2.2239 -1.6601
 5457SOL     OW27829   4.343   1.804   4.438 -0.7323 -0.5041  0.1861
 5457SOL    HW127830   4.430   1.785   4.472 -0.2006 -0.4133 -1.1003
 5457SOL    HW227831   4.300   1.740   4.494 -1.1522 -0.9780 -0.6788
 5458SOL     OW27832   0.155   1.256  12.642 -0.3034  0.2851 -0.6567
 5458SOL    HW127833   0.129   1.204  12.566  0.3377 -0.8175 -0.1023
 5458SOL    HW227834   0.129   1.200  12.715  2.5052 -1.0234 -0.6670
 5459SOL     OW27835   1.571   1.561   0.633 -0.2606 -0.6741  0.0861
 5459SOL    HW127836   1.511   1.608   0.575 -1.6293 -0.4838  1.6723
 5459SOL    HW227837   1.511   1.503   0.680 -0.7478 -1.5198 -1.5820
 5460SOL     OW27838   3.079   4.085  11.884  0.5153 -0.3612 -0.8706
 5460SOL    HW127839   3.030   4.077  11.802 -0.8179  0.3299 -0.1465
 5460SOL    HW227840   3.131   4.159  11.852 -0.2734  0.8941  0.7911
 5461SOL     OW27841   0.432   0.707   7.310 -0.2946 -0.3605  0.0887
 5461SOL    HW127842   0.416   0.637   7.373  1.2209 -0.2483  0.5985
 5461SOL    HW227843   0.524   0.698   7.282 -0.2407  0.9135 -0.1655
 5462SOL     OW27844   4.233   1.787   8.833 -0.2698  0.3101  0.2278
 5462SOL    HW127845   4.153   1.835   8.813 -1.0266 -1.2197 -0.4900
 5462SOL    HW227846   4.307   1.834   8.795 -0.1714  1.2094  1.5411
 5463SOL     OW27847   1.223   2.012   3.881  0.3049  0.1257  0.6298
 5463SOL    HW127848   1.211   2.018   3.976  2.2508  3.1919  0.6813
 5463SOL    HW227849   1.133   1.985   3.864 -0.9201  3.2414  2.2818
 5464SOL     OW27850   3.671   1.295  15.850 -0.2181  0.0938 -0.1206
 5464SOL    HW127851   3.759   1.291  15.888 -0.9337  0.5511  1.5896
 5464SOL    HW227852   3.620   1.310  15.930 -1.7868 -2.3672 -0.6505
 5465SOL     OW27853   1.377   3.769   5.720  0.6465 -0.2023  0.4894
 5465SOL    HW127854   1.382   3.694   5.661  0.1000  0.4911 -0.4317
 5465SOL    HW227855   1.375   3.726   5.805  2.5510 -1.2791 -0.0290
 5466SOL     OW27856   4.388   4.490   7.906 -0.2782 -0.2813 -0.4098
 5466SOL    HW127857   4.294   4.498   7.886 -0.1600  2.6224  0.2658
 5466SOL    HW227858   4.407   4.397   7.897 -0.3306 -0.1889 -1.5815
 5467SOL     OW27859   4.081   1.971  10.946 -0.1375 -0.3824 -0.9437
 5467SOL    HW127860   4.049   2.060  10.956  0.3144 -0.4188  0.8521
 5467SOL    HW227861   4.140   1.991  10.873  0.8819 -0.9895 -0.2927
 5468SOL     OW27862   2.066   3.873   4.799  0.1382 -0.2944  0.0933
 5468SOL    HW127863   2.017   3.949   4.831  0.4382 -1.7708  4.1665
 5468SOL    HW227864   2.143   3.894   4.853 -0.5090  1.0276  0.5121
 5469SOL     OW27865   1.619   2.515   4.167  0.0589 -0.3616 -0.2673
 5469SOL    HW127866   1.693   2.575   4.181 -0.8310  0.6606  0.0657
 5469SOL    HW227867   1.673   2.450   4.123  1.7186 -0.2006  1.5184
 5470SOL     OW27868   2.615   4.284   7.864  0.0142 -0.1777  0.2941
 5470SOL    HW127869   2.539   4.342   7.864  0.8068  0.8659  1.0239
 5470SOL    HW227870   2.684   4.337   7.904 -1.3133  0.0936  2.2064
 5471SOL     OW27871   3.830   2.224   3.960 -0.5407 -0.2358 -0.6705
 5471SOL    HW127872   3.923   2.205   3.958 -0.1793  1.3451  0.8973
 5471SOL    HW227873   3.809   2.134   3.984 -1.6564  0.4408  0.9455
 5472SOL     OW27874   3.478   0.644   4.527 -0.0113 -0.4373 -0.4364
 5472SOL    HW127875   3.501   0.559   4.564 -0.2645 -0.8708 -1.2702
 5472SOL    HW227876   3.434   0.616   4.446  2.4268 -1.5861 -1.3557
 5473SOL     OW27877   0.491   2.889   4.018 -0.2866  0.5157  0.4676
 5473SOL    HW127878   0.576   2.847   4.005 -0.9510 -0.9506  0.8082
 5473SOL    HW227879   0.460   2.885   3.928  0.1302 -5.5792  0.6123
 5474SOL     OW27880   1.644   1.845   5.742 -0.7816 -0.2157 -0.3741
 5474SOL    HW127881   1.664   1.909   5.673  2.5915  0.4564  1.2643
 5474SOL    HW227882   1.692   1.768   5.712  0.2759 -0.3606  1.7103
 5475SOL     OW27883   1.736   4.478   5.814 -0.2030 -0.0593  0.3354
 5475SOL    HW127884   1.791   4.488   5.736 -0.1929 -1.5983  0.1556
 5475SOL    HW227885   1.746   4.567   5.849  1.5360  0.0474 -0.4049
 5476SOL     OW27886   2.475   3.949   5.946  0.5998  0.2744 -0.0759
 5476SOL    HW127887   2.476   4.044   5.955  2.7587  0.1947  0.4789
 5476SOL    HW227888   2.546   3.944   5.882  0.3402  1.8779 -0.4713
 5477SOL     OW27889   1.964   0.615   5.649  0.7016 -0.3305 -0.1682
 5477SOL    HW127890   1.960   0.698   5.696 -1.2147 -0.4890 -0.0460
 5477SOL    HW227891   1.875   0.583   5.664  0.0898  0.8197 -1.2827
 5478SOL     OW27892   3.234   3.560   5.228  0.0434 -0.6954  0.2092
 5478SOL    HW127893   3.182   3.532   5.153  1.2467  0.2168 -0.9539
 5478SOL    HW227894   3.237   3.656   5.229  0.5483 -0.7065 -1.1531
 5479SOL     OW27895   2.757   2.337   6.988 -0.4852  0.6210  0.2849
 5479SOL    HW127896   2.783   2.251   6.957  1.6154  1.2379  0.3780
 5479SOL    HW227897   2.819   2.390   6.938 -1.7269 -0.5310 -2.4302
 5480SOL     OW27898   1.698   3.404   2.305  0.6141  0.1696  0.2581
 5480SOL    HW127899   1.747   3.322   2.312  0.5050  0.0706 -0.1179
 5480SOL    HW227900   1.760   3.454   2.251  2.2140 -1.2328  0.7934
 5481SOL     OW27901   0.327   4.347   1.820 -0.7031  0.6448 -0.0422
 5481SOL    HW127902   0.348   4.414   1.885  2.2609 -1.6613  1.3674
 5481SOL    HW227903   0.258   4.303   1.871  1.0127 -1.2151  0.6461
 5482SOL     OW27904   2.892   3.671   0.385  0.0752 -0.3130 -0.0688
 5482SOL    HW127905   2.910   3.692   0.476  0.3062  0.6023 -0.3219
 5482SOL    HW227906   2.799   3.653   0.388 -0.0964  0.7980  1.2143
 5483SOL     OW27907   4.160   2.469   7.250 -0.9490 -0.0776 -0.3184
 5483SOL    HW127908   4.183   2.469   7.343  1.6101  0.5179 -0.9528
 5483SOL    HW227909   4.242   2.453   7.203 -0.0575  0.2715  1.1237
 5484SOL     OW27910   3.380   1.048   7.934 -0.0634  0.9065  0.0364
 5484SOL    HW127911   3.470   1.025   7.911 -0.4382 -1.1924  0.7118
 5484SOL    HW227912   3.395   1.065   8.027 -0.9995  0.3048  0.3010
 5485SOL     OW27913   2.242   2.524   8.518 -0.0144  0.1472 -0.2835
 5485SOL    HW127914   2.158   2.513   8.473  0.5326  1.6457 -1.6661
 5485SOL    HW227915   2.229   2.459   8.588 -3.2546 -0.2343 -1.2598
 5486SOL     OW27916   2.102   2.553  15.155 -0.0953  0.0419  0.0111
 5486SOL    HW127917   2.061   2.566  15.069  0.5631  0.9536 -0.1581
 5486SOL    HW227918   2.195   2.572  15.147 -0.2950  0.7707 -0.5109
 5487SOL     OW27919   2.054   4.511   6.943 -0.0185  0.5767  0.2056
 5487SOL    HW127920   2.127   4.452   6.960  0.1536  0.6026 -0.4178
 5487SOL    HW227921   2.097   4.561   6.873  1.8423 -1.6683 -0.2444
 5488SOL     OW27922   3.544   0.436  14.962  0.1498 -0.6697  0.0193
 5488SOL    HW127923   3.541   0.376  14.888 -1.0446  0.1112 -0.5493
 5488SOL    HW227924   3.615   0.495  14.935 -0.9137 -0.7630 -2.9323
 5489SOL     OW27925   4.698   1.124   9.248 -0.1507  0.1315  0.2164
 5489SOL    HW127926   4.687   1.147   9.156  0.2088  0.5300  0.2754
 5489SOL    HW227927   0.053   1.177   9.272  0.0421 -1.0985  2.3194
 5490SOL     OW27928   0.354   2.807   2.141  0.8284 -0.2038  0.3043
 5490SOL    HW127929   0.353   2.882   2.201  0.2751  0.1012 -0.0800
 5490SOL    HW227930   0.416   2.755   2.193  0.8730 -0.8632 -0.4146
 5491SOL     OW27931   4.661   3.849   7.841 -0.0976  0.6870 -0.6345
 5491SOL    HW127932   4.572   3.849   7.873  0.0401 -0.3509 -0.2535
 5491SOL    HW227933   4.645   3.804   7.758 -0.9566  0.6490 -0.4444
 5492SOL     OW27934   1.690   0.877  12.865 -0.3678  0.5709  0.4337
 5492SOL    HW127935   1.658   0.848  12.950 -3.6347  2.2985 -0.2191
 5492SOL    HW227936   1.647   0.819  12.803 -2.8873  1.9865  0.8481
 5493SOL     OW27937   3.002   2.564   7.164 -0.0992  0.1046 -0.4024
 5493SOL    HW127938   2.999   2.536   7.072  0.7174 -2.1923  0.2613
 5493SOL    HW227939   2.908   2.580   7.171 -0.2324 -0.6996 -0.2673
 5494SOL     OW27940   3.342   1.293   8.748  0.3339 -0.3057 -0.7790
 5494SOL    HW127941   3.412   1.333   8.698 -0.4610 -0.6184 -2.1476
 5494SOL    HW227942   3.318   1.365   8.807  0.8850 -0.7034 -0.0739
 5495SOL     OW27943   0.755   4.542   0.472 -0.0786  0.0109 -0.3993
 5495SOL    HW127944   0.812   4.505   0.405 -1.8610 -0.8956 -1.4106
 5495SOL    HW227945   0.815   4.555   0.546  0.3055  1.2895 -0.9456
 5496SOL     OW27946   2.096   0.162  12.845  0.0800  0.1536 -0.1289
 5496SOL    HW127947   2.033   0.156  12.917  0.2218  1.1744  0.0775
 5496SOL    HW227948   2.104   0.076  12.804 -0.8474  0.2903 -0.6075
 5497SOL     OW27949   1.759   3.533   8.679  1.1655 -0.1034 -0.5548
 5497SOL    HW127950   1.674   3.572   8.700  0.7183 -3.0683  3.0729
 5497SOL    HW227951   1.801   3.587   8.612  1.9762 -1.2139 -0.9427
 5498SOL     OW27952   3.849   4.392  17.597  0.3245  0.7278 -0.8606
 5498SOL    HW127953   3.760   4.355  17.601  1.2745 -1.5571 -0.6147
 5498SOL    HW227954   3.893   4.326  17.650 -1.4600  0.5107  0.3641
 5499SOL     OW27955   1.069   1.373  17.242  0.2975 -0.3298  1.0549
 5499SOL    HW127956   1.060   1.286  17.202 -1.0752  0.0269  0.5837
 5499SOL    HW227957   1.163   1.387  17.230 -0.1278  1.2120 -0.3487
 5500SOL     OW27958   1.662   0.542  15.372  0.5451 -0.2417  0.0367
 5500SOL    HW127959   1.610   0.523  15.450 -0.2207 -1.4661 -0.7900
 5500SOL    HW227960   1.719   0.465  15.368  0.6381 -0.2742  1.9941
 5501SOL     OW27961   2.056   1.277   2.912  0.2669  0.6194  0.2545
 5501SOL    HW127962   2.067   1.368   2.939 -0.3035  0.5725  0.6429
 5501SOL    HW227963   2.139   1.264   2.866  1.0680  0.5302  1.7058
 5502SOL     OW27964   3.289   4.690   2.083 -0.1651  0.1916 -0.1534
 5502SOL    HW127965   3.349   4.688   2.157 -1.7490 -0.4244  1.1261
 5502SOL    HW227966   3.237   0.044   2.113  1.4512  0.7904  1.1402
 5503SOL     OW27967   3.634   0.705   7.035 -0.2923 -0.1193 -0.0078
 5503SOL    HW127968   3.697   0.753   7.091 -3.9721  1.6485  2.6130
 5503SOL    HW227969   3.582   0.669   7.107 -1.4009  1.2894 -0.1060
 5504SOL     OW27970   3.361   2.433   9.700  0.1432 -0.0975  0.0397
 5504SOL    HW127971   3.439   2.454   9.750 -1.5456 -0.8593  2.9841
 5504SOL    HW227972   3.347   2.521   9.664  0.9568  0.2084  0.4801
 5505SOL     OW27973   2.407   0.141   2.732  0.1331 -0.4196  0.2302
 5505SOL    HW127974   2.410   0.139   2.637 -0.8877  1.2964  0.1675
 5505SOL    HW227975   2.474   0.076   2.755  1.5406  0.6536 -0.9216
 5506SOL     OW27976   0.068   2.770   0.593  0.3369 -0.2966 -0.0925
 5506SOL    HW127977   0.060   2.820   0.512  1.2349  2.5672  1.5930
 5506SOL    HW227978   0.056   2.835   0.662  1.9828 -0.4992  0.3936
 5507SOL     OW27979   0.702   2.828  16.566 -0.5431  0.0263 -0.2043
 5507SOL    HW127980   0.792   2.852  16.545 -0.3087  0.7016  1.5792
 5507SOL    HW227981   0.701   2.848  16.659  1.2091  0.0897 -0.1919
 5508SOL     OW27982   2.803   3.603   2.654 -0.4467 -0.3062  0.2749
 5508SOL    HW127983   2.839   3.549   2.584 -2.9027 -0.7806 -0.6160
 5508SOL    HW227984   2.777   3.684   2.610 -1.2644 -0.8334 -0.2076
 5509SOL     OW27985   4.480   1.908  10.187  0.1393  0.5694 -0.4014
 5509SOL    HW127986   4.454   1.830  10.139  1.1910  0.9668 -1.6153
 5509SOL    HW227987   4.545   1.869  10.246 -1.1852  1.9527  1.9915
 5510SOL     OW27988   3.878   0.518   2.747  0.6819  0.2002 -0.3016
 5510SOL    HW127989   3.819   0.559   2.811  0.2112 -1.0001  0.0481
 5510SOL    HW227990   3.917   0.454   2.806 -0.1854 -1.0526 -1.0810
 5511SOL     OW27991   2.716   2.501   7.584  0.6998  0.1208  0.0495
 5511SOL    HW127992   2.764   2.502   7.666  0.3381 -0.6988  0.2703
 5511SOL    HW227993   2.777   2.451   7.529  2.1532  1.1042  0.7504
 5512SOL     OW27994   4.541   1.625   9.310  0.1408 -0.3403 -0.3891
 5512SOL    HW127995   4.581   1.612   9.396 -0.6054 -0.4022 -0.0493
 5512SOL    HW227996   4.593   1.698   9.277  0.2164  0.6898  2.0742
 5513SOL     OW27997   0.999   3.451   8.650 -0.8881 -0.2267  0.0156
 5513SOL    HW127998   1.036   3.368   8.619 -0.5670  0.5896 -1.7431
 5513SOL    HW227999   0.905   3.432   8.646 -0.8105 -0.4602 -0.7203
 5514SOL     OW28000   3.971   0.971  13.009 -0.0672 -0.4074 -0.2244
 5514SOL    HW128001   4.049   0.916  13.016 -0.1751 -0.8849 -2.7743
 5514SOL    HW228002   3.902   0.916  13.046 -1.3902  2.3583  1.4000
 5515SOL     OW28003   0.455   2.587   7.399 -0.3327  0.0556  0.1673
 5515SOL    HW128004   0.424   2.514   7.345  1.6448 -0.9718  0.4167
 5515SOL    HW228005   0.517   2.541   7.456 -0.5175 -2.0299 -1.3089
 5516SOL     OW28006   1.782   4.266   4.517  0.0896  0.0904  0.0368
 5516SOL    HW128007   1.802   4.279   4.610 -1.6267 -0.1105  0.4235
 5516SOL    HW228008   1.690   4.290   4.521  0.4597  1.5511 -0.1922
 5517SOL     OW28009   2.172   3.740  13.380  0.1090  0.2332  0.0840
 5517SOL    HW128010   2.227   3.805  13.424  1.5812 -1.9627  1.5044
 5517SOL    HW228011   2.091   3.755  13.428 -1.4944 -0.9590 -2.2579
 5518SOL     OW28012   4.419   0.351  16.009 -0.2745 -0.1606 -0.3607
 5518SOL    HW128013   4.372   0.344  15.926  0.5425 -3.4697 -0.5809
 5518SOL    HW228014   4.470   0.431  16.008  0.3263 -0.5340  0.5393
 5519SOL     OW28015   4.327   0.421  12.746 -0.2986 -0.2464  0.5467
 5519SOL    HW128016   4.369   0.346  12.787  1.5872  2.0568  2.7839
 5519SOL    HW228017   4.235   0.411  12.772 -0.1867  1.8596  1.7374
 5520SOL     OW28018   4.412   2.390   1.588 -0.4048 -0.1690 -0.6030
 5520SOL    HW128019   4.427   2.480   1.616  1.4481 -0.9666  0.9703
 5520SOL    HW228020   4.357   2.414   1.513 -1.2450  0.7949  0.3124
 5521SOL     OW28021   2.837   2.732   3.032  0.4335 -0.0612  0.0985
 5521SOL    HW128022   2.824   2.672   3.105  0.1296 -3.3654 -2.6475
 5521SOL    HW228023   2.814   2.811   3.081  0.2598  0.4098 -0.7302
 5522SOL     OW28024   3.317   0.165   1.534  0.2272  0.2562 -0.0629
 5522SOL    HW128025   3.250   0.129   1.477 -0.1575  0.3713  0.3114
 5522SOL    HW228026   3.355   0.083   1.567  0.2464  1.0877  1.9984
 5523SOL     OW28027   0.503   4.054   2.900  0.0877 -0.2423  0.3944
 5523SOL    HW128028   0.437   4.122   2.891  4.0254  3.4363 -0.7731
 5523SOL    HW228029   0.514   4.024   2.809  0.2787  2.5557 -0.4967
 5524SOL     OW28030   2.528   1.119   5.914  0.4916  0.1876 -0.1248
 5524SOL    HW128031   2.540   1.028   5.887 -1.4124 -0.1574  0.1852
 5524SOL    HW228032   2.488   1.151   5.834 -0.2553 -1.6206 -0.4591
 5525SOL     OW28033   0.449   2.582   0.190 -0.2157 -0.1778 -0.1094
 5525SOL    HW128034   0.540   2.598   0.166  0.0286  0.4617  1.2547
 5525SOL    HW228035   0.402   2.606   0.110 -1.2252  0.8549  0.7936
 5526SOL     OW28036   3.498   0.053   8.298  0.5412 -0.1883 -0.1852
 5526SOL    HW128037   3.551   4.703   8.261  0.7717  0.3358 -0.8664
 5526SOL    HW228038   3.566   0.119   8.315 -1.4942  0.9430  3.5731
 5527SOL     OW28039   1.473   1.090   6.558  0.2994  0.1786 -0.6052
 5527SOL    HW128040   1.379   1.095   6.575  0.4155 -1.5587  0.5455
 5527SOL    HW228041   1.490   1.174   6.516  0.0897 -0.2003 -1.4599
 5528SOL     OW28042   3.347   1.660   4.577  0.0964  0.1995  0.2117
 5528SOL    HW128043   3.324   1.710   4.499 -2.6890 -1.2454  0.1134
 5528SOL    HW228044   3.255   1.644   4.601  0.5632 -3.3561 -0.4822
 5529SOL     OW28045   1.043   2.992   2.492  0.6429  0.4350  0.7577
 5529SOL    HW128046   1.121   2.947   2.459 -0.5297 -0.6363 -0.5254
 5529SOL    HW228047   1.051   2.946   2.576  1.5219 -1.0892 -0.1653
 5530SOL     OW28048   3.725   3.533   7.854 -0.2956 -0.1056 -0.0125
 5530SOL    HW128049   3.727   3.564   7.944 -1.1215 -0.3961  0.1058
 5530SOL    HW228050   3.792   3.465   7.860 -0.2450  0.2776  3.2998
 5531SOL     OW28051   4.625   1.888   7.317 -0.1158 -0.0245  0.0181
 5531SOL    HW128052   4.650   1.889   7.410  1.2748 -0.8396 -0.3465
 5531SOL    HW228053   4.636   1.795   7.295 -2.9937 -0.4243  0.3253
 5532SOL     OW28054   1.674   1.120   7.217 -0.3605  0.4660 -0.0302
 5532SOL    HW128055   1.732   1.044   7.219  0.6327  1.2511  0.7480
 5532SOL    HW228056   1.630   1.111   7.302  1.7177 -1.5757  0.8079
 5533SOL     OW28057   0.625   4.221  17.198 -0.0920  0.5233  0.2017
 5533SOL    HW128058   0.677   4.269  17.134  0.0134 -0.3269 -0.3375
 5533SOL    HW228059   0.695   4.163  17.225 -0.7997 -1.4823 -2.3056
 5534SOL     OW28060   0.456   0.473   4.467 -0.2225 -0.1426  0.1416
 5534SOL    HW128061   0.500   0.424   4.397  0.6147  0.2572  0.3883
 5534SOL    HW228062   0.388   0.517   4.416  0.2984  2.3025  1.5999
 5535SOL     OW28063   2.307   3.062   2.804  0.3316 -0.2315 -0.3492
 5535SOL    HW128064   2.260   3.141   2.778  1.3388 -0.0740 -1.7229
 5535SOL    HW228065   2.269   3.040   2.889 -0.3483 -2.0031 -1.1032
 5536SOL     OW28066   2.236   3.661   8.492 -0.0438  0.9082  0.0158
 5536SOL    HW128067   2.294   3.696   8.424 -1.8066 -0.7632 -2.3460
 5536SOL    HW228068   2.148   3.684   8.464 -0.0907 -0.1808 -0.7192
 5537SOL     OW28069   0.668   1.622  10.730  0.0980 -0.0351  0.3707
 5537SOL    HW128070   0.645   1.559  10.661 -0.9301  1.2261 -0.4190
 5537SOL    HW228071   0.754   1.590  10.759  0.0157  1.1965  1.9591
 5538SOL     OW28072   1.141   2.742   2.168  0.3810 -0.4606  0.0284
 5538SOL    HW128073   1.230   2.707   2.161  0.4258 -0.2165 -0.7026
 5538SOL    HW228074   1.137   2.806   2.097  0.3932 -1.0704 -0.5253
 5539SOL     OW28075   2.647   2.881   2.089  0.6859  0.0856  0.1156
 5539SOL    HW128076   2.647   2.956   2.030  0.5186 -1.0843 -1.3973
 5539SOL    HW228077   2.603   2.911   2.168 -0.0240 -0.5462 -0.0322
 5540SOL     OW28078   4.546   1.257   2.431  0.1800 -0.4380  0.4475
 5540SOL    HW128079   4.464   1.273   2.384  0.8469 -1.6954 -1.1503
 5540SOL    HW228080   4.578   1.346   2.446 -2.1612  0.4016  0.4655
 5541SOL     OW28081   1.098   1.785  12.087 -0.1626  0.6411  0.2929
 5541SOL    HW128082   1.149   1.866  12.082 -0.0496  0.5790  0.4555
 5541SOL    HW228083   1.103   1.760  11.995  1.6193  1.4830  0.1768
 5542SOL     OW28084   0.222   2.641   4.553  0.3657 -0.1188 -0.5527
 5542SOL    HW128085   0.267   2.723   4.534  3.0549 -1.3983  0.2761
 5542SOL    HW228086   0.252   2.581   4.485  2.0615 -2.9604  2.7430
 5543SOL     OW28087   2.643   2.860   4.956 -0.4719  0.3869 -0.3119
 5543SOL    HW128088   2.737   2.846   4.953 -0.4008  1.3855 -2.5790
 5543SOL    HW228089   2.625   2.789   5.017 -0.5788  2.0456  1.5812
 5544SOL     OW28090   1.569   1.442   7.780  0.0917 -0.5436 -0.0901
 5544SOL    HW128091   1.518   1.407   7.853  1.2862 -1.3251  0.3665
 5544SOL    HW228092   1.570   1.364   7.724  2.4783 -1.4444  1.2022
 5545SOL     OW28093   2.398   2.208   5.844 -0.1223  0.1754 -0.2410
 5545SOL    HW128094   2.329   2.197   5.779 -1.7019 -1.9118  1.7811
 5545SOL    HW228095   2.467   2.256   5.799  2.0908 -4.1954 -1.5877
 5546SOL     OW28096   3.026   2.085   0.089  0.4679  0.0101  0.4846
 5546SOL    HW128097   3.046   2.179   0.086 -3.0380  0.8306  1.7949
 5546SOL    HW228098   2.930   2.089   0.096  0.4193 -2.1541  0.8702
 5547SOL     OW28099   4.171   0.542   2.164  0.2363 -0.7665  0.3052
 5547SOL    HW128100   4.190   0.565   2.254 -0.0727 -0.5058  0.3023
 5547SOL    HW228101   4.077   0.558   2.151 -0.1847 -0.2635  4.1503
 5548SOL     OW28102   4.349   3.521   3.294  0.1635  0.6497 -0.6164
 5548SOL    HW128103   4.336   3.540   3.201  2.6333  2.3301 -0.6157
 5548SOL    HW228104   4.439   3.554   3.301  0.7601 -1.3893  1.2683
 5549SOL     OW28105   4.098   4.570   2.276 -0.1863 -0.1545  0.5414
 5549SOL    HW128106   4.158   4.644   2.285  1.3090 -1.1804 -1.0811
 5549SOL    HW228107   4.151   4.510   2.329  2.1890  1.7063  0.2821
 5550SOL     OW28108   2.008   0.247   1.878 -0.1251 -0.0646  0.2310
 5550SOL    HW128109   2.098   0.232   1.907 -0.0854 -0.6662 -0.2096
 5550SOL    HW228110   1.997   0.180   1.810 -1.9845  0.2669  0.2094
 5551SOL     OW28111   3.018   1.377  10.720 -0.4776 -0.1512  0.4130
 5551SOL    HW128112   3.090   1.320  10.693 -1.5044 -0.4566 -1.7428
 5551SOL    HW228113   2.941   1.330  10.688  0.5799  0.5356 -3.1893
 5552SOL     OW28114   3.790   2.990  14.564  0.1317  0.0256  0.4342
 5552SOL    HW128115   3.743   2.954  14.640 -2.0049  2.3244  0.2187
 5552SOL    HW228116   3.782   2.917  14.504  1.3369 -0.2131  0.5750
 5553SOL     OW28117   3.393   0.894   3.073 -0.3023 -0.4826 -0.5333
 5553SOL    HW128118   3.402   0.811   3.120  1.1045 -0.3763 -0.6183
 5553SOL    HW228119   3.409   0.957   3.143  1.5162 -0.2668 -1.1434
 5554SOL     OW28120   2.649   3.001   6.962  0.2056 -0.3149  0.5417
 5554SOL    HW128121   2.648   2.954   7.045  0.3828 -0.0166  0.7125
 5554SOL    HW228122   2.556   3.024   6.956  0.8625  2.3667  0.3868
 5555SOL     OW28123   3.408   2.153   7.709 -0.6152 -0.0969 -0.1196
 5555SOL    HW128124   3.414   2.058   7.696  0.9273 -0.1061  0.6728
 5555SOL    HW228125   3.485   2.183   7.661 -0.8241  0.7696  0.0788
 5556SOL     OW28126   1.396   0.881   4.727 -0.4794 -0.4735  0.1459
 5556SOL    HW128127   1.412   0.826   4.650 -1.4338 -0.7460  0.1360
 5556SOL    HW228128   1.487   0.894   4.752 -0.4462 -0.3593 -0.0334
 5557SOL     OW28129   4.116   1.017   7.698 -0.2609  0.3200 -0.0134
 5557SOL    HW128130   4.134   0.928   7.729  0.8235  0.4022 -0.4006
 5557SOL    HW228131   4.053   1.043   7.765 -0.2038  2.7796 -0.9262
 5558SOL     OW28132   4.676   2.286   9.505 -0.4356  0.0728  0.5669
 5558SOL    HW128133   4.642   2.327   9.585  0.3159 -0.6528  1.2676
 5558SOL    HW228134   4.670   2.360   9.446 -1.7488  2.3601  3.5562
 5559SOL     OW28135   0.695   1.576   6.088 -0.7319  0.5612  0.1657
 5559SOL    HW128136   0.768   1.628   6.122 -0.2032  2.0021 -3.1280
 5559SOL    HW228137   0.618   1.619   6.125 -0.3310 -0.6814  2.3965
 5560SOL     OW28138   3.958   3.725   5.210 -0.7423  0.3370  0.2360
 5560SOL    HW128139   4.020   3.793   5.234  0.6893 -0.6728 -0.5655
 5560SOL    HW228140   3.879   3.775   5.190 -0.1639  1.8936  1.8942
 5561SOL     OW28141   1.963   2.748   9.866 -0.5938  0.1160  0.1426
 5561SOL    HW128142   2.056   2.729   9.873 -0.9237 -1.4071  0.3396
 5561SOL    HW228143   1.946   2.756   9.960 -2.2237 -2.1129  0.0486
 5562SOL     OW28144   3.541   2.383   9.474  0.1776 -0.2415  0.1738
 5562SOL    HW128145   3.589   2.328   9.536 -1.4840 -1.0119  0.7907
 5562SOL    HW228146   3.558   2.475   9.496 -1.7985 -0.0319  0.7778
 5563SOL     OW28147   2.067   1.039   0.564  0.3337 -0.3104 -0.4402
 5563SOL    HW128148   2.154   1.002   0.551 -0.8332 -2.8621 -0.9821
 5563SOL    HW228149   2.030   1.028   0.476 -1.9008 -0.8931  0.5715
 5564SOL     OW28150   4.599   2.775   9.744 -0.1907 -0.4934  0.4538
 5564SOL    HW128151   4.654   2.787   9.666 -3.0230 -0.3711 -1.5598
 5564SOL    HW228152   4.627   2.687   9.768 -1.0247 -0.9607 -0.2790
 5565SOL     OW28153   1.285   2.635   6.389 -0.8361 -0.1437  0.1484
 5565SOL    HW128154   1.257   2.727   6.389 -2.1476 -0.5377  3.3129
 5565SOL    HW228155   1.205   2.590   6.415 -1.9901  2.4563  1.1357
 5566SOL     OW28156   0.863   1.102  17.142  0.0006  0.4132 -0.5115
 5566SOL    HW128157   0.889   1.010  17.146  2.5413  1.1027 -1.0422
 5566SOL    HW228158   0.944   1.130  17.099 -2.2002  3.7074 -2.5292
 5567SOL     OW28159   1.516   3.684   7.257 -0.1127 -0.2316  0.4221
 5567SOL    HW128160   1.500   3.659   7.348  1.5282 -2.9830 -0.0319
 5567SOL    HW228161   1.506   3.779   7.265 -1.9394 -0.2907 -1.0267
 5568SOL     OW28162   2.495   1.930   8.242  0.1172  0.3891  0.4227
 5568SOL    HW128163   2.520   1.966   8.327  0.5013  3.3552 -0.9609
 5568SOL    HW228164   2.424   1.992   8.222  1.7376  2.1153  0.0148
 5569SOL     OW28165   2.808   0.108  13.214  0.2314  0.2539  0.4033
 5569SOL    HW128166   2.841   0.020  13.197 -0.2480 -0.2787  2.2299
 5569SOL    HW228167   2.749   0.117  13.138 -0.4979 -2.2673  0.6698
 5570SOL     OW28168   1.183   2.563  13.345 -0.0826  0.0127 -0.2445
 5570SOL    HW128169   1.269   2.605  13.331 -0.7424  1.8203  1.1843
 5570SOL    HW228170   1.154   2.548  13.255 -1.2105  0.8559 -0.0241
 5571SOL     OW28171   0.094   3.199   0.913 -0.0900 -0.5613  0.3784
 5571SOL    HW128172   0.136   3.266   0.859  0.0155 -1.2172 -0.3558
 5571SOL    HW228173   0.068   3.256   0.985  0.3229 -1.3809  1.1878
 5572SOL     OW28174   3.160   2.188   4.456  0.1652 -0.3754  0.1250
 5572SOL    HW128175   3.171   2.225   4.543 -0.4930  0.6005 -0.2061
 5572SOL    HW228176   3.079   2.231   4.427  0.0225  0.0360  1.1525
 5573SOL     OW28177   4.468   0.455   7.798 -0.3893 -0.3519 -0.2540
 5573SOL    HW128178   4.478   0.367   7.835 -0.9539 -0.5545 -0.5704
 5573SOL    HW228179   4.403   0.435   7.730  0.2174  0.9691 -1.2192
 5574SOL     OW28180   0.113   1.225   7.905  0.1919 -0.7101 -0.3061
 5574SOL    HW128181   0.075   1.269   7.981 -1.6510 -0.0963 -1.5876
 5574SOL    HW228182   0.143   1.300   7.853  1.5939 -1.7923 -1.0480
 5575SOL     OW28183   0.488   0.539   3.854  0.9437 -0.1735  0.2867
 5575SOL    HW128184   0.541   0.619   3.863  1.2488 -0.2623 -0.6834
 5575SOL    HW228185   0.457   0.561   3.766 -0.7603 -0.1499  0.8870
 5576SOL     OW28186   0.277   2.772   3.560  0.4809 -0.4338 -0.4549
 5576SOL    HW128187   0.266   2.681   3.532  1.6061 -0.4523 -0.8477
 5576SOL    HW228188   0.189   2.809   3.559  0.4642 -0.4782 -0.7058
 5577SOL     OW28189   1.457   2.501   3.474 -0.0352 -0.1537 -0.3035
 5577SOL    HW128190   1.409   2.580   3.497  1.6180  1.0645 -1.0643
 5577SOL    HW228191   1.512   2.534   3.403 -2.0517  0.6327 -1.4820
 5578SOL     OW28192   0.976   4.516  15.140  0.0350 -0.8345  0.1672
 5578SOL    HW128193   0.977   4.425  15.111  1.8083 -0.4403 -0.9666
 5578SOL    HW228194   0.943   4.563  15.063 -0.5999  0.3489  1.1570
 5579SOL     OW28195   4.442   3.357   5.023 -0.2103  0.2130 -0.2148
 5579SOL    HW128196   4.486   3.428   5.070 -1.3506  1.5860 -1.2059
 5579SOL    HW228197   4.396   3.404   4.954 -2.9045 -1.0406  0.7275
 5580SOL     OW28198   0.964   4.211   8.959  0.0787  0.2019 -0.6330
 5580SOL    HW128199   1.002   4.132   8.921 -0.9613 -0.1034 -1.0299
 5580SOL    HW228200   1.028   4.273   8.925 -0.4045 -0.0047 -1.9358
 5581SOL     OW28201   3.511   1.896   8.410 -0.4923 -0.6384 -0.5732
 5581SOL    HW128202   3.586   1.836   8.405  0.8360  1.0353 -0.8978
 5581SOL    HW228203   3.474   1.857   8.331 -0.1398 -1.8109 -0.1608
 5582SOL     OW28204   3.983   1.946   1.429 -0.5070 -0.8813  0.4344
 5582SOL    HW128205   3.928   2.016   1.395  0.5912 -0.3406 -0.2211
 5582SOL    HW228206   3.967   1.953   1.523 -0.6942 -1.0866  0.4189
 5583SOL     OW28207   3.313   2.241  17.084 -0.5772  0.2276 -0.3449
 5583SOL    HW128208   3.254   2.309  17.052  0.2018  1.4401  0.7521
 5583SOL    HW228209   3.297   2.247  17.179 -0.2350 -1.0351 -0.2113
 5584SOL     OW28210   3.044   4.167   2.393 -0.2431  0.0799 -0.1396
 5584SOL    HW128211   2.989   4.168   2.471 -0.8714 -3.0740 -0.5200
 5584SOL    HW228212   3.032   4.075   2.367 -0.9253  0.0531  0.2636
 5585SOL     OW28213   2.079   1.889   6.237 -0.6724 -0.2325 -0.3891
 5585SOL    HW128214   2.024   1.847   6.303 -0.9584 -1.8244 -1.6284
 5585SOL    HW228215   2.079   1.981   6.264 -1.3371 -0.2504 -0.3193
 5586SOL     OW28216   3.557   2.547   9.838  0.4932 -0.2496  0.0892
 5586SOL    HW128217   3.595   2.528   9.924 -0.3595 -0.9281  0.3093
 5586SOL    HW228218   3.480   2.594   9.868 -0.8001 -1.6096 -1.1007
 5587SOL     OW28219   4.095   4.005   3.295 -0.0501 -0.7362 -0.6148
 5587SOL    HW128220   4.007   4.031   3.320  0.5043 -0.8659  1.4900
 5587SOL    HW228221   4.117   4.037   3.208 -0.6978 -0.1400 -0.5630
 5588SOL     OW28222   1.612   2.333  12.580 -0.3033  0.5996  0.5537
 5588SOL    HW128223   1.607   2.394  12.507  0.4930 -0.3133 -0.2656
 5588SOL    HW228224   1.556   2.381  12.641 -0.5727  0.4508  0.4250
 5589SOL     OW28225   0.171   3.274   9.686  0.5830 -0.3855 -0.2704
 5589SOL    HW128226   0.217   3.190   9.685 -0.9440 -1.2023 -1.7905
 5589SOL    HW228227   0.083   3.240   9.702  0.2723  1.4162  1.9411
 5590SOL     OW28228   1.242   2.640  16.377 -0.3825  0.7027  0.6131
 5590SOL    HW128229   1.303   2.635  16.304 -2.2843 -2.2854 -0.7491
 5590SOL    HW228230   1.295   2.663  16.453 -0.9719 -1.1326  1.5921
 5591SOL     OW28231   3.466   0.472   6.432  0.2939  0.0085 -0.1513
 5591SOL    HW128232   3.400   0.482   6.501 -2.0846  0.6856 -2.4778
 5591SOL    HW228233   3.535   0.425   6.477  0.4534  2.2522  1.9291
 5592SOL     OW28234   0.231   1.708  14.946  0.6035  0.0168  0.1159
 5592SOL    HW128235   0.256   1.750  14.864 -1.8701 -0.7399 -1.0229
 5592SOL    HW228236   0.318   1.699  14.986  0.6892  1.5691  0.2871
 5593SOL     OW28237   3.648   3.170   0.192  0.0399 -0.2763  0.3195
 5593SOL    HW128238   3.580   3.135   0.249  1.7463  0.0078  2.5135
 5593SOL    HW228239   3.668   3.084   0.155 -0.6711  1.3902 -3.9622
 5594SOL     OW28240   1.739   2.983   9.137 -0.1984  0.2168  0.3797
 5594SOL    HW128241   1.791   2.945   9.208  0.4271  0.9022  0.2903
 5594SOL    HW228242   1.668   3.033   9.178 -1.4041 -0.0274 -1.3952
 5595SOL     OW28243   3.973   4.434  11.362  0.0866  0.2022  0.1268
 5595SOL    HW128244   3.912   4.502  11.389 -0.9601 -1.0931  1.0609
 5595SOL    HW228245   4.050   4.473  11.404  0.9214  0.1211 -1.3432
 5596SOL     OW28246   3.851   1.366   1.065 -0.1242 -0.2808  0.1634
 5596SOL    HW128247   3.899   1.447   1.046  0.0587 -1.0722 -2.7625
 5596SOL    HW228248   3.766   1.387   1.101 -0.6019 -0.1516 -1.0395
 5597SOL     OW28249   1.469   2.966   9.697  0.2408  0.2810  0.4382
 5597SOL    HW128250   1.431   2.880   9.679 -0.5772  0.8797 -0.6628
 5597SOL    HW228251   1.407   3.034   9.672  0.2308  0.0326 -0.2329
 5598SOL     OW28252   4.649   1.052   8.797  0.2817 -0.3936  1.0962
 5598SOL    HW128253   4.584   0.987   8.822  0.4820  0.0057  2.6209
 5598SOL    HW228254   4.720   1.003   8.754  1.5624  1.7336  0.7726
 5599SOL     OW28255   0.769   4.514  10.038  0.2684  0.4038 -0.1261
 5599SOL    HW128256   0.794   4.473  10.120  0.8205  1.2820  0.1429
 5599SOL    HW228257   0.751   4.437   9.985 -1.0455  0.3927  0.3377
 5600SOL     OW28258   0.499   3.934   3.246  0.2982  0.0766 -0.0339
 5600SOL    HW128259   0.546   3.852   3.236 -0.1176 -0.1041 -0.5268
 5600SOL    HW228260   0.565   3.999   3.222 -0.7567  1.0513 -0.3417
 5601SOL     OW28261   3.954   3.854  11.195 -0.1829 -0.1560 -0.0978
 5601SOL    HW128262   3.887   3.820  11.254 -0.6091  0.4439 -0.2244
 5601SOL    HW228263   3.955   3.780  11.135  2.9215  0.2493 -0.5170
 5602SOL     OW28264   3.384   4.496  12.817 -0.4371  0.0505  0.4340
 5602SOL    HW128265   3.412   4.526  12.730  1.5595 -0.3751  0.9382
 5602SOL    HW228266   3.435   4.548  12.880 -0.5205 -1.6132  1.8731
 5603SOL     OW28267   1.616   1.823   2.559 -0.0671 -0.0318  0.1854
 5603SOL    HW128268   1.534   1.784   2.590  0.2487  0.0158  1.0944
 5603SOL    HW228269   1.632   1.882   2.633  1.2701  0.1279 -0.2346
 5604SOL     OW28270   4.044   0.984   8.707  0.2534  0.4941  0.2094
 5604SOL    HW128271   4.098   1.062   8.717  1.1372 -0.1832  0.7921
 5604SOL    HW228272   4.110   0.914   8.706 -1.2982 -0.9382 -0.8913
 5605SOL     OW28273   3.170   3.044   4.577 -0.0287  0.0066  0.8838
 5605SOL    HW128274   3.251   3.094   4.592  1.1064 -1.4873 -0.1920
 5605SOL    HW228275   3.150   3.010   4.664  0.8400  0.3950  1.2411
 5606SOL     OW28276   3.008   2.967   4.766 -0.4015 -0.1063  0.0520
 5606SOL    HW128277   2.960   3.049   4.767  0.7791  0.5853  1.7458
 5606SOL    HW228278   2.943   2.910   4.808  0.6394 -1.8750 -0.7150
 5607SOL     OW28279   3.087   3.253   3.405 -0.3762  0.0776  0.2707
 5607SOL    HW128280   3.090   3.343   3.438  0.0478 -0.1782  0.9476
 5607SOL    HW228281   2.993   3.239   3.412 -0.5324  1.1148  0.2392
 5608SOL     OW28282   1.537   3.703   6.370  0.1279  0.1570 -0.7558
 5608SOL    HW128283   1.554   3.791   6.402  2.7281 -1.1327  1.4103
 5608SOL    HW228284   1.602   3.707   6.300  0.1362  1.6655 -0.6674
 5609SOL     OW28285   0.499   1.937   9.941 -0.2596  0.2319 -0.0958
 5609SOL    HW128286   0.564   1.966   9.877  1.8711 -0.3042  1.8148
 5609SOL    HW228287   0.505   1.846   9.914 -1.1732  0.0538  0.2954
 5610SOL     OW28288   1.715   3.181   5.406 -0.4913 -0.0481 -0.1595
 5610SOL    HW128289   1.652   3.146   5.344 -0.4588 -2.1339  0.9751
 5610SOL    HW228290   1.786   3.214   5.351 -0.4023 -4.3823 -2.7103
 5611SOL     OW28291   4.449   1.685   6.845  0.1221 -0.8483 -0.1544
 5611SOL    HW128292   4.460   1.757   6.783 -0.2693  0.5682  1.4313
 5611SOL    HW228293   4.469   1.611   6.787 -0.1568 -0.9132 -0.1681
 5612SOL     OW28294   3.048   0.386  13.018 -0.0271 -0.4683  0.0467
 5612SOL    HW128295   3.055   0.480  13.033  0.0171  0.0289 -3.1240
 5612SOL    HW228296   3.002   0.379  12.935 -1.9868 -0.8112  1.1551
 5613SOL     OW28297   4.131   3.579   2.089 -0.4702  0.2628 -0.2419
 5613SOL    HW128298   4.103   3.671   2.086  1.3145  0.8325  0.6456
 5613SOL    HW228299   4.074   3.545   2.020 -0.6751  0.3267 -0.1043
 5614SOL     OW28300   1.716   3.268   6.708 -0.3697 -0.0493  0.4216
 5614SOL    HW128301   1.716   3.332   6.779  1.3542 -0.3817  0.7112
 5614SOL    HW228302   1.636   3.293   6.661 -0.4936 -1.9202 -0.3722
 5615SOL     OW28303   0.965   2.056  16.427 -1.0226 -0.3392  0.3807
 5615SOL    HW128304   0.928   2.062  16.339 -1.4083  1.0120  0.6452
 5615SOL    HW228305   0.957   1.961  16.435  1.4906 -0.4929  1.1760
 5616SOL     OW28306   1.444   1.398   5.832  0.3463 -0.3165  0.1066
 5616SOL    HW128307   1.380   1.430   5.769  0.8395  0.7495  0.1475
 5616SOL    HW228308   1.405   1.414   5.918  1.8540 -0.7360  0.8721
 5617SOL     OW28309   0.689   4.173   3.912 -0.1551  0.1541  0.0037
 5617SOL    HW128310   0.714   4.252   3.959 -0.4803  1.2170 -1.5996
 5617SOL    HW228311   0.695   4.106   3.980 -1.3754 -0.9634 -0.9958
 5618SOL     OW28312   2.266   0.249   2.010  0.2463  0.3841  0.3690
 5618SOL    HW128313   2.314   0.201   2.078  0.8330  1.1079  0.4669
 5618SOL    HW228314   2.227   0.317   2.066  0.4286  1.3927 -0.7327
 5619SOL     OW28315   4.305   2.091   6.802  0.2666  0.0157 -0.7575
 5619SOL    HW128316   4.375   2.147   6.769  0.0329  0.8998  0.2621
 5619SOL    HW228317   4.265   2.145   6.870  0.0117 -1.3630  0.1925
 5620SOL     OW28318   2.952   0.600   5.981  0.4604 -0.1158  0.0571
 5620SOL    HW128319   2.983   0.528   6.036 -3.1492 -0.0567  2.1705
 5620SOL    HW228320   2.953   0.557   5.895 -0.7363 -0.3184  0.1472
 5621SOL     OW28321   4.272   0.058   7.216 -0.0462  0.0615  0.1439
 5621SOL    HW128322   4.204   0.115   7.251 -0.2553 -0.3676  0.4360
 5621SOL    HW228323   4.225   4.718   7.159 -0.6501 -1.8234  2.7103
 5622SOL     OW28324   0.599   0.433  14.494  0.3824  0.1106  0.8985
 5622SOL    HW128325   0.525   0.384  14.460 -1.0742  2.7499  0.2669
 5622SOL    HW228326   0.560   0.521  14.488  0.0449  0.1046  2.9541
 5623SOL     OW28327   0.132   2.934  13.110  0.0819  0.4191  0.1449
 5623SOL    HW128328   0.099   2.987  13.183 -1.7741 -2.5802  1.4641
 5623SOL    HW228329   0.185   2.874  13.161  2.0260 -0.0852 -2.4830
 5624SOL     OW28330   3.178   1.086   7.748  0.0743 -0.1721  0.4259
 5624SOL    HW128331   3.217   1.038   7.675 -1.5083  0.0384 -0.5530
 5624SOL    HW228332   3.241   1.086   7.820 -1.1054 -2.1234  1.4678
 5625SOL     OW28333   2.545   0.171  13.319 -0.2537  0.6185  0.0340
 5625SOL    HW128334   2.628   0.154  13.364 -0.3952  0.2046  0.1295
 5625SOL    HW228335   2.561   0.152  13.226 -0.7078 -0.6772  0.2323
 5626SOL     OW28336   0.140   3.880   7.574  0.4955 -0.3374 -0.5480
 5626SOL    HW128337   0.179   3.829   7.645 -0.4091  0.0523  0.2331
 5626SOL    HW228338   0.047   3.859   7.584  0.0895  1.2429 -1.0021
 5627SOL     OW28339   4.493   0.594   8.229  0.1738 -0.2979  0.1807
 5627SOL    HW128340   4.517   0.510   8.269  0.4021 -0.1834  0.2819
 5627SOL    HW228341   4.578   0.638   8.226  0.7831 -1.6025 -2.0707
 5628SOL     OW28342   1.660   3.097  11.108  0.0447  0.0534 -0.1978
 5628SOL    HW128343   1.752   3.097  11.080  0.2527 -1.6054  0.4849
 5628SOL    HW228344   1.660   3.135  11.196 -1.3683 -0.7166  0.1325
 5629SOL     OW28345   3.473   4.346   6.299 -0.2468 -0.5886  0.0646
 5629SOL    HW128346   3.467   4.254   6.272  2.2224 -0.9607  0.7517
 5629SOL    HW228347   3.390   4.368   6.341 -0.6052  1.6979 -1.8863
 5630SOL     OW28348   3.770   4.377   7.844  0.1651 -0.1151  0.4319
 5630SOL    HW128349   3.827   4.330   7.783 -1.1236 -0.7039 -0.3280
 5630SOL    HW228350   3.705   4.409   7.782 -0.7261 -2.4648  0.1565
 5631SOL     OW28351   3.404   1.398   3.498  0.0727 -0.5788  0.1907
 5631SOL    HW128352   3.395   1.330   3.564  0.1273 -1.7581 -1.0077
 5631SOL    HW228353   3.331   1.456   3.520  1.7288  0.7722  2.1575
 5632SOL     OW28354   1.697   2.857  14.731 -0.2149  0.1352 -0.5216
 5632SOL    HW128355   1.732   2.936  14.690  0.5345 -0.6795 -1.4563
 5632SOL    HW228356   1.697   2.804  14.651 -1.0553 -0.7417  0.0654
 5633SOL     OW28357   1.428   4.691   3.373 -0.1596  0.2145 -0.2004
 5633SOL    HW128358   1.460   4.615   3.323 -1.2899 -0.1638 -0.3475
 5633SOL    HW228359   1.514   0.003   3.400 -0.0602  0.5817 -0.9642
 5634SOL     OW28360   3.091   0.466   8.850 -0.2632  0.0033  0.0788
 5634SOL    HW128361   3.094   0.479   8.945  0.5968  1.2648 -0.1185
 5634SOL    HW228362   3.093   0.371   8.839 -1.4310 -0.0659  0.3854
 5635SOL     OW28363   0.215   2.935   4.049  0.2129 -0.3811 -0.8008
 5635SOL    HW128364   0.228   2.999   3.979 -2.0303 -0.1805 -1.0469
 5635SOL    HW228365   0.306   2.942   4.079 -0.6361  1.5482  1.3997
 5636SOL     OW28366   1.943   2.143  16.642  0.2886 -0.1730  0.1635
 5636SOL    HW128367   1.872   2.146  16.578 -0.0328 -1.5329  0.4417
 5636SOL    HW228368   1.898   2.179  16.719 -0.6957  0.6524 -0.8116
 5637SOL     OW28369   0.871   3.198   6.735  0.1801  0.0393 -0.2589
 5637SOL    HW128370   0.911   3.120   6.771 -2.3516 -1.2495 -0.2258
 5637SOL    HW228371   0.807   3.162   6.674 -0.1744 -1.6906  1.1431
 5638SOL     OW28372   2.262   0.896   6.540  0.2368  0.4646  0.1776
 5638SOL    HW128373   2.297   0.812   6.571 -0.3890  0.5806  1.1917
 5638SOL    HW228374   2.171   0.872   6.526  0.5623 -1.2403  0.9602
 5639SOL     OW28375   0.999   2.949   6.711  0.5536  0.0816 -0.2795
 5639SOL    HW128376   0.924   2.900   6.745 -1.1314  1.5686 -1.8341
 5639SOL    HW228377   0.998   2.919   6.620 -2.6791 -0.9989  0.0973
 5640SOL     OW28378   3.828   1.054   3.055 -0.0001  0.2786 -1.3620
 5640SOL    HW128379   3.904   1.102   3.020  0.4056  0.9790  0.5153
 5640SOL    HW228380   3.818   1.085   3.145  0.9754 -0.1625 -1.1011
 5641SOL     OW28381   2.498   2.432   4.124  0.4313  0.0289  0.4614
 5641SOL    HW128382   2.491   2.399   4.034  0.9816 -1.4464  0.9709
 5641SOL    HW228383   2.450   2.515   4.128  0.9130  0.3006  0.6417
 5642SOL     OW28384   2.140   0.560   8.519  1.3473  0.1545 -0.1802
 5642SOL    HW128385   2.102   0.522   8.439 -2.4036  1.3723  1.0214
 5642SOL    HW228386   2.107   0.650   8.515 -0.6845 -0.5150  1.1317
 5643SOL     OW28387   2.203   4.588   3.440 -0.9509  0.0811 -0.0084
 5643SOL    HW128388   2.230   4.497   3.425  1.0238  0.7968 -0.8743
 5643SOL    HW228389   2.110   4.571   3.453 -0.7853 -0.4968  0.4221
 5644SOL     OW28390   3.327   3.278   4.998  0.7758 -0.3424 -0.0291
 5644SOL    HW128391   3.260   3.346   4.994  2.5660  1.3998 -0.9246
 5644SOL    HW228392   3.355   3.280   4.906  0.6068  0.3615 -0.0648
 5645SOL     OW28393   3.894   2.333   8.486 -0.4368 -0.2231  0.3287
 5645SOL    HW128394   3.848   2.268   8.538 -0.3977 -0.9106 -0.4821
 5645SOL    HW228395   3.971   2.284   8.457  0.1518  0.9174 -0.0401
 5646SOL     OW28396   3.590   1.939   2.729 -0.7176  0.1655  0.0237
 5646SOL    HW128397   3.676   1.906   2.703  0.9735  0.7169  4.8912
 5646SOL    HW228398   3.613   2.026   2.761 -0.0464  0.6701 -1.8697
 5647SOL     OW28399   2.961   2.659   6.181 -0.6105  0.7350  0.1868
 5647SOL    HW128400   3.056   2.671   6.185 -0.6266 -0.3043  3.6582
 5647SOL    HW228401   2.957   2.612   6.098  1.2825  0.3725  0.2925
 5648SOL     OW28402   4.154   1.905   2.693  0.4025 -0.3336  0.2589
 5648SOL    HW128403   4.066   1.869   2.688  0.7887 -1.1092 -0.8045
 5648SOL    HW228404   4.141   1.997   2.668  0.7984 -0.4209 -0.2678
 5649SOL     OW28405   2.858   2.592   8.194 -0.3117 -0.6088 -0.1288
 5649SOL    HW128406   2.904   2.651   8.253  0.9981 -0.8398 -0.9166
 5649SOL    HW228407   2.926   2.551   8.141 -0.8893  1.3054 -2.3170
 5650SOL     OW28408   2.265   2.539   6.898  0.0698 -0.1203 -0.0580
 5650SOL    HW128409   2.170   2.529   6.901  0.1794 -0.0839  3.8217
 5650SOL    HW228410   2.276   2.561   6.806  0.1525 -1.7213 -0.4236
 5651SOL     OW28411   2.266   1.433   1.430 -0.1678 -0.1295 -0.4778
 5651SOL    HW128412   2.251   1.373   1.503  1.5120  1.2128  0.9672
 5651SOL    HW228413   2.295   1.371   1.364  1.3393  1.2263 -1.0949
 5652SOL     OW28414   2.975   0.167  15.049 -0.2906 -0.0144 -0.4669
 5652SOL    HW128415   2.970   0.072  15.057  3.9202 -0.2561 -0.7356
 5652SOL    HW228416   2.910   0.181  14.980  0.0308 -1.2991 -1.0412
 5653SOL     OW28417   3.546   2.261   3.357  0.2590 -0.2054 -0.4701
 5653SOL    HW128418   3.543   2.206   3.278 -0.6631 -0.7632 -0.0393
 5653SOL    HW228419   3.614   2.216   3.408  0.6893 -1.0545 -1.7710
 5654SOL     OW28420   0.144   1.379   4.488  0.1131  0.2811 -0.3266
 5654SOL    HW128421   0.200   1.303   4.473 -0.0837 -0.1605  1.1238
 5654SOL    HW228422   0.172   1.412   4.573 -1.9920  2.7233 -0.5809
 5655SOL     OW28423   2.646   0.715  16.048 -0.0523  0.4998 -0.2669
 5655SOL    HW128424   2.628   0.777  15.977 -0.2600  0.0542 -0.6012
 5655SOL    HW228425   2.741   0.713  16.060 -0.0072  0.8828 -0.5494
 5656SOL     OW28426   2.507   0.177   8.783 -0.0285 -0.0686 -0.8165
 5656SOL    HW128427   2.553   0.114   8.838  0.1000  1.4263  0.8000
 5656SOL    HW228428   2.459   0.232   8.845  1.2606  1.1043 -0.8558
 5657SOL     OW28429   0.592   0.775   4.445  0.0919  0.4703  0.1848
 5657SOL    HW128430   0.664   0.725   4.407 -0.9185 -2.4768  2.0561
 5657SOL    HW228431   0.529   0.790   4.375  0.7096 -0.5716 -0.5983
 5658SOL     OW28432   1.037   1.908   2.565 -0.0105 -0.0424 -0.0932
 5658SOL    HW128433   1.070   1.823   2.595 -1.8828 -0.5938  0.3928
 5658SOL    HW228434   1.051   1.905   2.470 -0.0828  1.2970 -0.1500
 5659SOL     OW28435   3.989   3.274   5.650 -0.0872  0.6814 -0.0022
 5659SOL    HW128436   4.017   3.234   5.733  1.1070  2.8605  0.6262
 5659SOL    HW228437   4.045   3.231   5.586 -1.2063  0.2424 -0.6979
 5660SOL     OW28438   1.232   1.920   2.361  0.2959 -0.3446 -0.3227
 5660SOL    HW128439   1.301   1.975   2.397  0.2699  0.0573 -0.8886
 5660SOL    HW228440   1.183   1.980   2.304  0.2591 -1.0655 -1.0417
 5661SOL     OW28441   1.915   3.129  11.130  0.1943 -0.4856  0.4381
 5661SOL    HW128442   1.986   3.153  11.070  0.6342 -0.4693  0.9739
 5661SOL    HW228443   1.934   3.039  11.156  1.2734 -0.4145 -0.1202
 5662SOL     OW28444   4.035   1.679   2.420  0.4350  0.1007  0.2200
 5662SOL    HW128445   4.127   1.705   2.411  0.0889  0.8668 -1.1646
 5662SOL    HW228446   4.040   1.585   2.440 -1.0904  0.4369  2.2081
 5663SOL     OW28447   3.007   0.292  11.615  0.2585 -0.4965 -0.3482
 5663SOL    HW128448   2.987   0.218  11.557 -2.5102  0.3669 -0.4853
 5663SOL    HW228449   2.949   0.361  11.582 -0.4808 -1.4835 -1.1174
 5664SOL     OW28450   4.081   2.721   6.571  0.2813  0.0242 -0.5194
 5664SOL    HW128451   4.102   2.809   6.601 -0.8893  0.3790 -0.7735
 5664SOL    HW228452   4.077   2.676   6.655  1.1887  0.4637 -0.2349
 5665SOL     OW28453   2.350   1.310   2.070  0.1468 -0.2210  0.2133
 5665SOL    HW128454   2.402   1.310   2.150 -0.0716 -0.8213  0.3528
 5665SOL    HW228455   2.283   1.377   2.089 -0.8550 -1.0973 -0.2239
 5666SOL     OW28456   1.868   3.917   2.751  0.0376 -0.5875  0.1249
 5666SOL    HW128457   1.875   3.906   2.656 -1.2602  1.4044 -0.2149
 5666SOL    HW228458   1.951   3.957   2.776  0.1810 -0.7137 -0.1548
 5667SOL     OW28459   1.601   3.639   8.348 -0.8797  0.5644  0.4784
 5667SOL    HW128460   1.652   3.609   8.272  0.8794 -1.1297  2.3138
 5667SOL    HW228461   1.520   3.590   8.341  0.3462 -1.0405 -2.9973
 5668SOL     OW28462   1.924   1.885   6.026  0.1546  0.1117 -0.3418
 5668SOL    HW128463   1.966   1.917   6.106 -2.1299  2.4515 -0.0632
 5668SOL    HW228464   1.987   1.902   5.956  1.2069 -1.2041  0.2748
 5669SOL     OW28465   3.784   0.353   4.518 -0.0914  0.0078  0.4958
 5669SOL    HW128466   3.830   0.303   4.450  2.1050 -0.4616  2.3583
 5669SOL    HW228467   3.810   0.318   4.603 -2.1738  0.3670  1.2697
 5670SOL     OW28468   3.827   4.561   7.152 -0.0369  0.1596 -0.0947
 5670SOL    HW128469   3.873   4.479   7.167 -0.0381  0.3281  0.8893
 5670SOL    HW228470   3.867   4.587   7.069  1.8773 -0.9580  0.4912
 5671SOL     OW28471   4.523   3.196   8.058  0.2260 -0.1851 -0.6522
 5671SOL    HW128472   4.517   3.113   8.106 -0.6170  0.1295 -0.1969
 5671SOL    HW228473   4.519   3.254   8.134  0.4491 -3.6877  2.0542
 5672SOL     OW28474   4.459   1.831   5.749  0.0012 -0.2926  0.0846
 5672SOL    HW128475   4.529   1.776   5.712 -0.5253 -0.5740 -0.4971
 5672SOL    HW228476   4.418   1.871   5.672  2.6382  0.1247 -1.1401
 5673SOL     OW28477   0.525   1.809   3.291 -0.1359  0.3967 -0.0676
 5673SOL    HW128478   0.440   1.850   3.309 -0.0870  0.5581 -0.1998
 5673SOL    HW228479   0.564   1.870   3.228  0.8418 -1.6692 -1.4386
 5674SOL     OW28480   3.118   4.068   2.761 -0.7405 -0.3212  0.2261
 5674SOL    HW128481   3.117   3.973   2.775  1.2792 -0.2457  0.8731
 5674SOL    HW228482   3.038   4.076   2.708 -0.4652  0.5966 -0.0438
 5675SOL     OW28483   1.230   1.268   9.539 -0.1564 -0.4625  0.1152
 5675SOL    HW128484   1.179   1.187   9.544  0.6218 -1.0523 -1.1875
 5675SOL    HW228485   1.170   1.334   9.573 -0.8552 -2.4474  2.6547
 5676SOL     OW28486   3.890   1.014  10.760  0.4404  0.0690 -0.6074
 5676SOL    HW128487   3.795   1.004  10.761  0.4980 -0.5851 -2.2820
 5676SOL    HW228488   3.916   0.926  10.788 -2.3720 -0.7877 -0.6898
 5677SOL     OW28489   4.128   2.146   2.473  0.1643  0.7129  0.0924
 5677SOL    HW128490   4.045   2.133   2.519 -0.2485 -0.0879 -0.8794
 5677SOL    HW228491   4.136   2.241   2.465  2.5040  0.5033 -0.0123
 5678SOL     OW28492   1.946   4.587   1.965  0.4378 -0.4448 -0.0623
 5678SOL    HW128493   1.866   4.584   2.017  0.7634 -0.1973  0.4473
 5678SOL    HW228494   1.938   4.672   1.921 -0.4649  0.1331  1.2235
 5679SOL     OW28495   0.148   3.843   4.398 -0.6090  0.2048 -0.0891
 5679SOL    HW128496   0.204   3.905   4.351  0.5136 -0.2229  0.6796
 5679SOL    HW228497   0.182   3.759   4.367 -2.3901 -1.2233  1.8238
 5680SOL     OW28498   3.362   3.659   7.666 -0.6683  0.0167 -0.2451
 5680SOL    HW128499   3.276   3.622   7.646 -0.3877 -0.8288  0.1322
 5680SOL    HW228500   3.369   3.738   7.611  1.5949 -0.5185 -0.7053
 5681SOL     OW28501   2.253   3.585   2.712  0.7577  0.1593 -0.0661
 5681SOL    HW128502   2.229   3.526   2.783  0.9750  0.4243  0.2232
 5681SOL    HW228503   2.340   3.545   2.704  1.2002  1.0997  0.0727
 5682SOL     OW28504   2.039   2.551   1.409 -0.2306  0.2886 -0.0384
 5682SOL    HW128505   2.071   2.593   1.330  2.1876 -2.0914 -0.3071
 5682SOL    HW228506   1.947   2.564   1.383 -0.1153  1.1940  0.0121
 5683SOL     OW28507   1.717   0.467   2.775 -0.3800  0.2167 -0.5410
 5683SOL    HW128508   1.770   0.395   2.808  0.0611 -0.2772 -2.3451
 5683SOL    HW228509   1.715   0.523   2.853 -1.6337  0.1979 -0.5513
 5684SOL     OW28510   4.499   0.755   4.839  0.5116  0.2096 -0.0904
 5684SOL    HW128511   4.590   0.763   4.810  0.2595 -1.9679 -1.5185
 5684SOL    HW228512   4.461   0.801   4.764  0.6691  0.3495 -0.0855
 5685SOL     OW28513   3.064   4.075   7.952 -0.0465  0.0899 -0.6021
 5685SOL    HW128514   3.119   4.030   7.889 -0.2921 -2.7021  1.1660
 5685SOL    HW228515   3.123   4.112   8.018  0.8888  0.1161 -1.4579
 5686SOL     OW28516   4.615   1.632   5.575 -0.1496  0.3254 -0.5401
 5686SOL    HW128517   4.662   1.549   5.567 -2.6260 -1.1781  0.7125
 5686SOL    HW228518   4.525   1.606   5.556 -1.0704  2.5956  0.6773
 5687SOL     OW28519   3.293   4.017   7.825 -0.4978 -1.0937 -0.0987
 5687SOL    HW128520   3.367   3.962   7.799 -1.0071 -1.5873 -0.5112
 5687SOL    HW228521   3.345   4.096   7.811 -0.5881 -0.6826  1.8965
 5688SOL     OW28522   1.357   4.392   1.032  0.4569  0.0160  0.3722
 5688SOL    HW128523   1.395   4.310   1.064  0.1248 -0.6210 -0.8980
 5688SOL    HW228524   1.419   4.423   0.966  2.6003 -0.4126  2.1730
 5689SOL     OW28525   4.208   1.454   1.518  0.0348 -0.3270  0.4929
 5689SOL    HW128526   4.143   1.522   1.532 -2.2455 -2.4237  0.0865
 5689SOL    HW228527   4.177   1.404   1.442 -0.3557 -0.6966  0.8955
 5690SOL     OW28528   1.729   0.282   3.884  0.2425 -0.3439  0.8724
 5690SOL    HW128529   1.660   0.228   3.923 -1.7330  2.3581  1.2184
 5690SOL    HW228530   1.719   0.361   3.939 -2.4576  0.6249 -0.9841
 5691SOL     OW28531   2.868   0.492   9.840  0.0360  0.3403  0.3206
 5691SOL    HW128532   2.936   0.538   9.791  0.4962  0.3229  0.9348
 5691SOL    HW228533   2.806   0.472   9.771 -0.8091  1.3061  0.7902
 5692SOL     OW28534   2.255   1.432   6.086 -0.1554 -0.1103  0.5467
 5692SOL    HW128535   2.344   1.408   6.060  0.6061  1.6394  1.4948
 5692SOL    HW228536   2.216   1.447   6.000  0.8575  1.3813  0.3333
 5693SOL     OW28537   2.146   4.369   1.631 -0.5536 -0.4581  0.3869
 5693SOL    HW128538   2.154   4.460   1.602  0.5805  0.0113  2.1320
 5693SOL    HW228539   2.184   4.330   1.552  1.0664  0.0870  0.9104
 5694SOL     OW28540   4.031   1.604   9.027 -0.2188  0.7905  0.0628
 5694SOL    HW128541   4.003   1.545   9.097 -1.2640  1.6178  0.3411
 5694SOL    HW228542   4.105   1.558   8.987 -0.2731  0.7150  0.0502
 5695SOL     OW28543   3.904   4.384   2.224  0.4539 -0.2063 -0.2748
 5695SOL    HW128544   3.846   4.344   2.289 -0.3784 -0.2051 -1.0222
 5695SOL    HW228545   3.971   4.426   2.278 -0.0318  2.3799 -1.6952
 5696SOL     OW28546   4.654   4.299   5.141  0.3662  0.1424  0.2895
 5696SOL    HW128547   4.591   4.244   5.095  1.4599  0.2090 -1.2835
 5696SOL    HW228548   4.719   4.299   5.071  1.9192  0.3184  1.7398
 5697SOL     OW28549   0.706   1.410   7.099  0.0430  0.0735 -0.1536
 5697SOL    HW128550   0.736   1.356   7.172 -1.7557 -1.6670 -0.6963
 5697SOL    HW228551   0.645   1.352   7.053  1.7643 -1.0758 -0.9760
 5698SOL     OW28552   0.243   0.017   6.118 -0.0426 -0.2585  0.0835
 5698SOL    HW128553   0.197   0.101   6.107  0.8265  0.4643  1.9990
 5698SOL    HW228554   0.265   4.720   6.027 -1.7723  4.2898 -1.2489
 5699SOL     OW28555   3.416   0.662  17.239 -0.0567 -0.4328 -0.4256
 5699SOL    HW128556   3.431   0.599  17.309 -3.6310 -2.6463 -1.6416
 5699SOL    HW228557   3.470   0.733  17.272  0.8025 -1.8265  1.1372
 5700SOL     OW28558   0.142   0.876   7.112  0.1725 -0.3023 -0.6194
 5700SOL    HW128559   0.214   0.818   7.089 -0.0099 -0.5626 -0.5438
 5700SOL    HW228560   0.122   0.840   7.199 -2.0741 -1.0350 -1.4410
 5701SOL     OW28561   4.260   3.790   1.679 -0.0428 -0.6029 -0.4003
 5701SOL    HW128562   4.301   3.704   1.689  3.2213  1.1876  1.6299
 5701SOL    HW228563   4.169   3.765   1.670  0.5447 -1.9702 -2.5392
 5702SOL     OW28564   3.972   4.085   4.784 -0.6753  0.1257 -0.2196
 5702SOL    HW128565   3.998   4.177   4.777 -0.1903 -0.2766 -3.5776
 5702SOL    HW228566   3.989   4.071   4.878 -1.4401  1.9271  0.1711
 5703SOL     OW28567   0.577   0.096   9.702  0.1210 -0.3852 -0.2212
 5703SOL    HW128568   0.615   0.140   9.778  1.6076  1.1653 -1.8559
 5703SOL    HW228569   0.554   0.179   9.659 -3.6826 -0.6796  1.1732
 5704SOL     OW28570   1.518   3.724   6.787  0.7864  0.6136  0.4525
 5704SOL    HW128571   1.601   3.720   6.740 -0.2383 -0.0972 -1.2838
 5704SOL    HW228572   1.518   3.816   6.816 -1.3194 -0.0079  2.5142
 5705SOL     OW28573   0.423   2.280   3.035 -0.0923  0.6785  0.5157
 5705SOL    HW128574   0.339   2.250   3.001  1.0444  0.0099 -1.6569
 5705SOL    HW228575   0.489   2.266   2.967 -1.9291 -0.4330 -1.0335
 5706SOL     OW28576   3.090   4.444   1.878  0.0172  0.0639 -0.2474
 5706SOL    HW128577   3.024   4.493   1.830 -0.9808 -1.9513 -0.9480
 5706SOL    HW228578   3.089   4.357   1.837 -0.8027 -0.6885  1.3845
 5707SOL     OW28579   2.895   4.142   2.619 -0.2781  0.3509 -0.0937
 5707SOL    HW128580   2.805   4.109   2.621  0.6234 -1.9791  1.3978
 5707SOL    HW228581   2.880   4.234   2.642  2.0360  0.6190  0.3137
 5708SOL     OW28582   4.677   1.633   0.070 -0.5676  0.1013 -0.1154
 5708SOL    HW128583   0.024   1.698   0.048 -0.4462  0.2347  0.6523
 5708SOL    HW228584   0.021   1.570   0.103 -1.8265 -0.9135  0.4268
 5709SOL     OW28585   4.601   0.495  17.536 -0.2612  0.4036  0.6185
 5709SOL    HW128586   4.670   0.431  17.520  1.2858  2.8182 -2.3922
 5709SOL    HW228587   4.546   0.455  17.469  0.1882  1.5132 -0.4105
 5710SOL     OW28588   0.772   2.699   5.178  0.1110  0.3126  0.1267
 5710SOL    HW128589   0.786   2.606   5.160 -0.5860  0.0363  1.0053
 5710SOL    HW228590   0.681   2.713   5.151 -0.9458 -1.8886  2.5412
 5711SOL     OW28591   2.133   1.414   6.624  0.1251  0.1658  0.7303
 5711SOL    HW128592   2.149   1.320   6.617  0.1777  0.0539  2.2765
 5711SOL    HW228593   2.093   1.447   6.543 -0.4859 -0.3343  0.8257
 5712SOL     OW28594   0.563   3.907   6.374  0.4860 -0.2149  0.6172
 5712SOL    HW128595   0.518   3.989   6.352  1.0595 -0.1965 -0.4782
 5712SOL    HW228596   0.656   3.920   6.359  0.4397 -1.3338 -0.6175
 5713SOL     OW28597   2.077   2.156   6.261  0.0654 -0.1311 -0.1485
 5713SOL    HW128598   2.111   2.166   6.173  2.7287  0.7929  1.0065
 5713SOL    HW228599   2.141   2.189   6.324 -1.1406  0.5417  0.7472
 5714SOL     OW28600   3.705   2.072   8.257 -0.0602  0.3141 -0.2536
 5714SOL    HW128601   3.617   2.040   8.281 -0.2588  1.4131  0.4607
 5714SOL    HW228602   3.700   2.164   8.281  1.6337  0.2335  0.3621
 5715SOL     OW28603   2.262   2.081  16.409 -0.5892  0.4712 -0.2302
 5715SOL    HW128604   2.198   2.019  16.443  0.7665  0.0206  1.5517
 5715SOL    HW228605   2.334   2.023  16.384 -1.0831 -0.6843  1.0179
 5716SOL     OW28606   2.071   4.034   5.422 -0.5318  0.0914 -0.5152
 5716SOL    HW128607   2.145   4.068   5.471 -0.5454 -0.9358  0.2151
 5716SOL    HW228608   2.108   4.033   5.334 -0.2094  1.4512 -0.4057
 5717SOL     OW28609   2.101   2.435   9.743 -0.2852 -0.5290  0.5346
 5717SOL    HW128610   2.058   2.389   9.671  1.6306  0.4686 -1.2614
 5717SOL    HW228611   2.156   2.495   9.692 -1.7859  1.5915  1.3914
 5718SOL     OW28612   1.799   3.111  15.466 -0.1102  0.0690 -0.1423
 5718SOL    HW128613   1.716   3.098  15.421  0.0867 -1.3038 -0.1004
 5718SOL    HW228614   1.779   3.169  15.540  1.6447  0.6565 -0.1134
 5719SOL     OW28615   0.177   3.436   6.063 -0.6993  0.2888  0.2905
 5719SOL    HW128616   0.100   3.483   6.030  0.5528  1.5950 -0.7430
 5719SOL    HW228617   0.199   3.476   6.146  1.8033 -1.1284  0.3087
 5720SOL     OW28618   0.036   3.777   9.721  0.2740 -0.1796  0.5222
 5720SOL    HW128619   0.031   3.683   9.738 -1.1949 -0.1475  0.2184
 5720SOL    HW228620   4.679   3.812   9.765  0.0094 -0.6788  0.4434
 5721SOL     OW28621   0.633   1.022  17.255 -0.0369 -0.2518  0.4537
 5721SOL    HW128622   0.625   0.930  17.230 -2.9726 -0.4031  2.0309
 5721SOL    HW228623   0.704   1.045  17.195  0.2008 -0.0433  0.8196
 5722SOL     OW28624   2.690   3.424   2.149  0.2960  0.3021  0.1526
 5722SOL    HW128625   2.744   3.497   2.181 -0.5440  0.4484  1.2304
 5722SOL    HW228626   2.613   3.449   2.199  0.2238  2.6377 -1.1149
 5723SOL     OW28627   1.315   0.672   7.230  0.5036  0.1267 -0.2047
 5723SOL    HW128628   1.258   0.646   7.302 -2.4287  0.5058 -2.3966
 5723SOL    HW228629   1.396   0.642   7.271  0.0389 -0.6193  0.1759
 5724SOL     OW28630   2.819   1.902   7.738  0.2520 -0.0467  0.0401
 5724SOL    HW128631   2.906   1.864   7.748  0.6136  1.4199  2.3534
 5724SOL    HW228632   2.834   1.994   7.715 -0.2742  0.3071  1.1255
 5725SOL     OW28633   3.674   1.428   7.726  0.0386 -0.0278  0.3849
 5725SOL    HW128634   3.731   1.496   7.690 -1.0179  0.0384 -1.1748
 5725SOL    HW228635   3.633   1.474   7.798 -1.6243  0.2671 -0.7564
 5726SOL     OW28636   2.259   3.326   3.478 -0.2325  0.8047  0.3063
 5726SOL    HW128637   2.293   3.397   3.532  0.3845  1.0300 -0.3781
 5726SOL    HW228638   2.334   3.265   3.473 -1.5500 -0.6942 -1.1452
 5727SOL     OW28639   4.399   1.723  12.679 -0.1200  0.1776 -0.2067
 5727SOL    HW128640   4.434   1.652  12.732 -1.9082  0.3868  1.2532
 5727SOL    HW228641   4.303   1.717  12.677  0.0083 -2.3936  1.5819
 5728SOL     OW28642   3.496   0.565  14.024  0.4103 -0.5877 -0.1721
 5728SOL    HW128643   3.410   0.534  14.051 -1.0467  1.7529 -2.1483
 5728SOL    HW228644   3.549   0.493  14.059  0.8084 -0.6841 -0.9662
 5729SOL     OW28645   4.542   1.738  12.354  0.2628 -0.5201  0.1095
 5729SOL    HW128646   4.615   1.686  12.387  1.1473  0.9978  0.5422
 5729SOL    HW228647   4.524   1.700  12.268 -0.8756  0.3483 -0.0515
 5730SOL     OW28648   0.386   0.381  14.805  0.5980  0.3289 -0.8888
 5730SOL    HW128649   0.293   0.402  14.815  0.0664 -1.5138 -2.0988
 5730SOL    HW228650   0.378   0.309  14.743  0.5520 -0.2015 -0.2677
 5731SOL     OW28651   4.391   1.297  17.377  0.4029 -0.0006 -0.3902
 5731SOL    HW128652   4.464   1.331  17.325  0.3648  1.5831  0.5898
 5731SOL    HW228653   4.394   1.201  17.375  0.0900 -0.0573  1.8875
 5732SOL     OW28654   4.412   0.604  15.132 -0.0100 -0.1683 -0.6029
 5732SOL    HW128655   4.388   0.592  15.224 -1.4368  1.2625 -0.8031
 5732SOL    HW228656   4.355   0.671  15.094  0.9645  0.0127 -1.7362
 5733SOL     OW28657   1.207   0.530   5.791 -0.3269 -0.6838 -0.1009
 5733SOL    HW128658   1.265   0.456   5.811 -0.9543 -1.2946 -0.5370
 5733SOL    HW228659   1.125   0.522   5.839 -0.6099 -0.0410 -0.4758
 5734SOL     OW28660   4.525   3.953   5.623 -0.3209 -0.6132 -0.3375
 5734SOL    HW128661   4.441   3.934   5.664 -1.3160  2.7805 -0.8092
 5734SOL    HW228662   4.585   3.909   5.684  0.9419  1.2342 -0.2245
 5735SOL     OW28663   3.509   0.248  12.179 -0.3233  0.0408  0.4766
 5735SOL    HW128664   3.604   0.238  12.170 -0.1394  2.2348  0.1572
 5735SOL    HW228665   3.488   0.283  12.093 -0.7525  0.3778  0.7181
 5736SOL     OW28666   3.063   1.004   2.717  0.2028 -0.2002 -0.1632
 5736SOL    HW128667   3.108   0.955   2.785 -2.2078  1.5928  2.7638
 5736SOL    HW228668   3.120   1.075   2.688 -0.7878  0.3567 -0.7502
 5737SOL     OW28669   0.703   2.198   5.934  0.3267  0.3130  0.7740
 5737SOL    HW128670   0.687   2.292   5.922  1.8739  0.6812  1.6618
 5737SOL    HW228671   0.727   2.170   5.846  0.3123 -0.0381  0.8826
 5738SOL     OW28672   1.291   3.336   2.777 -0.5107  0.3060  0.0042
 5738SOL    HW128673   1.266   3.272   2.711  0.6592  0.8899 -1.0040
 5738SOL    HW228674   1.378   3.367   2.751 -0.3079 -0.9078 -0.7239
 5739SOL     OW28675   1.466   4.194   2.016  0.4187 -0.3964 -0.5513
 5739SOL    HW128676   1.502   4.283   2.012  1.1783 -0.5674  2.0261
 5739SOL    HW228677   1.462   4.169   1.924  0.3891 -0.1342 -0.6233
 5740SOL     OW28678   0.792   3.383   3.819 -0.1013  0.4231  0.1814
 5740SOL    HW128679   0.828   3.367   3.732  1.5467 -1.3428  1.1920
 5740SOL    HW228680   0.699   3.370   3.801  0.4751 -0.6177 -1.9809
 5741SOL     OW28681   4.284   1.785   9.280 -0.4318  0.4740 -0.8455
 5741SOL    HW128682   4.230   1.766   9.356  1.1266 -1.1118 -0.1365
 5741SOL    HW228683   4.362   1.740   9.313  1.1739  1.3805 -3.3937
 5742SOL     OW28684   0.427   3.259   7.903  0.6518 -0.4667 -0.0707
 5742SOL    HW128685   0.490   3.188   7.888 -0.2538 -0.9875 -1.4420
 5742SOL    HW228686   0.380   3.218   7.976 -2.5367  1.7775 -0.8303
 5743SOL     OW28687   3.004   3.959   4.738  0.2590 -0.3963  0.2557
 5743SOL    HW128688   3.026   4.012   4.814 -2.4132  0.5673  0.3364
 5743SOL    HW228689   3.043   4.006   4.664  2.5261  0.1331  1.7894
 5744SOL     OW28690   1.280   3.806  16.040  0.3365 -0.6232  0.3959
 5744SOL    HW128691   1.269   3.794  16.134 -2.7497  1.3644  0.2851
 5744SOL    HW228692   1.240   3.726  16.003 -1.5483 -0.0322  1.1389
 5745SOL     OW28693   4.624   1.774   9.762  0.7871  0.0006 -0.0333
 5745SOL    HW128694   4.682   1.712   9.805  1.9224  0.6902 -0.5560
 5745SOL    HW228695   4.625   1.847   9.823  0.6873 -0.2636  0.2810
 5746SOL     OW28696   3.979   1.030   3.525 -0.2398 -0.0501  0.1389
 5746SOL    HW128697   3.956   1.003   3.614  3.3248 -0.2296  1.0261
 5746SOL    HW228698   4.062   1.077   3.533 -0.8932  0.8825  1.4796
 5747SOL     OW28699   2.368   3.882  12.321 -0.1717 -0.4086  0.1458
 5747SOL    HW128700   2.408   3.964  12.291 -0.7269  0.1070  0.7758
 5747SOL    HW228701   2.443   3.825  12.335  0.9206  1.2725  1.1623
 5748SOL     OW28702   3.838   4.475   5.778  0.0955 -0.5249 -0.2692
 5748SOL    HW128703   3.809   4.562   5.807 -0.0378 -0.9126  0.7379
 5748SOL    HW228704   3.883   4.491   5.694  0.4785  1.1086  0.2360
 5749SOL     OW28705   1.385   2.848   4.812  0.3801  0.1753 -0.2447
 5749SOL    HW128706   1.448   2.911   4.777  1.1684 -0.6021 -0.2326
 5749SOL    HW228707   1.325   2.838   4.738  0.4997 -0.2084 -0.2902
 5750SOL     OW28708   0.530   0.819   2.804  0.1845 -0.1377 -0.1018
 5750SOL    HW128709   0.528   0.770   2.722  1.9570 -2.1421  1.0129
 5750SOL    HW228710   0.473   0.894   2.791 -0.0197 -0.7031 -2.3697
 5751SOL     OW28711   4.538   1.485  17.253 -0.0141  0.0129  0.6693
 5751SOL    HW128712   4.487   1.515  17.178  1.2590 -1.0776 -0.6304
 5751SOL    HW228713   4.531   1.554  17.319 -2.2916 -2.1092  2.6173
 5752SOL     OW28714   0.435   0.066   6.304 -0.2755 -0.4368  0.4361
 5752SOL    HW128715   0.397   0.079   6.391  2.7160  0.8217  1.5531
 5752SOL    HW228716   0.364   0.026   6.254 -2.6057  1.7588  1.9586
 5753SOL     OW28717   3.141   1.884   7.541 -0.3127 -0.0761 -0.4480
 5753SOL    HW128718   3.106   1.814   7.485  0.3844 -1.8135  1.2682
 5753SOL    HW228719   3.234   1.889   7.519 -0.0618  0.1964  0.6859
 5754SOL     OW28720   1.184   2.512   2.910 -0.4684  0.6637  0.5588
 5754SOL    HW128721   1.175   2.424   2.876  2.4174  0.5050  0.1912
 5754SOL    HW228722   1.278   2.524   2.926  0.1899 -0.8575 -2.1971
 5755SOL     OW28723   1.082   0.832   7.033 -0.4738 -0.1825 -0.4232
 5755SOL    HW128724   1.140   0.839   6.957 -1.9895 -0.2805 -1.6087
 5755SOL    HW228725   1.085   0.914   7.084  3.4553 -1.1668  0.9293
 5756SOL     OW28726   1.408   1.363   9.182 -0.0713 -0.2857  0.3668
 5756SOL    HW128727   1.390   1.412   9.102  1.4984 -0.7628 -0.2606
 5756SOL    HW228728   1.419   1.278   9.140  0.1802  0.6927 -1.5281
 5757SOL     OW28729   0.276   4.396   6.433 -0.0128 -0.2058 -0.0652
 5757SOL    HW128730   0.289   4.445   6.351  0.9445  0.1589  0.3046
 5757SOL    HW228731   0.250   4.310   6.400  1.3699 -0.4531 -0.5056
 5758SOL     OW28732   2.853   1.337   7.332  0.2084 -0.1548 -0.2845
 5758SOL    HW128733   2.811   1.414   7.371 -0.8614  0.5563 -2.7985
 5758SOL    HW228734   2.819   1.352   7.244 -1.3228 -0.2489  0.2919
 5759SOL     OW28735   0.651   3.703   3.154  0.4661 -0.1046  0.4380
 5759SOL    HW128736   0.706   3.718   3.077  0.4281 -1.6448  0.1135
 5759SOL    HW228737   0.704   3.640   3.203  1.5084 -0.8289 -1.6211
 5760SOL     OW28738   2.117   3.541  15.465 -0.0725  0.2548  0.3638
 5760SOL    HW128739   2.084   3.630  15.450  1.7682  0.8351 -0.2940
 5760SOL    HW228740   2.193   3.553  15.521 -0.5709 -0.6613  1.2290
 5761SOL     OW28741   3.728   3.858   8.313 -0.2995 -0.4691 -0.3364
 5761SOL    HW128742   3.810   3.845   8.361 -1.7177  0.3550  2.3070
 5761SOL    HW228743   3.675   3.916   8.367 -1.2474 -0.2085 -1.5587
 5762SOL     OW28744   4.207   0.690   7.470 -0.3495 -0.3467 -0.1403
 5762SOL    HW128745   4.232   0.720   7.382  1.2590  1.5850  0.9711
 5762SOL    HW228746   4.131   0.635   7.454  0.4669 -1.3606 -0.6003
 5763SOL     OW28747   4.285   3.023   5.251  0.1722  0.3786 -0.4163
 5763SOL    HW128748   4.373   3.049   5.225  1.2717 -1.6922  1.1870
 5763SOL    HW228749   4.235   3.076   5.189  0.8483  1.1984 -0.2508
 5764SOL     OW28750   4.212   4.233   7.766  0.4404 -0.8591 -0.3385
 5764SOL    HW128751   4.249   4.235   7.677  1.7818 -0.8468  0.2312
 5764SOL    HW228752   4.292   4.226   7.817 -0.8910 -0.4766  1.7932
 5765SOL     OW28753   2.560   1.250   5.622  0.1614 -0.1791 -0.2031
 5765SOL    HW128754   2.516   1.252   5.538 -2.3850  0.9839  1.1465
 5765SOL    HW228755   2.542   1.340   5.652  1.8851 -0.5565  2.0118
 5766SOL     OW28756   2.009   4.143   0.641 -0.0715 -0.2398  0.0920
 5766SOL    HW128757   1.975   4.225   0.605 -0.4287 -0.1620  0.6134
 5766SOL    HW228758   1.999   4.158   0.735  0.1876  0.9714 -0.0715
 5767SOL     OW28759   1.915   3.074  15.843 -0.4160 -0.3332 -0.3018
 5767SOL    HW128760   1.823   3.099  15.832  0.1779  2.1447  0.1898
 5767SOL    HW228761   1.939   3.032  15.761  0.0405  0.0500 -0.3636
 5768SOL     OW28762   2.234   4.496  17.681  0.0372  0.2194  0.5986
 5768SOL    HW128763   2.245   4.499  17.586  0.6358  0.3522  0.6718
 5768SOL    HW228764   2.312   4.447   0.021  0.0630 -0.5727 -1.0316
 5769SOL     OW28765   2.750   0.973   4.818 -0.1824 -0.1157  0.8376
 5769SOL    HW128766   2.844   0.979   4.800 -0.1519 -0.6400  0.7995
 5769SOL    HW228767   2.746   0.889   4.864 -1.1796  0.0493  1.0610
 5770SOL     OW28768   3.046   0.217  16.462 -0.0459 -0.3202 -0.1560
 5770SOL    HW128769   3.091   0.301  16.451 -0.1921 -0.0488  1.2383
 5770SOL    HW228770   3.112   0.149  16.470  0.6788  0.2984 -0.8247
 5771SOL     OW28771   3.058   3.399   9.922 -0.1003 -0.2832 -0.1093
 5771SOL    HW128772   3.128   3.460   9.943  0.9172 -2.1971  1.9889
 5771SOL    HW228773   3.019   3.391  10.009  0.8072 -0.4579  0.2839
 5772SOL     OW28774   2.564   2.188   0.787 -0.3467 -0.4886 -0.5329
 5772SOL    HW128775   2.562   2.103   0.830  4.1071 -0.8447 -0.9483
 5772SOL    HW228776   2.480   2.222   0.817  1.0361  0.8838  1.8291
 5773SOL     OW28777   4.419   1.310   1.930 -0.1178  0.2250 -0.9494
 5773SOL    HW128778   4.476   1.350   1.995 -2.8539 -0.2392  1.7533
 5773SOL    HW228779   4.436   1.369   1.856 -1.9407  1.1692 -0.6165
 5774SOL     OW28780   4.018   2.368  12.365  0.2421 -0.6518  0.1588
 5774SOL    HW128781   4.062   2.368  12.280 -1.2226  2.2520 -0.5889
 5774SOL    HW228782   4.064   2.296  12.409  0.1327 -1.3267 -0.8304
 5775SOL     OW28783   3.487   0.358   5.033  0.0279 -0.0564  0.6726
 5775SOL    HW128784   3.444   0.370   4.949 -0.9926 -3.6686  0.6805
 5775SOL    HW228785   3.548   0.288   5.011  0.5891  0.6776 -0.1267
 5776SOL     OW28786   1.645   2.194   3.111  0.0359 -0.3719  0.4367
 5776SOL    HW128787   1.666   2.281   3.146  0.6092 -0.0781 -0.6542
 5776SOL    HW228788   1.618   2.145   3.189  0.5045  0.3162  1.0311
 5777SOL     OW28789   1.238   4.018  11.048 -0.1973 -0.2716  0.3164
 5777SOL    HW128790   1.287   3.985  10.972 -0.1902  3.1584 -1.1887
 5777SOL    HW228791   1.156   3.969  11.036 -1.1469  1.8700 -1.9699
 5778SOL     OW28792   0.776   0.426   6.483  0.4417  0.2454  0.6153
 5778SOL    HW128793   0.754   0.472   6.565  1.5365  1.5299  0.1850
 5778SOL    HW228794   0.846   0.483   6.452  0.1135  1.9446  2.9789
 5779SOL     OW28795   1.739   2.480   2.793 -0.0392 -0.2954  0.1788
 5779SOL    HW128796   1.785   2.396   2.797 -1.6480 -1.1742  0.2038
 5779SOL    HW228797   1.792   2.528   2.857 -1.3565 -0.6461  1.5418
 5780SOL     OW28798   1.983   3.807  10.103  0.6452  0.1996 -0.2427
 5780SOL    HW128799   2.008   3.813  10.195 -1.5436  0.6586  0.3215
 5780SOL    HW228800   1.905   3.863  10.100  0.1430 -0.4823  0.1713
 5781SOL     OW28801   3.605   1.328   3.886 -0.1160 -0.1580 -0.3586
 5781SOL    HW128802   3.606   1.410   3.836 -0.6819 -0.4853 -0.9013
 5781SOL    HW228803   3.693   1.295   3.866 -0.5876 -2.8046  1.9694
 5782SOL     OW28804   0.480   3.784   6.591 -0.0492 -0.3245  0.2840
 5782SOL    HW128805   0.528   3.843   6.534 -1.2154  1.9630  1.6839
 5782SOL    HW228806   0.411   3.848   6.608 -0.7900 -1.0753  0.1295
 5783SOL     OW28807   1.185   0.395   9.278  0.1107  0.0069 -1.0857
 5783SOL    HW128808   1.146   0.468   9.325  0.8827  0.1788 -0.7055
 5783SOL    HW228809   1.278   0.413   9.293  0.1944 -2.4385  1.3534
 5784SOL     OW28810   3.909   2.359   7.255  0.0540 -0.4425 -0.1105
 5784SOL    HW128811   3.909   2.337   7.348 -2.2607 -0.2330 -0.0524
 5784SOL    HW228812   3.998   2.385   7.234 -0.3652  1.7873  0.8425
 5785SOL     OW28813   4.397   3.399   9.638 -0.3964  0.0176 -0.4455
 5785SOL    HW128814   4.424   3.430   9.551  1.0424  2.0769  0.7349
 5785SOL    HW228815   4.348   3.318   9.626 -0.1559  0.2437 -2.9638
 5786SOL     OW28816   1.907   3.457  14.373 -0.0457  0.3371 -0.0358
 5786SOL    HW128817   1.992   3.417  14.352 -0.2554 -0.8637  1.4054
 5786SOL    HW228818   1.864   3.398  14.435  0.0754  1.7501  1.4194
 5787SOL     OW28819   4.401   0.123   7.917  0.5559 -0.1773 -0.2088
 5787SOL    HW128820   4.447   0.100   7.836 -0.2643 -0.8634 -0.4904
 5787SOL    HW228821   4.311   0.096   7.895  0.5567 -0.0177 -0.4073
 5788SOL     OW28822   0.107   2.092  10.581  0.2137 -0.2056 -0.3764
 5788SOL    HW128823   0.017   2.086  10.613 -0.1539 -1.1318 -1.5671
 5788SOL    HW228824   0.090   2.050  10.497 -1.6374 -0.6923  0.2309
 5789SOL     OW28825   1.686   1.168   1.739  0.1471 -0.0779 -0.4900
 5789SOL    HW128826   1.592   1.154   1.732  0.4056 -1.1029 -2.1670
 5789SOL    HW228827   1.713   1.088   1.785 -0.0708 -0.9809 -1.9217
 5790SOL     OW28828   4.358   2.961   5.591 -0.1750  0.3073  0.1123
 5790SOL    HW128829   4.344   2.899   5.519 -1.2408 -0.4454  0.9689
 5790SOL    HW228830   4.335   2.908   5.667  0.0236  1.1406  0.7573
 5791SOL     OW28831   2.183   4.616   4.754  0.4502  0.2264  0.0970
 5791SOL    HW128832   2.253   4.550   4.751  0.0752 -0.1616  0.0100
 5791SOL    HW228833   2.197   4.647   4.665  0.7932  1.4721  0.5783
 5792SOL     OW28834   4.078   1.454   7.136  0.1992 -0.2029  0.0999
 5792SOL    HW128835   4.039   1.476   7.052  1.7519 -2.6695 -1.2481
 5792SOL    HW228836   4.167   1.422   7.124 -0.1103 -0.7710 -0.6931
 5793SOL     OW28837   3.417   0.259   6.757 -0.8536  0.4103 -0.2878
 5793SOL    HW128838   3.457   0.201   6.822 -0.7117  0.0844 -0.6631
 5793SOL    HW228839   3.439   0.345   6.793 -0.1645 -0.1068  0.5339
 5794SOL     OW28840   3.089   0.630   1.881 -0.5551  0.0473 -0.1302
 5794SOL    HW128841   3.087   0.593   1.793 -0.1533  0.8661 -0.4715
 5794SOL    HW228842   3.007   0.680   1.876 -0.0837  0.7263 -1.0693
 5795SOL     OW28843   1.460   4.600   6.435 -0.0104 -0.6347 -0.9410
 5795SOL    HW128844   1.512   4.653   6.375  0.5673 -0.1770 -0.0403
 5795SOL    HW228845   1.373   4.627   6.406 -0.2293  0.1071  0.4039
 5796SOL     OW28846   2.361   4.469   3.089  0.3378 -0.2010  0.7761
 5796SOL    HW128847   2.274   4.457   3.052 -0.3524  1.7705  1.7818
 5796SOL    HW228848   2.409   4.477   3.007 -2.4438  0.1462 -0.8049
 5797SOL     OW28849   3.340   3.508   8.912 -0.0618  0.8371 -0.4983
 5797SOL    HW128850   3.426   3.527   8.949 -0.6418  0.0382  1.2589
 5797SOL    HW228851   3.281   3.580   8.933  0.9305  0.8465  2.2633
 5798SOL     OW28852   2.211   1.894  12.696 -0.3247 -0.3367  0.4007
 5798SOL    HW128853   2.285   1.954  12.706  0.2914 -1.0119 -0.0900
 5798SOL    HW228854   2.139   1.936  12.742  0.2597  0.3046  0.7298
 5799SOL     OW28855   2.936   3.751   9.440 -0.7603 -0.2452 -0.1291
 5799SOL    HW128856   3.010   3.711   9.487 -1.4547  1.4090  2.3724
 5799SOL    HW228857   2.973   3.727   9.355  0.6556 -0.1444  0.4638
 5800SOL     OW28858   3.474   1.948   3.395 -0.2335  0.1548 -0.2030
 5800SOL    HW128859   3.470   2.013   3.325 -0.3365 -1.0430 -1.3172
 5800SOL    HW228860   3.565   1.919   3.386  0.7536  3.0961  0.4123
 5801SOL     OW28861   3.294   0.331   3.301  0.6085 -0.0970  0.6872
 5801SOL    HW128862   3.216   0.293   3.262  0.1441 -0.0618  1.5844
 5801SOL    HW228863   3.361   0.272   3.267  0.0688 -0.5980  0.5012
 5802SOL     OW28864   4.112   1.333   9.601 -0.0881 -0.2953  0.6390
 5802SOL    HW128865   4.164   1.254   9.588 -1.5315 -1.1088 -0.1623
 5802SOL    HW228866   4.125   1.376   9.517 -0.9421 -2.7374 -0.7193
 5803SOL     OW28867   1.395   1.299   1.788  0.3011 -0.0652  0.1336
 5803SOL    HW128868   1.412   1.375   1.732 -0.5944  0.5977  0.7655
 5803SOL    HW228869   1.321   1.258   1.745  0.8010 -0.7906 -0.0310
 5804SOL     OW28870   3.620   4.533   4.780  0.4847  0.3005  0.2406
 5804SOL    HW128871   3.541   4.549   4.729  0.3244  0.1822  0.4524
 5804SOL    HW228872   3.584   4.523   4.868  0.0716  0.9171  0.1422
 5805SOL     OW28873   0.797   2.458   6.489 -0.1142 -0.3400 -0.2305
 5805SOL    HW128874   0.725   2.511   6.454 -1.3028 -2.0665 -0.4309
 5805SOL    HW228875   0.803   2.391   6.420  1.4457 -0.3074 -0.1179
 5806SOL     OW28876   3.660   3.519   3.137 -0.2412 -0.3079 -0.1674
 5806SOL    HW128877   3.576   3.497   3.177  1.3928  2.0640  4.5145
 5806SOL    HW228878   3.665   3.466   3.057  0.2802  1.5349 -1.3724
 5807SOL     OW28879   4.264   2.767   3.818  0.0068  0.6208  0.2494
 5807SOL    HW128880   4.311   2.760   3.901 -3.3192 -2.9990  1.8618
 5807SOL    HW228881   4.307   2.845   3.783 -0.5810  0.2650 -1.2497
 5808SOL     OW28882   2.308   4.343   8.174  0.5678 -0.5483 -0.1503
 5808SOL    HW128883   2.242   4.278   8.195  0.2125  0.2328  1.1855
 5808SOL    HW228884   2.308   4.402   8.249 -1.5881  0.7184 -1.1582
 5809SOL     OW28885   1.153   1.328   5.290  0.4583 -0.2289 -0.1485
 5809SOL    HW128886   1.197   1.351   5.372 -0.8052  3.0863 -0.3952
 5809SOL    HW228887   1.076   1.275   5.311  2.6012 -2.5684  1.9174
 5810SOL     OW28888   3.988   1.607   1.038  0.5697  0.9394  0.8468
 5810SOL    HW128889   4.060   1.619   1.099  1.0034  0.1373  0.4954
 5810SOL    HW228890   3.961   1.698   1.027  0.8299  1.2747  2.8832
 5811SOL     OW28891   3.011   4.409   8.959  0.0573  0.3712  0.0321
 5811SOL    HW128892   2.995   4.367   9.043  0.2338 -1.4207 -0.8308
 5811SOL    HW228893   2.950   4.483   8.961 -0.2518  0.0866  0.9408
 5812SOL     OW28894   1.301   3.296   2.329  0.1966  0.0445  0.0267
 5812SOL    HW128895   1.350   3.377   2.318  1.5741 -0.6863  0.7846
 5812SOL    HW228896   1.362   3.234   2.288 -1.3775 -2.3478  1.2862
 5813SOL     OW28897   2.006   2.614   0.312 -0.4554  0.1469 -0.1905
 5813SOL    HW128898   1.994   2.702   0.277  0.9963 -0.2915 -1.8122
 5813SOL    HW228899   2.042   2.614   0.401 -0.9679 -1.9520  0.0343
 5814SOL     OW28900   2.720   3.088  16.428 -0.2843 -0.1107 -0.5196
 5814SOL    HW128901   2.809   3.118  16.414 -0.1061 -0.6336 -0.5171
 5814SOL    HW228902   2.753   3.021  16.489 -1.5899  1.1745  1.6073
 5815SOL     OW28903   3.002   4.647  14.767  0.4844  0.1131  0.1682
 5815SOL    HW128904   3.027   0.014  14.796 -1.7218  0.8949 -0.2673
 5815SOL    HW228905   2.968   4.659  14.678 -0.2248 -1.3078  0.2457
 5816SOL     OW28906   1.537   1.797  12.621  0.3693 -0.4386 -0.2546
 5816SOL    HW128907   1.446   1.773  12.603  0.7905 -1.4505 -1.0290
 5816SOL    HW228908   1.579   1.714  12.597 -0.9459 -1.3383  0.5781
 5817SOL     OW28909   4.099   2.497   2.021 -0.3219 -0.3064 -0.0900
 5817SOL    HW128910   4.126   2.567   1.962 -0.3568  1.0481  1.4747
 5817SOL    HW228911   4.030   2.470   1.960 -0.6666 -1.2712  0.7212
 5818SOL     OW28912   0.073   2.292  16.203 -0.7922 -0.2294 -0.0959
 5818SOL    HW128913   0.162   2.279  16.169 -0.2962 -2.0456  1.8857
 5818SOL    HW228914   0.031   2.212  16.170 -0.2959 -0.4765 -0.1246
 5819SOL     OW28915   1.154   2.064  17.492  0.3364 -0.1860 -0.5008
 5819SOL    HW128916   1.208   2.023  17.560  1.2466 -0.4996 -1.4011
 5819SOL    HW228917   1.126   1.998  17.428  1.1549  1.1731 -2.2772
 5820SOL     OW28918   4.456   1.896   6.650 -0.0102 -0.2972  0.1568
 5820SOL    HW128919   4.382   1.940   6.692  0.2350 -0.8197  1.1397
 5820SOL    HW228920   4.427   1.919   6.562 -1.6570 -0.0954  0.7476
 5821SOL     OW28921   4.469   2.628   4.740 -0.3113  0.4815 -0.0672
 5821SOL    HW128922   4.411   2.605   4.668  1.2934 -0.3180 -1.0908
 5821SOL    HW228923   4.491   2.542   4.776  1.6994  0.6709 -0.8912
 5822SOL     OW28924   2.578   0.868   6.494 -0.0071  0.1666  0.1505
 5822SOL    HW128925   2.642   0.830   6.553 -3.4479 -1.9073  2.5940
 5822SOL    HW228926   2.516   0.908   6.555  0.2271  1.0842 -0.2244
 5823SOL     OW28927   0.687   3.386   3.446 -0.0263  0.0062  1.0109
 5823SOL    HW128928   0.759   3.433   3.403 -0.0658  0.5953  1.5767
 5823SOL    HW228929   0.737   3.322   3.496 -0.8672 -0.2697  1.4979
 5824SOL     OW28930   1.917   1.349  12.058  0.1648 -0.0559 -0.5115
 5824SOL    HW128931   1.983   1.415  12.039  0.7234 -1.0297 -1.9644
 5824SOL    HW228932   1.845   1.406  12.088  1.0228  1.0231 -0.5000
 5825SOL     OW28933   1.193   0.382   2.388 -0.9378  0.3181  0.0479
 5825SOL    HW128934   1.281   0.361   2.419 -0.9485 -2.2250 -1.6777
 5825SOL    HW228935   1.217   0.439   2.315 -0.6751 -0.5033 -0.5030
 5826SOL     OW28936   3.108   3.431   2.856 -0.4705  0.2208  0.4814
 5826SOL    HW128937   3.051   3.379   2.911 -1.8278  1.8660  0.6320
 5826SOL    HW228938   3.192   3.386   2.868 -1.1370 -1.1141  0.1156
 5827SOL     OW28939   4.592   0.541  11.516 -0.1986 -0.3430  1.0073
 5827SOL    HW128940   4.502   0.550  11.547 -0.1761  0.8190  0.7426
 5827SOL    HW228941   4.586   0.528  11.422  0.1012  1.0823  0.7826
 5828SOL     OW28942   2.824   0.093   8.783  0.2587  0.1687 -1.0843
 5828SOL    HW128943   2.808   0.044   8.702  0.8402 -0.7746 -0.6306
 5828SOL    HW228944   2.804   0.180   8.750 -0.5463  0.3808 -0.0389
 5829SOL     OW28945   4.634   2.308   9.028 -0.1368  0.1376  0.0878
 5829SOL    HW128946   4.705   2.338   9.085  2.4780 -1.6466 -2.2284
 5829SOL    HW228947   4.584   2.389   9.014 -1.6816 -1.2219 -2.2191
 5830SOL     OW28948   1.682   3.164  16.261  0.3251  0.4271 -0.1760
 5830SOL    HW128949   1.738   3.152  16.185 -0.4107  0.2494 -0.6926
 5830SOL    HW228950   1.745   3.175  16.332 -0.6468  1.7473  0.5021
 5831SOL     OW28951   2.840   1.586  13.619 -0.3904 -0.0683  0.6265
 5831SOL    HW128952   2.901   1.520  13.587 -0.0161  0.1255  0.9350
 5831SOL    HW228953   2.899   1.634  13.678  1.9655 -2.2728  0.0496
 5832SOL     OW28954   3.082   1.286   3.465 -0.8170 -0.2204  0.1739
 5832SOL    HW128955   3.128   1.355   3.512 -0.3765 -0.3674 -0.0406
 5832SOL    HW228956   3.033   1.253   3.540  1.7338  1.7376  2.7023
 5833SOL     OW28957   1.890   1.136   6.427  0.5405 -0.6007 -0.9784
 5833SOL    HW128958   1.926   1.051   6.451 -0.1450 -0.9553 -1.1942
 5833SOL    HW228959   1.963   1.164   6.371  1.2809 -1.9520 -0.6725
 5834SOL     OW28960   0.107   4.658   8.360 -0.5843 -0.1499  0.1678
 5834SOL    HW128961   0.107   4.597   8.433  1.4014  0.5287  0.7431
 5834SOL    HW228962   0.113   0.022   8.405  3.3843 -0.3363 -0.0500
 5835SOL     OW28963   3.071   2.564   9.925  0.0502 -0.5730  0.2869
 5835SOL    HW128964   3.148   2.620   9.928 -0.4857  0.1852 -0.2937
 5835SOL    HW228965   3.091   2.526  10.011  0.1577 -0.0456  0.4925
 5836SOL     OW28966   4.384   4.176   2.368  0.0831  0.5378  0.5495
 5836SOL    HW128967   4.456   4.160   2.306 -1.2717  1.5719 -1.2909
 5836SOL    HW228968   4.363   4.094   2.413 -0.0639  0.1067 -0.3097
 5837SOL     OW28969   3.820   4.406   3.920 -0.3482  0.3315  0.0033
 5837SOL    HW128970   3.726   4.390   3.925 -0.3774  0.6012  0.2754
 5837SOL    HW228971   3.855   4.337   3.977 -1.3798  1.5163  2.0532
 5838SOL     OW28972   0.834   3.444   5.430 -0.7174 -0.7368 -0.2123
 5838SOL    HW128973   0.883   3.365   5.404  0.1041  0.3325 -1.8787
 5838SOL    HW228974   0.855   3.501   5.357  2.0071 -2.3222 -0.6886
 5839SOL     OW28975   1.344   4.272  11.602 -0.2522 -0.0735  0.3948
 5839SOL    HW128976   1.308   4.198  11.554 -2.5022  2.0390 -1.1459
 5839SOL    HW228977   1.276   4.339  11.599 -0.3528 -0.2064 -0.2540
 5840SOL     OW28978   2.486   0.973   4.117 -0.1579 -0.0299 -0.1638
 5840SOL    HW128979   2.519   0.949   4.031  1.3722  0.5084  0.2662
 5840SOL    HW228980   2.397   0.940   4.106 -0.3996  0.4082  0.4798
 5841SOL     OW28981   1.587   0.209   9.130 -0.2323  0.3988 -0.4157
 5841SOL    HW128982   1.611   0.302   9.132  1.6542 -0.1221  0.5137
 5841SOL    HW228983   1.526   0.211   9.056  0.1608  0.3984 -0.7388
 5842SOL     OW28984   2.993   1.192   3.709  0.4887  0.2197  0.3729
 5842SOL    HW128985   3.048   1.268   3.729 -0.8802  1.1739  0.4651
 5842SOL    HW228986   2.922   1.203   3.772  0.6974  2.4167  0.2116
 5843SOL     OW28987   1.598   0.634   2.571  0.8133 -0.7983  0.0736
 5843SOL    HW128988   1.653   0.586   2.632  1.8896 -0.9056 -1.0038
 5843SOL    HW228989   1.659   0.632   2.498  0.2100 -0.6846 -0.4309
 5844SOL     OW28990   4.022   2.798  12.562  0.1506 -0.0872  0.0392
 5844SOL    HW128991   4.049   2.826  12.649 -0.1804  0.8567 -0.1526
 5844SOL    HW228992   4.108   2.805  12.520  0.3288 -0.1522  0.3956
 5845SOL     OW28993   2.043   4.157   0.934  0.2155  0.4212 -0.2823
 5845SOL    HW128994   2.058   4.184   1.024  5.1826 -1.2748 -0.5694
 5845SOL    HW228995   2.131   4.122   0.920 -0.3389 -1.0929 -0.0271
 5846SOL     OW28996   0.232   1.822   6.389 -0.4518  0.1344  0.0221
 5846SOL    HW128997   0.162   1.814   6.455  0.8920 -0.1851  1.4003
 5846SOL    HW228998   0.293   1.751   6.408 -1.3363 -0.8784 -0.9018
 5847SOL     OW28999   0.060   4.439   5.973 -0.3074 -0.7311 -0.1982
 5847SOL    HW129000   0.091   4.406   5.889  0.6483 -0.8818  0.2093
 5847SOL    HW229001   0.132   4.424   6.034 -0.0564 -1.1414 -0.5876
 5848SOL     OW29002   3.627   3.964  15.636  0.3865 -0.7490  0.1360
 5848SOL    HW129003   3.572   3.928  15.705 -0.4026 -0.8482 -0.5530
 5848SOL    HW229004   3.567   3.995  15.569  0.9312  1.0407  0.4636
 5849SOL     OW29005   0.703   0.993   6.176  0.2400  0.3796  0.3335
 5849SOL    HW129006   0.670   0.927   6.115 -1.1458  2.0772 -0.7659
 5849SOL    HW229007   0.633   1.007   6.239 -1.6923 -1.1053 -1.4646
 5850SOL     OW29008   4.156   0.710   8.425  0.0771  1.0379 -0.2893
 5850SOL    HW129009   4.107   0.655   8.363 -1.4077  0.2730  1.5426
 5850SOL    HW229010   4.229   0.650   8.438 -1.4754 -1.0314 -0.9682
 5851SOL     OW29011   2.667   0.406   6.075  0.3308  0.5957 -0.0785
 5851SOL    HW129012   2.670   0.501   6.063 -0.8719  0.6446  0.0174
 5851SOL    HW229013   2.585   0.385   6.030 -2.3753  4.2253  3.1919
 5852SOL     OW29014   0.911   3.773  15.381  0.1154 -0.1955  0.0529
 5852SOL    HW129015   0.821   3.774  15.350 -0.7682 -0.8453  2.6322
 5852SOL    HW229016   0.952   3.840  15.326  1.1640 -0.2322  0.7953
 5853SOL     OW29017   4.557   4.689   0.525 -0.4245  0.2277 -0.4215
 5853SOL    HW129018   4.614   0.038   0.556 -0.4744  0.4139 -0.7563
 5853SOL    HW229019   4.610   4.660   0.451  1.7069 -1.4727  1.7673
 5854SOL     OW29020   2.977   3.209  14.121 -0.0227 -0.3685  0.1681
 5854SOL    HW129021   2.963   3.183  14.212  1.4158 -1.1695  0.1643
 5854SOL    HW229022   3.072   3.219  14.116 -0.0694 -0.4609 -0.8303
 5855SOL     OW29023   3.145   1.246   1.991 -0.0874  0.1471  0.4319
 5855SOL    HW129024   3.080   1.178   2.006  0.5441 -0.0651  2.2364
 5855SOL    HW229025   3.200   1.235   2.069  2.0525  0.3716 -1.0529
 5856SOL     OW29026   1.778   1.471  12.915  0.5446 -0.0365  0.1748
 5856SOL    HW129027   1.703   1.413  12.905  0.1621  0.3206  0.9871
 5856SOL    HW229028   1.848   1.420  12.873 -0.0124 -1.1096  0.5480
 5857SOL     OW29029   1.001   2.889   8.444  0.1557 -0.1936  0.1435
 5857SOL    HW129030   0.962   2.944   8.513 -0.9114 -0.5104 -0.2136
 5857SOL    HW229031   1.073   2.846   8.491 -0.3528 -2.3712 -1.1021
 5858SOL     OW29032   1.181   2.757   8.263  0.0589 -0.2948  0.3090
 5858SOL    HW129033   1.241   2.832   8.253 -0.3712  0.3314  2.4298
 5858SOL    HW229034   1.129   2.788   8.337  1.5503  1.4532  0.6274
 5859SOL     OW29035   0.704   0.214   3.366 -0.4573  0.2591  0.1543
 5859SOL    HW129036   0.750   0.185   3.287  1.2036  3.1259  0.0724
 5859SOL    HW229037   0.730   0.147   3.430 -1.9813  1.0929  1.6237
 5860SOL     OW29038   4.259   2.369   6.645 -0.1202  0.3563 -0.7068
 5860SOL    HW129039   4.340   2.337   6.605  0.3374 -0.6575  1.0574
 5860SOL    HW229040   4.299   2.453   6.668  1.9550 -0.4951 -1.2197
 5861SOL     OW29041   3.537   2.643   8.159 -0.2261  0.4480  0.4823
 5861SOL    HW129042   3.507   2.581   8.226 -3.1380  0.7640 -0.5258
 5861SOL    HW229043   3.596   2.696   8.213 -1.1384  0.8709  1.0728
 5862SOL     OW29044   3.453   2.911  11.629  0.1756  0.1102 -0.1780
 5862SOL    HW129045   3.462   2.850  11.702  0.4751 -1.7090 -1.7490
 5862SOL    HW229046   3.528   2.968  11.642  1.2502 -1.3508  0.0125
 5863SOL     OW29047   4.684   3.219   6.594  0.0326  0.1909 -0.1099
 5863SOL    HW129048   4.621   3.155   6.561  0.3657  0.9180 -2.1209
 5863SOL    HW229049   4.637   3.262   6.666 -0.8077 -1.4650  0.3207
 5864SOL     OW29050   4.095   1.832  12.163 -0.0455  0.0296  0.7551
 5864SOL    HW129051   4.037   1.778  12.110  1.8615 -1.6563  0.3954
 5864SOL    HW229052   4.157   1.866  12.098 -0.5503  1.0319  0.7946
 5865SOL     OW29053   2.280   1.931   4.376 -0.4506 -0.0692 -1.0082
 5865SOL    HW129054   2.185   1.925   4.382 -0.1227  0.0792  4.3359
 5865SOL    HW229055   2.302   1.944   4.468  0.1043  0.5111 -1.2195
 5866SOL     OW29056   1.149   3.896   8.137 -0.0313 -0.0834 -0.2632
 5866SOL    HW129057   1.188   3.962   8.080 -0.7706  0.4825 -0.1204
 5866SOL    HW229058   1.073   3.871   8.085 -1.0181  2.2320  0.0537
 5867SOL     OW29059   3.174   4.672   5.270  0.1946  0.2820  0.2242
 5867SOL    HW129060   3.091   4.700   5.229  0.8446 -0.0951 -1.3677
 5867SOL    HW229061   3.232   4.678   5.194 -2.0685 -0.7943 -1.6245
 5868SOL     OW29062   0.782   1.753   7.462 -0.1375 -0.1485  0.5837
 5868SOL    HW129063   0.863   1.754   7.513  0.4889  1.1662 -0.4331
 5868SOL    HW229064   0.722   1.707   7.521 -0.9717  1.2816  0.8614
 5869SOL     OW29065   3.147   3.660  13.063  0.6959 -0.1764  0.1803
 5869SOL    HW129066   3.133   3.650  12.969 -1.1143  1.9623  0.2227
 5869SOL    HW229067   3.232   3.620  13.083  1.4414  0.2774 -2.0254
 5870SOL     OW29068   1.430   3.547   6.562 -0.3461 -0.7323  0.8769
 5870SOL    HW129069   1.446   3.611   6.492 -0.5119 -1.8639 -0.2034
 5870SOL    HW229070   1.471   3.601   6.629 -0.1875 -1.1501  1.1174
 5871SOL     OW29071   1.480   0.680   0.242 -0.2323  0.3589 -0.0549
 5871SOL    HW129072   1.474   0.585   0.233  3.9401  0.2382 -1.4624
 5871SOL    HW229073   1.560   0.697   0.292  0.8595 -0.9106 -1.3909
 5872SOL     OW29074   3.613   0.062   7.343 -0.1058  0.1058  0.1655
 5872SOL    HW129075   3.577   0.032   7.426 -0.9185 -2.1869 -1.0247
 5872SOL    HW229076   3.632   0.155   7.360 -0.8369  0.0516  1.3167
 5873SOL     OW29077   2.029   4.353   8.595 -0.6657  0.1072  0.0158
 5873SOL    HW129078   2.029   4.337   8.690  4.5241  2.0339  0.3727
 5873SOL    HW229079   1.964   4.422   8.583  0.8123  1.6335  0.8362
 5874SOL     OW29080   0.603   1.450  16.540  0.0971 -0.4178  0.5817
 5874SOL    HW129081   0.646   1.513  16.482  1.4785  1.8283  4.0499
 5874SOL    HW229082   0.639   1.370  16.502 -2.5399  0.1525 -3.1420
 5875SOL     OW29083   4.305   1.064   9.180  0.3537 -0.0965 -0.6511
 5875SOL    HW129084   4.295   0.972   9.204  0.7574 -0.4507 -1.8400
 5875SOL    HW229085   4.264   1.050   9.095 -1.5669 -1.1856  0.4700
 5876SOL     OW29086   2.225   0.052   5.173 -0.3760 -0.1550 -0.1926
 5876SOL    HW129087   2.142   0.081   5.210  0.6126  0.8521  1.2429
 5876SOL    HW229088   2.272   0.133   5.193 -3.5147  1.2794  1.3366
 5877SOL     OW29089   0.805   1.498   4.845 -0.3848  0.6556 -0.5070
 5877SOL    HW129090   0.830   1.526   4.933 -2.1923  0.6509 -0.0078
 5877SOL    HW229091   0.712   1.521   4.846 -0.3514  0.6926  0.8605
 5878SOL     OW29092   1.162   0.467  15.435 -0.3798  0.3358 -0.6646
 5878SOL    HW129093   1.181   0.477  15.529  0.4807  0.7993 -0.8814
 5878SOL    HW229094   1.068   0.480  15.436 -0.6718 -1.6856 -3.0737
 5879SOL     OW29095   2.466   0.311   6.291  0.6301  0.0470 -0.1560
 5879SOL    HW129096   2.470   0.407   6.301  0.7228  0.1862 -1.5362
 5879SOL    HW229097   2.405   0.288   6.361 -1.3777  0.3197 -1.8058
 5880SOL     OW29098   0.270   3.491   6.297  0.2021 -0.2559  0.1308
 5880SOL    HW129099   0.354   3.536   6.295 -0.5654  1.1400 -0.6599
 5880SOL    HW229100   0.209   3.556   6.333  2.2609  1.5271  0.4031
 5881SOL     OW29101   0.663   0.033   5.658  0.0762 -0.3293  0.3237
 5881SOL    HW129102   0.691   0.096   5.592  1.4824  0.3652  1.5773
 5881SOL    HW229103   0.593   0.080   5.703  0.5908  0.2557  0.5178
 5882SOL     OW29104   3.583   1.228   7.134  0.2780  0.0468  0.1705
 5882SOL    HW129105   3.607   1.164   7.202 -1.4602 -0.0779  0.6710
 5882SOL    HW229106   3.658   1.287   7.126 -1.8021  2.5910 -0.4467
 5883SOL     OW29107   3.972   4.645   6.935  0.7031  0.3326  0.3092
 5883SOL    HW129108   4.009   0.013   6.942  2.7202 -0.5884  1.3850
 5883SOL    HW229109   3.928   4.659   6.851 -0.3851  0.9990  0.9897
 5884SOL     OW29110   4.078   0.570   5.386  0.1852 -0.3550 -0.2763
 5884SOL    HW129111   4.157   0.573   5.333 -0.7674  3.0967 -1.4750
 5884SOL    HW229112   4.039   0.487   5.360 -0.7615 -0.5410  1.6821
 5885SOL     OW29113   0.141   1.869  12.945 -0.0905 -0.4984 -0.3439
 5885SOL    HW129114   0.160   1.835  13.032  0.6445  0.3512 -0.1735
 5885SOL    HW229115   0.229   1.895  12.916 -0.1821 -0.0820 -0.2504
 5886SOL     OW29116   1.638   1.283   8.090  0.3946 -0.1555  0.1187
 5886SOL    HW129117   1.659   1.191   8.074 -2.4862 -1.1944  2.4252
 5886SOL    HW229118   1.700   1.319   8.154  1.3564 -2.2682  0.4090
 5887SOL     OW29119   3.370   0.306   0.696  0.5727 -0.1835 -0.5233
 5887SOL    HW129120   3.285   0.309   0.740  1.7601  1.9287  1.6239
 5887SOL    HW229121   3.409   0.373   0.752 -1.3067  2.5763 -2.4664
 5888SOL     OW29122   0.837   2.544  16.423 -0.4237 -0.5456  0.4404
 5888SOL    HW129123   0.803   2.576  16.506  2.7261 -0.3701  1.6380
 5888SOL    HW229124   0.898   2.614  16.400 -2.0121  1.1640  1.3858
 5889SOL     OW29125   3.476   1.885   7.694  0.0777  0.2815  0.0612
 5889SOL    HW129126   3.453   1.825   7.624  0.3413 -2.4352  2.2681
 5889SOL    HW229127   3.521   1.825   7.754 -0.2740  1.4492  1.5064
 5890SOL     OW29128   0.625   1.633  13.703  0.0255  0.0143 -0.0866
 5890SOL    HW129129   0.581   1.552  13.676 -1.7060  1.0204 -0.3158
 5890SOL    HW229130   0.647   1.672  13.618 -0.5077 -0.7008 -0.5515
 5891SOL     OW29131   2.712   4.467   9.538  0.7192 -0.0785  0.2722
 5891SOL    HW129132   2.670   4.421   9.466  1.7036 -2.9282  1.5391
 5891SOL    HW229133   2.649   4.460   9.610 -2.8064  0.5887 -2.6992
 5892SOL     OW29134   2.793   3.577   6.264  0.1150  0.9562 -0.0186
 5892SOL    HW129135   2.846   3.638   6.315  1.3913  0.7528 -1.0826
 5892SOL    HW229136   2.859   3.516   6.230  1.4881  2.2806  0.2363
 5893SOL     OW29137   0.713   0.952   5.449 -0.9698  0.0783  0.0845
 5893SOL    HW129138   0.742   0.995   5.369  1.7976  2.6961  2.5232
 5893SOL    HW229139   0.635   1.005   5.468  0.0150  1.7451 -0.5655
 5894SOL     OW29140   1.695   2.267   0.397  0.0226 -0.3024 -0.1264
 5894SOL    HW129141   1.761   2.232   0.458 -0.3961 -2.8635 -1.1518
 5894SOL    HW229142   1.754   2.305   0.332 -1.2148  1.3512 -0.2699
 5895SOL     OW29143   1.546   2.084   8.033 -0.0293 -0.5038 -0.0305
 5895SOL    HW129144   1.529   2.058   7.943  1.9005 -0.2648 -0.4671
 5895SOL    HW229145   1.637   2.062   8.052 -0.6626 -2.3052  0.9123
 5896SOL     OW29146   1.384   2.060   7.376  0.1017  0.2024 -0.1040
 5896SOL    HW129147   1.432   2.000   7.433 -1.0536  1.4630  2.2067
 5896SOL    HW229148   1.413   2.140   7.420  1.8477  0.4312 -1.7147
 5897SOL     OW29149   3.256   4.190  10.213 -0.7559 -0.1116 -0.1404
 5897SOL    HW129150   3.342   4.228  10.197 -2.3563  3.3973 -0.3551
 5897SOL    HW229151   3.265   4.124  10.282  0.8326  0.3855  0.1336
 5898SOL     OW29152   0.041   1.030   4.386  0.0782  0.2214  0.0151
 5898SOL    HW129153   0.081   0.964   4.329 -2.0729 -0.1971 -1.0435
 5898SOL    HW229154   0.079   0.989   4.464 -1.2444  0.7467  0.9442
 5899SOL     OW29155   4.689   4.466   2.961 -0.1296 -0.3767 -0.5231
 5899SOL    HW129156   0.008   4.513   2.888 -0.6400  2.0038  0.7364
 5899SOL    HW229157   4.637   4.403   2.910  0.5255  0.2579 -1.9814
 5900SOL     OW29158   1.325   2.748  11.887 -0.1291  0.1132 -0.5649
 5900SOL    HW129159   1.334   2.725  11.795 -2.0695  2.4986 -1.3586
 5900SOL    HW229160   1.415   2.750  11.921  0.7339 -0.5275 -2.7712
 5901SOL     OW29161   0.169   1.651   8.794 -0.1183 -0.0459  0.1029
 5901SOL    HW129162   0.165   1.687   8.882  1.9709  0.3899  0.0093
 5901SOL    HW229163   0.247   1.696   8.761  0.6731 -0.2655  1.6991
 5902SOL     OW29164   1.508   1.238  12.642  0.1635  0.0867 -0.7547
 5902SOL    HW129165   1.497   1.285  12.559  1.0908  0.0758 -0.8842
 5902SOL    HW229166   1.465   1.153  12.630  0.5253 -0.2189  0.1086
 5903SOL     OW29167   3.928   1.175  15.039  0.2996  0.1659  0.0078
 5903SOL    HW129168   3.934   1.207  15.129 -0.4504 -1.7004  0.7042
 5903SOL    HW229169   3.945   1.256  14.989 -2.6298 -0.8003 -2.5466
 5904SOL     OW29170   3.155   1.818   2.831  0.6732 -0.1989 -0.2910
 5904SOL    HW129171   3.175   1.749   2.894  1.3557 -0.3526 -0.6762
 5904SOL    HW229172   3.234   1.849   2.787 -0.4407  2.0069 -0.7859
 5905SOL     OW29173   1.580   2.274   1.768  0.1555 -0.5638 -0.2736
 5905SOL    HW129174   1.579   2.195   1.822  1.1872  0.2141  0.8870
 5905SOL    HW229175   1.487   2.295   1.777 -0.1099 -1.9890  0.2454
 5906SOL     OW29176   1.993   2.239   8.528  0.6254 -0.1393 -0.5420
 5906SOL    HW129177   1.919   2.181   8.546 -0.4662  0.3044 -3.5257
 5906SOL    HW229178   2.055   2.176   8.491 -0.1153 -0.6510 -0.9052
 5907SOL     OW29179   1.502   3.205   4.030  0.4379 -0.4861 -0.1202
 5907SOL    HW129180   1.551   3.275   3.987  1.3749 -1.2436 -0.3046
 5907SOL    HW229181   1.412   3.223   4.002  1.3792  2.2196 -1.3599
 5908SOL     OW29182   0.831   3.912   6.278 -0.4287  0.1577 -0.2112
 5908SOL    HW129183   0.851   3.853   6.350 -0.4617 -0.7654 -0.9668
 5908SOL    HW229184   0.833   3.996   6.324  1.8169 -0.0993  0.1344
 5909SOL     OW29185   3.680   1.246   9.883  0.4121  0.2548  0.0479
 5909SOL    HW129186   3.687   1.218   9.975  5.0245 -1.6649 -0.9089
 5909SOL    HW229187   3.774   1.252   9.871  0.2230  0.9347 -1.0445
 5910SOL     OW29188   0.631   1.501   2.804 -0.5461  0.9667  0.2224
 5910SOL    HW129189   0.619   1.436   2.735  0.5547 -1.3873  2.2365
 5910SOL    HW229190   0.697   1.466   2.864 -0.0164  0.9973 -0.3433
 5911SOL     OW29191   0.450   2.387  10.687  0.0064 -0.2383 -0.4609
 5911SOL    HW129192   0.482   2.477  10.696 -0.0668 -0.3173  0.5220
 5911SOL    HW229193   0.356   2.402  10.698  0.2815 -0.0701  1.6589
 5912SOL     OW29194   3.067   4.394   2.234 -0.2736  0.0078 -0.4337
 5912SOL    HW129195   3.054   4.304   2.265  1.0065  0.6052  1.7772
 5912SOL    HW229196   3.084   4.447   2.311 -2.1814  1.6132 -1.1290
 5913SOL     OW29197   4.484   2.813   2.288  0.0458  0.1620 -0.0959
 5913SOL    HW129198   4.470   2.766   2.370  0.7176 -1.5840 -0.9734
 5913SOL    HW229199   4.575   2.791   2.269 -1.1714 -1.4881 -4.1399
 5914SOL     OW29200   0.965   0.943   8.572  0.1554  0.5880  0.0118
 5914SOL    HW129201   1.053   0.921   8.605 -1.6790 -1.3398  3.7039
 5914SOL    HW229202   0.930   1.001   8.639  0.2723 -1.5006  1.8890
 5915SOL     OW29203   1.374   3.080   6.405  0.1440  0.6889 -0.2898
 5915SOL    HW129204   1.396   3.154   6.348 -1.2174  1.4327  0.1389
 5915SOL    HW229205   1.365   3.127   6.488 -1.0480 -0.2079  0.0892
 5916SOL     OW29206   3.899   0.900   7.862  0.0535 -0.5168  0.0590
 5916SOL    HW129207   3.815   0.944   7.875 -1.1605 -2.7172 -0.2267
 5916SOL    HW229208   3.899   0.841   7.938  1.0306  0.2187  0.6229
 5917SOL     OW29209   3.318   3.049   3.719  0.2125 -0.2155 -0.1578
 5917SOL    HW129210   3.402   3.060   3.764  1.2712 -0.9717 -1.9612
 5917SOL    HW229211   3.321   3.095   3.636 -0.9286  1.4828  0.7401
 5918SOL     OW29212   3.653   1.585  10.897  0.1842 -0.0594  0.3272
 5918SOL    HW129213   3.574   1.630  10.926  1.2583  2.4771 -0.7001
 5918SOL    HW229214   3.711   1.655  10.928 -1.2429  0.6619  1.3613
 5919SOL     OW29215   2.593   3.818   2.316  0.1320 -0.0911 -0.0800
 5919SOL    HW129216   2.568   3.820   2.224 -0.8247 -0.5338  0.1690
 5919SOL    HW229217   2.658   3.747   2.320  0.2628 -0.1313 -3.1556
 5920SOL     OW29218   2.596   0.597   4.777  0.9651  0.2205 -0.5464
 5920SOL    HW129219   2.574   0.564   4.690  0.8423 -1.9696  0.3101
 5920SOL    HW229220   2.590   0.691   4.761  0.9784  0.5842  1.5843
 5921SOL     OW29221   4.338   0.958  12.787  0.3548 -0.5540  0.0889
 5921SOL    HW129222   4.390   1.035  12.809  0.3457  0.1079 -2.1870
 5921SOL    HW229223   4.328   0.969  12.692 -0.2629 -0.7812  0.1280
 5922SOL     OW29224   1.418   3.802   8.549 -0.1801  0.3859 -0.4129
 5922SOL    HW129225   1.495   3.752   8.521 -0.6140  0.0270 -0.9554
 5922SOL    HW229226   1.353   3.735   8.571 -1.4363  1.9581  0.6440
 5923SOL     OW29227   1.714   1.123   4.444  0.4529  0.2146 -0.4907
 5923SOL    HW129228   1.688   1.213   4.425 -1.2455 -0.7539 -2.6022
 5923SOL    HW229229   1.701   1.077   4.362  1.3121  0.1754 -0.6082
 5924SOL     OW29230   0.441   3.435   9.895  0.5325  0.2792 -0.4047
 5924SOL    HW129231   0.404   3.349   9.913  0.9520 -0.1461 -1.5316
 5924SOL    HW229232   0.534   3.426   9.913  0.5018  1.3910  0.2658
 5925SOL     OW29233   0.175   4.443   3.499  0.1932 -0.2076 -0.0882
 5925SOL    HW129234   0.111   4.377   3.526 -0.1308 -0.1073 -0.6204
 5925SOL    HW229235   0.160   4.440   3.405  1.3769  0.4299 -0.3048
 5926SOL     OW29236   1.682   0.951   4.734 -0.0462 -0.7684  0.3876
 5926SOL    HW129237   1.638   1.031   4.706  0.0115 -0.2470  1.8311
 5926SOL    HW229238   1.748   0.993   4.789  0.1371 -1.0242  0.3610
 5927SOL     OW29239   0.216   0.566  10.585  0.8060 -0.1684 -0.2124
 5927SOL    HW129240   0.176   0.603  10.506 -1.0869 -1.0046  0.3678
 5927SOL    HW229241   0.148   0.503  10.607  1.4900 -0.7660  0.2112
 5928SOL     OW29242   1.200   2.011  16.102 -0.3931 -0.4731 -0.0352
 5928SOL    HW129243   1.139   2.070  16.057  1.1900  0.1593 -1.3263
 5928SOL    HW229244   1.194   1.927  16.056 -0.2853 -0.2518 -0.4572
 5929SOL     OW29245   0.857   2.444   0.866  0.5488  0.1957 -0.8165
 5929SOL    HW129246   0.862   2.539   0.876 -0.8554  0.2054 -0.0901
 5929SOL    HW229247   0.951   2.434   0.881  0.3018  2.1276  2.0178
 5930SOL     OW29248   1.643   3.046  17.547 -0.7776  0.1891 -0.2313
 5930SOL    HW129249   1.676   3.135  17.537  0.9003 -0.5891 -1.5264
 5930SOL    HW229250   1.707   3.009  17.607  0.2941  1.5176 -0.5438
 5931SOL     OW29251   2.067   4.116   6.717 -0.8799 -0.0651  0.4833
 5931SOL    HW129252   2.133   4.047   6.722 -2.0880 -1.4889 -3.3729
 5931SOL    HW229253   1.992   4.074   6.759 -1.8213 -2.6206 -3.6922
 5932SOL     OW29254   3.440   2.922  11.349  0.3124 -0.0370 -0.0881
 5932SOL    HW129255   3.448   2.921  11.444  2.7542  1.9048 -0.2825
 5932SOL    HW229256   3.502   2.992  11.327 -1.0252  1.3007  0.4716
 5933SOL     OW29257   0.312   2.386   6.928 -0.6275 -0.6180 -0.5587
 5933SOL    HW129258   0.371   2.318   6.959  1.2284  1.0212 -0.4570
 5933SOL    HW229259   0.345   2.404   6.840  1.1574 -1.8104 -0.1374
 5934SOL     OW29260   3.454   3.803   5.696 -0.3684 -0.1393 -0.2156
 5934SOL    HW129261   3.547   3.798   5.717 -0.1402 -2.4816 -1.8273
 5934SOL    HW229262   3.453   3.774   5.605  0.9326  1.7217 -0.8401
 5935SOL     OW29263   0.243   3.838   7.315  0.6270 -0.8017  0.3443
 5935SOL    HW129264   0.334   3.864   7.304  0.1225  0.6670 -0.2833
 5935SOL    HW229265   0.224   3.867   7.404  0.0915 -0.4244  0.1125
 5936SOL     OW29266   4.576   0.857   7.385  0.6890  0.8352 -0.1560
 5936SOL    HW129267   4.513   0.930   7.385 -2.1726 -1.6603  1.3035
 5936SOL    HW229268   4.643   0.894   7.327  1.8958 -0.0851  0.6643
 5937SOL     OW29269   4.427   0.784  13.450  0.3694 -0.2743 -0.5270
 5937SOL    HW129270   4.467   0.854  13.501 -0.6201  0.5608 -0.8926
 5937SOL    HW229271   4.504   0.773  13.393 -0.4866  2.3240 -2.1747
 5938SOL     OW29272   3.097   0.297  13.861  0.3879 -1.1311 -0.0186
 5938SOL    HW129273   3.072   0.269  13.773  1.0398 -0.6198 -0.3564
 5938SOL    HW229274   3.101   0.215  13.910  0.2921 -1.3314 -0.3440
 5939SOL     OW29275   2.878   4.312   9.175 -0.0631 -0.3275 -0.0091
 5939SOL    HW129276   2.946   4.245   9.186  0.0468 -0.2384 -0.1409
 5939SOL    HW229277   2.854   4.322   9.266 -3.4337 -0.1802 -0.9253
 5940SOL     OW29278   1.414   2.080  15.709 -0.4451  0.1595 -0.1145
 5940SOL    HW129279   1.456   2.093  15.624  1.4978 -0.5785  0.7427
 5940SOL    HW229280   1.323   2.100  15.686 -0.1731  1.0838 -0.3884
 5941SOL     OW29281   0.118   0.046   7.736 -0.6336 -1.0012 -0.9419
 5941SOL    HW129282   0.160   0.104   7.800 -0.7582  0.1538 -1.8994
 5941SOL    HW229283   0.165   0.075   7.657 -0.7498  1.3710 -0.1307
 5942SOL     OW29284   4.613   1.566  10.708 -0.8358  0.4722  0.1121
 5942SOL    HW129285   4.615   1.586  10.802 -1.5409  0.7253  0.0809
 5942SOL    HW229286   4.566   1.483  10.705 -2.9279  1.6509 -0.3940
 5943SOL     OW29287   0.448   1.361   3.275 -0.1018  0.3170 -0.0531
 5943SOL    HW129288   0.427   1.342   3.184  0.3495  3.9229 -0.9222
 5943SOL    HW229289   0.544   1.363   3.282 -0.0703 -0.1378 -0.3836
 5944SOL     OW29290   2.551   3.114  14.777  0.1058 -0.6763  0.3841
 5944SOL    HW129291   2.561   3.204  14.808  1.4330  0.4749 -3.3912
 5944SOL    HW229292   2.643   3.092  14.763  0.2343  0.1376 -0.0855
 5945SOL     OW29293   1.832   1.288   9.835  0.0008  0.4288  0.2253
 5945SOL    HW129294   1.789   1.284   9.750 -0.9973  2.6214  0.6189
 5945SOL    HW229295   1.847   1.195   9.851 -0.5528  0.2624 -0.2301
 5946SOL     OW29296   3.897   3.092   7.642 -0.1546 -0.0255 -0.5504
 5946SOL    HW129297   3.979   3.113   7.597  0.8478  0.5543  1.5487
 5946SOL    HW229298   3.923   3.047   7.722  0.7983  0.0725 -0.8002
 5947SOL     OW29299   0.417   3.472   3.481  0.0886 -0.4312  0.2942
 5947SOL    HW129300   0.505   3.466   3.443  0.6321  1.8006  1.2407
 5947SOL    HW229301   0.378   3.550   3.442  1.0445 -0.2605 -0.3141
 5948SOL     OW29302   4.305   1.643   7.069 -0.2477  0.2229  0.2935
 5948SOL    HW129303   4.212   1.627   7.054 -0.0508 -0.7608  0.1440
 5948SOL    HW229304   4.335   1.661   6.980  1.9293  2.1539  1.4179
 5949SOL     OW29305   2.013   0.105  10.962  0.0918 -0.6966  0.7096
 5949SOL    HW129306   2.022   0.010  10.961  2.4614 -0.4417 -1.4712
 5949SOL    HW229307   2.098   0.128  10.998 -0.1515  1.1566  0.0732
 5950SOL     OW29308   1.977   0.882   4.243 -0.6236  0.1486  0.1038
 5950SOL    HW129309   1.954   0.898   4.334  1.0283 -0.8595  0.6855
 5950SOL    HW229310   1.895   0.915   4.206  0.2554  1.5305 -0.6153
 5951SOL     OW29311   2.069   3.256  10.951 -0.1560  0.0272 -0.2639
 5951SOL    HW129312   2.021   3.304  10.883 -1.3701  0.3125  0.8076
 5951SOL    HW229313   2.127   3.324  10.986 -3.3461  2.9555 -0.6140
 5952SOL     OW29314   0.423   2.216   5.580 -0.3341  0.3295 -0.2149
 5952SOL    HW129315   0.360   2.145   5.594 -0.5805 -0.0633 -3.1578
 5952SOL    HW229316   0.411   2.221   5.485 -0.6085  2.6892 -0.0577
 5953SOL     OW29317   0.267   0.476  15.886 -0.6941  0.2155 -0.2459
 5953SOL    HW129318   0.329   0.447  15.818 -2.2221 -1.9318 -0.7212
 5953SOL    HW229319   0.194   0.498  15.828  0.2977  2.0374 -0.8138
 5954SOL     OW29320   3.369   3.308  13.261  0.4310  0.6460 -0.0461
 5954SOL    HW129321   3.333   3.256  13.332 -1.0259  0.0827 -1.1893
 5954SOL    HW229322   3.298   3.319  13.197  0.1289 -3.7218 -0.4172
 5955SOL     OW29323   1.664   4.549   4.452 -0.3372 -0.4323 -0.3560
 5955SOL    HW129324   1.626   4.472   4.410 -1.3466 -1.1434  1.8821
 5955SOL    HW229325   1.597   4.614   4.431  0.1547  0.3744  0.5556
 5956SOL     OW29326   3.283   0.965   1.995 -0.3721 -0.1180 -0.1648
 5956SOL    HW129327   3.314   0.875   1.982 -0.1954  0.1197 -1.4467
 5956SOL    HW229328   3.193   0.951   2.024 -0.4693 -0.4303 -0.6115
 5957SOL     OW29329   0.625   4.218   7.344  0.6912  0.1034  0.1157
 5957SOL    HW129330   0.687   4.286   7.320 -0.5166  1.5888  1.2091
 5957SOL    HW229331   0.541   4.253   7.312  1.6681 -0.4254 -2.9837
 5958SOL     OW29332   3.590   0.844  17.312  0.0538 -0.5970 -0.0270
 5958SOL    HW129333   3.540   0.850  17.393  0.4925  1.2127  0.1197
 5958SOL    HW229334   3.676   0.878  17.334  0.6462 -3.1808  1.5135
 5959SOL     OW29335   0.592   4.661   7.405  0.1441  0.4792 -0.4814
 5959SOL    HW129336   0.652   4.659   7.479 -1.4294 -2.0310  0.6969
 5959SOL    HW229337   0.648   4.695   7.335  0.2243  1.3989  0.0263
 5960SOL     OW29338   1.393   1.371   3.094 -0.1251 -0.2188  0.2974
 5960SOL    HW129339   1.353   1.349   3.179  0.9745 -1.5240  0.4903
 5960SOL    HW229340   1.344   1.314   3.035 -1.0640 -0.4372  1.2707
 5961SOL     OW29341   0.831   2.719   2.548 -0.3839 -0.0303  0.2206
 5961SOL    HW129342   0.830   2.634   2.504  1.3100 -0.8449  1.7245
 5961SOL    HW229343   0.923   2.721   2.577 -0.2165 -3.4898 -0.1170
 5962SOL     OW29344   4.701   3.422   3.090 -0.0746 -0.2910 -0.9051
 5962SOL    HW129345   4.716   3.403   2.997 -2.3946 -1.1140 -1.0938
 5962SOL    HW229346   4.633   3.361   3.119 -1.7451  1.7115 -0.6303
 5963SOL     OW29347   2.981   3.840   0.182 -0.3487  0.5168 -0.5058
 5963SOL    HW129348   2.964   3.820   0.090  0.2242 -2.0542 -0.0504
 5963SOL    HW229349   2.919   3.778   0.221  0.6321 -2.0152 -3.0134
 5964SOL     OW29350   2.752   3.437   7.279  0.4451  0.3373  0.0460
 5964SOL    HW129351   2.749   3.406   7.189 -1.4769  0.6882 -0.0108
 5964SOL    HW229352   2.696   3.513   7.263 -2.4804 -1.4965  1.6308
 5965SOL     OW29353   0.077   2.495   3.088 -0.0886 -0.1698 -0.1405
 5965SOL    HW129354   0.170   2.480   3.068 -0.1900  0.9107 -1.3763
 5965SOL    HW229355   0.081   2.590   3.098 -0.5122 -0.1799  0.1090
 5966SOL     OW29356   3.893   1.957   3.642  0.4960 -0.1229  0.2949
 5966SOL    HW129357   3.925   1.894   3.577  0.1600 -0.8925  0.8815
 5966SOL    HW229358   3.809   1.917   3.666 -0.2025  1.7198  0.9256
 5967SOL     OW29359   2.601   3.630  14.653 -0.1381 -0.1995  0.1220
 5967SOL    HW129360   2.592   3.721  14.624  1.9529  0.1096  0.4578
 5967SOL    HW229361   2.507   3.618  14.666  0.7536 -3.1255  3.8681
 5968SOL     OW29362   0.902   3.273   3.576  0.4470 -0.2978 -0.4038
 5968SOL    HW129363   0.917   3.180   3.560  1.1421  0.1634 -2.4033
 5968SOL    HW229364   0.989   3.305   3.555  1.0145 -1.1183  0.7064
 5969SOL     OW29365   3.454   0.530   6.861  0.2915 -0.2116 -0.4028
 5969SOL    HW129366   3.545   0.557   6.856  0.1600  0.5805  1.4382
 5969SOL    HW229367   3.426   0.554   6.950 -2.2533 -1.3376 -0.8939
 5970SOL     OW29368   4.236   1.458  17.532 -0.3115 -0.1106 -0.0665
 5970SOL    HW129369   4.209   1.367  17.544  1.8815 -0.7579  0.0193
 5970SOL    HW229370   4.307   1.448  17.469  0.7091 -1.8326  1.3696
 5971SOL     OW29371   1.043   2.889   4.128 -0.3054  0.2757  0.7418
 5971SOL    HW129372   1.115   2.913   4.070 -0.1700  0.0538  0.8195
 5971SOL    HW229373   1.036   2.971   4.177 -1.8579  1.4611 -1.4317
 5972SOL     OW29374   3.544   1.025   3.827  0.3099  0.2574 -0.0329
 5972SOL    HW129375   3.596   0.981   3.759  0.5195 -1.0189  0.9617
 5972SOL    HW229376   3.609   1.059   3.888  3.4800 -1.1734 -2.5967
 5973SOL     OW29377   0.687   1.287   0.334 -0.0685  0.2574  0.2115
 5973SOL    HW129378   0.745   1.362   0.322 -0.9006  1.0501  1.1815
 5973SOL    HW229379   0.741   1.216   0.300 -2.1218 -0.9402 -0.5914
 5974SOL     OW29380   0.587   0.446   5.397  0.1252 -0.1580 -0.3697
 5974SOL    HW129381   0.590   0.541   5.387 -1.2387 -0.1238 -0.3974
 5974SOL    HW229382   0.501   0.420   5.366 -0.2210  1.3171 -0.6606
 5975SOL     OW29383   0.942   3.243   2.210 -0.1837  0.0287 -0.1115
 5975SOL    HW129384   0.847   3.238   2.201 -0.3235  0.8000  1.1222
 5975SOL    HW229385   0.972   3.161   2.171  3.0683  1.1523  0.0542
 5976SOL     OW29386   4.120   4.105   8.013 -0.7572  0.1250 -0.0028
 5976SOL    HW129387   4.025   4.093   8.014 -0.5910 -1.1851 -0.5705
 5976SOL    HW229388   4.139   4.134   7.924  1.7533  1.5573  0.9991
 5977SOL     OW29389   2.795   3.775  17.262  0.2396  0.0509  0.1543
 5977SOL    HW129390   2.756   3.689  17.255  2.5176 -0.9248 -0.7538
 5977SOL    HW229391   2.848   3.763  17.183  0.2560  1.5914 -0.0854
 5978SOL     OW29392   0.619   2.215  14.338 -0.4280 -0.4335  0.2714
 5978SOL    HW129393   0.588   2.305  14.336 -0.8923 -0.5354  2.0676
 5978SOL    HW229394   0.709   2.224  14.307 -0.9403  1.2950 -0.6645
 5979SOL     OW29395   2.763   3.382  10.605 -0.0365 -0.9000 -1.1454
 5979SOL    HW129396   2.745   3.361  10.697 -0.9680  1.2921 -0.8265
 5979SOL    HW229397   2.674   3.400  10.575 -0.1879 -2.5900 -1.7377
 5980SOL     OW29398   2.741   2.814   3.942 -0.2285 -0.0056 -0.3771
 5980SOL    HW129399   2.703   2.802   4.029 -0.2373  0.1664 -0.3580
 5980SOL    HW229400   2.673   2.863   3.896 -1.2713 -0.6443  0.4718
 5981SOL     OW29401   1.351   0.473   7.900 -0.4396  0.2783  0.2089
 5981SOL    HW129402   1.342   0.539   7.969  1.7933  0.4063  0.3848
 5981SOL    HW229403   1.321   0.396   7.949 -0.9745  1.5854  1.9413
 5982SOL     OW29404   2.577   1.995   1.077  0.0055 -0.9040  0.6382
 5982SOL    HW129405   2.619   1.912   1.053 -1.6108 -1.5266 -0.0212
 5982SOL    HW229406   2.549   1.978   1.167 -0.7323  1.3727  0.8195
 5983SOL     OW29407   1.317   1.976   6.066  0.9928 -0.0257 -0.2267
 5983SOL    HW129408   1.366   2.032   6.125 -0.0096  0.8012 -0.1781
 5983SOL    HW229409   1.382   1.971   5.997  1.3042  1.5053 -0.0435
 5984SOL     OW29410   3.607   3.039   3.314  0.0925  0.1095 -0.0334
 5984SOL    HW129411   3.542   3.079   3.372 -0.2808  1.3195 -1.2779
 5984SOL    HW229412   3.629   2.952   3.348 -1.1432  0.3583  1.4034
 5985SOL     OW29413   1.464   1.629   4.348 -0.3743  0.3403  0.0337
 5985SOL    HW129414   1.440   1.696   4.412 -1.0510 -0.3763  0.5398
 5985SOL    HW229415   1.457   1.678   4.267 -1.9047  0.4038  0.2054
 5986SOL     OW29416   0.797   3.048   2.393  0.2670 -0.4494 -0.4347
 5986SOL    HW129417   0.881   3.010   2.417  0.6817  1.3901  1.0342
 5986SOL    HW229418   0.796   3.038   2.297 -1.2031  1.6456 -0.6443
 5987SOL     OW29419   3.361   2.100  10.956  0.0514 -0.2249 -0.3040
 5987SOL    HW129420   3.360   2.022  11.011  0.8452 -0.0834 -0.0919
 5987SOL    HW229421   3.318   2.162  11.014  1.9362 -0.7332  1.6277
 5988SOL     OW29422   2.927   1.892   6.379 -0.4731 -0.0024 -0.0020
 5988SOL    HW129423   2.915   1.821   6.316  1.1214 -1.9193  1.8220
 5988SOL    HW229424   3.000   1.859   6.432 -0.0490 -0.1397 -0.6791
 5989SOL     OW29425   1.367   1.752  12.969 -0.0696 -0.3662  0.6166
 5989SOL    HW129426   1.441   1.790  13.018 -1.5278  1.0161  1.7228
 5989SOL    HW229427   1.397   1.661  12.969  0.6428 -0.1359  1.1735
 5990SOL     OW29428   0.141   4.464  16.297 -0.6823  0.4673 -0.0642
 5990SOL    HW129429   0.093   4.547  16.308  2.3268  2.2974 -0.7027
 5990SOL    HW229430   0.165   4.456  16.390 -0.9094  1.6131  0.0964
 5991SOL     OW29431   2.932   0.225   8.345 -0.2126  0.0834  0.4694
 5991SOL    HW129432   2.921   0.178   8.427  2.0635 -0.6921  0.3263
 5991SOL    HW229433   3.014   0.270   8.364  1.7234 -1.6303 -3.7488
 5992SOL     OW29434   3.312   2.685   9.600  0.1858 -0.3839  0.2055
 5992SOL    HW129435   3.273   2.738   9.530  0.5832 -0.8286 -0.3517
 5992SOL    HW229436   3.340   2.745   9.669 -1.4587  0.3892  0.1865
 5993SOL     OW29437   4.662   0.290  13.229 -0.3195  0.1154 -0.0616
 5993SOL    HW129438   4.697   0.201  13.230  0.7453  0.5517  1.5874
 5993SOL    HW229439   4.652   0.310  13.136  0.1705 -1.7375 -0.5104
 5994SOL     OW29440   1.616   1.564  12.511  0.0125  0.1661 -0.5652
 5994SOL    HW129441   1.538   1.510  12.520 -1.3167  2.3638  1.1131
 5994SOL    HW229442   1.663   1.523  12.438  2.0388  0.1694  0.7362
 5995SOL     OW29443   4.613   1.709   1.202  0.4064 -0.1848 -0.1002
 5995SOL    HW129444   4.672   1.640   1.171  0.0901 -1.1381  1.4342
 5995SOL    HW229445   4.660   1.780   1.157  1.6072 -0.8295  0.1382
 5996SOL     OW29446   3.982   2.613  15.804  0.6969 -0.0210 -0.1042
 5996SOL    HW129447   4.075   2.594  15.816  0.3630 -1.1710  0.5864
 5996SOL    HW229448   3.984   2.652  15.716 -0.4476  2.1085  0.8019
 5997SOL     OW29449   1.994   1.818   3.936  0.3162 -0.4755 -0.2601
 5997SOL    HW129450   2.003   1.748   4.001 -0.7775  0.2279  0.6401
 5997SOL    HW229451   2.012   1.899   3.984 -0.7129 -1.1201  1.2083
 5998SOL     OW29452   1.040   0.492   6.395 -0.4519  0.5190  0.1345
 5998SOL    HW129453   1.066   0.401   6.412 -1.3010 -0.4719 -3.6811
 5998SOL    HW229454   1.032   0.491   6.299  0.2797 -0.7885  0.0888
 5999SOL     OW29455   1.344   2.336  10.927  0.9504 -0.1551  0.2203
 5999SOL    HW129456   1.260   2.294  10.909  0.4537  1.3302 -0.9973
 5999SOL    HW229457   1.325   2.429  10.920  1.3171 -0.1373 -0.5941
 6000SOL     OW29458   0.224   2.545   0.005  0.3515 -0.5401 -0.5044
 6000SOL    HW129459   0.165   2.527  17.617  2.2191 -0.2631 -2.0611
 6000SOL    HW229460   0.261   2.457   0.011  0.2562 -0.5909 -0.6513
 6001SOL     OW29461   4.024   3.759   5.716  0.1761  0.0936  0.2136
 6001SOL    HW129462   4.054   3.753   5.625 -2.7117 -0.9284 -0.6579
 6001SOL    HW229463   4.051   3.672   5.746 -1.0934  0.5812  2.7107
 6002SOL     OW29464   0.137   1.718   6.139 -0.3930 -0.1338 -0.2539
 6002SOL    HW129465   0.199   1.772   6.188 -0.9681 -0.1736  0.5262
 6002SOL    HW229466   0.183   1.684   6.062 -0.5310 -1.4728  0.2589
 6003SOL     OW29467   1.528   1.776   1.023 -0.1674  0.7521 -0.6096
 6003SOL    HW129468   1.507   1.683   1.025  1.9799  0.2627 -1.1849
 6003SOL    HW229469   1.601   1.784   0.963 -0.4573  0.1369 -1.0354
 6004SOL     OW29470   2.650   3.816   7.927 -0.5338  0.0664  0.2607
 6004SOL    HW129471   2.718   3.865   7.972 -2.2236  1.5499  1.2041
 6004SOL    HW229472   2.670   3.735   7.973 -0.7010  0.1617  0.5035
 6005SOL     OW29473   0.807   1.689   1.571  0.1291  0.0843 -0.5879
 6005SOL    HW129474   0.824   1.605   1.613  2.5676  1.1351  0.5192
 6005SOL    HW229475   0.858   1.679   1.490  0.5946  1.6872 -0.5029
 6006SOL     OW29476   3.767   2.257   6.798 -0.7572 -0.0408 -0.0562
 6006SOL    HW129477   3.846   2.300   6.831 -3.1231  0.9551  4.3325
 6006SOL    HW229478   3.764   2.185   6.861 -0.9034 -1.0849 -1.2536
 6007SOL     OW29479   4.594   1.538   2.479 -0.0139 -0.2639  0.4321
 6007SOL    HW129480   4.602   1.592   2.400 -2.1293 -0.0385  0.3901
 6007SOL    HW229481   4.505   1.565   2.502  0.2453 -0.6112  1.8321
 6008SOL     OW29482   1.809   1.624   7.551  0.3385 -0.1978 -0.0623
 6008SOL    HW129483   1.729   1.638   7.500  0.6851  1.7830 -0.0366
 6008SOL    HW229484   1.822   1.700   7.607  0.0146 -0.4734  0.3839
 6009SOL     OW29485   1.510   2.872  14.922 -0.2481  0.1423 -0.0473
 6009SOL    HW129486   1.430   2.840  14.879 -0.1016  1.5250 -1.3613
 6009SOL    HW229487   1.572   2.865  14.850 -1.2414 -0.6413 -0.8320
 6010SOL     OW29488   0.365   1.161   6.266 -0.5908 -0.0995  0.0836
 6010SOL    HW129489   0.281   1.184   6.225  0.7103  2.1069 -1.2938
 6010SOL    HW229490   0.338   1.140   6.356  0.5087  0.7098  0.5893
 6011SOL     OW29491   3.600   1.904   6.134  0.5899 -0.4193  0.1550
 6011SOL    HW129492   3.632   1.989   6.103  0.7744 -1.0336 -1.3433
 6011SOL    HW229493   3.505   1.911   6.125  0.7204  0.2374 -0.7491
 6012SOL     OW29494   1.837   4.380   6.510 -0.3308 -0.0211  0.4514
 6012SOL    HW129495   1.926   4.371   6.476 -0.8019  0.7039 -0.9740
 6012SOL    HW229496   1.790   4.318   6.454 -1.8391 -0.8181  2.6062
 6013SOL     OW29497   0.879   1.159   6.599 -0.1718  0.1185 -0.4800
 6013SOL    HW129498   0.865   1.186   6.509  0.8512  2.2259 -0.0041
 6013SOL    HW229499   0.953   1.213   6.626 -2.2248  2.3398  0.6870
 6014SOL     OW29500   2.514   1.339   6.228  0.2564 -0.2807 -0.0577
 6014SOL    HW129501   2.543   1.412   6.283 -2.2441  0.0087  0.8673
 6014SOL    HW229502   2.468   1.278   6.285 -0.2422 -0.0484 -0.2143
 6015SOL     OW29503   2.471   1.386   1.836  0.0044  0.4013 -0.2705
 6015SOL    HW129504   2.435   1.334   1.908 -1.9569  0.2282 -1.3588
 6015SOL    HW229505   2.565   1.382   1.855 -0.2636 -2.0213  0.5760
 6016SOL     OW29506   1.281   3.741  14.893 -0.1478 -0.1740  0.3602
 6016SOL    HW129507   1.253   3.667  14.839 -0.7073  0.9413 -0.8754
 6016SOL    HW229508   1.327   3.790  14.825 -1.0267  0.6790  0.3804
 6017SOL     OW29509   4.142   2.894   4.441  0.0100 -0.1386  0.2044
 6017SOL    HW129510   4.048   2.891   4.463  0.0834  0.1244  0.5531
 6017SOL    HW229511   4.170   2.984   4.456 -0.2216  0.4377 -2.8749
 6018SOL     OW29512   2.585   1.928  14.534  0.5566  0.2385  0.0632
 6018SOL    HW129513   2.588   1.834  14.513  2.9204  0.1000  0.9686
 6018SOL    HW229514   2.651   1.927  14.604  0.4886 -0.4316  0.1228
 6019SOL     OW29515   1.530   1.763   5.117 -0.0234 -0.0286 -0.2668
 6019SOL    HW129516   1.612   1.781   5.070 -0.1177 -1.7839 -1.1173
 6019SOL    HW229517   1.467   1.813   5.064  0.3604 -0.9294 -1.5586
 6020SOL     OW29518   2.959   2.984   6.899  0.1197  0.1828 -0.0592
 6020SOL    HW129519   2.942   2.895   6.869  1.3578  0.5436 -1.8121
 6020SOL    HW229520   2.874   3.009   6.937  0.2224  1.5900 -0.7454
 6021SOL     OW29521   1.888   1.843   3.676  0.5946  0.0069 -0.1307
 6021SOL    HW129522   1.921   1.812   3.760 -0.4809 -2.6661 -0.6926
 6021SOL    HW229523   1.968   1.847   3.624  0.7109  4.5291  0.4246
 6022SOL     OW29524   3.203   1.136   6.212  0.2275  0.0766  0.2158
 6022SOL    HW129525   3.280   1.080   6.216  0.3915  0.5635  3.6121
 6022SOL    HW229526   3.174   1.113   6.124 -1.4747  0.7124  0.6045
 6023SOL     OW29527   2.909   1.858   0.996  0.2710  0.1769 -0.0241
 6023SOL    HW129528   2.973   1.900   1.053  0.8049 -1.3582  0.5192
 6023SOL    HW229529   2.849   1.826   1.064  0.1569  1.4130  0.4434
 6024SOL     OW29530   3.216   4.435   5.066  0.2175  0.0195 -0.3416
 6024SOL    HW129531   3.199   4.418   4.973  0.9430 -3.2186  0.1094
 6024SOL    HW229532   3.177   4.521   5.081 -0.1599 -0.5172  1.6508
 6025SOL     OW29533   0.315   2.857   4.942  0.0702  0.0985 -0.0390
 6025SOL    HW129534   0.353   2.817   4.864  0.7194  0.5488  0.0523
 6025SOL    HW229535   0.230   2.814   4.931 -0.9415  1.7903  0.9976
 6026SOL     OW29536   4.027   3.191   4.852  0.2295 -0.1007  0.4907
 6026SOL    HW129537   3.972   3.209   4.928 -0.1678 -2.9720  0.9100
 6026SOL    HW229538   4.021   3.096   4.868  1.1890 -0.6771 -2.6159
 6027SOL     OW29539   0.643   2.041   4.405 -0.0243  0.2075  0.1145
 6027SOL    HW129540   0.631   1.950   4.375 -0.9397 -0.0257  1.1644
 6027SOL    HW229541   0.709   2.034   4.473  1.4759  0.0509 -1.3522
 6028SOL     OW29542   0.496   2.734   7.689  0.7980  0.7622 -0.3090
 6028SOL    HW129543   0.532   2.650   7.660 -0.2267  0.6614 -1.3081
 6028SOL    HW229544   0.569   2.781   7.728  2.0207  0.7674 -2.5864
 6029SOL     OW29545   3.388   2.828   4.631  0.1967  0.3760  0.0446
 6029SOL    HW129546   3.421   2.758   4.574 -1.3517 -0.6410  0.4039
 6029SOL    HW229547   3.374   2.892   4.561  0.6996  1.0180  0.5355
 6030SOL     OW29548   2.621   4.064   6.465  0.1545  0.1858  0.0082
 6030SOL    HW129549   2.708   4.078   6.426  0.4415  1.3352  1.0727
 6030SOL    HW229550   2.563   4.119   6.412 -1.9149 -0.9977  1.0719
 6031SOL     OW29551   4.056   3.030   0.591 -0.6404 -0.4205 -0.0355
 6031SOL    HW129552   4.071   3.078   0.672  0.7553 -1.1569  0.1481
 6031SOL    HW229553   4.089   3.097   0.530  1.0255 -0.8776  0.3715
 6032SOL     OW29554   4.114   3.933   5.258  0.0578 -0.5161  0.0985
 6032SOL    HW129555   4.208   3.946   5.261  0.2574 -1.7415 -0.6282
 6032SOL    HW229556   4.102   3.948   5.352  0.0440 -1.8940  0.3216
 6033SOL     OW29557   3.483   2.886   2.334  0.8153 -0.3220  0.3628
 6033SOL    HW129558   3.524   2.965   2.370 -0.1296  0.1415  0.4136
 6033SOL    HW229559   3.484   2.890   2.239  0.7922  1.4838  0.4380
 6034SOL     OW29560   2.868   0.857   0.654 -0.1013  0.5407 -0.4189
 6034SOL    HW129561   2.801   0.925   0.657 -1.3112 -0.6223 -1.5368
 6034SOL    HW229562   2.940   0.908   0.692  0.4776 -0.3412 -0.3090
 6035SOL     OW29563   0.065   2.114   6.803  0.4348 -0.0670 -0.2716
 6035SOL    HW129564   4.712   2.068   6.842 -0.0141  0.0241 -1.0176
 6035SOL    HW229565   0.130   2.044   6.813  0.7639  0.3343  0.3773
 6036SOL     OW29566   3.530   3.735   4.538  0.2643  0.3137  0.6202
 6036SOL    HW129567   3.580   3.665   4.497 -2.1807  0.4037 -2.4778
 6036SOL    HW229568   3.586   3.812   4.526 -0.7258  0.9136 -0.1057
 6037SOL     OW29569   0.381   3.093   1.926  0.1628  0.1821 -0.2387
 6037SOL    HW129570   0.375   3.169   1.984  0.3087  1.1300 -1.4670
 6037SOL    HW229571   0.299   3.103   1.877 -0.9591 -2.4217  1.1445
 6038SOL     OW29572   4.137   3.235  10.567 -0.3001 -0.5790  0.2892
 6038SOL    HW129573   4.119   3.295  10.494 -1.6251  0.3453  1.3688
 6038SOL    HW229574   4.093   3.289  10.633  4.0217 -0.0135  2.6442
 6039SOL     OW29575   3.104   2.798   3.276  0.0167 -0.5366  0.6969
 6039SOL    HW129576   3.089   2.703   3.269  0.8188 -0.6495  0.4244
 6039SOL    HW229577   3.018   2.838   3.272  1.0267  1.5295 -0.3586
 6040SOL     OW29578   3.187   0.616  11.564  0.0079  0.6446 -0.0932
 6040SOL    HW129579   3.134   0.598  11.486 -0.0146 -0.8168  0.2474
 6040SOL    HW229580   3.268   0.577  11.532  0.4171  0.9065  0.6210
 6041SOL     OW29581   3.787   2.594   7.182  0.2537 -0.4758 -0.0225
 6041SOL    HW129582   3.722   2.623   7.246 -1.0875  0.1078 -1.6759
 6041SOL    HW229583   3.803   2.503   7.207  1.4605  0.0592  1.1893
 6042SOL     OW29584   3.548   1.644   3.509 -0.3508 -0.2027 -1.1351
 6042SOL    HW129585   3.474   1.689   3.550  0.0965 -2.0890  1.7397
 6042SOL    HW229586   3.507   1.558   3.500 -0.4681 -0.1324 -1.2681
 6043SOL     OW29587   2.530   0.915   1.677 -1.3555  0.2100  0.0359
 6043SOL    HW129588   2.580   0.965   1.742 -0.6011  0.9189 -1.0942
 6043SOL    HW229589   2.597   0.850   1.655 -1.7013  0.2985 -1.2625
 6044SOL     OW29590   1.263   3.323   3.257 -0.1097  0.1732 -0.5341
 6044SOL    HW129591   1.354   3.348   3.242 -0.2353  2.9086  3.2574
 6044SOL    HW229592   1.223   3.302   3.173  1.5117  1.8271 -1.7062
 6045SOL     OW29593   3.205   2.033  10.708  0.3640 -0.6807 -0.2965
 6045SOL    HW129594   3.266   1.961  10.695  2.0506  0.9003 -1.2009
 6045SOL    HW229595   3.255   2.090  10.767  0.5903 -0.8952 -0.2806
 6046SOL     OW29596   2.058   2.760   9.573 -0.0158 -0.4826  0.1307
 6046SOL    HW129597   2.049   2.783   9.666  1.9661  1.4491 -0.1610
 6046SOL    HW229598   2.152   2.745   9.573  0.0762  0.1217 -2.7676
 6047SOL     OW29599   1.845   0.447   3.290  0.2764 -0.2738  0.5698
 6047SOL    HW129600   1.770   0.444   3.348  0.5310 -0.8773  0.8667
 6047SOL    HW229601   1.841   0.365   3.240 -0.4028 -1.0342  1.8805
 6048SOL     OW29602   0.032   0.452   0.795  0.4721 -0.5212 -0.0576
 6048SOL    HW129603   4.666   0.440   0.833  0.0126 -1.0134 -1.2615
 6048SOL    HW229604   0.050   0.361   0.773  0.7617 -0.6187  0.5918
 6049SOL     OW29605   1.898   3.253   5.635  0.0020  0.0380  0.1995
 6049SOL    HW129606   1.850   3.263   5.552 -0.6267  0.0947  0.5734
 6049SOL    HW229607   1.836   3.221   5.700 -0.6202  0.5699 -0.1259
 6050SOL     OW29608   3.363   1.250   9.050  0.3253 -0.3320 -1.1907
 6050SOL    HW129609   3.379   1.157   9.067  0.0767 -0.1089  0.3120
 6050SOL    HW229610   3.268   1.248   9.045  0.1855  2.6477  0.2199
 6051SOL     OW29611   3.672   4.549   9.049  0.0110 -0.0017 -0.6421
 6051SOL    HW129612   3.628   4.471   9.015 -4.0723  0.8717  2.6188
 6051SOL    HW229613   3.678   4.534   9.144  0.5010 -0.4052 -0.7404
 6052SOL     OW29614   1.455   0.769   6.273 -0.2554 -0.0367 -0.0359
 6052SOL    HW129615   1.508   0.690   6.287 -0.3422  0.1618  1.4911
 6052SOL    HW229616   1.511   0.827   6.325 -1.2071  0.7796  0.0948
 6053SOL     OW29617   4.473   4.612   4.828  0.2729 -0.5552 -0.0677
 6053SOL    HW129618   4.474   4.540   4.765  0.3705 -1.0023  0.4407
 6053SOL    HW229619   4.532   4.673   4.786 -2.8833  2.2123 -0.5057
 6054SOL     OW29620   3.509   0.295  11.234 -0.9915 -0.4034  0.4548
 6054SOL    HW129621   3.447   0.247  11.180  0.2394  1.1248 -2.3492
 6054SOL    HW229622   3.557   0.361  11.183  1.1296 -0.5363  2.2616
 6055SOL     OW29623   1.757   0.859   3.120  0.3585  0.3995 -0.6603
 6055SOL    HW129624   1.768   0.764   3.122  0.5615  0.4525  0.4717
 6055SOL    HW229625   1.744   0.873   3.026  0.5821 -0.4953 -0.8258
 6056SOL     OW29626   2.207   0.527  11.420  0.2556  0.2083 -0.1304
 6056SOL    HW129627   2.294   0.489  11.404  0.0569 -0.4846  0.4277
 6056SOL    HW229628   2.221   0.567  11.506 -0.2062 -0.1172  0.0982
 6057SOL     OW29629   4.452   3.469   7.636 -0.6449 -0.1215  0.0600
 6057SOL    HW129630   4.415   3.381   7.640 -0.1219 -0.3101  0.6201
 6057SOL    HW229631   4.377   3.522   7.608 -0.1279  0.2428 -0.6227
 6058SOL     OW29632   2.198   2.758  11.131 -0.1189 -0.2321 -0.1159
 6058SOL    HW129633   2.124   2.743  11.190  1.2797 -2.0197  1.1770
 6058SOL    HW229634   2.173   2.711  11.052 -0.1830 -3.0041  1.5440
 6059SOL     OW29635   0.182   3.371   8.624 -0.5492  0.1787  0.0949
 6059SOL    HW129636   0.230   3.430   8.682 -0.5961 -0.1214  0.4416
 6059SOL    HW229637   0.097   3.413   8.634  0.1899  1.4746  0.9884
 6060SOL     OW29638   3.044   0.907  10.157  0.7140  0.0017 -0.5927
 6060SOL    HW129639   2.990   0.854  10.098  0.7477 -1.2998  0.5580
 6060SOL    HW229640   3.008   0.873  10.239  3.4151  0.6472  0.8625
 6061SOL     OW29641   0.012   1.055  10.908 -0.3748 -0.7429  0.7000
 6061SOL    HW129642   4.660   1.001  10.936 -1.5309 -0.0961 -1.0268
 6061SOL    HW229643   4.719   1.146  10.934  0.8371  0.0953 -1.5963
 6062SOL     OW29644   3.482   0.236   3.984  0.0118  0.3346 -0.0610
 6062SOL    HW129645   3.523   0.182   3.916 -1.5783  0.7526 -1.3562
 6062SOL    HW229646   3.392   0.222   3.956  0.9111 -1.3976 -2.1042
 6063SOL     OW29647   2.617   1.240   7.732  0.9739  0.3111 -0.0724
 6063SOL    HW129648   2.620   1.166   7.793  2.8087  0.9479  0.6182
 6063SOL    HW229649   2.671   1.305   7.779  4.2049 -2.9529  0.7480
 6064SOL     OW29650   0.005   3.786   7.158 -0.6963 -0.3193 -0.4609
 6064SOL    HW129651   0.075   3.794   7.223 -0.6577 -2.7905 -0.2116
 6064SOL    HW229652   0.013   3.861   7.098  1.3155 -0.4016 -0.3023
 6065SOL     OW29653   4.659   2.535   1.839  0.0473 -0.2347 -0.1425
 6065SOL    HW129654   4.676   2.626   1.815 -1.0267  0.8244  3.0777
 6065SOL    HW229655   4.586   2.543   1.901  1.0734  3.0593  0.6345
 6066SOL     OW29656   2.994   0.876  11.047  0.6445  0.4605 -0.9108
 6066SOL    HW129657   2.935   0.824  11.102  2.2558  0.0145  0.4246
 6066SOL    HW229658   3.069   0.817  11.057 -0.0048 -0.4219 -1.2279
 6067SOL     OW29659   2.292   4.171  15.460 -0.0486 -0.2427 -0.1096
 6067SOL    HW129660   2.317   4.150  15.550  2.8720 -1.8285 -1.2960
 6067SOL    HW229661   2.370   4.213  15.424  0.5495 -1.0788  0.1824
 6068SOL     OW29662   2.113   4.022   6.341  0.5108 -0.3496 -0.2244
 6068SOL    HW129663   2.146   3.996   6.255  0.8443 -0.0883 -0.1766
 6068SOL    HW229664   2.182   3.985   6.396 -0.1522  0.9297  1.4697
 6069SOL     OW29665   1.252   3.606   8.629  0.3100 -0.0480  0.0425
 6069SOL    HW129666   1.179   3.562   8.583  0.8518 -1.0650  0.1492
 6069SOL    HW229667   1.258   3.560   8.713 -0.6299 -1.6704 -0.7725
 6070SOL     OW29668   1.363   3.839  17.228 -0.4988  0.0575 -0.5551
 6070SOL    HW129669   1.396   3.923  17.262  0.1129 -0.7232  0.7543
 6070SOL    HW229670   1.322   3.872  17.148 -0.7165 -1.9185 -1.2476
 6071SOL     OW29671   4.068   2.527   2.743  0.1730 -0.4994  0.0513
 6071SOL    HW129672   4.122   2.598   2.710  0.3818  0.4242  2.3699
 6071SOL    HW229673   4.111   2.523   2.828 -1.6081 -1.4701  0.9032
 6072SOL     OW29674   3.239   2.950   7.264 -0.0301 -0.4498 -1.3996
 6072SOL    HW129675   3.234   2.914   7.176 -0.9865 -0.4022 -1.3732
 6072SOL    HW229676   3.247   3.041   7.235  1.5292 -0.3402 -0.6307
 6073SOL     OW29677   4.123   4.683  11.107 -0.0812  0.0441 -0.0497
 6073SOL    HW129678   4.058   0.023  11.070  0.0648  0.0788 -0.2483
 6073SOL    HW229679   4.137   0.007  11.191 -0.3612 -0.9037  0.5027
 6074SOL     OW29680   0.078   0.803   3.665 -0.5362  0.1303  0.4439
 6074SOL    HW129681   0.116   0.879   3.619 -0.7451 -0.1665 -0.2270
 6074SOL    HW229682   0.030   0.761   3.593 -1.4317  0.8710  0.6141
 6075SOL     OW29683   3.633   1.084   2.586 -0.1452  0.6723  0.1674
 6075SOL    HW129684   3.721   1.082   2.550 -0.2861  0.5458 -0.1709
 6075SOL    HW229685   3.647   1.029   2.663  1.1446  2.2103  1.0294
 6076SOL     OW29686   0.456   2.431   6.653 -0.1212 -0.3720  0.0357
 6076SOL    HW129687   0.533   2.442   6.707 -0.0789 -0.4634 -0.0051
 6076SOL    HW229688   0.499   2.443   6.568  1.1641  2.3763  1.1018
 6077SOL     OW29689   3.796   2.913   0.181 -0.3925 -0.3833  0.3425
 6077SOL    HW129690   3.772   2.821   0.187  1.6216 -0.9242  0.0509
 6077SOL    HW229691   3.869   2.920   0.242 -1.1244  0.0941  1.1662
 6078SOL     OW29692   2.184   4.718   7.105 -0.0626  0.0659 -0.4718
 6078SOL    HW129693   2.190   4.623   7.101 -1.8755 -0.0647 -0.0273
 6078SOL    HW229694   2.095   0.004   7.137  0.4467 -0.7956  1.1239
 6079SOL     OW29695   3.851   2.003  17.504 -0.5374 -0.0885 -0.1691
 6079SOL    HW129696   3.912   1.969  17.570  1.6266  0.2051 -2.0400
 6079SOL    HW229697   3.886   2.088  17.479 -1.5034  0.8320  1.5905
 6080SOL     OW29698   2.530   2.888   2.351  0.0106  0.0868  0.0759
 6080SOL    HW129699   2.441   2.867   2.323  0.7532  0.1835 -2.3868
 6080SOL    HW229700   2.538   2.847   2.437  0.4441 -1.1251 -0.5429
 6081SOL     OW29701   1.557   1.982   7.791 -0.2961 -0.6534  0.0339
 6081SOL    HW129702   1.562   1.961   7.698 -1.1127  0.4619 -0.2513
 6081SOL    HW229703   1.532   1.898   7.831 -0.2969  0.3634  2.1649
 6082SOL     OW29704   2.701   3.204   3.730 -0.0879 -0.4786 -0.0718
 6082SOL    HW129705   2.630   3.158   3.776  0.6410 -1.4047  0.1235
 6082SOL    HW229706   2.734   3.262   3.799  1.0404 -0.2500 -0.8004
 6083SOL     OW29707   0.996   2.200   6.724 -0.7249 -0.3029  0.2223
 6083SOL    HW129708   0.922   2.213   6.783  0.7976  0.4622  1.9620
 6083SOL    HW229709   1.055   2.273   6.742 -2.3848  0.6688  1.7595
 6084SOL     OW29710   1.998   3.863   0.915  0.3533 -0.5908 -0.3359
 6084SOL    HW129711   1.908   3.891   0.933  0.6560 -1.0438  1.8869
 6084SOL    HW229712   2.061   3.909   0.970  0.0919 -1.5957  0.7932
 6085SOL     OW29713   3.525   0.369   8.212 -0.3354 -0.4656  0.3155
 6085SOL    HW129714   3.495   0.457   8.235 -0.4999 -0.1343 -1.1713
 6085SOL    HW229715   3.595   0.370   8.278 -0.1061 -2.1415  0.0887
 6086SOL     OW29716   1.205   4.305   0.792 -0.6478  0.3466 -0.2546
 6086SOL    HW129717   1.300   4.292   0.799 -0.3610  2.7312  0.1380
 6086SOL    HW229718   1.192   4.360   0.870 -2.7093 -0.7470  0.1808
 6087SOL     OW29719   3.792   1.073   3.992  0.4911 -0.4211 -0.2195
 6087SOL    HW129720   3.886   1.066   4.009  0.9670 -0.4281 -2.7740
 6087SOL    HW229721   3.762   0.983   3.981 -1.7765  0.1852  1.1072
 6088SOL     OW29722   3.230   2.340   4.688 -0.2105 -0.1323 -0.1682
 6088SOL    HW129723   3.218   2.287   4.768 -0.2216 -0.2520 -0.2492
 6088SOL    HW229724   3.166   2.409   4.709  0.6990  0.6519  0.0343
 6089SOL     OW29725   4.523   4.400   5.498 -0.1478 -0.0653  0.1980
 6089SOL    HW129726   4.518   4.337   5.571 -1.2678 -1.0256 -0.7198
 6089SOL    HW229727   4.604   4.374   5.453  1.4379  1.3440  2.1959
 6090SOL     OW29728   0.001   3.424  16.701  0.0884  0.2802 -0.2495
 6090SOL    HW129729   0.087   3.384  16.709 -1.2333 -2.2867  1.1354
 6090SOL    HW229730   4.670   3.352  16.663 -0.2667 -0.0661  0.8859
 6091SOL     OW29731   4.288   0.623   4.953 -0.4099 -0.1444 -0.7737
 6091SOL    HW129732   4.364   0.663   4.911 -1.6934  2.2666 -0.7943
 6091SOL    HW229733   4.216   0.678   4.923 -1.0300 -2.0011 -2.7014
 6092SOL     OW29734   0.941   0.410   7.943  0.6908 -0.2899 -0.0524
 6092SOL    HW129735   0.892   0.482   7.904  0.3206 -0.4210  0.1587
 6092SOL    HW229736   0.961   0.351   7.871 -0.3638 -0.1082 -0.5016
 6093SOL     OW29737   1.226   4.269  13.146  0.2653  0.4777 -0.2530
 6093SOL    HW129738   1.307   4.235  13.185  0.9129  3.1979  0.7741
 6093SOL    HW229739   1.268   4.324  13.080  1.9245 -1.3324 -0.7271
 6094SOL     OW29740   4.274   1.353  16.147 -0.2447  0.6318  0.4098
 6094SOL    HW129741   4.364   1.380  16.161 -0.2321  1.3468 -0.9923
 6094SOL    HW229742   4.248   1.422  16.085  1.4119 -0.5456 -1.6095
 6095SOL     OW29743   4.688   2.445   3.467 -0.5166  0.5811  0.2374
 6095SOL    HW129744   4.620   2.479   3.408 -2.3248 -2.0765  0.7938
 6095SOL    HW229745   4.659   2.484   3.550 -2.7058 -0.8430  0.1447
 6096SOL     OW29746   3.643   3.974   7.581 -0.3627  0.4170 -0.5696
 6096SOL    HW129747   3.677   4.035   7.516  1.3951 -0.8155 -0.8201
 6096SOL    HW229748   3.576   4.027   7.623  0.0274  0.9274 -0.5940
 6097SOL     OW29749   3.312   0.505   9.217 -0.5758 -0.3636  0.1275
 6097SOL    HW129750   3.323   0.573   9.284 -2.6376  0.0352  0.0853
 6097SOL    HW229751   3.220   0.515   9.192 -1.0217  0.0289  1.8983
 6098SOL     OW29752   2.513   2.456   5.453  0.1332 -0.5892 -0.1853
 6098SOL    HW129753   2.543   2.422   5.537 -0.3657 -2.2254 -0.6702
 6098SOL    HW229754   2.445   2.514   5.488  0.4009  0.0271 -0.6951
 6099SOL     OW29755   1.163   4.284   6.544  0.3770 -0.0140  0.9307
 6099SOL    HW129756   1.209   4.203   6.524 -0.6380  0.3314 -2.7647
 6099SOL    HW229757   1.094   4.253   6.603 -1.8341 -0.8727 -2.1261
 6100SOL     OW29758   1.469   0.006   8.191 -0.3325 -0.0329  0.2885
 6100SOL    HW129759   1.414   0.063   8.137 -1.9088 -1.6879  0.1474
 6100SOL    HW229760   1.403   4.697   8.253  1.1488  1.2087  2.4549
 6101SOL     OW29761   2.891   3.023   4.401  0.4987  0.5656  0.1484
 6101SOL    HW129762   2.822   3.069   4.354  0.1694 -1.6522 -1.5236
 6101SOL    HW229763   2.937   2.993   4.323 -3.3737  0.2418 -2.0018
 6102SOL     OW29764   1.137   1.518  12.088  0.1125  0.2450 -0.1523
 6102SOL    HW129765   1.066   1.500  12.027 -0.7964  0.8898  0.7309
 6102SOL    HW229766   1.130   1.613  12.091  2.9222  0.5167 -1.5861
 6103SOL     OW29767   3.159   0.209  14.498  1.0087  0.0840 -0.1909
 6103SOL    HW129768   3.105   0.181  14.572 -0.3588  1.6151 -0.6287
 6103SOL    HW229769   3.111   0.287  14.471  0.3723 -0.2976 -0.1598
 6104SOL     OW29770   4.409   0.987  11.357 -0.2223 -0.3777  0.5141
 6104SOL    HW129771   4.450   0.938  11.428  1.2988  3.1495  2.0950
 6104SOL    HW229772   4.334   1.032  11.395  0.2499  0.6354  0.2419
 6105SOL     OW29773   2.291   4.108   7.207  0.2098 -0.3270 -0.0426
 6105SOL    HW129774   2.287   4.196   7.244  0.9614 -0.5016  0.4508
 6105SOL    HW229775   2.206   4.111   7.163 -0.0291 -2.0333  0.2944
 6106SOL     OW29776   2.366   3.861  13.821 -0.3742 -0.1114  0.1430
 6106SOL    HW129777   2.312   3.812  13.758 -1.7677 -0.1842  1.4013
 6106SOL    HW229778   2.443   3.804  13.816 -2.4112 -2.7878 -0.2240
 6107SOL     OW29779   0.788   3.276   7.985  0.3851 -0.6148 -0.7075
 6107SOL    HW129780   0.853   3.238   8.045  0.3217 -0.9911 -0.8751
 6107SOL    HW229781   0.763   3.188   7.958  1.3015 -1.6225  1.7818
 6108SOL     OW29782   1.175   2.236   5.107  0.0652 -0.5855 -0.4985
 6108SOL    HW129783   1.093   2.225   5.154  0.2175 -0.8763 -0.3027
 6108SOL    HW229784   1.202   2.328   5.111  0.7722 -0.7471 -1.6103
 6109SOL     OW29785   4.630   2.626   2.724  0.3826  0.8377 -0.4571
 6109SOL    HW129786   4.687   2.683   2.775 -1.2767  2.2045 -0.1067
 6109SOL    HW229787   4.691   2.592   2.659 -0.7393  1.2588 -1.7099
 6110SOL     OW29788   3.170   2.261   7.770  0.3774  0.6393  0.2341
 6110SOL    HW129789   3.181   2.351   7.800  0.6925  0.5646  0.3468
 6110SOL    HW229790   3.262   2.244   7.748  0.7244  1.0262  1.3547
 6111SOL     OW29791   1.410   1.329   3.411 -0.4143 -0.0411 -0.2032
 6111SOL    HW129792   1.492   1.294   3.377 -1.3626 -1.8293 -0.6578
 6111SOL    HW229793   1.368   1.244   3.426  2.0919 -1.2396  0.0157
 6112SOL     OW29794   1.652   3.478   6.161 -0.9852  0.4264  0.4667
 6112SOL    HW129795   1.649   3.503   6.068 -1.9099  1.4915  0.7856
 6112SOL    HW229796   1.672   3.561   6.205 -2.0792  0.9818 -0.1107
 6113SOL     OW29797   2.961   0.353  12.770  0.0581  0.4388  0.1516
 6113SOL    HW129798   2.946   0.267  12.732  0.0262  1.4431 -2.1140
 6113SOL    HW229799   2.967   0.411  12.694 -0.0871  0.1451 -0.0854
 6114SOL     OW29800   1.849   1.477   8.689  0.1897 -0.1554  0.1554
 6114SOL    HW129801   1.807   1.542   8.745  0.0537 -1.6876  1.8306
 6114SOL    HW229802   1.927   1.525   8.660 -0.8567  1.7826  0.5576
 6115SOL     OW29803   4.090   2.761   8.548  0.3912 -0.4212  0.3931
 6115SOL    HW129804   4.049   2.845   8.569 -0.2885 -0.4905 -0.6145
 6115SOL    HW229805   4.181   2.770   8.577 -0.5270  1.7569  2.6398
 6116SOL     OW29806   4.082   3.457   5.412  0.3370 -0.1157  0.3613
 6116SOL    HW129807   4.169   3.497   5.418  0.3497  0.3451 -3.1246
 6116SOL    HW229808   4.030   3.524   5.369  1.7991 -0.7590 -2.3670
 6117SOL     OW29809   0.307   3.570   8.758  0.5466 -0.1867  0.8049
 6117SOL    HW129810   0.268   3.650   8.792  0.5153 -0.0657  0.4869
 6117SOL    HW229811   0.341   3.606   8.676  2.2007 -0.7354  1.2411
 6118SOL     OW29812   0.762   0.269   1.273  0.1665 -0.0882 -0.5503
 6118SOL    HW129813   0.721   0.243   1.191 -2.2781  0.7183  0.4105
 6118SOL    HW229814   0.849   0.299   1.246  0.2343 -0.2075 -0.4609
 6119SOL     OW29815   3.314   4.221   8.066  0.3182 -0.0199 -0.0973
 6119SOL    HW129816   3.407   4.233   8.088  0.2340  2.4442 -1.0786
 6119SOL    HW229817   3.301   4.128   8.083 -0.0277  0.2818  1.2807
 6120SOL     OW29818   3.304   3.382  12.901  0.3589 -0.1902 -0.3447
 6120SOL    HW129819   3.394   3.350  12.889 -0.2483 -2.2376  0.6105
 6120SOL    HW229820   3.315   3.474  12.923 -2.0305 -0.0658  0.2531
 6121SOL     OW29821   3.593   4.633   5.301 -0.4220  0.3808  0.5109
 6121SOL    HW129822   3.593   0.007   5.288  0.6452  0.2659 -0.3574
 6121SOL    HW229823   3.578   4.641   5.395 -0.7218 -0.2682  0.5179
 6122SOL     OW29824   0.274   3.595  10.050  0.1442 -0.1462 -0.2120
 6122SOL    HW129825   0.274   3.677  10.000 -0.6824 -0.6110 -0.9924
 6122SOL    HW229826   0.346   3.546  10.011  0.6551  0.7375 -0.3804
 6123SOL     OW29827   4.569   2.582   8.977  0.0025  0.0370  0.1843
 6123SOL    HW129828   4.630   2.654   8.996 -0.9462  1.0329 -0.5096
 6123SOL    HW229829   4.493   2.599   9.032  1.7055 -0.7286  2.7837
 6124SOL     OW29830   2.296   1.553   6.346  0.3208  0.1845  0.1221
 6124SOL    HW129831   2.309   1.489   6.276  1.6253  1.8149 -1.1229
 6124SOL    HW229832   2.295   1.629   6.287 -0.3124 -2.0538 -2.7422
 6125SOL     OW29833   1.952   1.858  10.952  0.7234  0.6610  0.1230
 6125SOL    HW129834   1.991   1.772  10.972 -2.2703 -0.3348  1.7678
 6125SOL    HW229835   1.971   1.859  10.858  0.9678  0.2243  0.1661
 6126SOL     OW29836   3.977   0.604   7.710  0.4635 -0.5403  0.0603
 6126SOL    HW129837   3.908   0.610   7.776  0.7004  0.9198  0.1833
 6126SOL    HW229838   4.033   0.680   7.726 -1.1075  0.5519  0.3507
 6127SOL     OW29839   4.600   3.191   3.231 -0.0131  0.4093  0.5075
 6127SOL    HW129840   4.560   3.110   3.199  0.7297 -0.6781  2.3066
 6127SOL    HW229841   4.693   3.168   3.228 -1.0479 -3.2021 -3.6222
 6128SOL     OW29842   3.002   2.453   2.755 -0.6879 -0.7250 -0.3816
 6128SOL    HW129843   2.914   2.477   2.783 -0.7671 -1.1979 -0.2349
 6128SOL    HW229844   3.025   2.365   2.785  1.3261 -0.3862 -0.9075
 6129SOL     OW29845   3.014   3.370  12.913 -0.1308  0.0367 -0.8939
 6129SOL    HW129846   3.108   3.360  12.895 -0.1234 -1.5683 -0.0050
 6129SOL    HW229847   2.998   3.448  12.860  2.0210  2.1799  1.6422
 6130SOL     OW29848   1.054   3.480   2.311  0.1177  0.3928 -0.4337
 6130SOL    HW129849   1.146   3.470   2.289  0.2263 -0.7994  0.5732
 6130SOL    HW229850   1.024   3.390   2.298  2.0825 -0.0864 -1.5417
 6131SOL     OW29851   0.331   3.499   7.779 -0.1509 -0.8768 -0.2432
 6131SOL    HW129852   0.340   3.466   7.690 -1.7260 -0.7916 -0.4437
 6131SOL    HW229853   0.358   3.417   7.820  1.2024  0.7338  2.1061
 6132SOL     OW29854   1.812   1.054   3.983 -0.5823  0.1726  0.2940
 6132SOL    HW129855   1.781   1.079   3.896 -2.1181  2.0227  1.3788
 6132SOL    HW229856   1.906   1.038   3.975 -0.8077 -1.4838  0.8524
 6133SOL     OW29857   0.521   2.249   4.052  0.2978 -0.4014 -0.3464
 6133SOL    HW129858   0.494   2.216   3.966  2.6605  1.1531 -1.6993
 6133SOL    HW229859   0.449   2.307   4.077  1.0551 -0.4513  1.9423
 6134SOL     OW29860   1.102   4.518   6.707 -0.3226 -0.3275  0.1231
 6134SOL    HW129861   1.168   4.587   6.712 -0.6487  0.0403 -0.5851
 6134SOL    HW229862   1.131   4.469   6.630  0.4536 -0.8382  0.7419
 6135SOL     OW29863   0.406   1.849   8.808 -0.4368  0.3432 -0.0580
 6135SOL    HW129864   0.347   1.870   8.880  0.2279  1.6262  0.1035
 6135SOL    HW229865   0.487   1.884   8.845 -0.7997  0.6488  0.4470
 6136SOL     OW29866   2.452   3.719   8.620 -0.1104 -0.1950 -0.4983
 6136SOL    HW129867   2.376   3.703   8.564 -1.5905  0.8252  1.2024
 6136SOL    HW229868   2.511   3.665   8.568 -0.9348 -0.7210 -0.8911
 6137SOL     OW29869   2.309   4.105   5.532  0.2142 -0.4223  0.0591
 6137SOL    HW129870   2.384   4.153   5.498  0.3884  0.7124  2.0821
 6137SOL    HW229871   2.353   4.020   5.544  0.3192 -0.2658  0.7614
 6138SOL     OW29872   0.529   2.558   5.503  0.0357  0.3633 -0.2760
 6138SOL    HW129873   0.575   2.474   5.503  1.3146  1.0736 -0.7835
 6138SOL    HW229874   0.584   2.617   5.554  0.3072 -1.5958  1.7204
 6139SOL     OW29875   2.311   1.185   7.984  0.0895 -0.1997 -0.0594
 6139SOL    HW129876   2.288   1.229   7.903 -0.6955  1.2836  0.9875
 6139SOL    HW229877   2.224   1.175   8.022 -0.2074 -0.4820 -0.8222
 6140SOL     OW29878   2.806   0.825  16.289  0.2508 -0.4608 -0.4280
 6140SOL    HW129879   2.795   0.730  16.300  0.3911 -0.5903 -1.4579
 6140SOL    HW229880   2.720   0.842  16.251  0.6054 -0.2218 -1.1296
 6141SOL     OW29881   0.899   2.988   3.499 -0.6023  0.5656 -0.2288
 6141SOL    HW129882   0.890   2.900   3.537 -0.8329  1.7755  2.5022
 6141SOL    HW229883   0.939   2.966   3.415  0.4763  0.5821  0.2871
 6142SOL     OW29884   3.410   1.555   7.751  0.1920 -0.2728  0.5139
 6142SOL    HW129885   3.355   1.484   7.785 -0.7515  1.0741  1.8238
 6142SOL    HW229886   3.425   1.534   7.659 -0.9533  1.4367 -0.0569
 6143SOL     OW29887   4.010   3.633   9.164 -0.0498  0.1390  0.7557
 6143SOL    HW129888   4.041   3.553   9.208 -0.9051 -0.7391 -0.2385
 6143SOL    HW229889   3.966   3.601   9.085  0.9922  1.6699 -0.4412
 6144SOL     OW29890   2.486   0.755   0.651  0.2172 -0.2875  0.1261
 6144SOL    HW129891   2.507   0.738   0.559 -1.4791 -1.1222 -0.1127
 6144SOL    HW229892   2.393   0.732   0.651 -0.3530  2.1231  3.0809
 6145SOL     OW29893   4.271   1.582   0.868 -0.3390  0.0291  0.0522
 6145SOL    HW129894   4.268   1.498   0.821 -1.7404  0.2469 -0.2398
 6145SOL    HW229895   4.206   1.635   0.824 -2.1975 -2.5347 -0.3099
 6146SOL     OW29896   0.756   1.721  11.498 -0.1697  0.0562 -0.1603
 6146SOL    HW129897   0.681   1.751  11.448  0.7530  0.0874 -1.5232
 6146SOL    HW229898   0.797   1.670  11.428  0.4016  0.8553 -0.4118
 6147SOL     OW29899   2.798   3.840   2.008 -0.1638  0.5800  0.0205
 6147SOL    HW129900   2.803   3.932   1.983  0.8428  0.0182 -1.8353
 6147SOL    HW229901   2.705   3.840   2.028 -0.3173 -2.2655 -0.7333
 6148SOL     OW29902   3.174   4.122   1.365 -0.4422 -0.2527 -0.2218
 6148SOL    HW129903   3.111   4.175   1.316 -0.6588  1.0207  1.4261
 6148SOL    HW229904   3.137   4.127   1.454  0.6492  3.8497  0.0332
 6149SOL     OW29905   1.793   0.410   4.707 -0.4684 -0.1153 -0.7500
 6149SOL    HW129906   1.765   0.500   4.692 -1.7697 -0.5178 -0.7834
 6149SOL    HW229907   1.877   0.410   4.662  0.7048  0.6209  1.4312
 6150SOL     OW29908   2.129   2.942  10.203  0.0178 -0.3765  0.0434
 6150SOL    HW129909   2.194   3.007  10.177  0.5843  0.3854  3.3468
 6150SOL    HW229910   2.174   2.858  10.199 -2.3375 -1.6517  0.0617
 6151SOL     OW29911   2.169   1.160  13.508  0.2375  0.2564  0.1931
 6151SOL    HW129912   2.089   1.169  13.455  0.8317  2.9500 -0.2368
 6151SOL    HW229913   2.119   1.131  13.584 -1.3470  0.5326 -0.7273
 6152SOL     OW29914   2.136   2.105   6.001  0.2803  0.0077  0.0660
 6152SOL    HW129915   2.166   2.185   5.957 -0.6919 -0.1693 -0.9176
 6152SOL    HW229916   2.208   2.048   5.974 -0.7853 -0.0380 -2.6784
 6153SOL     OW29917   3.517   0.157   3.239 -0.4564  0.3524 -0.1542
 6153SOL    HW129918   3.591   0.165   3.298  1.6470  2.5997 -3.0705
 6153SOL    HW229919   3.534   0.082   3.183 -1.2592 -0.4958  0.7372
 6154SOL     OW29920   2.621   0.605   3.592 -0.0883 -0.6125 -0.2839
 6154SOL    HW129921   2.667   0.682   3.625  1.5498 -1.4716 -0.5451
 6154SOL    HW229922   2.690   0.570   3.536 -1.6215 -0.4573 -2.2595
 6155SOL     OW29923   0.440   3.243  11.131 -0.3724  0.3450 -0.0664
 6155SOL    HW129924   0.379   3.298  11.180  1.9994  1.9345  1.0943
 6155SOL    HW229925   0.377   3.179  11.099 -1.2344  2.3151 -2.3844
 6156SOL     OW29926   0.459   2.605   3.074 -0.2948 -0.0095  0.0507
 6156SOL    HW129927   0.553   2.605   3.053 -0.2509 -1.1056  0.2607
 6156SOL    HW229928   0.430   2.581   2.987 -0.3887 -1.0748  0.3744
 6157SOL     OW29929   1.378   0.295  15.402  0.4145  0.5514  0.1190
 6157SOL    HW129930   1.447   0.319  15.464  1.0864  0.7763 -0.7185
 6157SOL    HW229931   1.334   0.380  15.392  0.6666  0.6286 -0.3475
 6158SOL     OW29932   4.162   1.688  11.366 -0.5284  0.3505  0.2041
 6158SOL    HW129933   4.152   1.781  11.343 -1.1945  0.0336 -0.7708
 6158SOL    HW229934   4.247   1.698  11.409 -1.0613  0.2662  1.2805
 6159SOL     OW29935   3.291   1.208   2.213 -0.2562  0.4408  0.0783
 6159SOL    HW129936   3.362   1.143   2.219  1.4809  2.2156 -1.2185
 6159SOL    HW229937   3.321   1.296   2.235 -0.4677  1.0286 -2.0010
 6160SOL     OW29938   0.867   2.119  16.185 -0.0747  0.1791 -0.9010
 6160SOL    HW129939   0.921   2.120  16.106 -0.0855 -0.4518 -0.9218
 6160SOL    HW229940   0.849   2.213  16.183  0.1610  0.3214  3.0817
 6161SOL     OW29941   3.810   1.058  10.053  1.0351 -0.0634  0.1492
 6161SOL    HW129942   3.793   1.132  10.111  0.4965  0.8978 -1.2368
 6161SOL    HW229943   3.730   1.008  10.073  0.5255  1.6565  2.3357
 6162SOL     OW29944   2.008   3.514   3.710 -0.1699 -0.2702 -0.6494
 6162SOL    HW129945   2.037   3.577   3.644 -1.1521  2.0430  1.1233
 6162SOL    HW229946   1.995   3.574   3.783  0.1973 -1.0207  0.0314
 6163SOL     OW29947   1.032   3.269   4.805  0.4211 -0.0370 -0.8021
 6163SOL    HW129948   1.076   3.246   4.723  1.1214 -1.6481  0.0257
 6163SOL    HW229949   1.001   3.354   4.775  0.7239  0.3599  0.0198
 6164SOL     OW29950   2.229   3.288  14.631 -0.0359 -0.1324  0.2885
 6164SOL    HW129951   2.194   3.310  14.545 -0.4117  0.4964  0.6001
 6164SOL    HW229952   2.260   3.374  14.661 -2.6079  0.5819  0.8892
 6165SOL     OW29953   2.669   4.320   2.801 -0.4389 -0.4164  0.2672
 6165SOL    HW129954   2.638   4.230   2.787  0.6669 -1.0304  1.6890
 6165SOL    HW229955   2.587   4.366   2.781  0.5945  1.6136  0.7684
 6166SOL     OW29956   0.928   2.994   4.483  0.1895  0.1504 -0.0090
 6166SOL    HW129957   0.982   2.915   4.475  2.4210  1.6822 -0.0132
 6166SOL    HW229958   0.914   3.016   4.391  0.0627  0.3251  0.0538
 6167SOL     OW29959   1.102   3.447   9.327  0.0997  0.5962  0.1139
 6167SOL    HW129960   1.140   3.534   9.321  0.0387  0.6517  0.5432
 6167SOL    HW229961   1.059   3.448   9.413 -0.2947  0.7974 -0.0851
 6168SOL     OW29962   3.541   0.755   6.324 -0.2772  0.0554  0.4689
 6168SOL    HW129963   3.618   0.745   6.380 -1.8554  1.4739  2.9202
 6168SOL    HW229964   3.511   0.665   6.315 -0.6272  0.1437  0.7337
 6169SOL     OW29965   4.299   2.542  12.400  0.4047  0.6814 -0.6993
 6169SOL    HW129966   4.221   2.516  12.449  1.5955  2.3611  2.0871
 6169SOL    HW229967   4.277   2.532  12.307 -0.8824 -0.5755 -0.2500
 6170SOL     OW29968   2.371   2.637   3.350 -0.1799  0.0023  0.5225
 6170SOL    HW129969   2.430   2.705   3.317 -0.5778 -0.3099 -0.8438
 6170SOL    HW229970   2.418   2.554   3.340 -0.7611 -0.2178 -0.3599
 6171SOL     OW29971   1.023   4.688   3.664  0.4482 -0.2517  0.1967
 6171SOL    HW129972   1.103   4.638   3.684 -0.8339 -2.4230 -0.1114
 6171SOL    HW229973   1.035   0.050   3.709 -0.4682  0.2139 -0.4222
 6172SOL     OW29974   1.665   2.680   2.992  0.4811 -0.4009  0.7043
 6172SOL    HW129975   1.703   2.763   3.021  0.2735  0.5319 -1.7144
 6172SOL    HW229976   1.623   2.716   2.914  2.1498 -2.9677 -1.3512
 6173SOL     OW29977   1.399   3.927   7.109 -0.3085 -0.0447  0.3572
 6173SOL    HW129978   1.450   3.978   7.172  0.7122  0.7046 -1.0867
 6173SOL    HW229979   1.308   3.946   7.133 -0.3583 -0.5086  0.5367
 6174SOL     OW29980   2.199   0.902  15.220  0.0159 -0.2172  0.0127
 6174SOL    HW129981   2.255   0.971  15.186 -2.4285  0.4311 -2.6893
 6174SOL    HW229982   2.120   0.934  15.175  0.6639  0.8476 -0.3582
 6175SOL     OW29983   3.748   0.305  11.828 -0.2638 -0.2296  0.0701
 6175SOL    HW129984   3.820   0.246  11.803 -0.4164 -0.3398 -0.1026
 6175SOL    HW229985   3.709   0.254  11.900  1.1743 -1.4842 -0.0238
 6176SOL     OW29986   2.576   2.348  14.470  0.4953  0.3715 -0.2276
 6176SOL    HW129987   2.656   2.301  14.494 -0.2087 -0.6025  0.2208
 6176SOL    HW229988   2.515   2.275  14.463 -1.2554  1.8729 -0.4733
 6177SOL     OW29989   1.693   1.004   8.816  0.1781 -0.1100 -0.4717
 6177SOL    HW129990   1.719   1.093   8.792 -2.4503  0.9202  0.5114
 6177SOL    HW229991   1.776   0.962   8.794  0.8698 -0.1196  2.2056
 6178SOL     OW29992   1.914   2.228  12.461  0.5109  0.3687 -0.2996
 6178SOL    HW129993   1.889   2.136  12.471  2.0656 -0.0781 -0.4942
 6178SOL    HW229994   1.896   2.262  12.549 -1.6647  0.5223 -0.7984
 6179SOL     OW29995   0.237   4.079   5.115 -0.5010  0.2218  0.0806
 6179SOL    HW129996   0.271   3.995   5.084  1.8049  0.6380  1.5202
 6179SOL    HW229997   0.210   4.051   5.203 -1.3014 -0.5998 -0.4287
 6180SOL     OW29998   3.665   3.980   5.913  0.8127 -0.0415  0.3073
 6180SOL    HW129999   3.635   4.005   5.825  2.4289 -1.5147 -0.6770
 6180SOL    HW230000   3.760   3.985   5.898  0.9301 -3.0106  0.1727
 6181SOL     OW30001   1.977   0.129   5.313 -0.0004 -0.2977  0.4225
 6181SOL    HW130002   1.895   0.088   5.339 -1.3824  1.6865 -0.8502
 6181SOL    HW230003   1.942   0.214   5.288  2.0372  1.7296  4.3376
 6182SOL     OW30004   1.464   3.808   7.713  0.0208 -0.0810 -0.1801
 6182SOL    HW130005   1.469   3.866   7.789 -0.1096 -1.0439  0.5727
 6182SOL    HW230006   1.555   3.779   7.705  0.6731  2.1496 -0.8850
 6183SOL     OW30007   1.220   3.081   6.643 -0.5326  0.6175  0.1249
 6183SOL    HW130008   1.138   3.039   6.673  0.7967 -1.6613  0.5883
 6183SOL    HW230009   1.279   3.019   6.686  0.3348  0.9301 -0.6417
 6184SOL     OW30010   4.573   2.079   5.452 -0.2165  0.6551  0.2150
 6184SOL    HW130011   4.534   2.125   5.378 -2.0961  0.9275  1.3733
 6184SOL    HW230012   4.574   2.138   5.527 -0.3071  0.7372  0.1509
 6185SOL     OW30013   4.573   3.089   4.338  0.6794 -0.3884 -0.2793
 6185SOL    HW130014   4.647   3.029   4.324  0.5772 -0.5699 -0.0586
 6185SOL    HW230015   4.612   3.176   4.342 -1.6435  0.7193 -1.9193
 6186SOL     OW30016   1.370   4.020   3.002  0.0002  0.0819  0.3330
 6186SOL    HW130017   1.409   3.972   2.928  2.1654 -0.1348  1.6047
 6186SOL    HW230018   1.279   3.990   3.005 -0.7314  1.9878 -2.4454
 6187SOL     OW30019   0.867   0.606   3.851 -0.0150 -0.1489 -0.2944
 6187SOL    HW130020   0.772   0.592   3.850  0.0049 -0.1753 -1.0905
 6187SOL    HW230021   0.870   0.692   3.808 -1.0960 -0.7588 -1.5724
 6188SOL     OW30022   3.231   0.987  11.006 -0.1748 -0.4442 -0.3439
 6188SOL    HW130023   3.245   0.904  10.961 -1.7808  0.1347 -1.9118
 6188SOL    HW230024   3.137   0.980  11.023  0.1972  3.1358  3.0396
 6189SOL     OW30025   3.619   1.429   2.681  1.0350 -0.7948 -0.4259
 6189SOL    HW130026   3.564   1.491   2.730 -0.7938 -0.4232 -2.9427
 6189SOL    HW230027   3.561   1.354   2.672 -1.3119  0.7052  2.4381
 6190SOL     OW30028   3.839   1.336   3.710  0.3722 -0.0899  0.0673
 6190SOL    HW130029   3.922   1.295   3.685 -1.6735 -4.3203  0.3471
 6190SOL    HW230030   3.818   1.396   3.638  1.4456  1.3325  0.9277
 6191SOL     OW30031   1.824   2.412  11.557 -0.2462  0.0481 -0.2739
 6191SOL    HW130032   1.821   2.358  11.635  1.9063  0.3977  0.0510
 6191SOL    HW230033   1.910   2.409  11.515  0.5093 -1.9586  1.4226
 6192SOL     OW30034   4.657   0.316   7.281 -0.7312  0.0332 -0.4357
 6192SOL    HW130035   4.601   0.281   7.351  0.0559  0.9819  0.6703
 6192SOL    HW230036   4.609   0.274   7.210 -0.8035  1.7666 -1.4004
 6193SOL     OW30037   0.865   0.827  17.176 -0.2412  0.4920  0.7500
 6193SOL    HW130038   0.790   0.772  17.194 -0.8828  0.3706 -2.2342
 6193SOL    HW230039   0.908   0.826  17.261  0.7556 -0.6560  0.2197
 6194SOL     OW30040   2.648   0.892  11.995  0.1081  0.0891 -0.4817
 6194SOL    HW130041   2.679   0.944  11.921  2.3091 -1.8830 -0.9653
 6194SOL    HW230042   2.698   0.937  12.063  0.1607  1.8160 -1.6700
 6195SOL     OW30043   3.106   2.492   2.350  0.0132 -0.0644  0.1073
 6195SOL    HW130044   3.171   2.560   2.370  1.1914 -1.1465 -0.0038
 6195SOL    HW230045   3.027   2.539   2.376  0.8734  2.3051 -1.5127
 6196SOL     OW30046   4.191   1.181  17.519 -0.4677  0.3872 -0.5125
 6196SOL    HW130047   4.249   1.236  17.466  0.2952 -0.0250 -0.0967
 6196SOL    HW230048   4.238   1.098  17.509 -0.6269  0.4029 -1.4377
 6197SOL     OW30049   4.292   3.154   9.596  0.2138 -0.7665 -0.5450
 6197SOL    HW130050   4.355   3.093   9.632  2.3879  2.0332  0.4272
 6197SOL    HW230051   4.229   3.139   9.666  0.7515  0.6939  0.2592
 6198SOL     OW30052   3.798   0.465   5.900  0.2589 -0.5800 -0.4670
 6198SOL    HW130053   3.804   0.549   5.945 -0.2064 -0.8701  0.1438
 6198SOL    HW230054   3.879   0.460   5.850  0.6824 -1.1029  0.2893
 6199SOL     OW30055   3.342   3.665   6.554 -0.0797  0.4017  0.0466
 6199SOL    HW130056   3.295   3.608   6.614 -0.1749  0.2201 -0.2045
 6199SOL    HW230057   3.324   3.620   6.472 -0.4745 -1.2602  1.0524
 6200SOL     OW30058   1.142   4.024   6.354 -0.5361 -0.3778 -0.2478
 6200SOL    HW130059   1.064   3.969   6.343  0.3543 -1.8792  0.9067
 6200SOL    HW230060   1.193   3.968   6.412 -1.2604  0.9076  1.6310
 6201SOL     OW30061   3.443   2.494   8.359 -0.3095  0.7508  0.1027
 6201SOL    HW130062   3.463   2.541   8.440  0.5133  2.9253 -1.3428
 6201SOL    HW230063   3.504   2.422   8.375 -0.9039  0.3479  0.5108
 6202SOL     OW30064   2.791   3.072   5.149 -0.5132  0.1293 -0.7845
 6202SOL    HW130065   2.879   3.111   5.152 -1.0270  1.1050  2.0416
 6202SOL    HW230066   2.823   2.989   5.184  0.8296  0.8477 -0.2978
 6203SOL     OW30067   2.823   1.884   4.872  0.3503  0.1166  0.0318
 6203SOL    HW130068   2.783   1.830   4.940 -1.2765  3.4866  1.7110
 6203SOL    HW230069   2.788   1.841   4.793  0.3361  1.6287 -0.7868
 6204SOL     OW30070   2.034   4.564  10.627 -0.2972 -0.3737 -0.1764
 6204SOL    HW130071   1.969   4.511  10.672 -0.7533  0.7937  0.5343
 6204SOL    HW230072   2.122   4.537  10.655  0.1343 -0.3830 -1.5189
 6205SOL     OW30073   2.066   3.804   7.095  0.2837  0.4090 -0.6311
 6205SOL    HW130074   1.971   3.794   7.104  0.1234  0.5319 -2.1588
 6205SOL    HW230075   2.063   3.895   7.125  1.1098  0.1045  0.3805
 6206SOL     OW30076   0.725   0.435   5.787 -0.2142  0.1802 -0.7544
 6206SOL    HW130077   0.765   0.349   5.803  1.7249  1.3831  0.8169
 6206SOL    HW230078   0.641   0.423   5.832 -1.3479  1.2070 -2.6116
 6207SOL     OW30079   2.647   3.962   4.287  0.0424  0.6047 -0.2829
 6207SOL    HW130080   2.694   3.995   4.210  0.2908  0.7218 -0.0805
 6207SOL    HW230081   2.694   4.001   4.361 -0.8854 -0.2642  0.7710
 6208SOL     OW30082   1.551   3.195   3.414  0.5179 -0.1633  0.5571
 6208SOL    HW130083   1.499   3.119   3.390 -0.7336  0.5372  1.0671
 6208SOL    HW230084   1.522   3.214   3.503 -1.2551  0.9620 -0.2759
 6209SOL     OW30085   3.813   0.282   6.851  0.2696 -0.6610 -0.2997
 6209SOL    HW130086   3.767   0.336   6.915  0.6606  4.7797 -4.5435
 6209SOL    HW230087   3.772   0.197   6.864 -1.2466  0.1338  0.1616
 6210SOL     OW30088   1.918   0.294   8.711 -0.2425 -0.0080  0.2835
 6210SOL    HW130089   1.988   0.359   8.709  0.6427 -0.9774 -0.6480
 6210SOL    HW230090   1.971   0.216   8.730  1.3716  1.3222  1.2313
 6211SOL     OW30091   4.318   0.077   5.502 -0.8004 -0.4139 -0.4185
 6211SOL    HW130092   4.413   0.084   5.514 -0.7530 -2.1711  0.1731
 6211SOL    HW230093   4.304   4.703   5.502 -0.5563 -0.4503 -0.7407
 6212SOL     OW30094   3.335   4.302   1.195  0.1434 -0.1464 -0.7272
 6212SOL    HW130095   3.290   4.220   1.176  0.7235 -1.2634  2.8314
 6212SOL    HW230096   3.352   4.295   1.289  2.8274 -1.0565 -1.2925
 6213SOL     OW30097   4.500   2.074   9.515 -0.1275  0.3738  0.1552
 6213SOL    HW130098   4.425   2.092   9.459 -0.8376  0.9170  1.2797
 6213SOL    HW230099   4.553   2.154   9.524  0.3650 -0.0988  1.4118
 6214SOL     OW30100   0.988   1.901  13.786 -0.1437 -0.2912 -0.5168
 6214SOL    HW130101   0.925   1.863  13.846 -0.9431  1.8537  0.0069
 6214SOL    HW230102   0.951   1.981  13.748  1.3089 -0.2944 -1.9536
 6215SOL     OW30103   0.871   3.889   7.476  0.1843 -0.0246 -0.8769
 6215SOL    HW130104   0.952   3.937   7.458  1.6789 -1.5306  1.8793
 6215SOL    HW230105   0.868   3.815   7.415  1.8970 -1.3226  0.6181
 6216SOL     OW30106   1.098   0.169  15.774  0.4617 -0.9800 -0.0295
 6216SOL    HW130107   1.120   0.150  15.865 -0.5707  0.8133  0.5998
 6216SOL    HW230108   1.102   0.089  15.722 -1.2231 -0.4991 -0.8958
 6217SOL     OW30109   1.444   2.979  16.393  0.3000 -0.3299  0.3278
 6217SOL    HW130110   1.502   2.942  16.459 -0.2874 -2.5127 -0.3436
 6217SOL    HW230111   1.493   3.049  16.352  0.2597 -0.7133 -0.3701
 6218SOL     OW30112   4.399   1.316   9.176  0.6484 -0.2106 -0.3457
 6218SOL    HW130113   4.424   1.307   9.268 -0.5197 -0.9803 -0.0914
 6218SOL    HW230114   4.368   1.228   9.152 -1.1776  0.4232 -0.3063
 6219SOL     OW30115   2.718   3.864   7.001  0.2560  0.5473 -0.1768
 6219SOL    HW130116   2.665   3.905   7.069  2.1476  2.0371  0.4214
 6219SOL    HW230117   2.685   3.894   6.917  0.7966  0.8954 -0.2698
 6220SOL     OW30118   1.981   0.454  16.529 -0.1168 -0.3311 -0.0961
 6220SOL    HW130119   1.910   0.517  16.548 -0.1196 -0.6229  0.8313
 6220SOL    HW230120   2.003   0.434  16.619  0.6119  1.0714  0.0384
 6221SOL     OW30121   1.428   0.369   8.234  0.2980 -0.0838 -0.3558
 6221SOL    HW130122   1.407   0.302   8.299 -0.7108 -2.5514 -3.1999
 6221SOL    HW230123   1.367   0.342   8.166 -1.2056  0.4622  0.8004
 6222SOL     OW30124   3.355   3.502   3.553 -0.4868 -0.0503  0.3880
 6222SOL    HW130125   3.262   3.516   3.534 -0.4004  0.5778  0.4562
 6222SOL    HW230126   3.363   3.417   3.598 -0.3751 -0.5979 -0.6721
 6223SOL     OW30127   3.762   3.368   1.809 -0.0775 -0.4388 -0.0313
 6223SOL    HW130128   3.736   3.359   1.901  1.5189 -0.9303  0.3732
 6223SOL    HW230129   3.827   3.438   1.818  1.4319 -1.8467  0.0071
 6224SOL     OW30130   0.246   4.108   3.132  0.3278  0.0891 -0.4412
 6224SOL    HW130131   0.283   4.020   3.123  2.5590  0.6935  2.6116
 6224SOL    HW230132   0.175   4.100   3.068 -0.1428  2.5202 -0.2092
 6225SOL     OW30133   1.795   0.428   9.532  0.3843 -0.2962 -0.4454
 6225SOL    HW130134   1.808   0.485   9.608  1.4684 -0.3912 -0.5536
 6225SOL    HW230135   1.803   0.495   9.464  0.3246  0.6032  0.4346
 6226SOL     OW30136   0.521   2.650  10.655  0.3793 -0.0268  0.5897
 6226SOL    HW130137   0.489   2.606  10.576  0.4582 -0.2846  0.7030
 6226SOL    HW230138   0.518   2.741  10.624  2.1229 -0.1710 -0.0160
 6227SOL     OW30139   0.997   1.011  10.651 -0.5704 -0.4795  0.3572
 6227SOL    HW130140   0.904   1.017  10.673 -0.7013 -1.9461  0.2423
 6227SOL    HW230141   1.034   1.051  10.729 -0.7362 -0.9154  0.6603
 6228SOL     OW30142   0.842   0.002   8.088  0.0596 -0.0982  0.0068
 6228SOL    HW130143   0.772   4.687   8.143 -0.0944 -0.0915 -0.1838
 6228SOL    HW230144   0.801   0.087   8.070  2.4535  0.7939 -1.2210
 6229SOL     OW30145   3.302   3.407   5.835  0.4831 -0.3741  0.3582
 6229SOL    HW130146   3.379   3.432   5.886 -0.8031 -0.3800  2.3177
 6229SOL    HW230147   3.277   3.318   5.859 -0.6819 -0.2690 -0.4631
 6230SOL     OW30148   0.708   2.322  10.631  0.3282  0.1942 -0.4854
 6230SOL    HW130149   0.744   2.388  10.689 -0.4485  0.7584 -0.6544
 6230SOL    HW230150   0.622   2.362  10.618  1.0823  1.9118 -0.1434
 6231SOL     OW30151   3.164   0.842   2.254  0.2331  0.3764 -0.2958
 6231SOL    HW130152   3.127   0.930   2.259 -0.3936  0.2458 -2.8304
 6231SOL    HW230153   3.248   0.859   2.296 -0.9543  1.3110  1.6994
 6232SOL     OW30154   1.256   2.906   1.959  0.4099 -0.3216  0.2406
 6232SOL    HW130155   1.240   2.862   1.875  0.2785 -1.3386  0.8003
 6232SOL    HW230156   1.206   2.987   1.950  0.8836  0.0927  1.2826
 6233SOL     OW30157   2.200   4.078  13.942  0.8214  0.2047  0.3297
 6233SOL    HW130158   2.267   4.041  13.884 -0.1182 -0.2564 -0.4688
 6233SOL    HW230159   2.197   4.015  14.015 -1.4813 -1.5027 -1.2428
 6234SOL     OW30160   1.692   2.481   3.191 -0.7174 -0.0020 -0.6416
 6234SOL    HW130161   1.718   2.520   3.275  0.2421 -2.3324  0.1368
 6234SOL    HW230162   1.677   2.558   3.136  0.7755  1.6969  1.2890
 6235SOL     OW30163   2.436   4.621  12.140 -0.0041 -0.3979  0.3771
 6235SOL    HW130164   2.347   4.638  12.170  0.5013  1.4457  0.8341
 6235SOL    HW230165   2.445   4.694  12.079 -1.7181  1.8796  2.8661
 6236SOL     OW30166   0.995   2.079   0.216 -0.2048 -0.0102 -0.0059
 6236SOL    HW130167   1.074   2.130   0.235  1.8726 -2.4104 -2.1247
 6236SOL    HW230168   0.966   2.119   0.134 -1.8760 -4.2386 -1.4892
 6237SOL     OW30169   1.253   0.866   6.808 -0.0235  0.2059  0.0810
 6237SOL    HW130170   1.348   0.873   6.810 -0.1013  1.3483 -0.0420
 6237SOL    HW230171   1.239   0.792   6.748 -0.7250  1.4586 -1.3208
 6238SOL     OW30172   0.072   2.902   2.455 -0.6153  0.0277  0.0076
 6238SOL    HW130173   0.053   2.963   2.384  2.3549  0.2177 -0.6193
 6238SOL    HW230174   0.086   2.820   2.409 -3.1218 -0.7446  0.6185
 6239SOL     OW30175   3.665   1.109   0.519  0.0638  0.6609  0.5505
 6239SOL    HW130176   3.618   1.165   0.457 -0.7567 -1.3240 -0.6328
 6239SOL    HW230177   3.636   1.161   0.594  0.7564  2.0066 -0.1272
 6240SOL     OW30178   2.283   4.577  11.043  0.0278  0.9850 -0.4793
 6240SOL    HW130179   2.231   4.505  11.081 -0.5519  2.0324  0.7084
 6240SOL    HW230180   2.349   4.589  11.111 -1.4163  1.7518  0.7967
 6241SOL     OW30181   0.754   0.444   4.240 -0.5186 -0.3767 -0.0872
 6241SOL    HW130182   0.674   0.400   4.270 -0.9774  0.4496 -0.0983
 6241SOL    HW230183   0.710   0.505   4.180  1.4873 -0.1674 -1.3572
 6242SOL     OW30184   4.592   1.786   6.189 -0.4806 -0.3593 -0.2308
 6242SOL    HW130185   4.548   1.717   6.139 -0.1078 -1.0764  0.4566
 6242SOL    HW230186   4.683   1.766   6.167  0.4742  1.4957  2.0909
 6243SOL     OW30187   3.938   3.184  17.622  0.5570  0.2020 -0.4014
 6243SOL    HW130188   3.978   3.267  17.648 -0.9551  0.2729  1.7528
 6243SOL    HW230189   3.844   3.198  17.620  0.6604  0.9591  0.0092
 6244SOL     OW30190   0.485   1.317   8.041  0.9496 -0.1055 -0.0467
 6244SOL    HW130191   0.475   1.222   8.049  2.6469 -0.5500 -3.2702
 6244SOL    HW230192   0.446   1.352   8.121  0.7316  1.7939 -0.9927
 6245SOL     OW30193   0.484   4.154   3.618  0.2525  0.1212 -0.3331
 6245SOL    HW130194   0.432   4.109   3.551  0.6088 -0.0852 -0.4722
 6245SOL    HW230195   0.496   4.241   3.579  0.0421  0.9562  1.4872
 6246SOL     OW30196   2.848   4.239  11.962  0.0129 -0.0173 -0.1948
 6246SOL    HW130197   2.849   4.333  11.943 -1.0761  0.0780  0.2402
 6246SOL    HW230198   2.931   4.200  11.933 -0.5176 -1.2962  0.0208
 6247SOL     OW30199   2.281   0.629   6.593 -0.0624  0.2585  0.8172
 6247SOL    HW130200   2.344   0.561   6.619 -1.4687 -1.0047  0.9013
 6247SOL    HW230201   2.204   0.607   6.645 -0.6210  1.0001  0.2919
 6248SOL     OW30202   0.267   1.630   2.458 -0.1357 -0.1197 -0.2961
 6248SOL    HW130203   0.224   1.579   2.526 -2.0352 -0.9614 -2.1364
 6248SOL    HW230204   0.346   1.577   2.450  0.2331  0.5380 -1.0710
 6249SOL     OW30205   3.746   3.480  13.082 -0.0225  0.2271  0.2247
 6249SOL    HW130206   3.767   3.394  13.119  0.6375 -0.3182 -1.3990
 6249SOL    HW230207   3.666   3.455  13.035  0.4804 -0.8088 -0.0914
 6250SOL     OW30208   4.254   1.830  14.133 -0.2913  0.0418 -0.6884
 6250SOL    HW130209   4.262   1.773  14.210  1.6363  1.0909 -0.1101
 6250SOL    HW230210   4.209   1.906  14.171 -0.0292 -0.8573  1.4487
 6251SOL     OW30211   1.920   3.581   9.589 -0.3204  0.0037 -0.3720
 6251SOL    HW130212   1.837   3.532   9.587 -0.0161 -0.5667  0.7600
 6251SOL    HW230213   1.955   3.579   9.500 -1.8296 -1.2543 -0.9403
 6252SOL     OW30214   3.530   2.797   1.035 -0.1208 -0.1136 -0.0792
 6252SOL    HW130215   3.520   2.809   0.940  1.1949  2.3696  0.0789
 6252SOL    HW230216   3.503   2.706   1.039 -0.5603  0.0076 -0.1733
 6253SOL     OW30217   4.611   0.630  13.707 -0.1671 -0.2699 -0.8257
 6253SOL    HW130218   4.655   0.617  13.791  1.3992  0.5392 -1.5203
 6253SOL    HW230219   4.557   0.551  13.703  1.8620 -1.6816 -0.4222
 6254SOL     OW30220   2.231   0.879   4.109  0.0663  0.1767  0.0637
 6254SOL    HW130221   2.192   0.913   4.028 -0.4607  2.9825  1.4850
 6254SOL    HW230222   2.167   0.886   4.180  0.6252  0.3552  0.5402
 6255SOL     OW30223   0.256   1.512   4.697 -0.0850  0.3675  0.3748
 6255SOL    HW130224   0.341   1.482   4.729  0.0846 -0.4651 -0.8306
 6255SOL    HW230225   0.216   1.555   4.772 -0.0152 -0.1153  0.6896
 6256SOL     OW30226   2.986   0.916   7.089 -0.1399 -0.8350 -0.4101
 6256SOL    HW130227   2.908   0.969   7.103  1.3657  2.1088 -3.3500
 6256SOL    HW230228   3.045   0.961   7.149  1.5664 -2.5188 -0.8242
 6257SOL     OW30229   1.565   1.640   2.999 -0.0031 -0.4286 -0.4366
 6257SOL    HW130230   1.473   1.618   3.018 -0.3471  0.7803 -0.7188
 6257SOL    HW230231   1.606   1.558   3.026 -1.5476 -1.3887 -1.0248
 6258SOL     OW30232   0.738   3.367   5.696 -0.1966  0.0499  0.1651
 6258SOL    HW130233   0.739   3.391   5.603 -0.9942 -1.1191 -0.1464
 6258SOL    HW230234   0.830   3.387   5.716  0.1696 -0.3215 -1.0904
 6259SOL     OW30235   1.980   2.679   4.035  0.1564 -0.5593  0.5828
 6259SOL    HW130236   1.924   2.688   3.958  2.0739 -4.2700 -1.2476
 6259SOL    HW230237   1.993   2.773   4.053  2.9379 -0.8189  0.0296
 6260SOL     OW30238   2.658   1.555   6.339 -0.6235  0.0100  1.1011
 6260SOL    HW130239   2.677   1.592   6.253 -1.7602  1.1883  1.3413
 6260SOL    HW230240   2.737   1.504   6.355  1.7371  2.3642 -2.9701
 6261SOL     OW30241   4.720   0.942   1.200  0.0299 -0.0468 -0.4335
 6261SOL    HW130242   0.007   0.975   1.110  0.3158  0.1360 -0.3436
 6261SOL    HW230243   4.634   0.901   1.204  0.5120 -0.8083  1.7590
 6262SOL     OW30244   4.211   0.301   8.411 -0.0546  0.2757  0.2784
 6262SOL    HW130245   4.246   0.244   8.343 -0.8347  0.0045  0.1060
 6262SOL    HW230246   4.158   0.232   8.450  0.0030  0.1379  0.1113
 6263SOL     OW30247   1.039   2.812   7.537 -0.1776 -0.0219 -0.9454
 6263SOL    HW130248   1.002   2.727   7.516  1.5358 -0.4847 -2.1546
 6263SOL    HW230249   0.984   2.873   7.487  1.3671  1.8012 -0.4534
 6264SOL     OW30250   2.081   3.175   4.241  0.1106 -0.3856 -0.9348
 6264SOL    HW130251   2.156   3.224   4.208 -1.1753  2.8088  0.8912
 6264SOL    HW230252   2.128   3.099   4.277 -1.5147 -0.8074  0.3293
 6265SOL     OW30253   0.266   3.615   8.420  0.0361 -0.4293 -0.4406
 6265SOL    HW130254   0.361   3.629   8.413  0.0101  1.2317  2.4862
 6265SOL    HW230255   0.241   3.566   8.342 -1.9849 -1.1188  0.6595
 6266SOL     OW30256   1.952   2.547  11.252  0.4340 -0.4140  0.1043
 6266SOL    HW130257   1.869   2.504  11.273  0.5668 -1.1616 -0.8920
 6266SOL    HW230258   1.991   2.490  11.185 -2.4522 -1.6208 -0.5618
 6267SOL     OW30259   0.070   3.495   5.129 -0.0788 -0.0174  0.8778
 6267SOL    HW130260   0.099   3.421   5.181  2.7032  0.7950  0.4441
 6267SOL    HW230261   0.084   3.467   5.038 -1.5171  2.0630 -0.0137
 6268SOL     OW30262   1.065   1.802   0.628  0.1393 -0.1990 -0.8560
 6268SOL    HW130263   0.976   1.835   0.616 -0.7148 -0.7485  3.8461
 6268SOL    HW230264   1.121   1.875   0.601 -0.5648  0.3278 -0.9174
 6269SOL     OW30265   2.393   0.718   9.062  0.0419  0.2543  0.0481
 6269SOL    HW130266   2.336   0.756   9.129  0.0713  2.2316 -1.0317
 6269SOL    HW230267   2.471   0.730   9.115  0.3118  0.0886 -0.3090
 6270SOL     OW30268   0.221   1.876  10.428 -0.1031  0.4748  0.6671
 6270SOL    HW130269   0.156   1.937  10.392  0.1804  0.3744 -0.0162
 6270SOL    HW230270   0.291   1.890  10.365 -0.5382 -3.8122 -0.7663
 6271SOL     OW30271   2.184   3.845  11.032  0.3185  0.3870  0.2699
 6271SOL    HW130272   2.179   3.881  11.120  2.3156 -0.6381  0.7884
 6271SOL    HW230273   2.198   3.925  10.981 -2.3958  0.2100 -0.7689
 6272SOL     OW30274   0.570   2.113   1.784 -0.8747  0.7128  0.1888
 6272SOL    HW130275   0.573   2.039   1.844 -1.2427  0.4622 -0.1023
 6272SOL    HW230276   0.620   2.082   1.708  0.1711  1.9030  0.3860
 6273SOL     OW30277   1.992   2.284   5.112 -0.2038 -0.1818 -0.4517
 6273SOL    HW130278   1.900   2.308   5.102  0.1924  0.7170 -1.8184
 6273SOL    HW230279   2.029   2.341   5.179 -1.0534  1.8337 -1.7187
 6274SOL     OW30280   3.621   0.338  12.711  0.3097 -0.4906 -0.1300
 6274SOL    HW130281   3.675   0.274  12.755  1.0092  0.1740 -0.0247
 6274SOL    HW230282   3.542   0.285  12.701 -0.7939  0.6222  2.6186
 6275SOL     OW30283   3.261   0.140   3.857 -0.3838  0.1642 -0.2401
 6275SOL    HW130284   3.298   0.114   3.772  1.5332  1.5249  0.1634
 6275SOL    HW230285   3.209   0.061   3.872  0.9722 -1.0889 -2.1020
 6276SOL     OW30286   0.617   2.465   4.801  0.2201 -0.6883  0.0014
 6276SOL    HW130287   0.694   2.512   4.769 -0.5468 -0.4280 -1.4501
 6276SOL    HW230288   0.642   2.459   4.894 -1.6525 -0.4721  0.5160
 6277SOL     OW30289   0.364   4.571   3.155  0.0030  0.0782  0.5027
 6277SOL    HW130290   0.446   4.610   3.184  0.9566 -1.6427  0.1362
 6277SOL    HW230291   0.359   4.627   3.078  0.0657 -0.6416 -0.0210
 6278SOL     OW30292   0.056   2.391   0.975 -0.2241 -0.7068  0.0159
 6278SOL    HW130293   0.066   2.445   0.896  0.5870  2.4503  2.2772
 6278SOL    HW230294   0.091   2.446   1.045 -1.9285  0.9104 -0.4153
 6279SOL     OW30295   0.222   2.524   3.482 -0.1942  0.1667  0.0124
 6279SOL    HW130296   0.130   2.499   3.474  0.8756 -3.2515 -1.3510
 6279SOL    HW230297   0.266   2.509   3.398 -1.4376 -0.5978 -0.4981
 6280SOL     OW30298   2.628   4.439   4.487 -0.0799  0.5808 -0.3662
 6280SOL    HW130299   2.599   4.499   4.556  1.0816  1.5939 -0.7587
 6280SOL    HW230300   2.652   4.358   4.532  0.0317  1.1557  0.5929
 6281SOL     OW30301   1.092   2.372  10.343 -0.1760  0.2513  0.2953
 6281SOL    HW130302   1.123   2.373  10.433  0.8747 -0.9759 -0.0605
 6281SOL    HW230303   0.999   2.349  10.351 -0.1876 -0.1126 -0.8508
 6282SOL     OW30304   0.407   3.056  15.263  0.1988  0.5794 -0.3729
 6282SOL    HW130305   0.374   3.146  15.265  0.5006  0.7455 -2.2783
 6282SOL    HW230306   0.380   3.019  15.347 -0.2501  2.5616  0.3418
 6283SOL     OW30307   1.474   3.021   7.877 -0.2300 -0.2756  0.1033
 6283SOL    HW130308   1.430   2.982   7.801  2.1278 -1.2175 -0.7776
 6283SOL    HW230309   1.512   3.102   7.844 -1.1190  1.2697  2.9503
 6284SOL     OW30310   2.789   1.560   7.465 -0.5014  0.1534  0.0637
 6284SOL    HW130311   2.804   1.593   7.554 -0.9597 -2.5107  1.1273
 6284SOL    HW230312   2.694   1.549   7.461 -0.5084  0.4011 -0.4015
 6285SOL     OW30313   3.463   2.161   8.431 -0.7958 -0.4159 -0.2761
 6285SOL    HW130314   3.428   2.192   8.514 -0.7226 -0.7412 -0.1216
 6285SOL    HW230315   3.459   2.066   8.444  2.0748 -0.2991  1.2873
 6286SOL     OW30316   1.794   1.358   2.236  0.2935 -0.1825 -0.1724
 6286SOL    HW130317   1.850   1.375   2.160 -0.0875  1.8671  0.0050
 6286SOL    HW230318   1.746   1.287   2.193  0.0675 -1.4863  2.2140
 6287SOL     OW30319   3.252   3.797   2.956 -0.0909 -0.2069 -0.0061
 6287SOL    HW130320   3.344   3.790   2.982  0.3080  1.8046 -0.8351
 6287SOL    HW230321   3.221   3.856   3.025  0.8865  0.2173  0.0801
 6288SOL     OW30322   0.934   2.286   4.596 -0.4994 -0.0402  0.1590
 6288SOL    HW130323   1.003   2.334   4.641  0.0985 -1.2996  0.5778
 6288SOL    HW230324   0.860   2.343   4.616 -0.6034  1.1071 -3.3861
 6289SOL     OW30325   4.265   0.843   2.824  0.0631 -0.4275  1.0001
 6289SOL    HW130326   4.244   0.762   2.871 -0.3357 -0.5597  0.6000
 6289SOL    HW230327   4.231   0.826   2.736 -2.1225 -2.8365  2.2903
 6290SOL     OW30328   0.527   1.631   1.979 -0.4650 -0.0519  0.7644
 6290SOL    HW130329   0.450   1.587   2.015 -0.3979 -0.4556  0.4121
 6290SOL    HW230330   0.591   1.561   1.964 -3.4212 -2.5679  0.0528
 6291SOL     OW30331   0.290   0.664   7.062  0.8751 -0.0310 -0.4700
 6291SOL    HW130332   0.307   0.648   7.155 -1.2469  0.4060  0.0115
 6291SOL    HW230333   0.376   0.643   7.028 -0.1824 -2.8604 -1.4513
 6292SOL     OW30334   3.172   2.829   5.289 -0.2867  0.2957  0.1062
 6292SOL    HW130335   3.177   2.760   5.223 -0.4588  0.7149 -0.3418
 6292SOL    HW230336   3.217   2.900   5.242 -1.2132  0.4427 -0.5588
 6293SOL     OW30337   4.497   2.208   2.519 -0.3831  0.6487  0.3135
 6293SOL    HW130338   4.491   2.146   2.592  0.0324  0.6383  0.3354
 6293SOL    HW230339   4.438   2.168   2.455  0.4873 -0.4357  0.2022
 6294SOL     OW30340   4.715   0.261   2.128 -0.2653 -0.2983  0.4212
 6294SOL    HW130341   4.651   0.275   2.199  2.6276  4.5241  2.0845
 6294SOL    HW230342   0.064   0.214   2.173  1.8459  2.8701  0.5013
 6295SOL     OW30343   4.564   2.942   8.947 -0.8200 -0.7270 -0.0582
 6295SOL    HW130344   4.471   2.941   8.927 -0.1252 -1.2254 -3.2587
 6295SOL    HW230345   4.603   2.921   8.862 -0.3084  1.2550 -0.3144
 6296SOL     OW30346   1.558   2.575   8.070 -0.0708 -0.1086  0.3453
 6296SOL    HW130347   1.500   2.586   8.146 -0.5582 -1.9652  0.2318
 6296SOL    HW230348   1.527   2.644   8.011  1.3184  0.1610 -0.0567
 6297SOL     OW30349   2.551   4.105  16.182  0.2352 -0.7126  0.0472
 6297SOL    HW130350   2.516   4.192  16.198  0.6986 -0.2179 -1.6090
 6297SOL    HW230351   2.638   4.137  16.157  0.2151 -0.4511  0.3113
 6298SOL     OW30352   3.350   1.201  15.900  0.5386  0.3933 -0.2860
 6298SOL    HW130353   3.415   1.174  15.835  0.7252 -0.6132  0.3253
 6298SOL    HW230354   3.295   1.127  15.928 -0.8623  0.9986 -1.4283
 6299SOL     OW30355   3.066   0.998   8.042 -0.0874 -0.7338 -0.1166
 6299SOL    HW130356   3.014   1.078   8.040 -0.9704 -1.3133 -0.6448
 6299SOL    HW230357   3.151   1.035   8.066 -0.3046  1.8085 -3.3269
 6300SOL     OW30358   1.081   3.662   7.127 -0.5987 -0.0526  0.4957
 6300SOL    HW130359   1.137   3.593   7.162 -1.0637  0.3699  2.0944
 6300SOL    HW230360   1.064   3.624   7.041 -0.9257 -2.0421  1.4313
 6301SOL     OW30361   2.308   2.269   4.684  0.5618  0.0597  0.5414
 6301SOL    HW130362   2.395   2.278   4.724 -0.6486  1.4430  2.8478
 6301SOL    HW230363   2.244   2.291   4.751 -0.5792 -2.0648  0.1554
 6302SOL     OW30364   3.313   2.005   6.397 -0.4911  0.0468  0.3474
 6302SOL    HW130365   3.331   1.931   6.454 -0.5792  0.8224  1.3703
 6302SOL    HW230366   3.243   2.052   6.443 -1.1273 -0.2059 -0.3643
 6303SOL     OW30367   0.438   1.148   3.452  0.1135 -0.2529 -0.0102
 6303SOL    HW130368   0.425   1.234   3.412 -1.9089 -0.7313 -0.3591
 6303SOL    HW230369   0.466   1.097   3.376  1.8309  1.8954 -0.8344
 6304SOL     OW30370   1.718   0.016   5.352  0.3866 -0.2613 -0.6373
 6304SOL    HW130371   1.675   4.665   5.305 -0.9404  0.0461  0.1249
 6304SOL    HW230372   1.645   0.073   5.375  0.4380 -0.7103  0.6636
 6305SOL     OW30373   1.991   0.545   3.826 -0.0449  0.5308 -0.0150
 6305SOL    HW130374   1.960   0.622   3.777  2.7403  0.0172 -2.5694
 6305SOL    HW230375   1.973   0.569   3.917 -1.4721  0.4134 -0.2716
 6306SOL     OW30376   0.418   0.716   7.725 -0.2994  0.1852 -0.2082
 6306SOL    HW130377   0.418   0.687   7.634  2.6670  0.2019 -0.2051
 6306SOL    HW230378   0.331   0.754   7.734 -0.5540 -0.5235  0.3189
 6307SOL     OW30379   0.223   1.288   2.195 -0.0478 -0.2285  0.1342
 6307SOL    HW130380   0.264   1.340   2.127 -1.7972 -0.1057 -0.8310
 6307SOL    HW230381   0.296   1.229   2.217  0.4286  0.3895  0.2053
 6308SOL     OW30382   4.131   1.022  15.193  0.3749  0.2763  0.1038
 6308SOL    HW130383   4.056   1.049  15.140 -0.4518 -1.8668  0.2092
 6308SOL    HW230384   4.112   1.057  15.280  0.6137  1.0064 -0.1327
 6309SOL     OW30385   1.359   2.358   9.640 -0.2756  0.1557  0.2580
 6309SOL    HW130386   1.441   2.380   9.595  0.1814 -1.5647  0.2569
 6309SOL    HW230387   1.313   2.321   9.564  0.5257 -2.4461  1.0290
 6310SOL     OW30388   1.092   0.709   2.695  0.1999 -0.5593  0.7026
 6310SOL    HW130389   1.179   0.694   2.658  0.8001  0.1885  1.8189
 6310SOL    HW230390   1.090   0.664   2.780 -1.6261 -1.3747  0.2126
 6311SOL     OW30391   1.583   1.569   6.545  0.0155 -0.1659  0.2828
 6311SOL    HW130392   1.489   1.580   6.534  0.3762  1.7645 -0.8397
 6311SOL    HW230393   1.600   1.620   6.624  2.3324  0.1725 -0.4409
 6312SOL     OW30394   4.179   0.088   7.770  0.2656  0.2236 -0.7573
 6312SOL    HW130395   4.130   0.022   7.819  0.7898 -0.9533 -1.8121
 6312SOL    HW230396   4.131   0.097   7.688 -0.2931 -0.6671 -0.5254
 6313SOL     OW30397   2.636   0.282   3.432  0.2086  0.4185  0.9021
 6313SOL    HW130398   2.691   0.360   3.425  1.7848 -0.9768 -2.0632
 6313SOL    HW230399   2.708   0.227   3.463 -0.2357 -0.6282  0.0818
 6314SOL     OW30400   3.602   2.089   8.918  0.1328 -0.1993  0.5682
 6314SOL    HW130401   3.602   2.000   8.953 -2.8150  0.2380  1.7306
 6314SOL    HW230402   3.516   2.118   8.947  0.7316  1.6133  0.5563
 6315SOL     OW30403   1.599   2.776   1.448  0.5346  0.4232  0.1220
 6315SOL    HW130404   1.613   2.687   1.415  4.7974  1.7273 -1.6318
 6315SOL    HW230405   1.684   2.810   1.475  1.6975 -1.7346 -0.8436
 6316SOL     OW30406   3.494   2.790   2.614 -0.6338  0.1624  0.2222
 6316SOL    HW130407   3.412   2.837   2.629 -0.7711  0.0679 -0.2304
 6316SOL    HW230408   3.514   2.805   2.522  0.6136  2.3242  0.8353
 6317SOL     OW30409   0.396   2.395   7.751  0.5719 -0.0385 -0.1538
 6317SOL    HW130410   0.415   2.339   7.676 -0.5338  0.3472 -0.7121
 6317SOL    HW230411   0.450   2.364   7.825  0.6382  0.1160 -0.1374
 6318SOL     OW30412   1.509   3.449   3.899  0.0211  0.2152  0.1442
 6318SOL    HW130413   1.420   3.483   3.894 -0.4181 -0.5692  2.5193
 6318SOL    HW230414   1.527   3.479   3.988 -1.3962  0.5068  0.3351
 6319SOL     OW30415   1.750   3.799  14.768 -0.6004  0.2253 -0.4467
 6319SOL    HW130416   1.795   3.800  14.683 -0.8337 -1.6344 -0.5897
 6319SOL    HW230417   1.685   3.730  14.753  0.5161 -0.9517  0.1790
 6320SOL     OW30418   2.579   4.037   3.606 -0.6742  0.2256 -0.5142
 6320SOL    HW130419   2.582   4.060   3.513 -0.4723 -1.8293 -1.0223
 6320SOL    HW230420   2.547   4.118   3.645 -1.3296 -0.7529  0.9642
 6321SOL     OW30421   1.276   2.336   6.674 -0.0736 -0.2639  0.3012
 6321SOL    HW130422   1.236   2.290   6.600  1.9518 -0.0963 -0.9199
 6321SOL    HW230423   1.226   2.417   6.682  2.0516  1.0073  0.8488
 6322SOL     OW30424   2.429   4.263   3.239  0.0442  0.1399  0.4432
 6322SOL    HW130425   2.397   4.334   3.183  1.3404  0.9395  0.7305
 6322SOL    HW230426   2.358   4.249   3.301 -2.4111  2.2178 -1.8849
 6323SOL     OW30427   2.700   3.841   3.816  0.1178  0.5024  0.3662
 6323SOL    HW130428   2.642   3.903   3.772 -0.4863 -0.7383 -0.5698
 6323SOL    HW230429   2.787   3.868   3.787  0.2848 -0.2152  0.2011
 6324SOL     OW30430   0.668   3.995   7.595 -0.5182 -0.4479  0.4468
 6324SOL    HW130431   0.750   3.973   7.552 -0.4489  0.9903 -0.1620
 6324SOL    HW230432   0.602   3.979   7.528  0.4718 -1.5736 -0.2439
 6325SOL     OW30433   1.602   3.557   2.511  0.0652  0.7608 -0.1962
 6325SOL    HW130434   1.623   3.513   2.429 -3.9898 -1.1506 -0.1982
 6325SOL    HW230435   1.556   3.635   2.481  2.1394  0.9354 -2.9032
 6326SOL     OW30436   4.585   3.224  16.564  0.2360  0.0207  0.2128
 6326SOL    HW130437   4.493   3.207  16.583 -0.2764  1.1929 -1.2469
 6326SOL    HW230438   4.596   3.175  16.483  0.7600  1.0627 -0.3375
 6327SOL     OW30439   0.412   0.593   5.787  0.7191 -0.4434  0.4780
 6327SOL    HW130440   0.386   0.503   5.805  1.5699 -0.9841 -0.9987
 6327SOL    HW230441   0.381   0.595   5.697  0.1347 -0.3543  0.6834
 6328SOL     OW30442   4.410   1.204   5.023 -0.5249 -0.1837  0.4258
 6328SOL    HW130443   4.391   1.112   5.007  1.3382 -0.7584  1.6403
 6328SOL    HW230444   4.379   1.217   5.112 -2.0665 -1.0072  0.0055
 6329SOL     OW30445   3.264   3.515   7.366  0.2334 -0.7132  0.6814
 6329SOL    HW130446   3.198   3.506   7.435 -0.9878  3.3050  0.0668
 6329SOL    HW230447   3.214   3.568   7.303  0.5073  0.9116  1.8326
 6330SOL     OW30448   3.631   3.147   7.564 -0.9525  0.0847 -0.3705
 6330SOL    HW130449   3.584   3.210   7.618 -1.1350  1.2095 -1.8464
 6330SOL    HW230450   3.713   3.127   7.609 -0.1666  0.3597 -1.6618
 6331SOL     OW30451   3.524   1.728   4.054 -0.5554  0.5888  0.2328
 6331SOL    HW130452   3.565   1.709   3.969  0.9141  0.5913  0.9522
 6331SOL    HW230453   3.548   1.662   4.118 -3.2869  0.8994  1.5780
 6332SOL     OW30454   2.544   4.579   4.700  0.6011  0.6508  0.9806
 6332SOL    HW130455   2.504   4.508   4.750  2.3951 -0.8411  0.3112
 6332SOL    HW230456   2.521   4.654   4.755 -4.7268  0.1289 -0.6020
 6333SOL     OW30457   0.599   1.517   4.264  0.0628  0.0178 -0.0280
 6333SOL    HW130458   0.682   1.524   4.312 -1.0526 -1.3325  2.1071
 6333SOL    HW230459   0.627   1.558   4.183 -0.7990  0.2184 -0.2202
 6334SOL     OW30460   0.248   1.946   9.657 -0.3964  0.4484 -0.2371
 6334SOL    HW130461   0.212   1.966   9.744  0.5557  2.6205 -0.3347
 6334SOL    HW230462   0.322   2.007   9.661 -0.8366  0.9192  1.0038
 6335SOL     OW30463   3.807   2.721   3.850  0.2498  0.3182  0.0337
 6335SOL    HW130464   3.855   2.654   3.899 -3.1386 -0.1970  2.5987
 6335SOL    HW230465   3.817   2.682   3.763  2.5018 -0.4644  0.6523
 6336SOL     OW30466   0.290   2.854   0.836  0.1430  0.1422 -0.1948
 6336SOL    HW130467   0.310   2.772   0.790  1.2448  0.6219 -0.5797
 6336SOL    HW230468   0.350   2.848   0.911 -0.2974  0.0740  0.1486
 6337SOL     OW30469   0.281   2.060  17.685  0.1388 -0.2530  0.2467
 6337SOL    HW130470   0.309   2.146   0.031  1.1005 -0.8702  1.0720
 6337SOL    HW230471   0.339   2.003   0.049  1.1817  1.8114  1.3936
 6338SOL     OW30472   4.144   3.417   9.276  0.0335  0.1645 -0.2575
 6338SOL    HW130473   4.118   3.347   9.336 -2.8235  0.6098 -0.9670
 6338SOL    HW230474   4.235   3.429   9.303  0.0614 -0.4666 -0.0798
 6339SOL     OW30475   2.529   2.968   0.873 -0.0773  0.0067 -0.4942
 6339SOL    HW130476   2.468   3.022   0.824  0.8964  1.8344  0.2955
 6339SOL    HW230477   2.518   3.005   0.960 -2.0117 -0.8556 -0.3881
 6340SOL     OW30478   4.337   1.886   4.113  0.2877 -0.1471 -0.1225
 6340SOL    HW130479   4.335   1.863   4.206  0.1664  1.3216  0.2380
 6340SOL    HW230480   4.316   1.980   4.120  3.1791  0.5115 -0.3682
 6341SOL     OW30481   4.583   0.405   4.753 -0.2498 -0.3262 -0.0670
 6341SOL    HW130482   4.550   0.426   4.666 -0.6577 -1.4334 -0.1790
 6341SOL    HW230483   4.495   0.397   4.791 -0.2447 -4.0477 -0.8420
 6342SOL     OW30484   1.258   3.226  16.470 -0.1937 -0.0255 -0.4085
 6342SOL    HW130485   1.193   3.291  16.496  2.8202  1.3512  3.5870
 6342SOL    HW230486   1.324   3.241  16.537 -0.3510  1.3405 -0.5575
 6343SOL     OW30487   1.788   0.130   4.934 -0.0171  0.0599 -0.4890
 6343SOL    HW130488   1.788   0.117   5.029  1.4023 -0.2461 -0.5275
 6343SOL    HW230489   1.728   0.203   4.926  0.6722  0.6490 -0.2333
 6344SOL     OW30490   3.133   1.441   2.526  0.0314 -0.1878  0.1313
 6344SOL    HW130491   3.187   1.498   2.471  0.4881 -0.2389  0.5302
 6344SOL    HW230492   3.203   1.382   2.552  0.5127  1.1534  1.8559
 6345SOL     OW30493   2.637   4.604   9.221  0.2393  1.0674 -0.6568
 6345SOL    HW130494   2.705   4.648   9.273  0.7156  1.2164 -1.4035
 6345SOL    HW230495   2.591   4.678   9.180 -0.6035  1.3133  0.7565
 6346SOL     OW30496   1.285   4.317  13.987  0.1391 -0.4823  0.1994
 6346SOL    HW130497   1.352   4.329  14.054  0.2149  1.5621 -0.2273
 6346SOL    HW230498   1.339   4.264  13.929 -1.6798 -0.5176 -1.4568
 6347SOL     OW30499   0.085   1.677  15.540  0.3363  0.0525  0.4525
 6347SOL    HW130500   0.153   1.696  15.604  1.6312 -2.0217 -0.3287
 6347SOL    HW230501   0.119   1.713  15.458  0.4833 -0.7899  0.1475
 6348SOL     OW30502   2.733   1.313   2.972  0.9062 -0.2504  0.4532
 6348SOL    HW130503   2.643   1.320   2.938  2.1558 -2.2088 -3.2680
 6348SOL    HW230504   2.765   1.242   2.916  1.3059 -1.2733  1.9814
 6349SOL     OW30505   4.350   1.750   5.338  0.0904  0.3039 -0.0366
 6349SOL    HW130506   4.431   1.778   5.296  1.3186 -1.6007  1.0330
 6349SOL    HW230507   4.293   1.736   5.263 -0.8917 -0.4335  0.8347
 6350SOL     OW30508   2.902   3.098   3.117 -0.8126 -0.0535 -0.5213
 6350SOL    HW130509   2.869   3.036   3.181 -0.4539  0.9863  0.6779
 6350SOL    HW230510   2.824   3.113   3.064 -0.7681  1.3932 -0.1859
 6351SOL     OW30511   3.580   3.325   1.573  0.2604 -0.1919  0.6058
 6351SOL    HW130512   3.566   3.232   1.554 -0.0532 -0.0362  0.0562
 6351SOL    HW230513   3.630   3.331   1.654 -0.4115 -1.3709  1.1084
 6352SOL     OW30514   0.493   2.628   2.288  0.0209 -0.2672  0.0350
 6352SOL    HW130515   0.564   2.563   2.298  0.5913  0.9433  3.7410
 6352SOL    HW230516   0.469   2.634   2.380 -2.1307 -1.3422 -0.4500
 6353SOL     OW30517   1.671   3.653   5.918  0.2234  0.0943 -0.0152
 6353SOL    HW130518   1.765   3.668   5.931 -0.0731 -0.0595  2.4115
 6353SOL    HW230519   1.643   3.743   5.902 -0.9941  0.3957  3.6159
 6354SOL     OW30520   4.517   3.208   9.332 -0.0222  0.1770  0.0371
 6354SOL    HW130521   4.437   3.259   9.342 -0.3664 -0.3532  0.0280
 6354SOL    HW230522   4.579   3.262   9.284  0.6272  0.1154  0.8123
 6355SOL     OW30523   4.409   4.322   6.736 -0.2758  0.2170 -0.6067
 6355SOL    HW130524   4.436   4.294   6.649 -0.7607 -0.4417 -0.5445
 6355SOL    HW230525   4.321   4.351   6.714 -0.2247 -0.1070 -1.2394
 6356SOL     OW30526   3.840   0.636   4.136 -0.0503  0.1009  0.9360
 6356SOL    HW130527   3.916   0.666   4.186  2.0984  0.0597 -2.2671
 6356SOL    HW230528   3.893   0.574   4.086 -0.9222 -1.7526  2.3352
 6357SOL     OW30529   4.296   0.269  14.367  0.2927 -0.1350 -0.5291
 6357SOL    HW130530   4.229   0.202  14.366  1.6041 -1.4552  0.0680
 6357SOL    HW230531   4.248   0.346  14.335  0.9236 -0.0530 -1.2808
 6358SOL     OW30532   2.682   2.174   5.060  0.5179  0.2739  0.0156
 6358SOL    HW130533   2.678   2.083   5.088  3.0605  0.0502 -0.3139
 6358SOL    HW230534   2.691   2.222   5.142 -1.1204  1.5753 -0.5526
 6359SOL     OW30535   1.634   1.834   1.279 -0.5459  0.4258 -0.3633
 6359SOL    HW130536   1.603   1.793   1.199 -0.9068 -0.4883  0.2374
 6359SOL    HW230537   1.673   1.915   1.246  2.0337 -0.6143  0.2124
 6360SOL     OW30538   2.116   4.345  14.033  0.2647 -0.4842  0.4926
 6360SOL    HW130539   2.169   4.376  13.960  0.0592 -1.5814 -0.1214
 6360SOL    HW230540   2.114   4.252  14.013  1.0025 -0.2427 -0.6865
 6361SOL     OW30541   0.825   4.055   4.152  0.0884 -0.2981 -0.5529
 6361SOL    HW130542   0.860   3.966   4.149 -0.7965 -0.5821 -2.8937
 6361SOL    HW230543   0.733   4.034   4.167 -0.2228  2.1155  0.8979
 6362SOL     OW30544   2.446   3.194   4.507  0.2978 -0.5610 -0.1152
 6362SOL    HW130545   2.452   3.285   4.479 -1.6584 -0.4942 -0.2877
 6362SOL    HW230546   2.429   3.208   4.600  1.2899 -2.0620  0.2971
 6363SOL     OW30547   3.975   4.355   5.139 -0.4564 -0.5825 -0.5790
 6363SOL    HW130548   3.915   4.381   5.208  1.4311  1.9840  0.0901
 6363SOL    HW230549   3.959   4.423   5.074 -0.1508 -0.5703 -0.6420
 6364SOL     OW30550   0.132   1.462   3.823 -0.4058 -0.6502 -0.0625
 6364SOL    HW130551   0.208   1.452   3.880 -1.0542 -3.2554  0.3118
 6364SOL    HW230552   0.086   1.381   3.844  1.3232 -1.4893  0.4762
 6365SOL     OW30553   0.234   2.520   2.153  0.2299 -0.0853  0.1209
 6365SOL    HW130554   0.311   2.573   2.171 -0.3638  0.3191  1.5102
 6365SOL    HW230555   0.234   2.507   2.058  0.8935  1.0616 -0.0399
 6366SOL     OW30556   1.046   3.970   8.839 -0.0385 -0.3110  0.2966
 6366SOL    HW130557   1.021   3.883   8.870 -1.8850 -0.2834 -1.0891
 6366SOL    HW230558   1.121   3.946   8.785  0.6630 -1.4566  1.7829
 6367SOL     OW30559   1.134   4.365   8.809  0.0089 -0.2462 -0.3467
 6367SOL    HW130560   1.139   4.460   8.818 -1.2687 -0.3661  1.5449
 6367SOL    HW230561   1.106   4.338   8.721  0.1040  0.1704 -0.5034
 6368SOL     OW30562   0.428   2.082   6.729 -0.6863  0.3485 -0.3641
 6368SOL    HW130563   0.378   2.098   6.649 -0.5623 -0.1483 -0.5449
 6368SOL    HW230564   0.505   2.139   6.724 -1.4584  1.3405 -0.8231
 6369SOL     OW30565   4.543   1.951   9.061 -0.0206  0.0443  0.3796
 6369SOL    HW130566   4.516   1.962   9.152 -0.2351  0.1995  0.2956
 6369SOL    HW230567   4.497   1.867   9.057  0.9763 -0.4892  0.2251
 6370SOL     OW30568   2.754   3.877   4.870 -0.4541  0.5065  0.4411
 6370SOL    HW130569   2.773   3.902   4.960  2.4468  1.1521 -0.3485
 6370SOL    HW230570   2.837   3.865   4.824 -0.1361 -0.8068  1.3590
 6371SOL     OW30571   0.285   3.876   2.946  0.5179 -0.3420 -0.4409
 6371SOL    HW130572   0.380   3.861   2.947  0.5742 -0.0207 -1.0693
 6371SOL    HW230573   0.262   3.863   2.854 -2.1736  4.0348 -0.3680
 6372SOL     OW30574   4.060   2.923   1.183  0.2028 -0.6897 -0.1893
 6372SOL    HW130575   4.127   2.920   1.115  0.5340  0.2392  0.1005
 6372SOL    HW230576   3.980   2.917   1.131 -0.5901  2.2410  0.6635
 6373SOL     OW30577   4.538   3.258  10.195  0.2067 -0.0824 -0.5312
 6373SOL    HW130578   4.591   3.336  10.210  0.8153 -0.3984 -1.0145
 6373SOL    HW230579   4.489   3.250  10.276 -0.5135 -1.6128 -1.1068
 6374SOL     OW30580   3.369   0.800   3.855 -0.2013 -0.1339  0.5096
 6374SOL    HW130581   3.418   0.882   3.847  0.6958 -0.8420 -1.3062
 6374SOL    HW230582   3.408   0.757   3.779  0.7320  1.1289  0.2765
 6375SOL     OW30583   0.151   0.919   8.670  0.2549  0.0581 -0.8411
 6375SOL    HW130584   0.209   0.952   8.738  0.3920 -0.6716 -0.6013
 6375SOL    HW230585   0.218   0.896   8.605  1.2701  0.9907 -0.1154
 6376SOL     OW30586   3.071   0.251   9.819 -0.3470  0.3349  0.3182
 6376SOL    HW130587   3.042   0.211   9.737  3.2856 -0.4258 -0.6162
 6376SOL    HW230588   3.023   0.334   9.816 -0.4601  0.3009  1.2452
 6377SOL     OW30589   0.440   1.222  10.605 -0.7522  0.3812 -0.0492
 6377SOL    HW130590   0.526   1.262  10.613 -1.3131  2.1400 -2.4736
 6377SOL    HW230591   0.439   1.181  10.691  1.3283  2.2877  0.8751
 6378SOL     OW30592   2.629   1.447  15.167  0.4864  0.4581 -0.3336
 6378SOL    HW130593   2.640   1.453  15.262 -0.6024 -0.3114 -0.1541
 6378SOL    HW230594   2.704   1.392  15.145  1.8767  1.0969  2.7078
 6379SOL     OW30595   3.289   0.115  11.588 -0.1506 -0.6243  0.0577
 6379SOL    HW130596   3.383   0.119  11.570  0.0843 -0.7034  1.2813
 6379SOL    HW230597   3.275   0.196  11.539  0.5601  0.2973  1.3758
 6380SOL     OW30598   0.528   3.142   3.917  0.1511  0.6412  0.2349
 6380SOL    HW130599   0.519   3.060   3.966  1.6060  1.2936  1.5958
 6380SOL    HW230600   0.623   3.148   3.921  0.2107  0.1078 -0.4809
 6381SOL     OW30601   2.884   3.696   8.525  0.9608  0.0209 -0.4782
 6381SOL    HW130602   2.859   3.680   8.616  0.3128 -1.6031 -0.9393
 6381SOL    HW230603   2.807   3.667   8.476 -0.3424  2.4602  0.1258
 6382SOL     OW30604   3.808   0.040   5.650 -0.1007 -0.3195 -0.1142
 6382SOL    HW130605   3.842   0.038   5.740 -0.2697  0.3787 -0.0316
 6382SOL    HW230606   3.713   0.041   5.660 -0.1136  1.5045 -0.3347
 6383SOL     OW30607   2.392   2.363   2.487 -0.1272 -0.4973  0.1007
 6383SOL    HW130608   2.378   2.347   2.581 -1.7135 -1.4657 -0.3042
 6383SOL    HW230609   2.484   2.343   2.467 -0.0156  1.1042 -0.9873
 6384SOL     OW30610   4.698   0.399  15.832  0.2910 -0.4913  0.5232
 6384SOL    HW130611   4.616   0.375  15.790  0.4132  0.9261 -0.5320
 6384SOL    HW230612   4.668   0.449  15.908  0.6816 -0.0931  0.4153
 6385SOL     OW30613   0.495   3.035   6.205  0.1956 -0.0937  0.1561
 6385SOL    HW130614   0.516   3.123   6.235 -0.1921 -0.3928  1.3006
 6385SOL    HW230615   0.577   2.999   6.172  0.4164  0.0244  0.5715
 6386SOL     OW30616   4.004   4.243   5.567 -0.0132  0.2266 -0.2264
 6386SOL    HW130617   4.017   4.318   5.510 -4.4014 -0.0460 -1.6439
 6386SOL    HW230618   4.022   4.262   5.659 -0.4970  1.1835 -0.3277
 6387SOL     OW30619   0.358   3.663   3.844  0.4483  0.2181 -0.3877
 6387SOL    HW130620   0.281   3.687   3.793 -0.2660 -0.2631  0.4719
 6387SOL    HW230621   0.318   3.593   3.896  1.2352 -0.0535 -0.1499
 6388SOL     OW30622   1.017   3.618   3.851  0.6308 -0.1307 -0.5368
 6388SOL    HW130623   0.964   3.634   3.773 -1.6089  0.9740  1.2258
 6388SOL    HW230624   0.965   3.545   3.885  0.5749  0.7131  1.1613
 6389SOL     OW30625   3.061   1.878  15.694  1.0341 -0.0702  0.1144
 6389SOL    HW130626   3.001   1.951  15.709  2.5143  1.2274 -0.4113
 6389SOL    HW230627   3.007   1.827  15.633 -0.2124 -0.1487  1.2667
 6390SOL     OW30628   3.844   3.244  11.447 -0.0842 -0.2764 -0.5464
 6390SOL    HW130629   3.856   3.335  11.421  0.4283  0.0918  0.9754
 6390SOL    HW230630   3.802   3.258  11.532  3.5194  0.7908  1.0462
 6391SOL     OW30631   2.585   3.692   4.284 -0.0031 -0.3937 -0.1511
 6391SOL    HW130632   2.583   3.787   4.297  0.3535 -0.1479 -1.8723
 6391SOL    HW230633   2.612   3.643   4.362  1.6813  0.2747 -0.3194
 6392SOL     OW30634   0.438   2.361   0.470 -0.0873 -0.2088  0.3724
 6392SOL    HW130635   0.364   2.303   0.455 -0.1047 -0.7585  2.5887
 6392SOL    HW230636   0.511   2.313   0.432  0.4501  1.7420 -1.0539
 6393SOL     OW30637   3.148   0.410   3.790 -0.3932 -0.1557 -0.2079
 6393SOL    HW130638   3.159   0.367   3.705  1.9677 -3.5668  1.8453
 6393SOL    HW230639   3.166   0.329   3.837  3.1297  0.2523 -0.8790
 6394SOL     OW30640   1.116   0.642   4.809  0.2359  0.0119 -0.1780
 6394SOL    HW130641   1.145   0.653   4.719 -0.5814 -0.0536 -0.4538
 6394SOL    HW230642   1.151   0.721   4.850  0.7286  0.1033 -0.7733
 6395SOL     OW30643   1.948   0.640  12.965 -0.2462 -0.6346  0.0710
 6395SOL    HW130644   1.886   0.678  13.027 -1.1196  1.9495 -2.3865
 6395SOL    HW230645   1.952   0.701  12.891  0.2172 -1.3901 -0.5299
 6396SOL     OW30646   1.118   1.005  16.858  0.4403  0.2397 -0.1470
 6396SOL    HW130647   1.045   0.943  16.860  0.2620  0.4518 -0.0804
 6396SOL    HW230648   1.133   1.012  16.764  2.3973 -2.3044 -0.0373
 6397SOL     OW30649   2.972   3.264   6.790 -0.2985  0.1323  0.5451
 6397SOL    HW130650   3.013   3.184   6.823 -1.1392  0.5198  2.5008
 6397SOL    HW230651   3.037   3.327   6.822 -2.0486  2.5312 -0.6438
 6398SOL     OW30652   4.055   0.396  10.976  0.4852 -0.2322  0.2488
 6398SOL    HW130653   4.091   0.442  10.899  1.4766 -1.4759 -0.0346
 6398SOL    HW230654   4.134   0.379  11.028  1.1428 -1.8484 -1.2625
 6399SOL     OW30655   0.488   3.637   6.287 -0.1674  0.0177 -0.2752
 6399SOL    HW130656   0.579   3.608   6.283  0.3528  1.4397  1.1444
 6399SOL    HW230657   0.492   3.733   6.284 -1.9691 -0.0129 -3.2295
 6400SOL     OW30658   2.626   0.213   1.984 -0.0000 -0.7285 -0.1152
 6400SOL    HW130659   2.603   0.304   2.003  0.9201 -0.0809 -2.1127
 6400SOL    HW230660   2.541   0.169   1.988 -0.6015  0.2938 -1.5238
 6401SOL     OW30661   3.619   1.311   8.325  0.4055 -0.6060 -0.0682
 6401SOL    HW130662   3.596   1.389   8.274 -1.7319 -0.8092  0.5735
 6401SOL    HW230663   3.612   1.343   8.415  0.8655 -0.5815 -0.0412
 6402SOL     OW30664   1.789   1.609   5.779 -0.4223  0.4996 -0.1929
 6402SOL    HW130665   1.804   1.616   5.873  1.9752  1.0227 -0.6183
 6402SOL    HW230666   1.786   1.515   5.764 -3.9129  0.7420 -0.9734
 6403SOL     OW30667   2.871   0.638   6.541 -0.0823  0.1995 -0.1179
 6403SOL    HW130668   2.913   0.695   6.476  0.6271  0.1157  0.2731
 6403SOL    HW230669   2.818   0.584   6.483 -1.4288  0.7619  0.5956
 6404SOL     OW30670   1.878   1.611   0.653 -0.3399  0.0697 -0.7386
 6404SOL    HW130671   1.789   1.585   0.629  0.3375 -1.9797 -0.9925
 6404SOL    HW230672   1.911   1.548   0.717 -0.0084  1.1189  0.1287
 6405SOL     OW30673   4.459   4.327   3.895 -0.0274  0.2681  0.0243
 6405SOL    HW130674   4.443   4.383   3.820  0.1564  1.0931  0.6043
 6405SOL    HW230675   4.543   4.366   3.918  0.0774  0.1106 -0.0945
 6406SOL     OW30676   3.831   4.119  15.085 -0.1105 -0.2927  0.0967
 6406SOL    HW130677   3.885   4.185  15.042 -2.0696  0.4962 -1.1230
 6406SOL    HW230678   3.747   4.132  15.041  0.3641  2.4313  0.0304
 6407SOL     OW30679   2.798   1.031  12.178 -0.1318  0.7112 -0.1586
 6407SOL    HW130680   2.849   0.960  12.218 -1.6608 -1.2305 -1.6472
 6407SOL    HW230681   2.842   1.108  12.215  1.2907  0.1585 -0.6759
 6408SOL     OW30682   2.309   2.395   8.240 -0.1946 -0.1120 -0.1119
 6408SOL    HW130683   2.324   2.417   8.331 -1.2420  1.0033 -0.2114
 6408SOL    HW230684   2.231   2.448   8.222  0.9196  2.1112  1.6300
 6409SOL     OW30685   4.029   3.945  17.503  0.1934  0.2670 -0.1758
 6409SOL    HW130686   4.010   4.018  17.562  1.5270  0.5958 -0.1442
 6409SOL    HW230687   4.003   3.970  17.414 -0.5840 -1.1724 -0.3507
 6410SOL     OW30688   4.306   0.575   5.236  1.1122 -0.4007 -0.1117
 6410SOL    HW130689   4.276   0.652   5.188 -0.9928 -2.2328 -1.7343
 6410SOL    HW230690   4.313   0.506   5.170  1.9707  1.3026 -1.8032
 6411SOL     OW30691   1.361   3.530  16.304  0.4013 -0.0523  0.0951
 6411SOL    HW130692   1.277   3.515  16.348  1.0321 -0.6493  1.1091
 6411SOL    HW230693   1.380   3.622  16.325 -0.8380 -0.0184  1.0889
 6412SOL     OW30694   4.451   2.071  15.238 -0.4074 -0.1059  0.0873
 6412SOL    HW130695   4.439   1.976  15.234 -1.0248 -0.0865  1.6125
 6412SOL    HW230696   4.516   2.093  15.170 -1.5967  0.7188 -0.7849
 6413SOL     OW30697   2.116   0.302  10.114 -0.1563  0.4334  0.7104
 6413SOL    HW130698   2.193   0.330  10.163  0.4894  0.3380 -0.2571
 6413SOL    HW230699   2.147   0.216  10.083 -0.5697  1.0175 -1.3348
 6414SOL     OW30700   4.662   1.929   2.466  0.1761 -0.1001  0.6622
 6414SOL    HW130701   4.700   2.016   2.468  1.2352 -0.5348 -0.8285
 6414SOL    HW230702   4.632   1.915   2.556 -2.5839  0.6361 -0.1702
 6415SOL     OW30703   0.683   2.258   8.240 -0.3170  0.2845  0.4914
 6415SOL    HW130704   0.675   2.194   8.169  1.0476 -0.3413  0.8928
 6415SOL    HW230705   0.621   2.226   8.305 -0.3975 -2.2301 -0.8137
 6416SOL     OW30706   1.077   3.206   6.171  0.2622  0.5369 -0.2694
 6416SOL    HW130707   1.094   3.228   6.263 -1.8326  1.5510 -0.1286
 6416SOL    HW230708   0.982   3.210   6.162  0.1820  0.5033  0.5256
 6417SOL     OW30709   4.532   0.442   2.792  0.7766 -0.1065 -0.2713
 6417SOL    HW130710   4.538   0.459   2.886  0.8785  0.8186 -0.4486
 6417SOL    HW230711   4.623   0.431   2.764  1.5250  1.9786  1.3870
 6418SOL     OW30712   2.679   1.355   5.998  0.3455 -0.9215  0.1067
 6418SOL    HW130713   2.658   1.287   5.935  0.3576 -1.7797  1.0391
 6418SOL    HW230714   2.618   1.337   6.069 -1.5332  1.7018 -0.8339
 6419SOL     OW30715   1.675   1.577   6.276  0.3296 -0.4950 -0.0685
 6419SOL    HW130716   1.624   1.598   6.354 -1.4292  0.6973 -1.5516
 6419SOL    HW230717   1.627   1.509   6.229 -0.8010 -0.3847  0.9395
 6420SOL     OW30718   4.579   0.178   8.098 -0.7292  0.4536  0.4911
 6420SOL    HW130719   4.517   0.183   8.026  2.3622  0.9631 -2.1496
 6420SOL    HW230720   4.582   0.083   8.085 -3.0013  0.2591  1.4031
 6421SOL     OW30721   0.317   0.930  11.691 -0.0078 -0.5687 -0.2236
 6421SOL    HW130722   0.289   0.879  11.768  0.0225  0.2770  0.3418
 6421SOL    HW230723   0.368   1.000  11.732 -0.3474 -0.0205 -0.7444
 6422SOL     OW30724   2.449   3.692   3.866  0.1683  0.4486  0.5542
 6422SOL    HW130725   2.519   3.756   3.877  0.4470  0.5612 -1.9228
 6422SOL    HW230726   2.374   3.749   3.887 -0.1082 -0.3290  1.6602
 6423SOL     OW30727   1.802   2.305   4.309 -0.4080 -0.3917  0.1827
 6423SOL    HW130728   1.842   2.390   4.293 -0.0400 -0.6334 -0.1579
 6423SOL    HW230729   1.862   2.273   4.377  0.2152 -3.4348 -1.8516
 6424SOL     OW30730   4.339   4.047   6.105  0.5924 -0.0862  0.4024
 6424SOL    HW130731   4.382   3.975   6.151  1.1338 -0.7263 -1.1101
 6424SOL    HW230732   4.246   4.032   6.123 -0.3740  2.0682 -2.8458
 6425SOL     OW30733   3.293   0.018   5.013 -0.1109 -0.3648 -0.1856
 6425SOL    HW130734   3.276   4.688   4.934  1.3739  0.5816 -1.0983
 6425SOL    HW230735   3.227   0.087   4.997  1.1927  0.8586 -0.2729
 6426SOL     OW30736   4.227   2.954   6.930 -0.4521  0.1451 -0.0962
 6426SOL    HW130737   4.201   3.039   6.965  0.1163  0.3750 -0.2290
 6426SOL    HW230738   4.185   2.952   6.844 -0.9322 -0.7209  0.1633
 6427SOL     OW30739   1.591   2.144  10.896  0.6223 -0.5380  0.2587
 6427SOL    HW130740   1.629   2.217  10.946  0.6331 -0.2286 -0.1949
 6427SOL    HW230741   1.498   2.164  10.908  1.3500  3.2406 -0.2235
 6428SOL     OW30742   2.317   0.810  13.689  0.3736  0.0939  0.6014
 6428SOL    HW130743   2.298   0.846  13.776 -0.4348 -1.7369  1.1826
 6428SOL    HW230744   2.403   0.847  13.669  1.4539 -1.8708  1.5861
 6429SOL     OW30745   3.784   2.180   3.489  0.2991  0.2645  0.1746
 6429SOL    HW130746   3.842   2.255   3.486 -0.8832  1.2426  1.6082
 6429SOL    HW230747   3.843   2.120   3.535  0.4610  0.2561 -0.0481
 6430SOL     OW30748   0.897   1.536   4.574  0.2550 -0.0911 -0.1366
 6430SOL    HW130749   0.957   1.608   4.593  3.0412 -2.7509  1.2097
 6430SOL    HW230750   0.859   1.521   4.661 -1.3085 -0.2166 -0.8478
 6431SOL     OW30751   0.428   3.780  12.813 -0.2786 -0.2015 -0.2989
 6431SOL    HW130752   0.403   3.735  12.732  0.3794 -2.9421  1.0251
 6431SOL    HW230753   0.351   3.834  12.832  0.4146  0.4202  0.7929
 6432SOL     OW30754   4.548   1.082   4.556 -0.3646 -0.6155 -0.0976
 6432SOL    HW130755   4.543   1.176   4.576 -1.5472 -0.3378 -1.6588
 6432SOL    HW230756   4.633   1.085   4.513 -0.9837 -1.5374 -1.3825
 6433SOL     OW30757   0.468   1.479  14.524  0.3819  0.3804 -0.4046
 6433SOL    HW130758   0.514   1.479  14.440 -0.5219 -0.2965 -0.8954
 6433SOL    HW230759   0.511   1.558  14.557  0.6861 -0.2247  0.6596
 6434SOL     OW30760   0.937   4.331   5.760  0.3812 -0.5664  0.2195
 6434SOL    HW130761   1.008   4.307   5.700  1.1846 -0.5852  1.1568
 6434SOL    HW230762   0.977   4.394   5.820  0.9496  0.1124 -0.8838
 6435SOL     OW30763   0.233   0.015   0.260 -0.1419  0.3061 -0.2926
 6435SOL    HW130764   0.225   4.690   0.343  1.3038  0.3538 -0.1328
 6435SOL    HW230765   0.318   4.706   0.229  0.0645  0.5325  0.0497
 6436SOL     OW30766   0.738   1.851  11.013 -0.0380 -0.5265  0.0855
 6436SOL    HW130767   0.826   1.841  11.049  0.5379  1.6169 -0.7457
 6436SOL    HW230768   0.736   1.945  10.999  1.9491 -0.3147  1.2033
 6437SOL     OW30769   4.573   1.906   7.690 -0.7606  0.7514 -0.2233
 6437SOL    HW130770   4.488   1.924   7.731 -0.0877  0.3107  1.3766
 6437SOL    HW230771   4.635   1.938   7.756  1.5808 -1.3102 -1.4788
 6438SOL     OW30772   0.505   1.483   2.501 -0.6605  0.0961  0.5359
 6438SOL    HW130773   0.511   1.409   2.560 -0.4380 -2.2028 -2.3677
 6438SOL    HW230774   0.550   1.458   2.420  1.0137  2.9167  0.5692
 6439SOL     OW30775   2.379   4.200  11.256 -0.4038  0.0853  0.0358
 6439SOL    HW130776   2.446   4.236  11.198  0.0713 -1.5763 -0.4197
 6439SOL    HW230777   2.434   4.175  11.330  3.3144  3.2235 -1.6314
 6440SOL     OW30778   1.689   2.460   1.502 -0.2009 -0.0404 -0.0035
 6440SOL    HW130779   1.739   2.385   1.534  0.1235 -0.5269 -1.6665
 6440SOL    HW230780   1.607   2.425   1.468  0.3625 -0.2975 -1.0991
 6441SOL     OW30781   3.169   3.291  16.342  0.6227  0.1334  0.1106
 6441SOL    HW130782   3.228   3.216  16.332  0.0081 -0.7236  3.0043
 6441SOL    HW230783   3.196   3.329  16.258 -2.3634 -1.3336 -1.5391
 6442SOL     OW30784   3.400   3.989   3.863  0.2588 -0.6076 -0.4213
 6442SOL    HW130785   3.395   4.065   3.805 -0.7241 -2.1390 -2.3571
 6442SOL    HW230786   3.461   3.926   3.825  1.6513  0.3350  0.2663
 6443SOL     OW30787   1.129   0.913   3.644 -0.0612 -0.3439 -0.0616
 6443SOL    HW130788   1.140   1.008   3.651 -0.5097 -0.3458  0.6837
 6443SOL    HW230789   1.191   0.882   3.709 -2.3591 -1.1899  1.7261
 6444SOL     OW30790   4.373   3.940   4.103  0.1998  0.0645 -0.5341
 6444SOL    HW130791   4.428   3.880   4.153  0.0163  0.6297  0.3600
 6444SOL    HW230792   4.326   3.978   4.178  0.0547 -0.6107 -0.2862
 6445SOL     OW30793   2.840   3.781   4.445 -0.1931  0.0133  0.7668
 6445SOL    HW130794   2.875   3.823   4.366  1.2269 -1.7195  0.4625
 6445SOL    HW230795   2.838   3.858   4.502 -1.3042 -0.8276  1.8686
 6446SOL     OW30796   3.646   3.567  10.842 -0.0419 -0.0287 -0.5488
 6446SOL    HW130797   3.621   3.503  10.776 -0.1296  0.1757 -0.7147
 6446SOL    HW230798   3.590   3.545  10.917 -0.4912  0.1429 -0.8359
 6447SOL     OW30799   3.551   4.635   5.601 -0.5566 -0.8519 -0.3335
 6447SOL    HW130800   3.546   4.545   5.634 -1.2610 -1.0574 -1.0005
 6447SOL    HW230801   3.466   4.659   5.638  0.4125 -1.9664  2.6638
 6448SOL     OW30802   3.355   1.708   7.042  0.8853 -0.4307 -0.1755
 6448SOL    HW130803   3.358   1.613   7.039 -2.0193 -0.6367  3.2613
 6448SOL    HW230804   3.373   1.722   7.136  2.6526 -0.1979 -0.5437
 6449SOL     OW30805   3.850   1.880   6.260  0.0172 -0.4023  0.8247
 6449SOL    HW130806   3.765   1.911   6.228  0.5321  1.8550  1.6586
 6449SOL    HW230807   3.829   1.800   6.308 -2.0479 -1.2821 -1.5384
 6450SOL     OW30808   0.956   2.258  17.145 -0.6073 -0.4073 -0.0929
 6450SOL    HW130809   0.983   2.167  17.152 -1.3835 -0.7664 -1.7453
 6450SOL    HW230810   0.988   2.297  17.226 -1.3048  0.2235 -0.1162
 6451SOL     OW30811   2.517   3.401   8.001 -0.2101 -0.5654 -0.6999
 6451SOL    HW130812   2.521   3.336   8.070 -0.3020  0.4746  0.2873
 6451SOL    HW230813   2.514   3.481   8.054 -1.9946  0.0710 -1.7929
 6452SOL     OW30814   3.478   4.050   1.015 -0.2657  0.0831 -0.1156
 6452SOL    HW130815   3.429   4.009   1.086  2.1916 -0.4771  1.2261
 6452SOL    HW230816   3.557   3.997   1.008  0.3036  0.8483  0.5503
 6453SOL     OW30817   1.266   1.324   6.755 -0.2867  0.1017 -0.5189
 6453SOL    HW130818   1.205   1.379   6.706 -2.9454 -1.6205  0.8538
 6453SOL    HW230819   1.268   1.240   6.708 -0.1905  0.5732 -1.3618
 6454SOL     OW30820   3.302   2.554   4.853 -0.0633 -0.5977  0.1342
 6454SOL    HW130821   3.307   2.459   4.840  3.4201 -0.5069  0.6667
 6454SOL    HW230822   3.208   2.572   4.848  0.0677  0.1994  0.5630
 6455SOL     OW30823   3.050   3.646  16.706  0.2941  0.4158  0.0827
 6455SOL    HW130824   3.127   3.702  16.721  0.7518 -0.3669  0.6405
 6455SOL    HW230825   3.087   3.560  16.690 -0.0230  0.4735 -0.9335
 6456SOL     OW30826   0.815   2.367  16.144 -0.3103  0.4222  0.7976
 6456SOL    HW130827   0.720   2.357  16.149 -0.1400 -1.1054  1.0155
 6456SOL    HW230828   0.830   2.459  16.126  1.1400  0.0590  0.1056
 6457SOL     OW30829   3.339   1.866   5.024 -0.3438  0.1200  0.2613
 6457SOL    HW130830   3.423   1.859   5.070  0.0785 -0.0955 -0.5425
 6457SOL    HW230831   3.364   1.915   4.945 -1.3721 -0.4545 -0.4187
 6458SOL     OW30832   4.661   3.142   9.640  0.1167  0.2822 -0.5271
 6458SOL    HW130833   4.617   3.219   9.605  0.0233  0.4201 -0.1056
 6458SOL    HW230834   4.595   3.098   9.694  0.1447  0.5818 -0.2478
 6459SOL     OW30835   1.255   2.336   2.461 -0.1728 -0.2255  0.3333
 6459SOL    HW130836   1.287   2.418   2.498 -1.1687  0.3058  0.0433
 6459SOL    HW230837   1.196   2.372   2.394 -0.8577 -2.1477 -0.0852
 6460SOL     OW30838   4.569   1.907  14.219 -0.5424  0.1846  0.2123
 6460SOL    HW130839   4.530   1.929  14.134  1.7384 -1.1631 -1.2057
 6460SOL    HW230840   4.623   1.981  14.246 -0.4867  0.0777  0.3962
 6461SOL     OW30841   0.243   0.506   1.533 -0.0625 -0.4809  0.6039
 6461SOL    HW130842   0.307   0.439   1.509 -1.1928 -1.4557  0.2729
 6461SOL    HW230843   0.305   0.574   1.559  0.2213 -0.3605 -0.4020
 6462SOL     OW30844   3.420   2.124  15.762 -0.3261 -0.0817  0.1575
 6462SOL    HW130845   3.350   2.155  15.704  0.5058 -0.6495 -1.1506
 6462SOL    HW230846   3.441   2.039  15.722 -2.8000 -1.4711  1.8361
 6463SOL     OW30847   0.207   2.193   4.526 -0.1677  0.3699 -0.5176
 6463SOL    HW130848   0.302   2.185   4.533 -0.1840  0.7516  0.2153
 6463SOL    HW230849   0.179   2.187   4.618  0.0475 -0.5433 -0.5165
 6464SOL     OW30850   0.560   0.614  14.208  0.2176 -0.7703 -0.0759
 6464SOL    HW130851   0.649   0.591  14.183  0.5600 -0.0881  0.5001
 6464SOL    HW230852   0.570   0.709  14.200 -2.9405 -0.5432 -1.5423
 6465SOL     OW30853   2.313   1.169  15.836  0.0384 -0.3065 -0.3358
 6465SOL    HW130854   2.294   1.094  15.893 -0.5558  0.9962  1.1761
 6465SOL    HW230855   2.233   1.167  15.783 -0.1241 -0.4846 -0.0855
 6466SOL     OW30856   2.035   4.341   7.522  0.1581  0.1237 -0.1994
 6466SOL    HW130857   1.987   4.303   7.448  0.8484 -2.4872  0.6855
 6466SOL    HW230858   2.005   4.431   7.524  3.0952  1.0996  0.2319
 6467SOL     OW30859   2.944   2.218   6.272 -0.3202 -0.0404 -0.1886
 6467SOL    HW130860   2.967   2.127   6.290  0.1039  0.1326  0.1593
 6467SOL    HW230861   3.020   2.239   6.219 -0.3025  3.5776  1.2520
 6468SOL     OW30862   0.551   4.578   5.033  0.5235  0.5355  0.2649
 6468SOL    HW130863   0.628   4.623   5.067 -1.0049  2.1248  1.6360
 6468SOL    HW230864   0.498   4.558   5.111  0.9576 -0.6532  0.2525
 6469SOL     OW30865   0.364   1.376   3.007  0.4199 -0.0544 -0.0378
 6469SOL    HW130866   0.397   1.368   2.918  2.0368  1.5700  0.4187
 6469SOL    HW230867   0.275   1.341   3.001  0.7309 -0.5440 -1.6998
 6470SOL     OW30868   4.421   1.646   5.987 -0.0111 -0.4085 -0.1366
 6470SOL    HW130869   4.407   1.661   5.893  3.5975  2.1885 -0.2881
 6470SOL    HW230870   4.351   1.689   6.034 -0.9816 -1.5011 -0.5873
 6471SOL     OW30871   4.677   1.139   4.961 -0.2069  0.6628 -0.0454
 6471SOL    HW130872   4.702   1.225   4.928  2.6325  0.0212  0.4017
 6471SOL    HW230873   4.585   1.161   4.975 -0.7663 -2.1558  0.8324
 6472SOL     OW30874   1.211   2.941  14.553 -0.3345 -0.2582 -0.0603
 6472SOL    HW130875   1.172   2.895  14.478 -0.5995 -1.7524  0.9887
 6472SOL    HW230876   1.301   2.956  14.524 -1.0380  0.4293 -1.9433
 6473SOL     OW30877   1.359   4.490  10.673  0.1997  0.1974  0.2743
 6473SOL    HW130878   1.438   4.456  10.630 -0.3585 -0.7368 -0.0003
 6473SOL    HW230879   1.392   4.492  10.763  0.8039 -0.8154  0.0757
 6474SOL     OW30880   4.359   4.508   3.600 -0.5970  0.1263  0.6136
 6474SOL    HW130881   4.392   4.452   3.529  2.6180  0.5165  1.7733
 6474SOL    HW230882   4.441   4.532   3.644 -0.0858  0.1070 -0.3218
 6475SOL     OW30883   2.276   1.770   3.126  0.4645 -0.5832  0.6460
 6475SOL    HW130884   2.337   1.733   3.189  2.2307  0.5520 -0.3672
 6475SOL    HW230885   2.264   1.689   3.077  0.1698  0.4856 -1.0966
 6476SOL     OW30886   3.423   3.754  12.197  0.2417  0.2346 -0.6237
 6476SOL    HW130887   3.371   3.675  12.181  0.3630  0.2473 -1.0873
 6476SOL    HW230888   3.402   3.801  12.117 -1.0796 -1.5691 -1.3256
 6477SOL     OW30889   3.030   3.451  12.479 -0.1513 -0.0516  0.0930
 6477SOL    HW130890   3.062   3.540  12.494  0.1915 -0.7348  3.4311
 6477SOL    HW230891   3.109   3.412  12.518 -0.3768 -0.5997 -0.0094
 6478SOL     OW30892   3.179   2.479   8.251  0.2196  0.2181  0.0979
 6478SOL    HW130893   3.147   2.446   8.335  0.1967 -0.2492 -0.0948
 6478SOL    HW230894   3.270   2.501   8.273  0.3910 -0.3865  0.0014
 6479SOL     OW30895   4.198   0.619  13.418 -0.5062 -0.7228  0.4594
 6479SOL    HW130896   4.195   0.679  13.344 -1.9940 -0.3526  0.8231
 6479SOL    HW230897   4.293   0.626  13.418 -0.4853 -0.9737  2.3236
 6480SOL     OW30898   4.499   4.234   6.479 -0.5599  0.4049 -0.2498
 6480SOL    HW130899   4.579   4.264   6.434 -0.7386  0.3229 -0.6184
 6480SOL    HW230900   4.515   4.141   6.496  0.2907  0.9979  2.2072
 6481SOL     OW30901   0.117   4.688   5.591 -0.0926  0.3409 -0.3560
 6481SOL    HW130902   0.083   0.012   5.514  0.4637  1.4314  0.0304
 6481SOL    HW230903   0.079   0.016   5.664 -0.3681 -1.2321  0.5640
 6482SOL     OW30904   1.393   0.407   5.350 -0.5841  0.3573 -0.2193
 6482SOL    HW130905   1.330   0.471   5.383 -0.7813  0.3970 -0.6678
 6482SOL    HW230906   1.440   0.459   5.284  0.9408  0.7083  1.1539
 6483SOL     OW30907   0.055   3.893   4.920 -0.0000  0.0143 -0.1726
 6483SOL    HW130908   0.084   3.876   4.831 -0.0268 -0.6854 -0.0462
 6483SOL    HW230909   0.134   3.904   4.974 -0.2883  1.0313  0.0332
 6484SOL     OW30910   2.878   1.181   6.911 -0.3201 -0.1922  0.1495
 6484SOL    HW130911   2.909   1.195   6.822  0.2393 -0.0492  0.3685
 6484SOL    HW230912   2.800   1.129   6.888  0.0268 -2.2326  3.5547
 6485SOL     OW30913   4.056   0.489   3.379 -0.2614 -0.2965 -0.2684
 6485SOL    HW130914   3.962   0.475   3.373 -0.3081  0.6412 -1.6645
 6485SOL    HW230915   4.057   0.517   3.471  1.8512  2.4230 -1.1261
 6486SOL     OW30916   0.597   2.058   1.340  0.2426  0.1448 -0.5635
 6486SOL    HW130917   0.596   1.975   1.388  3.6598  1.0926  1.1408
 6486SOL    HW230918   0.506   2.052   1.311 -0.3662  2.5865  0.7882
 6487SOL     OW30919   0.118   4.294   6.751 -0.5593  0.9420  0.0764
 6487SOL    HW130920   0.127   4.236   6.827  0.1273  1.0787  0.0959
 6487SOL    HW230921   0.102   4.378   6.795 -1.1227  0.9594 -0.1571
 6488SOL     OW30922   0.425   1.851   7.844 -0.0842 -0.7586 -1.0767
 6488SOL    HW130923   0.519   1.856   7.864  0.4054 -1.4644 -3.2112
 6488SOL    HW230924   0.422   1.756   7.854 -1.2041 -0.7256 -1.0642
 6489SOL     OW30925   3.185   2.288   9.824  0.4207  0.4678 -0.0838
 6489SOL    HW130926   3.212   2.310   9.913  1.6839  2.0764 -0.8505
 6489SOL    HW230927   3.255   2.332   9.776  0.9519  0.3291  0.5631
 6490SOL     OW30928   1.872   4.078   6.507  0.4698  0.1497 -0.3564
 6490SOL    HW130929   1.956   4.099   6.550 -0.0123 -1.0488  1.1558
 6490SOL    HW230930   1.915   4.058   6.424 -1.5497 -0.8301 -1.1656
 6491SOL     OW30931   1.255   2.895   3.942  0.0752  0.0678  0.0059
 6491SOL    HW130932   1.296   2.966   3.893 -0.7946 -0.3098 -1.2752
 6491SOL    HW230933   1.306   2.819   3.913  0.3798  0.2002  0.1975
 6492SOL     OW30934   2.391   2.707   0.836 -0.4083 -0.4771  0.5514
 6492SOL    HW130935   2.430   2.791   0.857 -1.5056  0.1784 -0.0617
 6492SOL    HW230936   2.302   2.731   0.812 -0.0574  0.1312 -0.1169
 6493SOL     OW30937   1.064   2.515   1.870  0.4638 -0.2843  0.4907
 6493SOL    HW130938   1.059   2.600   1.915  3.0109 -0.3964  0.9531
 6493SOL    HW230939   1.061   2.548   1.780  3.3385  0.7026  0.7574
 6494SOL     OW30940   4.353   1.649   1.924  0.3781 -0.0723  0.7772
 6494SOL    HW130941   4.382   1.729   1.968 -1.5270  0.3360  1.2786
 6494SOL    HW230942   4.320   1.600   1.999  0.3319  0.4553  1.1024
 6495SOL     OW30943   0.541   1.049  13.609 -0.0860 -0.2945 -0.9215
 6495SOL    HW130944   0.608   1.064  13.675  0.4522  0.4083 -1.6292
 6495SOL    HW230945   0.573   1.104  13.538 -2.1186  3.6634  1.2860
 6496SOL     OW30946   3.831   1.834  16.244  0.5251  0.1958  0.0612
 6496SOL    HW130947   3.757   1.832  16.183 -0.5740  0.0012  1.3973
 6496SOL    HW230948   3.790   1.830  16.331 -0.4177 -1.1545 -0.4415
 6497SOL     OW30949   1.199   4.151   6.948  0.2721 -0.1076 -0.2584
 6497SOL    HW130950   1.178   4.081   7.010 -0.6035  0.9486  0.6394
 6497SOL    HW230951   1.131   4.213   6.974  0.3301  1.2730 -3.4135
 6498SOL     OW30952   0.006   2.348   4.428 -0.0073  0.3424  0.2810
 6498SOL    HW130953   4.695   2.272   4.379  0.9950 -0.1969  0.4740
 6498SOL    HW230954   0.074   2.297   4.473 -0.5843 -0.0473  0.7167
 6499SOL     OW30955   4.576   3.818   2.291  0.0140 -0.0741 -0.5074
 6499SOL    HW130956   4.589   3.730   2.327  0.5967  0.6482  1.0790
 6499SOL    HW230957   4.503   3.810   2.230 -1.6238 -2.6156  1.7344
 6500SOL     OW30958   0.938   0.067  13.121  0.1980 -0.2211 -0.2275
 6500SOL    HW130959   0.989   4.707  13.113  0.6879 -0.0654  1.1992
 6500SOL    HW230960   0.936   0.097  13.031 -0.1085  1.6831  0.4150
 6501SOL     OW30961   4.272   3.640   3.534  0.6682  0.0813  0.5617
 6501SOL    HW130962   4.194   3.692   3.514 -0.4163 -0.2499  3.9469
 6501SOL    HW230963   4.295   3.614   3.444  2.2882 -1.0503  1.3052
 6502SOL     OW30964   1.930   2.976   5.465 -0.4093 -0.1287  0.0068
 6502SOL    HW130965   1.923   3.069   5.443 -2.1526 -0.7198 -1.9793
 6502SOL    HW230966   2.023   2.965   5.486 -0.2978 -1.0708 -0.9821
 6503SOL     OW30967   2.958   3.356   1.053 -0.1432  0.0388 -0.2269
 6503SOL    HW130968   2.965   3.274   1.003 -1.6027 -0.6897  0.7726
 6503SOL    HW230969   2.871   3.388   1.033  0.2042  1.3948  0.4674
 6504SOL     OW30970   1.349   1.372  13.442  0.4738 -0.4760 -0.2802
 6504SOL    HW130971   1.398   1.381  13.523 -0.3852 -2.5934  0.4815
 6504SOL    HW230972   1.265   1.395  13.482  0.4649 -0.0068 -0.5682
 6505SOL     OW30973   3.683   1.628   7.035 -0.4219  0.2104  0.1131
 6505SOL    HW130974   3.638   1.645   7.118 -0.4106  1.2171 -0.0946
 6505SOL    HW230975   3.739   1.553   7.056 -1.0618 -0.1238  0.6648
 6506SOL     OW30976   4.005   1.585  14.383  0.1702 -0.0291  0.0757
 6506SOL    HW130977   4.093   1.622  14.371 -0.6118  1.4678 -1.0957
 6506SOL    HW230978   4.013   1.506  14.329 -1.0752  0.6734 -1.1432
 6507SOL     OW30979   1.737   3.809   3.996  0.3056 -0.5929 -0.2642
 6507SOL    HW130980   1.793   3.884   4.017 -2.1813  0.4645  2.5911
 6507SOL    HW230981   1.713   3.789   4.087 -0.2414  1.2675  0.0001
 6508SOL     OW30982   1.034   2.018   1.818 -0.0653 -0.3442 -0.4022
 6508SOL    HW130983   1.017   2.111   1.831  1.3825 -0.2404  0.7314
 6508SOL    HW230984   1.019   2.016   1.724  1.2092  0.7456 -0.6334
 6509SOL     OW30985   3.595   0.214   9.018  0.8499 -0.4160  0.5111
 6509SOL    HW130986   3.684   0.241   9.039  0.3747  0.6611  1.1517
 6509SOL    HW230987   3.600   0.212   8.923  1.8002  1.9506  0.5085
 6510SOL     OW30988   0.093   4.716   3.543  0.0771  0.0381  0.1127
 6510SOL    HW130989   0.117   4.624   3.552  0.5248  0.1660  0.2303
 6510SOL    HW230990   0.154   0.019   3.473 -1.0559  0.9988 -0.5420
 6511SOL     OW30991   3.263   3.154   2.596  0.1285 -0.0290  0.1588
 6511SOL    HW130992   3.238   3.195   2.679 -1.2590 -2.3496  0.9008
 6511SOL    HW230993   3.173   3.131   2.572  0.7660 -0.4603 -1.7413
 6512SOL     OW30994   4.443   0.733  16.323  0.0287 -0.2704  0.0627
 6512SOL    HW130995   4.373   0.732  16.388  0.4206  1.9554  0.5093
 6512SOL    HW230996   4.398   0.786  16.257  1.0255 -0.6639 -0.9260
 6513SOL     OW30997   0.541   0.432  11.849  0.4071  0.8798 -0.0409
 6513SOL    HW130998   0.505   0.393  11.929 -0.3127  0.1054 -0.7401
 6513SOL    HW230999   0.592   0.506  11.882  1.6574 -1.0120  2.3123
 6514SOL     OW31000   1.449   4.046   5.747  0.4030  0.1046 -0.1465
 6514SOL    HW131001   1.474   4.052   5.655 -1.1955  0.0890 -0.5871
 6514SOL    HW231002   1.409   3.959   5.750  1.5132 -0.3571  0.9159
 6515SOL     OW31003   2.867   3.731   9.034 -0.2734 -0.2961  0.2351
 6515SOL    HW131004   2.802   3.663   9.047  0.0995 -0.4303  1.3821
 6515SOL    HW231005   2.829   3.801   9.087  0.0348 -1.0206  1.4102
 6516SOL     OW31006   2.052   0.578   6.733 -0.2864 -0.4083 -0.1165
 6516SOL    HW131007   2.093   0.619   6.810  1.2992 -2.6952  0.2532
 6516SOL    HW231008   2.050   0.486   6.757  0.4763 -0.4111 -0.0352
 6517SOL     OW31009   4.210   3.377   3.929 -0.1523 -0.0403 -0.5469
 6517SOL    HW131010   4.167   3.310   3.876 -0.4486 -0.6522  0.4515
 6517SOL    HW231011   4.243   3.435   3.861  0.0279 -0.2397 -0.6290
 6518SOL     OW31012   3.040   0.595   1.609  0.0240 -0.2999  0.0702
 6518SOL    HW131013   3.097   0.518   1.608 -0.4021 -0.6104 -0.3952
 6518SOL    HW231014   2.951   0.562   1.597 -0.4435  0.6636  0.8723
 6519SOL     OW31015   4.104   2.991   6.672 -0.2503  0.5341 -0.3891
 6519SOL    HW131016   4.175   3.045   6.638  1.3213 -2.3702 -1.6476
 6519SOL    HW231017   4.028   3.048   6.659  0.6402  1.2382 -2.4730
 6520SOL     OW31018   3.810   2.047   5.585  0.2017  0.3270  0.5348
 6520SOL    HW131019   3.884   2.102   5.610 -0.1272  1.1782 -0.3637
 6520SOL    HW231020   3.827   1.996   5.506  1.9730  1.4681  0.1847
 6521SOL     OW31021   4.447   3.846  11.011  0.0504 -0.1121 -0.3511
 6521SOL    HW131022   4.359   3.865  10.979  0.7677  3.5591 -0.1201
 6521SOL    HW231023   4.426   3.786  11.082  1.0689 -0.7568 -0.5868
 6522SOL     OW31024   1.871   0.855   6.203  0.3093  0.7548  0.0049
 6522SOL    HW131025   1.788   0.898   6.185 -0.7002 -0.7712  0.9988
 6522SOL    HW231026   1.864   0.762   6.181 -1.2037  0.0762  3.2520
 6523SOL     OW31027   1.223   4.483   3.878  0.1567  0.4341 -0.4717
 6523SOL    HW131028   1.295   4.496   3.816  0.0154  1.8019 -0.3680
 6523SOL    HW231029   1.228   4.393   3.909 -1.4605  0.5508  0.1029
 6524SOL     OW31030   0.579   4.326   8.185 -0.0483  0.4481  0.2754
 6524SOL    HW131031   0.485   4.335   8.167 -0.2454  0.0192  1.1016
 6524SOL    HW231032   0.587   4.420   8.168 -0.5892  0.2687 -0.9479
 6525SOL     OW31033   2.534   3.834  14.838  0.6364 -0.3571 -0.1221
 6525SOL    HW131034   2.442   3.808  14.839  0.8410 -1.0365  1.3058
 6525SOL    HW231035   2.513   3.927  14.844  1.6676 -0.1156 -0.1584
 6526SOL     OW31036   0.469   1.958   0.195 -0.0577  0.0172 -0.2816
 6526SOL    HW131037   0.519   2.037   0.173 -2.8483  1.6803 -0.5594
 6526SOL    HW231038   0.543   1.911   0.235 -1.1088  0.2812  1.9081
 6527SOL     OW31039   1.998   1.468   9.998 -0.2573  0.5305  0.2653
 6527SOL    HW131040   1.952   1.411   9.937  0.0032 -0.4512  0.9869
 6527SOL    HW231041   2.011   1.547   9.945  0.4152  0.8941  0.9671
 6528SOL     OW31042   3.296   2.708  12.875 -0.2878 -0.1125 -0.5070
 6528SOL    HW131043   3.314   2.797  12.905  1.6937 -0.5015 -0.5777
 6528SOL    HW231044   3.376   2.696  12.825 -0.5615 -1.0459 -0.7214
 6529SOL     OW31045   3.812   0.274   5.215  0.0546 -0.0558 -0.0377
 6529SOL    HW131046   3.833   0.225   5.135 -0.2457 -2.0832  1.1424
 6529SOL    HW231047   3.852   0.228   5.288  1.0154 -0.9824 -1.1516
 6530SOL     OW31048   0.057   2.160  17.582 -0.7836 -0.8474  0.3387
 6530SOL    HW131049   0.042   2.087  17.523 -2.0149 -0.5707  0.3188
 6530SOL    HW231050   0.143   2.128  17.612 -0.7204 -1.0375 -0.0433
 6531SOL     OW31051   1.621   3.082   5.072  0.4293  0.6939  0.0381
 6531SOL    HW131052   1.551   3.131   5.116 -0.4492 -1.4845  1.0569
 6531SOL    HW231053   1.638   3.005   5.126  0.9249  1.1718  0.5733
 6532SOL     OW31054   4.176   2.697   8.180  0.2689 -0.1951  0.2262
 6532SOL    HW131055   4.202   2.764   8.243  1.2673  0.8400 -1.3081
 6532SOL    HW231056   4.211   2.730   8.097 -1.3520  0.2245 -0.2908
 6533SOL     OW31057   1.671   0.008   4.704 -0.5255  0.2180 -0.0365
 6533SOL    HW131058   1.696   0.023   4.795 -1.1133 -1.4096  0.4045
 6533SOL    HW231059   1.746   4.677   4.675 -0.9930  0.5974 -1.9187
 6534SOL     OW31060   2.543   0.499   5.772  0.3185 -0.0996 -0.0942
 6534SOL    HW131061   2.559   0.407   5.754 -2.7286 -0.4941 -0.7305
 6534SOL    HW231062   2.549   0.535   5.683 -2.0309  0.4744 -0.0237
 6535SOL     OW31063   2.785   1.996   2.060 -0.1382 -0.0221  0.0804
 6535SOL    HW131064   2.836   2.024   2.136 -0.8068  0.7716  0.2362
 6535SOL    HW231065   2.860   1.978   2.003  0.2444 -0.6192  0.7739
 6536SOL     OW31066   3.591   0.790   2.087 -0.4861  0.0504  0.6991
 6536SOL    HW131067   3.517   0.750   2.043  0.9441 -2.0802  0.2212
 6536SOL    HW231068   3.574   0.884   2.080  1.0788  0.2175 -1.0715
 6537SOL     OW31069   2.686   1.949   6.288  0.1535  0.0293 -0.1228
 6537SOL    HW131070   2.631   1.931   6.364  1.8409 -0.9378  0.8872
 6537SOL    HW231071   2.772   1.918   6.317  0.9384 -0.4523 -2.9672
 6538SOL     OW31072   1.038   0.679  10.997  0.2989  0.0797 -0.3848
 6538SOL    HW131073   1.086   0.761  11.003 -2.3291  1.4176  2.6639
 6538SOL    HW231074   0.991   0.681  11.080  1.5310 -2.2833  0.3978
 6539SOL     OW31075   0.411   4.355   7.208 -0.6169 -0.2338  0.1055
 6539SOL    HW131076   0.445   4.416   7.143 -0.2660  1.4087  1.8223
 6539SOL    HW231077   0.362   4.421   7.258  0.9217 -0.4147  1.8455
 6540SOL     OW31078   4.653   3.809  12.989 -0.2978  0.6003 -0.0324
 6540SOL    HW131079   4.576   3.821  12.932 -1.1021 -2.5051  0.3626
 6540SOL    HW231080   4.666   3.897  13.024  0.8178  1.5145 -2.8152
 6541SOL     OW31081   4.037   0.410  12.807 -0.0436  0.4489  0.0288
 6541SOL    HW131082   3.954   0.459  12.807  0.8756  1.9826  1.5640
 6541SOL    HW231083   4.050   0.400  12.901 -0.2949  0.6930  0.0893
 6542SOL     OW31084   4.084   2.974   7.818  0.2992 -0.5899  0.1142
 6542SOL    HW131085   4.094   2.894   7.767  0.9539 -1.1891  1.1774
 6542SOL    HW231086   4.173   3.009   7.808 -0.3502  1.0823  0.2510
 6543SOL     OW31087   3.708   0.328   7.354 -0.0399  0.0316 -0.2297
 6543SOL    HW131088   3.618   0.346   7.382  0.5339  0.7297  1.1712
 6543SOL    HW231089   3.752   0.378   7.424 -1.0678 -0.0174  0.4536
 6544SOL     OW31090   1.563   1.508   2.148 -0.3462 -0.1824  0.1210
 6544SOL    HW131091   1.613   1.461   2.081 -2.4050  0.0822 -1.6092
 6544SOL    HW231092   1.534   1.588   2.104  3.7108 -0.6676 -3.4660
 6545SOL     OW31093   1.633   2.411   5.608 -0.3354 -0.1816  0.6017
 6545SOL    HW131094   1.596   2.403   5.696 -0.6459  0.5414  0.5318
 6545SOL    HW231095   1.661   2.502   5.609  3.5630 -1.3691 -0.4528
 6546SOL     OW31096   3.289   1.029   8.733 -0.0461 -0.1103  0.1531
 6546SOL    HW131097   3.302   1.124   8.731  1.3174 -0.3120 -0.6614
 6546SOL    HW231098   3.209   1.021   8.785 -1.6366 -2.7742 -2.7229
 6547SOL     OW31099   2.046   2.532  10.267 -0.0751 -0.4549  0.2996
 6547SOL    HW131100   2.063   2.496  10.180 -2.1744 -2.1185  0.5941
 6547SOL    HW231101   2.074   2.620  10.243 -0.7799 -0.3145 -0.0129
 6548SOL     OW31102   3.047   2.237   5.608 -0.4674  0.1352  0.2557
 6548SOL    HW131103   3.012   2.303   5.547  2.2371  0.8181 -0.5746
 6548SOL    HW231104   3.134   2.275   5.624 -0.1817 -1.8390  3.3093
 6549SOL     OW31105   3.027   0.809   5.580  0.3037 -0.0643  0.3494
 6549SOL    HW131106   3.061   0.876   5.639  0.9362  0.8261 -1.0266
 6549SOL    HW231107   3.106   0.761   5.554  1.4707  1.0037  1.9817
 6550SOL     OW31108   0.338   2.524   2.846  0.1301  0.0072 -0.2871
 6550SOL    HW131109   0.289   2.442   2.837 -1.8053  1.2075 -0.7414
 6550SOL    HW231110   0.411   2.497   2.790 -0.8731 -2.8115 -0.2634
 6551SOL     OW31111   2.694   3.431   0.427  0.0826 -0.7283 -0.1219
 6551SOL    HW131112   2.608   3.393   0.448 -0.3554  0.3821  0.0893
 6551SOL    HW231113   2.689   3.521   0.460  1.0917 -1.8321  3.0539
 6552SOL     OW31114   4.526   1.553  16.630  0.3068  0.2062  0.1679
 6552SOL    HW131115   4.470   1.475  16.633 -0.0985  0.5570  2.1195
 6552SOL    HW231116   4.613   1.517  16.615  1.1606  1.7814  1.3281
 6553SOL     OW31117   1.081   1.038  16.570 -0.1135  0.1970  0.0675
 6553SOL    HW131118   1.076   0.951  16.530  0.4878  0.3911 -0.4273
 6553SOL    HW231119   1.107   1.091  16.494  1.0837 -1.7891 -0.9121
 6554SOL     OW31120   3.701   0.668   5.575  0.1159  0.0805 -0.2245
 6554SOL    HW131121   3.795   0.675   5.587  0.1586 -0.8358 -0.0109
 6554SOL    HW231122   3.674   0.699   5.661 -1.7735  1.5658 -1.3473
 6555SOL     OW31123   0.347   1.307  16.599  0.4609 -0.3653 -0.4308
 6555SOL    HW131124   0.417   1.371  16.595  0.5077 -0.3622  0.6181
 6555SOL    HW231125   0.273   1.351  16.557  0.6934  2.3141  2.0033
 6556SOL     OW31126   2.585   0.814   7.775  0.5657 -0.1914 -0.3173
 6556SOL    HW131127   2.672   0.795   7.810 -0.0008  0.0306  1.2409
 6556SOL    HW231128   2.579   0.902   7.813 -0.6786 -0.0300 -0.8815
 6557SOL     OW31129   2.198   2.694   3.572  0.0227  0.4941  0.4739
 6557SOL    HW131130   2.182   2.780   3.533  0.2045  0.0882 -0.5147
 6557SOL    HW231131   2.251   2.657   3.501 -1.3442  0.4602 -0.5173
 6558SOL     OW31132   1.037   4.133   6.031 -0.4789  0.4573  0.1717
 6558SOL    HW131133   0.980   4.085   6.091  0.0047 -0.0046  0.2560
 6558SOL    HW231134   1.100   4.168   6.093  0.9837 -1.4787 -0.2242
 6559SOL     OW31135   3.819   3.058   9.501  0.6389 -0.2751  0.0352
 6559SOL    HW131136   3.866   3.005   9.566  0.3131 -1.8348 -0.9933
 6559SOL    HW231137   3.777   3.120   9.561  1.3549 -0.7874  1.0650
 6560SOL     OW31138   0.684   0.324   1.997  0.0617  0.2606  0.0146
 6560SOL    HW131139   0.777   0.344   1.988  0.3074 -1.1198 -0.4529
 6560SOL    HW231140   0.673   0.362   2.084  1.2563 -2.9214  1.5521
 6561SOL     OW31141   0.894   2.756   5.428 -0.3548 -0.2259  0.3761
 6561SOL    HW131142   0.984   2.787   5.429  0.0330 -1.3327  0.0576
 6561SOL    HW231143   0.892   2.714   5.341  0.4152 -0.1737  0.3365
 6562SOL     OW31144   1.752   2.649   2.276  0.3455 -0.1107  0.1746
 6562SOL    HW131145   1.843   2.642   2.302  0.5980  1.3186 -0.2953
 6562SOL    HW231146   1.750   2.611   2.188 -0.0013 -0.5195  0.3605
 6563SOL     OW31147   0.663   4.222   8.947  0.0872  0.0835 -0.2776
 6563SOL    HW131148   0.757   4.225   8.966  0.1275  1.2686 -0.6084
 6563SOL    HW231149   0.662   4.158   8.876  0.8791  0.0704 -0.2750
 6564SOL     OW31150   0.626   4.710   3.735  0.5756 -0.2633  0.4078
 6564SOL    HW131151   0.628   0.080   3.764  1.1547  0.5010 -2.0437
 6564SOL    HW231152   0.574   4.674   3.807 -0.9861 -0.4354 -0.8141
 6565SOL     OW31153   4.720   0.076   7.436 -0.5621 -0.6661 -0.7606
 6565SOL    HW131154   0.031   0.023   7.363 -2.2161 -1.1272 -1.1522
 6565SOL    HW231155   0.069   0.140   7.447 -0.8624  0.2550 -4.0005
 6566SOL     OW31156   3.472   0.779   2.835 -0.2947  0.0780  0.0163
 6566SOL    HW131157   3.439   0.819   2.915  2.5973  1.7867  0.3569
 6566SOL    HW231158   3.554   0.827   2.823 -0.2947  0.0513 -0.0907
 6567SOL     OW31159   0.205   3.692  15.480  0.1539  0.4800 -0.3550
 6567SOL    HW131160   0.215   3.772  15.532  2.6114  0.5910 -0.9678
 6567SOL    HW231161   0.114   3.677  15.504  1.1091 -2.0018  1.6745
 6568SOL     OW31162   0.167   4.519   6.933 -0.2554 -0.0157  0.3015
 6568SOL    HW131163   0.127   4.584   6.876 -2.8293 -2.1310 -0.3387
 6568SOL    HW231164   0.239   4.571   6.968  1.2263 -1.6685 -0.2956
 6569SOL     OW31165   3.534   2.506   2.542 -0.4149  0.2498 -0.3205
 6569SOL    HW131166   3.628   2.525   2.550 -0.4411 -0.1841  1.0440
 6569SOL    HW231167   3.503   2.501   2.633  3.9040  1.5687  1.2562
 6570SOL     OW31168   3.629   3.107  11.689 -0.3261  0.3565  0.0426
 6570SOL    HW131169   3.548   3.156  11.692 -1.0697 -0.7889 -1.1096
 6570SOL    HW231170   3.688   3.177  11.715  1.7352 -0.4303 -2.4635
 6571SOL     OW31171   1.516   2.988   3.858 -0.0948  0.0920 -0.7728
 6571SOL    HW131172   1.537   3.081   3.860 -3.5367  0.8009  2.1150
 6571SOL    HW231173   1.583   2.966   3.923 -1.6758  1.1430  1.1964
 6572SOL     OW31174   1.703   0.443   8.237 -0.2020  0.8762 -0.6656
 6572SOL    HW131175   1.609   0.432   8.247 -0.2913  1.9264 -0.3429
 6572SOL    HW231176   1.736   0.410   8.320 -0.9722 -2.6827 -1.7573
 6573SOL     OW31177   0.589   0.941   7.048 -0.2600  0.2899 -0.0884
 6573SOL    HW131178   0.668   0.976   7.005 -2.1487  2.3566 -1.8967
 6573SOL    HW231179   0.623   0.932   7.137  0.2527 -0.0951 -0.3229
 6574SOL     OW31180   2.784   0.293   2.649 -0.0924  0.1158  0.5570
 6574SOL    HW131181   2.699   0.333   2.667  0.2008  1.7183 -1.7075
 6574SOL    HW231182   2.764   0.203   2.621  1.8122  0.0292 -0.5454
 6575SOL     OW31183   1.164   0.482   5.041  0.5610  0.4011 -0.2709
 6575SOL    HW131184   1.131   0.535   4.968 -0.3268  0.2001 -0.0206
 6575SOL    HW231185   1.227   0.436   4.986  0.5991  2.2816 -1.7698
 6576SOL     OW31186   2.711   2.012   5.803  0.4585 -0.1366  0.2862
 6576SOL    HW131187   2.676   1.973   5.883 -1.9706 -1.9303 -1.6707
 6576SOL    HW231188   2.766   1.945   5.761 -0.8701 -2.2907  1.9904
 6577SOL     OW31189   1.040   4.603   1.743 -0.5382  0.4080 -0.1441
 6577SOL    HW131190   1.046   4.543   1.668  1.1521  0.5899 -0.1690
 6577SOL    HW231191   0.953   4.585   1.778  0.3606 -2.9647  0.4477
 6578SOL     OW31192   2.781   1.508   2.170 -0.0649  0.1729 -0.0879
 6578SOL    HW131193   2.853   1.566   2.147 -1.0545  1.7767  0.8872
 6578SOL    HW231194   2.721   1.581   2.152 -1.6154 -0.8153  1.0632
 6579SOL     OW31195   4.616   1.228   0.972  0.5275  0.1758  0.1260
 6579SOL    HW131196   4.647   1.141   0.946  1.6147  0.1937  1.4002
 6579SOL    HW231197   4.633   1.276   0.891 -2.2280 -0.0493 -0.5843
 6580SOL     OW31198   2.949   0.025   8.161 -0.6456  0.2893  0.2911
 6580SOL    HW131199   2.954   0.107   8.210  1.0930  1.5364 -1.9863
 6580SOL    HW231200   2.935   0.052   8.070  1.9557 -0.5813 -0.3719
 6581SOL     OW31201   4.300   1.508   7.364 -0.0435 -0.1762  0.5460
 6581SOL    HW131202   4.352   1.496   7.284 -0.2724  0.1832  0.3390
 6581SOL    HW231203   4.357   1.548   7.429 -2.5697  1.1579  1.9343
 6582SOL     OW31204   2.557   2.844  14.909 -0.0874 -0.1463  0.2957
 6582SOL    HW131205   2.553   2.923  14.855  3.1660 -0.0219  0.2811
 6582SOL    HW231206   2.588   2.781  14.844 -0.5602  0.6561 -0.7076
 6583SOL     OW31207   2.692   0.007   4.276  0.4229  0.2700 -0.3971
 6583SOL    HW131208   2.672   4.635   4.267  0.6261  0.3083 -1.2564
 6583SOL    HW231209   2.647   0.041   4.198  2.0730  3.9589  0.2388
 6584SOL     OW31210   3.613   1.745  15.262  0.0732  0.2763  1.0719
 6584SOL    HW131211   3.645   1.681  15.325  1.9052  1.0744  0.9397
 6584SOL    HW231212   3.691   1.797  15.243  1.3498 -1.7252  0.8898
 6585SOL     OW31213   4.556   4.376   8.884  0.0584  0.4295 -0.1269
 6585SOL    HW131214   4.481   4.333   8.842  1.0181  0.0208 -1.4106
 6585SOL    HW231215   4.589   4.298   8.929  1.8375  0.4318 -1.4352
 6586SOL     OW31216   3.776   3.393   8.150  0.1953 -0.6024 -0.2846
 6586SOL    HW131217   3.734   3.477   8.132  1.1709  0.3301  1.7587
 6586SOL    HW231218   3.833   3.390   8.074 -1.2327  1.7706 -1.4312
 6587SOL     OW31219   4.537   4.190  16.214  0.1178  0.3303 -0.2240
 6587SOL    HW131220   4.509   4.184  16.306  0.2445  0.4014 -0.1805
 6587SOL    HW231221   4.470   4.247  16.177  1.8253  2.0306 -0.6761
 6588SOL     OW31222   4.095   2.144   4.268 -0.0573 -0.0908  0.2492
 6588SOL    HW131223   4.054   2.225   4.298 -0.7949 -0.3315 -0.1011
 6588SOL    HW231224   4.066   2.084   4.337 -1.7089  1.5412  0.9799
 6589SOL     OW31225   0.064   2.357   8.329  1.0519  0.1442 -0.0913
 6589SOL    HW131226   4.720   2.290   8.352  0.6592 -0.0359 -1.7009
 6589SOL    HW231227   0.143   2.305   8.312  1.8416  0.8995  1.2438
 6590SOL     OW31228   4.141   0.994   6.999  0.3800 -0.4680  0.0703
 6590SOL    HW131229   4.210   1.058   6.982 -1.5806  1.7580  0.4546
 6590SOL    HW231230   4.183   0.910   6.985 -0.7192 -1.4060  2.2456
 6591SOL     OW31231   2.898   2.269   3.252 -0.4074  0.1858  0.6500
 6591SOL    HW131232   2.948   2.227   3.182  0.0534  1.8446 -0.0010
 6591SOL    HW231233   2.889   2.191   3.307 -0.4268 -0.4952 -0.3250
 6592SOL     OW31234   0.615   4.588   2.588 -0.3717  0.0951  0.0366
 6592SOL    HW131235   0.590   4.499   2.562  2.9846  0.1172 -3.2293
 6592SOL    HW231236   0.626   4.568   2.681 -0.5865  0.7697  0.2062
 6593SOL     OW31237   3.188   1.924   7.041  0.3399  0.3696  0.2564
 6593SOL    HW131238   3.257   1.858   7.031 -0.9374 -1.2105  1.7586
 6593SOL    HW231239   3.155   1.939   6.953 -0.1771 -1.2204  0.1704
 6594SOL     OW31240   2.719   0.976   8.154 -0.0823 -0.3559 -0.8098
 6594SOL    HW131241   2.703   0.913   8.225  1.2873  1.7508  1.3315
 6594SOL    HW231242   2.759   1.045   8.205 -3.7317  0.0689  1.5100
 6595SOL     OW31243   3.380   3.756  10.613 -0.2169 -0.3096  0.5789
 6595SOL    HW131244   3.333   3.835  10.638  0.8799  0.0041  1.6498
 6595SOL    HW231245   3.333   3.689  10.664 -0.8668  1.0000  1.7080
 6596SOL     OW31246   4.190   2.756  12.061  0.2998 -0.1249  0.5025
 6596SOL    HW131247   4.140   2.736  11.981 -1.2360  0.3023  1.3601
 6596SOL    HW231248   4.232   2.678  12.097 -0.3711 -0.9563 -0.5193
 6597SOL     OW31249   1.361   0.992  17.013 -0.3280  0.1008  0.0946
 6597SOL    HW131250   1.379   1.062  17.076 -0.7291  1.8054 -1.6665
 6597SOL    HW231251   1.274   1.019  16.983 -0.4782 -1.4460 -0.8398
 6598SOL     OW31252   2.206   0.260   6.481 -0.1952 -0.3801  0.6128
 6598SOL    HW131253   2.201   0.205   6.559 -0.0400  0.2001  1.0287
 6598SOL    HW231254   2.130   0.319   6.484  1.0422  1.3628 -2.1230
 6599SOL     OW31255   4.096   0.709  10.186  0.7135  0.0329 -0.2211
 6599SOL    HW131256   4.189   0.688  10.198  0.9919  1.9552  0.9798
 6599SOL    HW231257   4.077   0.631  10.134  0.5007 -0.0275 -0.0514
 6600SOL     OW31258   2.409   4.528   7.676 -0.1187  0.4408 -0.7876
 6600SOL    HW131259   2.493   4.573   7.664  0.4927 -0.9782 -1.7516
 6600SOL    HW231260   2.403   4.521   7.771 -0.7984  0.7700 -0.8052
 6601SOL     OW31261   3.351   1.066   5.937  0.5066 -0.2241 -0.3827
 6601SOL    HW131262   3.439   1.104   5.946  0.2106  0.9758 -2.4393
 6601SOL    HW231263   3.360   0.990   5.994 -0.4574  0.0232  0.0853
 6602SOL     OW31264   1.794   0.026   2.756 -0.1907 -0.7540 -0.3907
 6602SOL    HW131265   1.829   4.659   2.769 -0.2750 -0.7708 -0.2773
 6602SOL    HW231266   1.833   0.032   2.669  0.0256 -0.6780 -0.2887
 6603SOL     OW31267   4.551   3.111   8.588 -0.7004  0.1401  0.2326
 6603SOL    HW131268   4.487   3.081   8.524  1.1591  0.8545 -1.9848
 6603SOL    HW231269   4.561   3.203   8.564  2.4501 -0.3210 -0.2469
 6604SOL     OW31270   2.717   0.881  14.563 -0.2378  0.5102 -0.2753
 6604SOL    HW131271   2.793   0.830  14.535 -0.3780 -0.4350  1.0790
 6604SOL    HW231272   2.707   0.945  14.493 -1.3799 -0.7896 -1.3085
 6605SOL     OW31273   1.402   3.676   9.583  0.3461 -0.1010 -0.1168
 6605SOL    HW131274   1.479   3.696   9.635 -0.7798  1.1319  1.0647
 6605SOL    HW231275   1.402   3.759   9.536  1.8267 -1.0009 -1.7358
 6606SOL     OW31276   0.622   0.478  13.942  0.0195  0.4718 -0.2844
 6606SOL    HW131277   0.600   0.470  14.035 -1.8815  0.0177 -0.7569
 6606SOL    HW231278   0.555   0.428  13.896  0.6778  1.2261 -2.0449
 6607SOL     OW31279   2.773   3.767  15.177  0.4212 -0.9837  1.0066
 6607SOL    HW131280   2.683   3.795  15.162  0.6643 -0.7474  0.0343
 6607SOL    HW231281   2.769   3.681  15.219  0.4933 -1.0053  0.9687
 6608SOL     OW31282   3.292   4.431   4.553  0.2711 -0.0684  0.3422
 6608SOL    HW131283   3.365   4.492   4.549 -0.1286  0.4110  0.2773
 6608SOL    HW231284   3.283   4.404   4.461  2.3417  1.5412 -0.3435
 6609SOL     OW31285   3.804   4.051   2.183 -0.0544 -0.1417  0.5328
 6609SOL    HW131286   3.715   4.074   2.210 -0.8900 -0.1002 -2.2428
 6609SOL    HW231287   3.795   4.045   2.088  0.5602  1.6539  0.3657
 6610SOL     OW31288   1.644   0.357   7.145 -0.1593 -0.2499 -0.1106
 6610SOL    HW131289   1.714   0.293   7.129 -0.5847 -0.7717  0.1028
 6610SOL    HW231290   1.617   0.376   7.056 -1.6842  0.8640  0.5928
 6611SOL     OW31291   4.364   2.774   6.391  0.0528  0.3534  0.0144
 6611SOL    HW131292   4.439   2.741   6.441  0.5696 -0.1810 -1.0884
 6611SOL    HW231293   4.291   2.741   6.444  1.8214 -1.1643  1.5043
 6612SOL     OW31294   3.000   3.701   6.395  0.1090  0.6096 -0.4315
 6612SOL    HW131295   3.042   3.783   6.370  1.7277 -0.4149 -1.0756
 6612SOL    HW231296   3.071   3.637   6.394  0.9268  1.5009  0.7133
 6613SOL     OW31297   2.242   1.164   6.590 -0.2352  0.4598 -0.1481
 6613SOL    HW131298   2.310   1.182   6.525  0.3452  3.5707  1.3413
 6613SOL    HW231299   2.246   1.068   6.591 -0.0223  0.4775  0.8301
 6614SOL     OW31300   2.352   4.057  10.059  0.2968 -0.3097  0.5768
 6614SOL    HW131301   2.423   4.003  10.024  0.6914  0.4163  0.2456
 6614SOL    HW231302   2.349   4.037  10.152 -2.3332 -3.1760 -0.1178
 6615SOL     OW31303   0.913   1.719   3.311  0.2090 -0.1553  0.1800
 6615SOL    HW131304   0.871   1.754   3.389 -0.1429  1.4517 -0.7369
 6615SOL    HW231305   0.840   1.703   3.251  0.7032  2.2643 -1.0488
 6616SOL     OW31306   3.903   2.372  14.746  0.1288  0.1135 -0.0109
 6616SOL    HW131307   3.907   2.412  14.659 -2.6819  0.6496  0.1030
 6616SOL    HW231308   3.982   2.319  14.749  1.1027  1.6159  0.7720
 6617SOL     OW31309   3.173   0.258   3.561  0.0757 -0.0869  0.4485
 6617SOL    HW131310   3.203   0.296   3.479 -2.4766  2.1892  0.5597
 6617SOL    HW231311   3.241   0.192   3.575 -0.1580  0.4775  4.2258
 6618SOL     OW31312   4.384   0.343   5.029  0.0389 -0.0655  0.1134
 6618SOL    HW131313   4.289   0.332   5.020 -0.1056 -0.4614  2.1041
 6618SOL    HW231314   4.412   0.252   5.024  0.8617  0.1268  1.3890
 6619SOL     OW31315   1.085   0.189   8.131  0.8612  0.2034  0.0013
 6619SOL    HW131316   1.020   0.258   8.117 -0.1803 -1.0474 -1.2876
 6619SOL    HW231317   1.025   0.115   8.140  0.9477  0.2754  1.1892
 6620SOL     OW31318   1.785   1.913   7.338 -0.8221 -0.6457 -0.0428
 6620SOL    HW131319   1.811   1.846   7.274 -3.0170  0.7792 -2.3925
 6620SOL    HW231320   1.801   1.986   7.278  1.2409  0.3919  1.7592
 6621SOL     OW31321   2.050   3.268   2.414  0.3859  0.3582  0.2432
 6621SOL    HW131322   2.065   3.362   2.408 -1.8114  0.7550  0.9723
 6621SOL    HW231323   2.071   3.217   2.336  0.1415 -1.4102  1.3334
 6622SOL     OW31324   2.600   0.713   3.047  0.1574 -0.0784  0.0347
 6622SOL    HW131325   2.597   0.698   2.952 -1.1157 -0.6074  0.1532
 6622SOL    HW231326   2.579   0.807   3.046 -0.0394 -0.1267 -1.0805
 6623SOL     OW31327   4.474   1.308   2.852 -0.1222  0.2591 -0.0113
 6623SOL    HW131328   4.467   1.333   2.945  2.5105  3.1116 -0.5667
 6623SOL    HW231329   4.512   1.391   2.822 -2.2695  1.1776 -0.2053
 6624SOL     OW31330   4.075   1.670   8.197  0.4651  0.1310  0.5668
 6624SOL    HW131331   4.043   1.598   8.252  0.0361  0.0878  0.2573
 6624SOL    HW231332   4.009   1.738   8.206 -1.8119 -1.8769 -0.8662
 6625SOL     OW31333   2.135   2.189   2.091 -0.1712  0.7197  0.2238
 6625SOL    HW131334   2.076   2.264   2.100 -3.3423 -1.8492  0.8903
 6625SOL    HW231335   2.194   2.192   2.166  1.0623 -1.3551 -0.6706
 6626SOL     OW31336   1.471   1.715   7.847 -0.6385 -0.6859 -0.2320
 6626SOL    HW131337   1.476   1.620   7.831  0.5660 -0.8341  1.0463
 6626SOL    HW231338   1.376   1.723   7.857 -0.2634  3.2727 -0.0103
 6627SOL     OW31339   3.891   2.809   9.366  0.1502  0.1875  0.1492
 6627SOL    HW131340   3.869   2.830   9.275 -0.6808 -0.3424  0.2281
 6627SOL    HW231341   3.863   2.888   9.412  0.9123 -0.0332  0.9759
 6628SOL     OW31342   0.267   2.861   8.466  0.4319 -0.7464 -0.1483
 6628SOL    HW131343   0.223   2.896   8.543 -1.0000 -0.8405 -0.9228
 6628SOL    HW231344   0.226   2.776   8.450  1.3197 -0.8468 -1.8515
 6629SOL     OW31345   2.249   1.304  12.301 -0.1145 -0.6339 -0.0106
 6629SOL    HW131346   2.228   1.277  12.212 -1.8983 -1.3619  0.6414
 6629SOL    HW231347   2.174   1.269  12.348  0.2775  0.0213  1.0952
 6630SOL     OW31348   0.208   0.416   2.562  0.5431  0.0714 -0.3856
 6630SOL    HW131349   0.165   0.491   2.519 -0.1441 -0.8587 -1.3170
 6630SOL    HW231350   0.159   0.339   2.533  0.5897  0.1584 -0.6942
 6631SOL     OW31351   0.086   1.130  11.927 -0.7206  0.0772  0.4027
 6631SOL    HW131352   0.108   1.206  11.873  1.3286 -1.2540 -0.6533
 6631SOL    HW231353   0.162   1.113  11.984  1.1965 -0.1505 -2.2033
 6632SOL     OW31354   4.328   1.584   1.238  0.1488 -0.2781  0.2456
 6632SOL    HW131355   4.340   1.541   1.323  0.9299  0.0054  0.2869
 6632SOL    HW231356   4.347   1.512   1.178  0.3639  0.4875 -0.6102
 6633SOL     OW31357   1.584   3.030   6.891  0.1775  0.0380 -0.4706
 6633SOL    HW131358   1.670   3.061   6.862  1.0643 -2.8746 -0.9202
 6633SOL    HW231359   1.539   3.115   6.891 -2.0082 -1.0951 -0.2687
 6634SOL     OW31360   2.562   4.179   7.470  0.0420 -0.5226 -0.5035
 6634SOL    HW131361   2.627   4.119   7.506  0.9016  0.8657  0.2553
 6634SOL    HW231362   2.503   4.186   7.545  1.3734  2.3849  0.2693
 6635SOL     OW31363   3.678   1.627   8.777  0.4766 -0.1600 -0.1714
 6635SOL    HW131364   3.624   1.705   8.760  1.6320  0.4654 -0.9862
 6635SOL    HW231365   3.761   1.652   8.738  0.0860  2.2932  0.5750
 6636SOL     OW31366   4.487   0.758  17.452  0.4811  0.0242  0.5023
 6636SOL    HW131367   4.416   0.694  17.463 -0.6927  0.6540 -3.5496
 6636SOL    HW231368   4.561   0.723  17.503  0.6904  1.3776  1.1115
 6637SOL     OW31369   2.838   1.645   4.719 -0.2043 -0.3074 -0.1123
 6637SOL    HW131370   2.813   1.569   4.773 -1.2561  0.4563  0.4792
 6637SOL    HW231371   2.819   1.601   4.636  0.4767 -0.1054 -0.3806
 6638SOL     OW31372   3.725   0.532   1.899  0.3057 -0.2374 -0.4172
 6638SOL    HW131373   3.686   0.456   1.943 -3.0268  1.7654  0.0724
 6638SOL    HW231374   3.661   0.550   1.829  2.4021  0.7076 -2.0762
 6639SOL     OW31375   0.233   2.794   0.097 -0.3720 -1.2058  0.9950
 6639SOL    HW131376   0.273   2.849   0.030 -0.0203 -0.9608  1.4066
 6639SOL    HW231377   0.228   2.714   0.044 -0.8573 -0.9637  0.6665
 6640SOL     OW31378   3.281   0.917   7.570  0.3369  0.1616  0.1479
 6640SOL    HW131379   3.303   0.832   7.607  1.3091  0.7456  0.9128
 6640SOL    HW231380   3.374   0.932   7.554  0.0118 -0.1642 -2.0058
 6641SOL     OW31381   3.579   1.567   4.265  0.3487 -0.9314 -0.3238
 6641SOL    HW131382   3.567   1.479   4.302 -0.4610 -1.0200 -0.7997
 6641SOL    HW231383   3.639   1.609   4.326 -0.9090  0.7169 -0.2316
 6642SOL     OW31384   1.151   4.204   9.333 -0.3757 -0.6044  0.0011
 6642SOL    HW131385   1.061   4.198   9.303 -0.7060  1.2267  0.6789
 6642SOL    HW231386   1.142   4.248   9.418 -0.5451  2.5717 -1.6800
 6643SOL     OW31387   3.751   3.034   3.652 -0.2764 -0.5201 -0.2226
 6643SOL    HW131388   3.707   2.976   3.591 -1.6529 -0.0992  0.3731
 6643SOL    HW231389   3.685   3.054   3.718  0.3172 -0.1795  0.2748
 6644SOL     OW31390   3.994   3.752   7.623  0.6122  0.4081  0.0776
 6644SOL    HW131391   3.995   3.830   7.568  1.0038  1.0163  0.9615
 6644SOL    HW231392   3.900   3.739   7.639  0.6274 -0.1718 -0.3153
 6645SOL     OW31393   1.648   1.392   1.915 -0.5771  0.0141 -0.1329
 6645SOL    HW131394   1.579   1.400   1.850  0.9798  0.8013 -1.6993
 6645SOL    HW231395   1.674   1.300   1.918  1.9116  0.6681 -1.6226
 6646SOL     OW31396   1.925   3.792  14.557  0.4113  0.6778 -0.2472
 6646SOL    HW131397   1.989   3.768  14.489 -0.6839  1.4655 -1.5626
 6646SOL    HW231398   1.923   3.885  14.537 -3.1856  0.5164 -0.6741
 6647SOL     OW31399   0.115   4.525   2.497 -0.0843 -0.2791 -0.1888
 6647SOL    HW131400   0.204   4.539   2.465  0.3701  1.9060  2.0557
 6647SOL    HW231401   0.118   4.429   2.496  1.0864 -0.2257 -1.4452
 6648SOL     OW31402   0.190   2.717   5.857 -0.1660  0.4981 -0.0708
 6648SOL    HW131403   0.229   2.768   5.785  2.3327  0.3580  1.1841
 6648SOL    HW231404   0.262   2.656   5.870 -1.2140 -0.6993  0.0980
 6649SOL     OW31405   4.145   1.012   5.081  0.1355 -0.0979 -0.0434
 6649SOL    HW131406   4.229   0.969   5.063 -0.8508 -1.1527 -2.1406
 6649SOL    HW231407   4.108   1.019   4.993  1.2082 -3.1359 -0.7504
 6650SOL     OW31408   4.514   2.561  16.323 -0.3440  0.1493  0.6319
 6650SOL    HW131409   4.496   2.471  16.349 -1.0244 -0.0822 -0.6266
 6650SOL    HW231410   4.433   2.608  16.343 -2.2894 -2.0669 -2.1419
 6651SOL     OW31411   2.056   3.778   2.029  0.3601  0.1649 -0.5449
 6651SOL    HW131412   2.027   3.855   2.077  2.0897  1.1572 -1.1114
 6651SOL    HW231413   2.151   3.789   2.025  0.4067 -0.2685 -0.6140
 6652SOL     OW31414   3.817   3.479   4.138  0.2625  0.2940 -0.6202
 6652SOL    HW131415   3.791   3.391   4.166  2.2356  0.0255  0.3519
 6652SOL    HW231416   3.911   3.463   4.151  0.2221 -0.1982 -0.9145
 6653SOL     OW31417   2.322   2.155   3.448  0.6813  0.0229  0.0511
 6653SOL    HW131418   2.288   2.153   3.537  0.9127  0.8731  0.1510
 6653SOL    HW231419   2.252   2.206   3.406  0.3514  0.7667  1.5080
 6654SOL     OW31420   1.111   1.133  10.881 -0.6998 -0.4897 -0.3615
 6654SOL    HW131421   1.120   1.210  10.937  1.9741 -0.6649 -0.5371
 6654SOL    HW231422   1.172   1.168  10.816  1.1130 -3.0298 -0.0262
 6655SOL     OW31423   1.470   3.723  14.417  0.3292  0.0194 -0.0070
 6655SOL    HW131424   1.466   3.814  14.389  0.8017  0.2905  0.7991
 6655SOL    HW231425   1.561   3.701  14.435  0.9649  2.5129 -0.2714
 6656SOL     OW31426   3.080   1.196   9.070 -0.0187 -0.0748 -0.1752
 6656SOL    HW131427   3.040   1.213   8.985 -0.2432  1.6537  0.2777
 6656SOL    HW231428   3.044   1.110   9.092  0.7026 -0.0914  0.9320
 6657SOL     OW31429   1.194   2.311   9.405 -0.7343  0.4642 -0.1487
 6657SOL    HW131430   1.213   2.387   9.350  2.4276 -1.1409 -1.2965
 6657SOL    HW231431   1.103   2.287   9.387  0.0846 -1.5412 -1.5802
 6658SOL     OW31432   1.903   3.176   4.836 -0.3818 -0.6093 -0.2847
 6658SOL    HW131433   1.932   3.105   4.893 -0.6265  1.4059  2.3579
 6658SOL    HW231434   1.937   3.152   4.751 -0.2712 -0.3084 -0.3254
 6659SOL     OW31435   0.620   4.533   2.232  0.2911  0.1576  0.2354
 6659SOL    HW131436   0.660   4.588   2.299  2.7661 -0.5725 -0.6334
 6659SOL    HW231437   0.612   4.446   2.271  0.4411  1.1059  2.3770
 6660SOL     OW31438   2.585   2.407   2.182  0.3700 -0.1514  0.1584
 6660SOL    HW131439   2.508   2.446   2.142  0.9566 -1.2153 -1.9895
 6660SOL    HW231440   2.621   2.359   2.108 -1.2030  0.7921 -1.2135
 6661SOL     OW31441   4.300   1.599   0.430  0.1388 -0.0532  0.0147
 6661SOL    HW131442   4.282   1.518   0.382  1.8122  0.9235 -2.2254
 6661SOL    HW231443   4.377   1.560   0.473  1.5463  0.2208 -2.2894
 6662SOL     OW31444   1.635   1.222   4.812 -0.1735  0.9063 -0.1161
 6662SOL    HW131445   1.718   1.188   4.845 -0.4778 -0.7282 -1.0097
 6662SOL    HW231446   1.570   1.193   4.876  0.5601  0.6483  0.5163
 6663SOL     OW31447   3.136   2.645   7.659 -0.0159 -0.1125  0.1351
 6663SOL    HW131448   3.204   2.586   7.690  1.5308  2.0245  0.7329
 6663SOL    HW231449   3.176   2.688   7.583 -2.0373  1.7086  0.0787
 6664SOL     OW31450   0.473   3.777   5.557  0.1204 -0.3553  0.7978
 6664SOL    HW131451   0.485   3.762   5.651 -1.6199 -1.6751  0.8135
 6664SOL    HW231452   0.378   3.772   5.547  0.4664 -0.4220 -2.5409
 6665SOL     OW31453   2.983   4.309   4.593 -0.0588  0.5423 -0.3980
 6665SOL    HW131454   3.032   4.256   4.530 -0.8214 -1.1721  0.4268
 6665SOL    HW231455   2.918   4.330   4.526 -1.7094 -1.2689  0.6368
 6666SOL     OW31456   1.187   0.860  12.433 -0.0098  0.3896  0.0415
 6666SOL    HW131457   1.236   0.931  12.474  1.5237 -0.7126  0.1096
 6666SOL    HW231458   1.166   0.804  12.508 -2.0692 -0.6795 -1.3406
 6667SOL     OW31459   3.743   4.356  14.772 -0.0868  0.0662 -0.1158
 6667SOL    HW131460   3.701   4.288  14.720 -0.1371  0.5035 -0.6407
 6667SOL    HW231461   3.789   4.302  14.837  0.0916  0.6752  0.2618
 6668SOL     OW31462   2.233   1.609   7.522 -0.3226  0.6909 -0.5094
 6668SOL    HW131463   2.328   1.603   7.532 -0.4404 -0.1237  0.0890
 6668SOL    HW231464   2.224   1.625   7.616 -1.5805  0.9949 -0.6816
 6669SOL     OW31465   1.986   3.932   3.977  0.7736 -0.0228 -0.2730
 6669SOL    HW131466   1.962   3.855   3.924 -1.3656  0.3170  0.2015
 6669SOL    HW231467   2.040   3.892   4.045  1.7833  3.6877  1.0821
 6670SOL     OW31468   2.326   3.480   4.815 -0.3898  0.2842 -0.4391
 6670SOL    HW131469   2.290   3.491   4.903  1.8742  0.8037  0.4308
 6670SOL    HW231470   2.246   3.466   4.765 -0.7003  0.3762  0.0331
 6671SOL     OW31471   1.667   1.391   3.051  0.4219  0.4015  0.3796
 6671SOL    HW131472   1.573   1.377   3.065  0.2538 -1.2209 -2.3945
 6671SOL    HW231473   1.693   1.314   3.000 -1.9412 -0.1168 -0.0523
 6672SOL     OW31474   0.693   0.879   1.602  0.6218  0.4957  0.0704
 6672SOL    HW131475   0.760   0.842   1.545  0.1804  1.3918 -1.0381
 6672SOL    HW231476   0.721   0.855   1.690 -0.9081 -3.5331 -0.5467
 6673SOL     OW31477   0.396   2.799   7.141  0.0118  0.1708 -0.5807
 6673SOL    HW131478   0.466   2.840   7.090  1.4638 -1.7029 -0.1078
 6673SOL    HW231479   0.322   2.819   7.083  0.0982 -1.8255 -1.3890
 6674SOL     OW31480   0.898   2.368   8.016 -0.3345  0.1750  0.3636
 6674SOL    HW131481   0.983   2.370   8.060  0.7691  3.8054 -1.9516
 6674SOL    HW231482   0.852   2.340   8.095  0.1777  1.1092  1.0000
 6675SOL     OW31483   0.685   1.611   3.113 -0.2774 -0.1339 -0.5132
 6675SOL    HW131484   0.614   1.668   3.083 -1.3281 -1.9560 -1.5054
 6675SOL    HW231485   0.720   1.588   3.027  1.0317 -0.4930  0.1168
 6676SOL     OW31486   0.068   3.172   6.927  0.0555 -0.5820 -0.0083
 6676SOL    HW131487   0.082   3.078   6.941  1.6853 -0.6046 -1.7716
 6676SOL    HW231488   0.066   3.174   6.831  1.3414  0.3756 -0.0102
 6677SOL     OW31489   1.038   4.272  11.070  0.0155  0.4529 -0.3369
 6677SOL    HW131490   1.056   4.256  11.162 -1.9129  0.9620  0.1164
 6677SOL    HW231491   1.091   4.208  11.023  0.6751 -1.5396  3.1484
 6678SOL     OW31492   1.215   1.272  12.206 -0.0024 -0.4685  0.0193
 6678SOL    HW131493   1.134   1.232  12.176  0.3345  2.0311 -4.3199
 6678SOL    HW231494   1.202   1.354  12.157  1.2517 -1.1397 -1.4341
 6679SOL     OW31495   1.979   3.210   5.313 -0.8550  0.3811  0.7316
 6679SOL    HW131496   2.030   3.200   5.232 -0.1583  3.6163  0.7575
 6679SOL    HW231497   2.031   3.268   5.368  0.5981 -0.4682  0.2459
 6680SOL     OW31498   2.931   0.169   0.558 -0.0732  0.2373 -0.2278
 6680SOL    HW131499   2.946   0.256   0.594 -0.6696 -1.0435  3.0664
 6680SOL    HW231500   2.920   0.117   0.638  3.3162 -0.5520 -0.2836
 6681SOL     OW31501   1.701   1.313   2.570 -0.3971 -0.1944  0.4800
 6681SOL    HW131502   1.703   1.380   2.639  0.0014 -1.1422  1.3781
 6681SOL    HW231503   1.735   1.375   2.504  0.2440 -1.5753 -0.4800
 6682SOL     OW31504   4.504   1.129   7.781  0.6687 -0.3749  0.2694
 6682SOL    HW131505   4.450   1.110   7.858 -0.6023  0.4553 -0.4101
 6682SOL    HW231506   4.588   1.089   7.802 -0.1594 -1.1668  2.0559
 6683SOL     OW31507   4.281   0.382   7.624  0.4382 -0.0566  0.6988
 6683SOL    HW131508   4.330   0.317   7.573  0.1895  1.1712 -1.1131
 6683SOL    HW231509   4.273   0.454   7.561  1.5739 -1.1791 -0.7485
 6684SOL     OW31510   4.132   3.368   2.304 -0.0752  0.5057 -0.1884
 6684SOL    HW131511   4.135   3.445   2.247  3.4039  0.3079 -0.2661
 6684SOL    HW231512   4.095   3.405   2.384 -0.5461 -2.2903  0.8854
 6685SOL     OW31513   2.821   1.255   5.344  0.0551  0.1979 -0.0208
 6685SOL    HW131514   2.901   1.214   5.312 -0.0427  0.7282 -0.9617
 6685SOL    HW231515   2.794   1.215   5.426  0.3580 -0.3230 -0.1789
 6686SOL     OW31516   0.492   1.163   0.811 -0.2305 -0.0189 -0.5221
 6686SOL    HW131517   0.489   1.201   0.724  1.2509 -0.5452 -0.7949
 6686SOL    HW231518   0.400   1.165   0.838  0.1310 -0.2928  0.7492
 6687SOL     OW31519   1.116   1.746   3.111 -0.1647  0.5319 -0.1202
 6687SOL    HW131520   1.054   1.740   3.184  0.6757 -2.3252  0.3449
 6687SOL    HW231521   1.189   1.769   3.167 -0.1618  4.1676 -1.5811
 6688SOL     OW31522   1.282   0.280  13.278 -0.2719  0.0146 -0.0754
 6688SOL    HW131523   1.354   0.294  13.217 -1.2222 -0.8804 -1.4169
 6688SOL    HW231524   1.284   0.184  13.275  0.7802  0.0856 -1.7467
 6689SOL     OW31525   4.494   4.418   9.957 -0.0168 -0.0797 -0.2370
 6689SOL    HW131526   4.450   4.414  10.042 -0.4327 -0.4071 -0.4667
 6689SOL    HW231527   4.576   4.465   9.969 -0.2506  0.6019 -1.4064
 6690SOL     OW31528   4.041   2.952   6.267 -0.0768 -0.5769 -0.0712
 6690SOL    HW131529   3.963   2.965   6.320  1.7940 -0.8160  2.7427
 6690SOL    HW231530   4.045   3.037   6.224 -0.1606 -1.2133 -1.3354
 6691SOL     OW31531   0.700   1.063   5.823 -0.1397 -0.0728 -0.1142
 6691SOL    HW131532   0.693   1.157   5.838 -0.0287 -0.2574  1.0809
 6691SOL    HW231533   0.748   1.066   5.740 -1.9877  1.2145 -1.1241
 6692SOL     OW31534   3.750   2.757  11.920  0.1340  1.1096  0.4997
 6692SOL    HW131535   3.777   2.706  11.996 -1.0789 -2.4594 -1.5193
 6692SOL    HW231536   3.664   2.789  11.946 -0.0665  0.8963  0.1007
 6693SOL     OW31537   4.687   3.052   4.917  0.0717  0.3991  0.1252
 6693SOL    HW131538   4.622   2.993   4.878 -0.4326 -0.1801  1.8553
 6693SOL    HW231539   0.038   3.046   4.853 -0.2582  4.1458 -0.6153
 6694SOL     OW31540   2.976   3.835   4.190 -0.1710 -0.0368 -0.0383
 6694SOL    HW131541   2.912   3.793   4.133 -0.4293  2.0370 -1.2528
 6694SOL    HW231542   2.944   3.923   4.171  2.3384  0.8805 -0.0259
 6695SOL     OW31543   0.130   4.152   7.554 -0.0018 -0.1567  0.2455
 6695SOL    HW131544   0.040   4.168   7.526 -0.0218  0.6419  0.7581
 6695SOL    HW231545   0.139   4.057   7.543  0.5771 -0.0323 -0.3168
 6696SOL     OW31546   3.215   2.241   7.362  0.1024  0.7037  0.5517
 6696SOL    HW131547   3.137   2.207   7.406  0.3744 -0.7296 -0.0603
 6696SOL    HW231548   3.208   2.336   7.363  0.8553  0.7462  1.6186
 6697SOL     OW31549   4.010   0.771   4.875 -0.3537  0.2746  0.2830
 6697SOL    HW131550   3.929   0.787   4.828 -0.3208 -1.6550 -0.4640
 6697SOL    HW231551   4.019   0.676   4.887 -1.3971  0.0546 -0.6164
 6698SOL     OW31552   4.456   3.923   7.073  0.3750  0.4711  0.3848
 6698SOL    HW131553   4.540   3.931   7.119  0.8672 -2.6268  0.0460
 6698SOL    HW231554   4.451   3.988   7.003  0.7824 -0.0381 -0.1202
 6699SOL     OW31555   4.681   3.333   4.329  0.1578 -0.6422  0.2639
 6699SOL    HW131556   4.698   3.414   4.282 -2.1507  0.4112  1.2250
 6699SOL    HW231557   4.629   3.363   4.404 -0.0150 -0.6691  0.1556
 6700SOL     OW31558   1.166   3.753  16.272  0.1558  1.0694  0.7309
 6700SOL    HW131559   1.136   3.821  16.333  0.3889  2.1115 -0.3285
 6700SOL    HW231560   1.089   3.696  16.274  0.7997  0.1499 -0.6316
 6701SOL     OW31561   0.478   2.802   1.878  0.1579  0.1642  0.8461
 6701SOL    HW131562   0.460   2.896   1.875  0.5693  0.2904  2.2619
 6701SOL    HW231563   0.450   2.794   1.969 -1.4201 -0.8851  0.2653
 6702SOL     OW31564   0.937   1.347   7.387  1.3417 -0.3043 -0.2111
 6702SOL    HW131565   0.861   1.397   7.357  0.2171 -0.4478  2.3925
 6702SOL    HW231566   1.012   1.398   7.357  0.0045  1.3130 -0.7847
 6703SOL     OW31567   4.327   4.003  15.927  0.1823 -0.2791 -0.4345
 6703SOL    HW131568   4.241   4.024  15.963  1.4661  1.8299  1.3593
 6703SOL    HW231569   4.335   3.908  15.937 -0.0504 -0.1592  0.8776
 6704SOL     OW31570   1.185   1.503   6.359  0.8388  0.6764  0.0425
 6704SOL    HW131571   1.109   1.494   6.301 -1.1425 -0.2839  2.7994
 6704SOL    HW231572   1.247   1.454   6.305 -1.8054 -1.0799 -1.3888
 6705SOL     OW31573   2.967   3.956  14.099  0.0964  0.4112  0.1870
 6705SOL    HW131574   2.988   3.900  14.173 -0.2817 -0.4815 -0.3836
 6705SOL    HW231575   2.999   4.036  14.140  1.6067 -0.3828  0.5547
 6706SOL     OW31576   1.971   0.160   6.633 -0.6715 -0.4706 -0.0046
 6706SOL    HW131577   1.980   0.223   6.704  1.8234 -2.2106  1.2152
 6706SOL    HW231578   1.892   0.186   6.585 -0.6885  1.4128  1.0447
 6707SOL     OW31579   2.622   2.560   6.320  0.1432 -1.2490 -0.3393
 6707SOL    HW131580   2.616   2.562   6.416  1.1944  0.2355 -0.3062
 6707SOL    HW231581   2.638   2.469   6.296 -0.3819 -1.8082  1.3952
 6708SOL     OW31582   0.914   1.593  17.223  0.0481  0.3442 -0.7379
 6708SOL    HW131583   0.825   1.570  17.249  0.6718 -1.3970 -0.0939
 6708SOL    HW231584   0.964   1.511  17.222 -2.2645 -1.0954  0.7372
 6709SOL     OW31585   0.976   0.621  13.895 -0.3238  0.1704  0.1290
 6709SOL    HW131586   1.042   0.560  13.929  0.7288  1.0982 -0.2473
 6709SOL    HW231587   1.036   0.691  13.869 -1.1594  1.1237  0.7764
 6710SOL     OW31588   3.971   4.712   3.385  0.2279 -0.8922 -0.2722
 6710SOL    HW131589   4.047   4.679   3.336  0.5353 -1.6489  0.7106
 6710SOL    HW231590   4.012   0.056   3.442  1.0404 -2.0069  0.4213
 6711SOL     OW31591   3.300   1.566   8.635  0.1347  0.4093  0.4858
 6711SOL    HW131592   3.236   1.519   8.582  0.1984 -2.6808  3.2117
 6711SOL    HW231593   3.384   1.530   8.608  0.2602 -0.5600  2.1944
 6712SOL     OW31594   3.984   1.349   1.710  0.3302  0.3034  0.3347
 6712SOL    HW131595   3.979   1.258   1.679 -1.9019  1.1253 -1.7588
 6712SOL    HW231596   4.049   1.343   1.780  0.7513 -0.8267 -0.1491
 6713SOL     OW31597   4.103   4.157   3.620 -0.0469 -0.1076 -0.0265
 6713SOL    HW131598   4.108   4.251   3.603 -1.5147 -0.4253 -2.2186
 6713SOL    HW231599   4.096   4.155   3.716  0.5344 -0.7313  0.0009
 6714SOL     OW31600   2.261   1.978   6.596  0.1761  0.2497 -0.1335
 6714SOL    HW131601   2.241   1.987   6.690 -1.6448  1.5169 -0.6578
 6714SOL    HW231602   2.244   1.887   6.573 -0.9389  0.4509 -0.0854
 6715SOL     OW31603   3.630   0.663  15.243  0.1445 -0.6008  0.0190
 6715SOL    HW131604   3.560   0.599  15.232 -1.2800  0.5913  2.1346
 6715SOL    HW231605   3.596   0.706  15.321  1.5146 -2.7463  1.7782
 6716SOL     OW31606   1.596   2.701  11.396 -0.7609  0.0711 -0.2769
 6716SOL    HW131607   1.658   2.767  11.427 -0.7699  0.4753 -1.1360
 6716SOL    HW231608   1.542   2.755  11.338 -0.3382  2.0044  1.1209
 6717SOL     OW31609   1.341   2.075   5.290 -0.2212 -0.2790  0.4639
 6717SOL    HW131610   1.363   2.149   5.347 -0.2012  0.5388 -0.6040
 6717SOL    HW231611   1.272   2.111   5.234  0.6877  2.2228  0.9384
 6718SOL     OW31612   0.612   2.059   8.072 -0.2949 -0.2346  0.3709
 6718SOL    HW131613   0.538   2.011   8.108  0.5753 -0.2370  2.1310
 6718SOL    HW231614   0.659   1.985   8.033 -0.1245  0.5036 -0.8405
 6719SOL     OW31615   1.461   0.622  16.875  0.3901 -0.0145  0.3016
 6719SOL    HW131616   1.441   0.624  16.969  0.5161  0.4694  0.3201
 6719SOL    HW231617   1.458   0.529  16.855  1.2239 -0.1237  0.6570
 6720SOL     OW31618   1.160   2.030   4.141  0.0835 -0.0907 -0.2624
 6720SOL    HW131619   1.092   2.067   4.196  0.0358 -1.7076  0.7844
 6720SOL    HW231620   1.167   1.937   4.163 -2.9148 -0.9376 -2.9916
 6721SOL     OW31621   4.076   1.957   7.139 -0.1057 -0.2576 -0.6141
 6721SOL    HW131622   4.036   1.941   7.224 -1.5387  0.2244 -1.1887
 6721SOL    HW231623   4.167   1.941   7.164  0.3032  1.2677 -1.1289
 6722SOL     OW31624   0.432   0.192   5.710 -0.1636  0.0452  0.2010
 6722SOL    HW131625   0.467   0.236   5.786 -0.5877 -1.5618  1.3340
 6722SOL    HW231626   0.369   0.252   5.670  0.0868  1.3688  1.8266
 6723SOL     OW31627   1.078   4.677   2.535  0.4808  0.3816 -0.2637
 6723SOL    HW131628   1.118   0.027   2.484  0.8039  0.9008  0.7283
 6723SOL    HW231629   1.040   4.634   2.458 -0.1302  0.3800  0.0434
 6724SOL     OW31630   2.800   1.892   6.693  0.4742 -0.1905  0.5807
 6724SOL    HW131631   2.761   1.815   6.651 -0.2519  0.9086 -0.7663
 6724SOL    HW231632   2.862   1.913   6.623  0.3971  2.4488  1.3366
 6725SOL     OW31633   4.192   1.002   0.963 -0.3052  0.2582 -0.1386
 6725SOL    HW131634   4.192   1.022   0.869  2.7947 -2.2138 -0.6898
 6725SOL    HW231635   4.108   0.959   0.978  1.0740 -2.2191  0.4078
 6726SOL     OW31636   3.499   4.510   2.810 -0.3720 -0.2067  0.5435
 6726SOL    HW131637   3.450   4.430   2.794 -1.1872  0.3919  0.0961
 6726SOL    HW231638   3.546   4.538   2.731 -1.9926  2.1001  0.3934
 6727SOL     OW31639   4.431   1.980   0.653 -0.2362  0.0079 -0.2870
 6727SOL    HW131640   4.501   2.018   0.600 -0.7296  2.2599  0.6695
 6727SOL    HW231641   4.475   1.957   0.735 -1.8967 -0.0840  0.5816
 6728SOL     OW31642   2.470   0.236   7.148  0.0442  0.3306 -0.3311
 6728SOL    HW131643   2.562   0.249   7.168  0.3900 -1.3259 -0.7740
 6728SOL    HW231644   2.478   0.173   7.076 -1.8963 -0.3506  0.0364
 6729SOL     OW31645   0.950   0.028   5.466 -0.8662  0.3286  0.0212
 6729SOL    HW131646   1.028   0.081   5.450 -2.0483  2.2483  0.5289
 6729SOL    HW231647   0.983   4.707   5.546 -3.1942 -2.4845 -0.4656
 6730SOL     OW31648   3.460   4.128   2.909  0.0178  0.0839  0.9610
 6730SOL    HW131649   3.478   4.136   3.003 -0.2947 -0.5148  1.0699
 6730SOL    HW231650   3.496   4.042   2.889  3.4645  1.6106  0.6140
 6731SOL     OW31651   1.185   2.302   4.006 -0.4133  0.2557  0.2704
 6731SOL    HW131652   1.115   2.245   3.974  1.5986 -0.6603 -2.4502
 6731SOL    HW231653   1.132   2.382   4.018 -0.4673 -0.0289  1.8175
 6732SOL     OW31654   1.062   4.563  11.022  0.1297  0.3260 -0.5046
 6732SOL    HW131655   1.011   4.576  11.102  1.2462  0.2437  0.2238
 6732SOL    HW231656   1.074   4.468  11.020  0.7636  0.3915  0.3857
 6733SOL     OW31657   3.285   1.498   7.332  0.2761 -0.3319  0.5767
 6733SOL    HW131658   3.262   1.407   7.353  1.0333 -0.7397 -0.3428
 6733SOL    HW231659   3.201   1.544   7.340  1.4532  1.9847 -0.4893
 6734SOL     OW31660   2.793   1.091   6.402 -0.1970  0.3019 -0.3721
 6734SOL    HW131661   2.714   1.046   6.371 -0.3402 -1.5448  2.7545
 6734SOL    HW231662   2.804   1.132   6.316  1.2590 -0.2765 -0.4653
 6735SOL     OW31663   4.062   1.393  12.633 -1.2999  0.0826  0.3501
 6735SOL    HW131664   4.033   1.306  12.607  1.3278 -0.1362 -1.7220
 6735SOL    HW231665   4.133   1.363  12.689 -1.3671 -3.1529 -1.3574
 6736SOL     OW31666   3.065   1.475   7.845 -0.3674 -0.0816 -0.0298
 6736SOL    HW131667   3.014   1.555   7.846  0.6508  0.5772 -0.7588
 6736SOL    HW231668   3.035   1.432   7.765 -0.2330  1.1780 -0.7414
 6737SOL     OW31669   4.117   1.554   5.884  0.4465  0.9440  0.2751
 6737SOL    HW131670   4.136   1.578   5.975  2.0239 -1.7990  0.6897
 6737SOL    HW231671   4.030   1.518   5.899  0.0139  1.4258 -1.1582
 6738SOL     OW31672   2.278   3.878  15.355  0.0002 -0.1411 -0.2242
 6738SOL    HW131673   2.270   3.970  15.379 -1.3358  0.7190 -3.8494
 6738SOL    HW231674   2.192   3.851  15.387  0.2704 -0.8766 -0.1229
 6739SOL     OW31675   2.438   2.413   8.789  0.2840  0.8870 -0.3235
 6739SOL    HW131676   2.345   2.400   8.775  0.5517 -2.3425  0.9151
 6739SOL    HW231677   2.447   2.500   8.751 -2.2922  0.4567 -1.9248
 6740SOL     OW31678   0.587   1.320   6.256 -0.1141  0.1586 -0.0148
 6740SOL    HW131679   0.507   1.272   6.234 -0.2945  0.4749 -0.0407
 6740SOL    HW231680   0.614   1.379   6.186  0.0933  0.3732  0.2482
 6741SOL     OW31681   3.969   4.574   4.924  0.1144 -0.1631  0.4463
 6741SOL    HW131682   3.938   4.564   4.834  0.6507 -1.5394  0.4129
 6741SOL    HW231683   4.052   4.612   4.897  1.2740 -1.1511  2.6421
 6742SOL     OW31684   3.867   1.313   5.444 -0.3952 -0.4272  0.3543
 6742SOL    HW131685   3.845   1.248   5.510 -1.4164 -1.3300 -0.8626
 6742SOL    HW231686   3.951   1.338   5.481  0.2699 -0.7422 -0.9455
 6743SOL     OW31687   0.426   0.393   7.254 -0.0971 -0.4657 -0.1041
 6743SOL    HW131688   0.438   0.302   7.283 -0.5723 -1.0356 -1.7053
 6743SOL    HW231689   0.463   0.392   7.166  1.4998  1.9381  0.5707
 6744SOL     OW31690   0.416   0.212   2.833  0.4187  0.8190 -0.2227
 6744SOL    HW131691   0.504   0.176   2.841  0.0840  0.0866  0.0985
 6744SOL    HW231692   0.440   0.304   2.823 -1.8870  1.2296 -1.9505
 6745SOL     OW31693   0.760   0.004   9.157 -0.1692 -0.2143  0.0990
 6745SOL    HW131694   0.840   0.047   9.187  1.1972 -2.2089 -0.7166
 6745SOL    HW231695   0.743   0.022   9.065 -0.6250 -2.8119 -0.3049
 6746SOL     OW31696   2.966   0.435  11.349 -0.0099  0.5531  0.0623
 6746SOL    HW131697   2.915   0.470  11.422  0.5623 -0.1884  0.8133
 6746SOL    HW231698   2.996   0.515  11.305 -0.1053 -0.2192 -1.3911
 6747SOL     OW31699   2.905   1.231   0.466 -0.1120  0.0987 -0.9435
 6747SOL    HW131700   2.815   1.208   0.488  0.0882 -0.0985 -0.3325
 6747SOL    HW231701   2.917   1.187   0.382 -0.0941  1.9923 -1.9373
 6748SOL     OW31702   2.716   1.775   7.199 -0.3930  0.2758 -0.1208
 6748SOL    HW131703   2.799   1.820   7.182 -0.3711  0.6911  1.0830
 6748SOL    HW231704   2.666   1.796   7.120 -0.7921 -3.2449 -0.8193
 6749SOL     OW31705   4.638   4.199   3.235  0.4841  0.2276 -0.1518
 6749SOL    HW131706   4.634   4.144   3.157 -0.6711  1.0848 -0.6784
 6749SOL    HW231707   0.006   4.176   3.264  0.7351 -1.0539 -1.9885
 6750SOL     OW31708   3.679   1.468   6.414  0.0550  0.4725 -0.1164
 6750SOL    HW131709   3.636   1.408   6.474 -1.8834 -0.3451 -2.3170
 6750SOL    HW231710   3.663   1.552   6.457 -0.4389 -0.3540  1.3178
 6751SOL     OW31711   0.973   3.767   5.919  0.1919  0.6534 -0.0976
 6751SOL    HW131712   1.036   3.698   5.942  0.6564  1.6218  1.5434
 6751SOL    HW231713   0.921   3.765   5.999 -0.1488 -3.1891 -0.4113
 6752SOL     OW31714   2.455   1.982   3.935 -0.4620 -0.1928  0.2403
 6752SOL    HW131715   2.433   1.938   4.017  2.7928  1.1039  1.7977
 6752SOL    HW231716   2.417   2.066   3.961  0.4013  0.3069 -0.1094
 6753SOL     OW31717   0.113   0.180   1.270 -0.2526  0.2368 -0.2035
 6753SOL    HW131718   0.191   0.230   1.245 -0.1835 -0.0520 -0.5675
 6753SOL    HW231719   0.157   0.095   1.266 -1.2200 -0.2812  0.2173
 6754SOL     OW31720   3.415   0.409  13.620 -0.6118  0.3381  0.2010
 6754SOL    HW131721   3.380   0.321  13.634 -0.7207  0.0732 -1.6800
 6754SOL    HW231722   3.352   0.454  13.677  1.7415  2.4444  1.1454
 6755SOL     OW31723   0.054   0.384   1.714 -0.2554 -0.5110 -0.2459
 6755SOL    HW131724   0.029   0.312   1.656 -0.2737 -0.1514 -0.6873
 6755SOL    HW231725   0.125   0.429   1.668 -1.1341  0.2950 -0.8083
 6756SOL     OW31726   1.395   3.669   7.995 -0.3860  0.0113  0.0394
 6756SOL    HW131727   1.348   3.653   7.913  0.6833  0.1840 -0.5981
 6756SOL    HW231728   1.414   3.763   7.991  2.9748 -0.6478  0.5978
 6757SOL     OW31729   1.933   2.495  13.565  0.0021  0.0119  0.3481
 6757SOL    HW131730   1.993   2.451  13.626 -1.7301 -2.8586 -0.0152
 6757SOL    HW231731   1.931   2.439  13.488 -0.9363 -0.2182  0.5438
 6758SOL     OW31732   1.277   3.442  14.459  0.4069 -0.2031 -0.5996
 6758SOL    HW131733   1.313   3.529  14.440  0.0740  0.2879  0.9376
 6758SOL    HW231734   1.336   3.387  14.409  0.9598  2.0539 -2.4469
 6759SOL     OW31735   0.640   3.469   9.640  0.2962 -0.2672  0.3076
 6759SOL    HW131736   0.577   3.527   9.682  3.8513  3.1114  1.0512
 6759SOL    HW231737   0.724   3.490   9.683  0.4140 -0.1212  0.0045
 6760SOL     OW31738   4.258   4.136   6.393  0.0554  0.1343  0.1887
 6760SOL    HW131739   4.210   4.205   6.347  1.8508  0.1226 -1.7191
 6760SOL    HW231740   4.337   4.179   6.426 -0.7522  1.5700  0.2419
 6761SOL     OW31741   3.047   3.026   6.288  0.1481 -0.4183 -0.5268
 6761SOL    HW131742   2.960   3.051   6.258  0.4725 -0.5231 -1.5499
 6761SOL    HW231743   3.030   3.031   6.382 -0.5178  1.9723 -0.7866
 6762SOL     OW31744   1.817   1.645   8.337  0.7450 -0.6430  0.1059
 6762SOL    HW131745   1.806   1.739   8.323  1.7444 -1.0743 -3.5866
 6762SOL    HW231746   1.758   1.637   8.413  1.1595 -0.8835  0.4029
 6763SOL     OW31747   2.809   0.277  16.590  0.2426  0.0261  0.3314
 6763SOL    HW131748   2.871   0.214  16.554  2.4424  2.0856  0.5876
 6763SOL    HW231749   2.748   0.294  16.518 -0.5428  0.5409  1.1139
 6764SOL     OW31750   2.770   0.861   3.624  0.6663 -0.5400  0.3564
 6764SOL    HW131751   2.763   0.951   3.594 -1.0942 -1.1245 -0.9741
 6764SOL    HW231752   2.838   0.829   3.564  1.0067 -1.0873  1.0286
 6765SOL     OW31753   0.751   3.792   7.799 -0.1471 -0.3752  0.0697
 6765SOL    HW131754   0.702   3.841   7.733  1.7593  1.5023  0.0613
 6765SOL    HW231755   0.789   3.728   7.739  3.6983 -1.8499  4.0730
 6766SOL     OW31756   2.975   2.009   3.723  0.2374  0.3472  0.0390
 6766SOL    HW131757   2.899   2.065   3.742 -0.9571 -0.7626 -1.5003
 6766SOL    HW231758   2.993   1.977   3.811 -1.5460 -1.1568 -0.1479
 6767SOL     OW31759   0.054   4.236  11.407  0.0492  0.8375 -0.5419
 6767SOL    HW131760   0.087   4.310  11.355  2.4720  0.6941  0.8116
 6767SOL    HW231761   0.114   4.166  11.381 -0.8218  1.0240 -3.0918
 6768SOL     OW31762   0.785   2.700   6.095  0.0950  0.0976 -0.1361
 6768SOL    HW131763   0.843   2.629   6.069  1.5681  1.0296  0.5648
 6768SOL    HW231764   0.842   2.760   6.143  0.8887  0.4409 -1.5038
 6769SOL     OW31765   0.641   4.416   6.318  0.0903 -0.2512 -0.1409
 6769SOL    HW131766   0.637   4.462   6.234 -3.4796  0.0592  0.2317
 6769SOL    HW231767   0.593   4.338   6.292  1.9270 -1.2839 -0.4680
 6770SOL     OW31768   1.355   3.137  10.372 -0.6201 -0.2217 -0.0320
 6770SOL    HW131769   1.344   3.121  10.279 -2.0004 -0.6668  0.2172
 6770SOL    HW231770   1.264   3.121  10.395 -0.5744 -0.2012  0.1648
 6771SOL     OW31771   3.791   1.012   4.407 -0.2213  0.1123 -0.3946
 6771SOL    HW131772   3.869   0.958   4.397 -2.1007 -2.1809 -2.5786
 6771SOL    HW231773   3.737   0.979   4.335  0.4406 -3.5891  0.7777
 6772SOL     OW31774   2.080   0.878   5.692  0.2381  0.4957  0.0548
 6772SOL    HW131775   2.157   0.902   5.743  0.0704  0.5455  0.2849
 6772SOL    HW231776   2.124   0.879   5.607 -3.1367 -0.3375 -1.7111
 6773SOL     OW31777   4.155   4.455   6.672  0.6501 -0.0251  0.3513
 6773SOL    HW131778   4.120   4.460   6.582 -1.2135  0.8131  1.1141
 6773SOL    HW231779   4.136   4.544   6.702  1.8041  0.3845 -0.1385
 6774SOL     OW31780   2.676   3.419   7.757  0.0511  0.0184 -0.0279
 6774SOL    HW131781   2.749   3.462   7.801  1.0455 -2.2614  0.5478
 6774SOL    HW231782   2.618   3.413   7.833  0.9256  0.1570  0.6396
 6775SOL     OW31783   3.463   3.481   7.954  0.2497 -0.2299 -0.1882
 6775SOL    HW131784   3.453   3.519   8.041 -2.5242 -2.4877  0.5066
 6775SOL    HW231785   3.527   3.536   7.910 -1.6181  0.3907 -2.1381
 6776SOL     OW31786   0.266   4.418  12.978 -0.2695  0.3579 -0.2333
 6776SOL    HW131787   0.326   4.400  13.051  1.5265  1.4376 -1.4191
 6776SOL    HW231788   0.217   4.496  13.004  0.8862  1.3080 -0.8580
 6777SOL     OW31789   4.032   1.560  13.652  0.1476 -0.4605 -0.4226
 6777SOL    HW131790   4.041   1.485  13.711  1.0878 -1.4095 -1.7834
 6777SOL    HW231791   3.976   1.621  13.700  2.5748  1.4051  0.0645
 6778SOL     OW31792   1.036   1.507   8.429  0.6118 -0.2172 -0.0015
 6778SOL    HW131793   1.089   1.493   8.350 -1.3896 -1.2063 -1.1614
 6778SOL    HW231794   1.099   1.510   8.501  2.0497  0.8368 -1.2875
 6779SOL     OW31795   2.684   1.238   2.109 -0.2435 -0.2491 -0.6411
 6779SOL    HW131796   2.691   1.257   2.015  1.8430 -0.1493 -0.4703
 6779SOL    HW231797   2.739   1.302   2.154 -0.1571 -0.8936  0.1793
 6780SOL     OW31798   0.614   1.282   6.772 -0.4066  0.2113 -0.0205
 6780SOL    HW131799   0.703   1.310   6.795 -0.1947  0.2434 -0.8649
 6780SOL    HW231800   0.624   1.315   6.683  1.0564 -1.2234 -0.4055
 6781SOL     OW31801   0.656   2.106   2.349  0.2079  0.6897 -0.1709
 6781SOL    HW131802   0.698   2.020   2.349 -1.1259  0.0338 -0.2349
 6781SOL    HW231803   0.718   2.139   2.283  3.4235 -0.3136  2.3388
 6782SOL     OW31804   4.658   3.177  13.242 -0.5996 -0.0938  0.3982
 6782SOL    HW131805   4.605   3.215  13.172  0.8644  1.2682  0.0278
 6782SOL    HW231806   4.707   3.251  13.278 -2.8084  1.1115  0.9110
 6783SOL     OW31807   4.154   2.230   4.772  0.0332 -0.0557  0.4477
 6783SOL    HW131808   4.186   2.294   4.708  0.0572 -0.4879  0.0269
 6783SOL    HW231809   4.169   2.283   4.850  0.9835  0.1650  0.1218
 6784SOL     OW31810   0.904   1.365   2.598  0.1460 -0.0312  0.3551
 6784SOL    HW131811   0.894   1.440   2.539  1.0958 -2.2756 -2.6597
 6784SOL    HW231812   0.813   1.334   2.605  0.6280 -1.6108 -0.4639
 6785SOL     OW31813   4.221   0.336  15.802  0.2530 -0.2399  0.0668
 6785SOL    HW131814   4.146   0.296  15.758 -0.3595 -0.8606  1.6887
 6785SOL    HW231815   4.181   0.407  15.852  0.5556  0.1454 -0.2356
 6786SOL     OW31816   3.366   3.408   2.509 -0.0969 -0.0417  0.1904
 6786SOL    HW131817   3.351   3.316   2.530  0.6221  0.2164  1.7886
 6786SOL    HW231818   3.280   3.443   2.534  0.4461  1.8536 -0.5405
 6787SOL     OW31819   1.224   0.772   5.226  0.1500 -0.2008  0.4856
 6787SOL    HW131820   1.276   0.769   5.146  1.3945  2.2865  1.1945
 6787SOL    HW231821   1.133   0.763   5.198  0.4948  0.9653 -1.0210
 6788SOL     OW31822   2.081   2.957  12.004  0.6701 -0.1494  0.1288
 6788SOL    HW131823   2.084   3.004  11.920 -2.6481 -0.4410 -0.1280
 6788SOL    HW231824   2.035   3.028  12.048  2.0471  1.6910 -1.3613
 6789SOL     OW31825   4.448   0.840   8.815 -0.0849 -0.0438  0.5212
 6789SOL    HW131826   4.504   0.801   8.882 -1.5074 -0.3018  1.5539
 6789SOL    HW231827   4.378   0.776   8.798  0.4222 -1.1865  2.7784
 6790SOL     OW31828   3.485   0.979  17.067  0.5772  0.6213  0.1566
 6790SOL    HW131829   3.398   0.998  17.102 -1.1751 -1.7246 -2.8995
 6790SOL    HW231830   3.518   0.965  17.156  0.1764  0.9955  0.3630
 6791SOL     OW31831   0.381   1.385  12.659 -0.2424  0.3978  0.2316
 6791SOL    HW131832   0.295   1.345  12.648  0.8583 -1.3749 -2.0454
 6791SOL    HW231833   0.434   1.319  12.614 -0.2123  1.1489 -0.8389
 6792SOL     OW31834   2.602   0.343   5.285  0.5845 -0.3766 -0.5737
 6792SOL    HW131835   2.510   0.324   5.264 -0.1980  3.0575 -0.1682
 6792SOL    HW231836   2.605   0.328   5.380 -1.2683  0.1123 -0.4286
 6793SOL     OW31837   0.220   4.246   7.033 -0.1076  0.2768 -0.1045
 6793SOL    HW131838   0.283   4.253   7.105  0.9154  0.7006 -1.0385
 6793SOL    HW231839   0.197   4.338   7.022 -0.9233  0.1040  0.1527
 6794SOL     OW31840   3.170   3.330   7.778  0.0166  0.4450  0.3112
 6794SOL    HW131841   3.203   3.266   7.714 -2.9869  0.3346 -1.1518
 6794SOL    HW231842   3.200   3.297   7.863 -0.1116  1.0377  0.5836
 6795SOL     OW31843   2.208   2.240  16.639  0.0608  0.0059  0.0197
 6795SOL    HW131844   2.114   2.227  16.626  0.0297  0.5449 -0.3050
 6795SOL    HW231845   2.238   2.205  16.555 -1.4074 -0.5408 -0.2623
 6796SOL     OW31846   4.559   0.558   5.062  0.7061 -0.3036  0.2349
 6796SOL    HW131847   4.495   0.489   5.047 -0.7087  1.1516 -0.5057
 6796SOL    HW231848   4.569   0.590   4.973 -1.4342  0.0362  0.1133
 6797SOL     OW31849   1.194   1.044  15.302 -0.3429  0.3638 -0.0203
 6797SOL    HW131850   1.133   0.991  15.353  0.6047 -1.7020 -1.0741
 6797SOL    HW231851   1.277   1.015  15.340 -0.1280  0.8196 -0.1398
 6798SOL     OW31852   3.621   4.213   9.076  0.1810 -0.6587  0.0436
 6798SOL    HW131853   3.550   4.258   9.031 -0.2451 -0.0302  1.3248
 6798SOL    HW231854   3.577   4.171   9.150 -1.4227 -0.1618 -0.6184
 6799SOL     OW31855   2.162   0.076   6.031 -0.1851 -0.5762 -0.2769
 6799SOL    HW131856   2.192   0.057   5.942  1.0194  3.0626 -0.6223
 6799SOL    HW231857   2.070   0.092   6.011 -0.4074  1.9251  2.7617
 6800SOL     OW31858   0.955   2.671   3.096  0.5720 -0.8405 -0.2064
 6800SOL    HW131859   1.026   2.658   3.158 -1.8051 -1.9322  2.3003
 6800SOL    HW231860   0.991   2.730   3.030  0.6761 -0.7242 -0.0447
 6801SOL     OW31861   2.832   3.200   8.515 -0.3673 -0.3418 -0.0233
 6801SOL    HW131862   2.807   3.154   8.596 -0.2180 -1.4812 -0.6255
 6801SOL    HW231863   2.884   3.134   8.469  1.1681  0.5048  0.4847
 6802SOL     OW31864   2.065   0.071   4.072  0.2955  0.2108 -0.1219
 6802SOL    HW131865   2.027   0.088   3.986 -0.9716  0.1691  0.4377
 6802SOL    HW231866   1.997   0.016   4.110  1.8689 -1.6093  0.0847
 6803SOL     OW31867   3.524   3.944   2.685  0.4124 -0.2553 -0.1672
 6803SOL    HW131868   3.514   3.877   2.617 -1.6233 -1.0265  0.8966
 6803SOL    HW231869   3.598   3.904   2.731  0.2091 -0.7806 -0.2975
 6804SOL     OW31870   1.727   2.994   4.080 -0.1009 -0.4880 -0.0219
 6804SOL    HW131871   1.806   3.016   4.130  0.3541  0.1335 -1.0227
 6804SOL    HW231872   1.730   3.057   4.008 -0.4818 -1.3303 -0.7806
 6805SOL     OW31873   1.231   0.121   9.038 -0.3831 -0.0330 -0.0288
 6805SOL    HW131874   1.316   0.158   9.015  1.1714 -3.9170 -0.4407
 6805SOL    HW231875   1.259   0.047   9.091 -1.1420 -0.6663 -0.5114
 6806SOL     OW31876   2.818   4.701   4.725 -0.3244  0.5702 -0.3523
 6806SOL    HW131877   2.786   0.066   4.754 -2.2032 -0.4831  0.7104
 6806SOL    HW231878   2.742   4.666   4.679 -0.0842 -1.5119  0.8566
 6807SOL     OW31879   2.025   3.711   8.351 -0.0991  0.2157  0.0804
 6807SOL    HW131880   1.974   3.674   8.279 -1.0436  1.9857 -0.1416
 6807SOL    HW231881   1.973   3.788   8.372  1.9350  0.7956  2.9802
 6808SOL     OW31882   4.549   0.300  16.544 -0.2386 -0.7559 -0.6806
 6808SOL    HW131883   4.568   0.300  16.450  1.0536  0.0236 -0.4102
 6808SOL    HW231884   4.579   0.211  16.565  1.2289  0.2159  1.3632
 6809SOL     OW31885   1.894   0.649  10.146 -0.0769 -0.2495 -0.1996
 6809SOL    HW131886   1.860   0.565  10.177 -0.0990  0.0541  0.5928
 6809SOL    HW231887   1.952   0.663  10.221  1.8836 -1.7170 -1.4032
 6810SOL     OW31888   0.927   0.352   6.915 -0.4764  0.7325  0.0934
 6810SOL    HW131889   0.965   0.425   6.867  0.5462  1.8414  2.5753
 6810SOL    HW231890   0.886   0.301   6.845  0.4710  0.1039 -0.0139
 6811SOL     OW31891   0.452   4.347   3.354 -0.1019 -0.4505  0.3512
 6811SOL    HW131892   0.360   4.322   3.358 -0.6365  1.5893  0.5441
 6811SOL    HW231893   0.453   4.440   3.333 -0.8652 -0.2517  1.2020
 6812SOL     OW31894   4.342   1.001   1.736  0.7403  0.1442  0.4028
 6812SOL    HW131895   4.262   0.950   1.717  0.6838  0.1697  0.5766
 6812SOL    HW231896   4.306   1.089   1.728 -1.2932 -0.8859 -2.1492
 6813SOL     OW31897   3.851   2.094   1.647 -0.1673  0.2029  0.2358
 6813SOL    HW131898   3.823   2.115   1.736 -0.8553 -1.2666  0.3707
 6813SOL    HW231899   3.774   2.122   1.598 -1.4346 -3.5292  0.0585
 6814SOL     OW31900   0.753   0.200  11.943  0.4195  0.5579 -0.6033
 6814SOL    HW131901   0.712   0.185  11.858  1.2175  0.2571 -0.9323
 6814SOL    HW231902   0.675   0.228  11.991  0.0500 -1.1105 -0.2577
 6815SOL     OW31903   3.241   2.547  12.416 -0.4779  0.0951  0.2576
 6815SOL    HW131904   3.283   2.533  12.331 -2.7845 -1.1502 -0.6773
 6815SOL    HW231905   3.308   2.505  12.471  0.4694  1.8661  0.4373
 6816SOL     OW31906   3.511   3.758   3.046 -0.0620  0.0848  0.1524
 6816SOL    HW131907   3.509   3.808   3.128 -1.1879  1.5391 -0.7795
 6816SOL    HW231908   3.506   3.668   3.077  2.2343 -0.0149  0.2220
 6817SOL     OW31909   0.041   3.150  16.825 -0.3503 -0.6777 -0.2507
 6817SOL    HW131910   0.112   3.115  16.878  0.2692  2.0009  0.7257
 6817SOL    HW231911   0.065   3.134  16.733 -1.0348 -1.6689 -0.2528
 6818SOL     OW31912   3.581   3.351  12.917  0.1927 -0.0567 -0.0608
 6818SOL    HW131913   3.608   3.406  12.843  0.1854 -1.5941 -1.2003
 6818SOL    HW231914   3.600   3.259  12.898  2.5470  0.1193  1.4002
 6819SOL     OW31915   0.924   0.142   1.901 -0.4912  0.0339 -0.4125
 6819SOL    HW131916   0.926   0.164   1.808  0.8133  2.2574  0.1268
 6819SOL    HW231917   0.960   0.222   1.941  1.0227 -0.8176 -0.0760
 6820SOL     OW31918   4.559   2.344   4.914 -0.0315  0.0443 -0.8168
 6820SOL    HW131919   4.630   2.378   4.968 -0.5402  1.2931 -0.9423
 6820SOL    HW231920   4.602   2.301   4.840  0.0987  1.2550 -1.4372
 6821SOL     OW31921   3.333   0.659   8.550 -0.7007 -0.2185  0.1686
 6821SOL    HW131922   3.383   0.700   8.621  3.3926 -1.9328 -1.7061
 6821SOL    HW231923   3.257   0.716   8.553 -0.0234  0.4861  3.3355
 6822SOL     OW31924   4.514   1.366   5.967 -0.6538 -0.0776 -0.3672
 6822SOL    HW131925   4.506   1.457   5.997  2.0082 -0.3635  1.2189
 6822SOL    HW231926   4.593   1.364   5.914 -0.1300 -2.1010  0.5012
 6823SOL     OW31927   1.504   4.260   8.654 -0.2527  0.0259 -0.0877
 6823SOL    HW131928   1.437   4.311   8.609  1.4777 -1.4604 -4.3482
 6823SOL    HW231929   1.450   4.238   8.731  2.6120  2.2549  2.5608
 6824SOL     OW31930   2.234   3.065   7.918 -0.0660  0.3006  0.3270
 6824SOL    HW131931   2.158   3.035   7.868 -1.1920  1.5313  1.2884
 6824SOL    HW231932   2.258   3.146   7.873  3.2148 -1.4105 -1.0446
 6825SOL     OW31933   1.584   2.241   8.417  0.1327  0.4118  0.5816
 6825SOL    HW131934   1.656   2.267   8.358 -0.3810  0.2520 -0.1101
 6825SOL    HW231935   1.612   2.153   8.439  0.8986  0.5051 -0.0020
 6826SOL     OW31936   4.336   0.744  11.225 -0.4575  0.0869  0.1177
 6826SOL    HW131937   4.359   0.721  11.315  0.5145 -0.2782 -0.2184
 6826SOL    HW231938   4.318   0.838  11.231  2.4497  0.5558  1.4186
 6827SOL     OW31939   3.906   2.292   4.396  0.1575  0.5220  0.3617
 6827SOL    HW131940   3.860   2.368   4.361  2.3602  0.4605 -2.7197
 6827SOL    HW231941   3.842   2.259   4.459  1.4216 -1.3711  0.6661
 6828SOL     OW31942   3.983   0.446  13.463  0.4268 -0.4852 -0.1211
 6828SOL    HW131943   3.985   0.427  13.369  1.9289 -0.1063 -0.1673
 6828SOL    HW231944   4.065   0.494  13.474  0.0825 -0.5150  2.7275
 6829SOL     OW31945   2.255   4.307   9.373 -0.0411 -0.0555 -0.1220
 6829SOL    HW131946   2.223   4.218   9.389 -0.1086 -0.2213 -1.2195
 6829SOL    HW231947   2.222   4.354   9.450  1.7713  1.3534 -0.2246
 6830SOL     OW31948   1.696   0.258   6.733  0.6518 -0.3023  0.4917
 6830SOL    HW131949   1.629   0.313   6.774 -1.6731 -0.9688 -2.4446
 6830SOL    HW231950   1.650   0.175   6.746 -4.0474  2.0910 -0.4993
 6831SOL     OW31951   1.690   1.690   1.882  0.3789  0.6733  0.4648
 6831SOL    HW131952   1.601   1.688   1.918 -0.8666 -1.4378 -2.7589
 6831SOL    HW231953   1.706   1.596   1.889  2.0710  0.8716 -1.0037
 6832SOL     OW31954   1.940   3.653   3.941  0.0125  0.3800 -0.0015
 6832SOL    HW131955   1.858   3.701   3.951  0.9651  2.2647 -1.2618
 6832SOL    HW231956   1.938   3.600   4.021  0.7129  1.3317  0.6431
 6833SOL     OW31957   0.340   1.325   1.633 -0.7117 -0.1191 -0.2780
 6833SOL    HW131958   0.273   1.363   1.577 -1.9926  0.7467  1.8327
 6833SOL    HW231959   0.278   1.270   1.682 -0.4414  0.7289  1.0292
 6834SOL     OW31960   0.164   1.040  12.399 -0.6997  0.0830  0.3835
 6834SOL    HW131961   0.097   0.997  12.345 -0.4175 -0.5186  0.5102
 6834SOL    HW231962   0.246   1.021  12.353 -0.7919  1.2254 -0.2509
 6835SOL     OW31963   0.926   2.902   9.770  0.2386 -0.0936  0.1545
 6835SOL    HW131964   0.854   2.875   9.713 -0.5224 -2.3933  2.1785
 6835SOL    HW231965   0.872   2.924   9.846 -1.3917 -1.3858 -0.6160
 6836SOL     OW31966   2.435   1.535   8.640 -0.1113  0.4164 -0.3463
 6836SOL    HW131967   2.488   1.598   8.689 -0.7601 -1.6483  3.0602
 6836SOL    HW231968   2.486   1.524   8.561 -0.2393 -0.1644 -0.3527
 6837SOL     OW31969   4.540   1.575   0.812 -0.4195 -0.3623 -0.1824
 6837SOL    HW131970   4.538   1.513   0.885 -1.4317 -1.9863 -1.5744
 6837SOL    HW231971   4.447   1.595   0.818 -0.5639 -0.4601 -1.9345
 6838SOL     OW31972   2.794   2.467   0.523 -0.4261 -0.1878 -0.1013
 6838SOL    HW131973   2.801   2.371   0.523  1.2596 -0.0569 -0.4076
 6838SOL    HW231974   2.719   2.479   0.581  0.6331 -0.8003  1.4000
 6839SOL     OW31975   1.582   4.539   9.050  0.1886 -0.1609  0.0463
 6839SOL    HW131976   1.657   4.585   9.089  0.9195  0.6773 -2.3337
 6839SOL    HW231977   1.613   4.454   9.018 -4.9898 -1.9275 -0.3104
 6840SOL     OW31978   1.944   0.546   0.373 -0.5642  1.0379 -1.0109
 6840SOL    HW131979   1.945   0.467   0.319 -0.2292 -0.0451  0.5704
 6840SOL    HW231980   1.961   0.510   0.460  0.5285  2.3856 -0.6777
 6841SOL     OW31981   4.395   1.916  17.547 -0.2106  0.2237  0.4612
 6841SOL    HW131982   4.316   1.967  17.532 -0.8739 -0.7187  0.7413
 6841SOL    HW231983   4.453   1.965  17.605  0.1729  0.3403 -0.0292
 6842SOL     OW31984   1.036   2.531   6.388  0.2816 -0.2894 -0.1122
 6842SOL    HW131985   1.077   2.458   6.342  0.7454 -0.8514  1.2066
 6842SOL    HW231986   0.953   2.498   6.422  0.2217  1.6955  1.6763
 6843SOL     OW31987   1.834   3.174   3.454 -0.0604 -0.3345  0.0241
 6843SOL    HW131988   1.848   3.240   3.522 -1.0020  0.3966 -0.4989
 6843SOL    HW231989   1.739   3.176   3.446 -0.0226 -0.7232 -0.5050
 6844SOL     OW31990   4.148   2.518   7.537  0.3162 -0.3082  0.1993
 6844SOL    HW131991   4.099   2.599   7.553 -0.6715 -0.8674  0.0255
 6844SOL    HW231992   4.231   2.546   7.576  0.6364  0.9197 -1.3990
 6845SOL     OW31993   0.058   3.344   2.829  0.4948  0.5639  0.2389
 6845SOL    HW131994   0.032   3.277   2.765 -0.6592  0.4611  0.8264
 6845SOL    HW231995   0.077   3.415   2.767 -1.3357  0.5818 -0.2867
 6846SOL     OW31996   4.483   2.960   8.149  1.1213  0.2543 -0.1992
 6846SOL    HW131997   4.483   2.917   8.064  1.7651 -1.0714  0.4638
 6846SOL    HW231998   4.523   2.885   8.192  0.0985 -0.1120  0.1220
 6847SOL     OW31999   0.820   1.485   3.811  0.1958 -0.3908  0.4630
 6847SOL    HW132000   0.850   1.500   3.901 -0.4823 -1.9008  0.9442
 6847SOL    HW232001   0.905   1.481   3.766  0.4176 -1.6720  0.9717
 6848SOL     OW32002   1.365   2.108  11.092  0.5013 -0.2711 -0.0246
 6848SOL    HW132003   1.399   2.107  11.181 -2.0217  1.7555  0.9815
 6848SOL    HW232004   1.370   2.200  11.065  0.3027 -1.3396 -3.6583
 6849SOL     OW32005   0.121   1.199   5.298  0.0102  0.0229  0.4395
 6849SOL    HW132006   0.035   1.207   5.340  0.0771  1.3153  0.3147
 6849SOL    HW232007   0.109   1.112   5.259 -1.6003  0.2213  0.4657
 6850SOL     OW32008   0.200   2.757  14.161 -0.7739 -0.4217 -0.4375
 6850SOL    HW132009   0.132   2.774  14.225  2.4864  2.8407  2.1370
 6850SOL    HW232010   0.256   2.701  14.215  0.4768  1.0724 -0.1827
 6851SOL     OW32011   1.229   3.824   4.548  0.3478  0.7826 -0.2442
 6851SOL    HW132012   1.205   3.904   4.595 -1.8938  0.0927 -0.1717
 6851SOL    HW232013   1.136   3.798   4.545  0.0480  2.0631 -1.7836
 6852SOL     OW32014   2.649   3.802   6.495 -0.3328  0.4423 -0.6409
 6852SOL    HW132015   2.595   3.781   6.419 -0.0398  1.8056 -1.2244
 6852SOL    HW232016   2.652   3.896   6.479  1.6428  0.4305 -0.2893
 6853SOL     OW32017   4.315   3.883   5.781  0.1751 -0.6515 -0.0929
 6853SOL    HW132018   4.301   3.814   5.716  0.5612 -0.6501 -0.1757
 6853SOL    HW232019   4.312   3.828   5.860 -0.5706  1.1993  1.1616
 6854SOL     OW32020   4.084   1.483   2.018  0.0502 -0.1300  0.3667
 6854SOL    HW132021   4.143   1.524   2.081 -0.9849  1.7548  0.0870
 6854SOL    HW232022   4.067   1.394   2.051  0.2164 -0.8239 -1.4043
 6855SOL     OW32023   1.444   0.995   8.643 -0.2599 -0.1567 -0.1635
 6855SOL    HW132024   1.531   1.013   8.679 -1.5658  0.5634  2.6562
 6855SOL    HW232025   1.402   1.081   8.642 -1.5190 -0.7292  2.2215
 6856SOL     OW32026   2.256   3.888  14.600  0.8803  0.2559  0.4148
 6856SOL    HW132027   2.195   3.887  14.674 -1.2301 -1.2216 -1.3604
 6856SOL    HW232028   2.221   3.966  14.557  0.3510 -0.7907 -1.0299
 6857SOL     OW32029   2.271   3.844   1.685  0.0810  0.0297 -0.0456
 6857SOL    HW132030   2.267   3.925   1.635  1.1039 -0.0391 -0.2396
 6857SOL    HW232031   2.283   3.877   1.773 -1.0930 -0.1057  0.1724
 6858SOL     OW32032   1.526   3.430   3.257  0.0350  0.0930  0.2795
 6858SOL    HW132033   1.547   3.359   3.317  2.7096 -0.3572 -1.1804
 6858SOL    HW232034   1.555   3.397   3.172 -3.0117 -0.7260 -0.4256
 6859SOL     OW32035   2.265   0.603  16.691  0.3624  0.2302 -0.3194
 6859SOL    HW132036   2.194   0.542  16.712  0.2257  0.3470 -0.4495
 6859SOL    HW232037   2.220   0.665  16.635 -1.7809 -0.4589  0.6189
 6860SOL     OW32038   4.679   3.881   9.210  0.2240 -0.6521  0.0315
 6860SOL    HW132039   4.639   3.962   9.242  0.7094 -0.2390 -0.3977
 6860SOL    HW232040   0.005   3.859   9.291  1.2652  1.5441  0.0277
 6861SOL     OW32041   2.894   2.740   4.979  0.2772 -0.3181 -0.3846
 6861SOL    HW132042   2.867   2.739   5.071 -3.1474 -1.7513 -1.4245
 6861SOL    HW232043   2.975   2.689   4.970  0.0295 -1.0510  1.5363
 6862SOL     OW32044   4.614   0.813  10.092 -0.2529  0.4505 -0.1988
 6862SOL    HW132045   4.636   0.726  10.126 -0.9350  0.7171  0.8948
 6862SOL    HW232046   4.536   0.793  10.039  1.7226 -0.8990 -2.6169
 6863SOL     OW32047   1.565   4.474   9.608  0.2753 -0.2088  0.1907
 6863SOL    HW132048   1.502   4.406   9.632  0.9558 -1.4352 -1.4917
 6863SOL    HW232049   1.570   4.480   9.512 -1.7642 -0.5555  0.0619
 6864SOL     OW32050   1.811   4.664   6.135 -0.2904  0.4124  0.0083
 6864SOL    HW132051   1.834   0.036   6.121 -1.5437  0.4526 -1.7618
 6864SOL    HW232052   1.897   4.623   6.126  0.1236  0.6756  2.6553
 6865SOL     OW32053   1.193   0.541   5.502 -0.2631 -0.3014  0.4002
 6865SOL    HW132054   1.176   0.550   5.596 -0.6605  0.9746  0.2059
 6865SOL    HW232055   1.114   0.493   5.476 -1.4481  2.0069 -0.3465
 6866SOL     OW32056   0.194   2.589   1.111 -0.2708  0.2599 -0.2468
 6866SOL    HW132057   0.120   2.642   1.082 -0.3417  1.4295  2.0690
 6866SOL    HW232058   0.260   2.595   1.041 -0.4669 -0.7615 -0.5186
 6867SOL     OW32059   2.178   2.044  13.317 -0.5406  1.0146 -0.2757
 6867SOL    HW132060   2.116   2.117  13.309 -2.0400 -0.0668  1.8510
 6867SOL    HW232061   2.200   2.041  13.410 -2.9940  0.4529  0.2893
 6868SOL     OW32062   3.765   0.941   5.007  0.1865  0.1868  0.6051
 6868SOL    HW132063   3.796   0.933   4.916  0.4153 -0.5097  0.7453
 6868SOL    HW232064   3.782   1.032   5.028  0.8035 -0.1952  1.7599
 6869SOL     OW32065   1.548   1.794   8.674 -0.0183 -0.4737 -0.1163
 6869SOL    HW132066   1.572   1.728   8.740 -0.5936 -1.9098 -1.3291
 6869SOL    HW232067   1.532   1.733   8.602 -1.1650 -2.0352  1.4549
 6870SOL     OW32068   2.531   3.153   8.502 -0.0415  0.4512 -0.2786
 6870SOL    HW132069   2.490   3.183   8.421 -1.0331  1.3128  0.5515
 6870SOL    HW232070   2.621   3.183   8.493  0.3009 -0.6046 -0.3952
 6871SOL     OW32071   1.607   1.302   6.434  0.1872 -0.1481 -0.1474
 6871SOL    HW132072   1.604   1.368   6.503 -2.0749  0.7422 -1.1005
 6871SOL    HW232073   1.696   1.266   6.429  0.5275  0.6576  0.0425
 6872SOL     OW32074   4.381   0.815   9.683  0.1417 -0.9151 -0.1683
 6872SOL    HW132075   4.288   0.832   9.672  0.4637  1.4717  0.8207
 6872SOL    HW232076   4.383   0.796   9.776  2.0801 -1.4953 -0.3153
 6873SOL     OW32077   3.404   0.969   7.167 -0.3196 -0.3931  0.3265
 6873SOL    HW132078   3.326   0.945   7.218 -1.1202  1.1132 -0.1831
 6873SOL    HW232079   3.393   1.064   7.164  0.1884 -0.3685 -0.6256
 6874SOL     OW32080   1.700   1.322  15.763 -0.1290  0.2250  0.2254
 6874SOL    HW132081   1.719   1.240  15.717 -3.0114  0.3616 -1.1842
 6874SOL    HW232082   1.621   1.298  15.810  0.6599 -0.8906  0.9981
 6875SOL     OW32083   1.422   2.276   3.621  0.4502  0.0024 -0.1996
 6875SOL    HW132084   1.457   2.349   3.571  1.7106 -0.0590  0.5789
 6875SOL    HW232085   1.364   2.241   3.553 -1.0657 -1.2774  1.7413
 6876SOL     OW32086   2.116   3.871   9.892  0.3194 -0.4910 -0.7857
 6876SOL    HW132087   2.085   3.859   9.982  1.1442  0.7710 -0.3361
 6876SOL    HW232088   2.122   3.779   9.867 -4.3287 -0.7065 -1.0762
 6877SOL     OW32089   2.699   3.664   6.018  0.4130  0.0723  0.4007
 6877SOL    HW132090   2.706   3.760   6.023 -0.8662  0.1100  1.6051
 6877SOL    HW232091   2.722   3.638   6.108  1.8650  1.9382  0.5768
 6878SOL     OW32092   3.909   1.574  11.409  0.0080 -0.1333 -0.3141
 6878SOL    HW132093   3.998   1.609  11.404 -0.9569  2.0142 -2.1888
 6878SOL    HW232094   3.912   1.507  11.340 -2.1295 -0.2372 -0.3016
 6879SOL     OW32095   0.473   0.832   4.878 -0.2278  0.1886 -0.0130
 6879SOL    HW132096   0.544   0.867   4.824  0.8552  1.2279  2.0835
 6879SOL    HW232097   0.413   0.906   4.867 -0.6904 -0.2439 -0.3957
 6880SOL     OW32098   4.601   4.012   8.133 -0.5191 -0.2050  0.0833
 6880SOL    HW132099   4.508   3.991   8.124 -0.5638 -0.7329  1.8515
 6880SOL    HW232100   4.631   3.922   8.125  1.3717  0.3964  0.5961
 6881SOL     OW32101   1.122   0.564   1.623  0.0657 -0.6231  0.1709
 6881SOL    HW132102   1.140   0.635   1.684  1.3036 -0.6501 -0.1618
 6881SOL    HW232103   1.163   0.488   1.666 -0.1252 -1.3885 -0.9919
 6882SOL     OW32104   0.710   2.494   8.911  0.2269  0.4157  0.3839
 6882SOL    HW132105   0.671   2.481   8.825  2.0661 -0.0422 -0.3810
 6882SOL    HW232106   0.804   2.476   8.904  0.1888 -0.5195  2.1555
 6883SOL     OW32107   4.333   0.074   5.806  0.2977 -0.1407 -0.1887
 6883SOL    HW132108   4.277   4.720   5.825  2.0017 -1.4990 -0.5139
 6883SOL    HW232109   4.391   0.036   5.740 -0.3905 -1.0184 -0.2877
 6884SOL     OW32110   1.425   4.055   6.354  0.4517  0.3577 -0.3413
 6884SOL    HW132111   1.410   4.149   6.359  0.2944  0.4041 -1.7984
 6884SOL    HW232112   1.507   4.047   6.402 -0.3135 -0.2701  0.8636
 6885SOL     OW32113   1.308   4.427  12.935 -0.1788 -0.3342  0.5886
 6885SOL    HW132114   1.278   4.447  12.846 -0.6879 -2.0218  0.3961
 6885SOL    HW232115   1.381   4.367  12.918  0.3195  0.8036 -1.3236
 6886SOL     OW32116   3.375   0.341  14.352  0.1460  0.0219 -0.0292
 6886SOL    HW132117   3.338   0.285  14.421  2.5018 -1.5812 -0.0578
 6886SOL    HW232118   3.384   0.426  14.395  0.9110 -0.9403  1.7027
 6887SOL     OW32119   3.391   1.249   2.972 -0.5160  0.6145 -0.1445
 6887SOL    HW132120   3.397   1.230   2.879 -2.1778  1.6379 -0.4485
 6887SOL    HW232121   3.439   1.175   3.009 -1.8177  0.6895  1.7421
 6888SOL     OW32122   2.648   1.800  16.155 -0.2061  0.4581  0.2923
 6888SOL    HW132123   2.609   1.722  16.116 -1.9073  1.2215  0.4568
 6888SOL    HW232124   2.709   1.751  16.210  0.7583 -1.2644 -2.3412
 6889SOL     OW32125   3.386   4.432   2.273  0.1963 -0.1418  0.4495
 6889SOL    HW132126   3.357   4.413   2.184 -2.7892 -0.6298  1.5115
 6889SOL    HW232127   3.326   4.375   2.322 -0.0522  0.4137  0.7898
 6890SOL     OW32128   1.174   2.656   3.264 -0.5320 -0.4362  0.2261
 6890SOL    HW132129   1.200   2.703   3.343  0.6940  1.2160 -1.1777
 6890SOL    HW232130   1.241   2.688   3.204  0.0937  0.2825  1.3021
 6891SOL     OW32131   1.050   0.377  14.653  0.0634 -0.2991  0.9849
 6891SOL    HW132132   1.001   0.378  14.571  1.0212 -1.6336  0.3964
 6891SOL    HW232133   1.128   0.428  14.630 -0.8506  0.7648  0.2274
 6892SOL     OW32134   3.785   2.841  17.350 -0.0959  0.3870 -0.5169
 6892SOL    HW132135   3.798   2.833  17.444 -0.6820 -0.0233 -0.4683
 6892SOL    HW232136   3.789   2.937  17.345 -0.0326  0.4744  1.4819
 6893SOL     OW32137   1.082   0.891   2.067 -0.2061 -0.5596 -0.2482
 6893SOL    HW132138   1.124   0.827   2.009  1.1032  0.4507 -0.4241
 6893SOL    HW232139   1.133   0.873   2.146  1.6731  1.4592 -0.9962
 6894SOL     OW32140   2.291   1.428   7.319  0.0487 -0.4170 -0.0069
 6894SOL    HW132141   2.263   1.491   7.385  0.5854 -2.1568  1.9130
 6894SOL    HW232142   2.386   1.437   7.323 -0.1271  0.2470  2.8727
 6895SOL     OW32143   0.135   0.803   7.392  0.1160  0.0733 -0.0446
 6895SOL    HW132144   0.217   0.804   7.441 -0.0870  1.5481  0.2696
 6895SOL    HW232145   0.115   0.710   7.406 -1.2306  0.3343 -0.2692
 6896SOL     OW32146   3.644   2.514   6.568  0.3224  0.4842 -0.3994
 6896SOL    HW132147   3.628   2.420   6.576 -2.7097  0.7961 -2.8748
 6896SOL    HW232148   3.603   2.535   6.652 -2.0132 -0.9566 -1.1738
 6897SOL     OW32149   1.565   2.785   2.738 -0.5962  0.3356  0.1786
 6897SOL    HW132150   1.640   2.787   2.679 -0.0780 -2.7165  0.7395
 6897SOL    HW232151   1.490   2.773   2.680 -1.5879 -1.3012  1.8077
 6898SOL     OW32152   2.385   4.489   5.110 -0.1652 -0.1752 -0.1970
 6898SOL    HW132153   2.376   4.394   5.121  1.0884 -0.4827 -1.9257
 6898SOL    HW232154   2.400   4.512   5.202 -0.7689  2.6386 -0.8014
 6899SOL     OW32155   2.088   3.425   4.698  0.1258 -0.1557  0.6211
 6899SOL    HW132156   2.070   3.355   4.634  1.5147 -0.6154  0.7417
 6899SOL    HW232157   1.999   3.443   4.728 -0.2192  0.8642 -1.0358
 6900SOL     OW32158   2.127   1.520  11.995 -0.7912 -0.4522  0.2944
 6900SOL    HW132159   2.124   1.594  12.056 -0.7650  1.5389 -2.1307
 6900SOL    HW232160   2.218   1.490  11.994 -0.7734 -0.4237  1.4049
 6901SOL     OW32161   0.286   1.885   5.395 -0.0273  0.0299  0.6552
 6901SOL    HW132162   0.308   1.928   5.478 -1.0597  1.7647  0.0326
 6901SOL    HW232163   0.197   1.853   5.412 -0.3402 -0.1300 -1.3661
 6902SOL     OW32164   4.133   3.436   7.737 -0.1429  0.0640 -0.3778
 6902SOL    HW132165   4.132   3.526   7.707 -1.0959 -1.1247 -3.8374
 6902SOL    HW232166   4.106   3.393   7.656 -0.5420  0.6852 -0.5686
 6903SOL     OW32167   2.051   0.241   5.587  0.5062  0.1713  0.0921
 6903SOL    HW132168   1.956   0.253   5.583  0.4809 -0.4469 -1.0256
 6903SOL    HW232169   2.076   0.206   5.502  0.5015  0.4537 -0.0243
 6904SOL     OW32170   2.424   2.856  11.378 -0.4975 -0.0551  0.5571
 6904SOL    HW132171   2.403   2.876  11.469 -0.9872  0.7162  0.2709
 6904SOL    HW232172   2.438   2.761  11.382  1.5821  0.2684  0.5737
 6905SOL     OW32173   3.488   1.421   0.478  0.0720 -0.2681  0.3445
 6905SOL    HW132174   3.442   1.395   0.558 -1.6265  1.0199 -0.1940
 6905SOL    HW232175   3.566   1.457   0.522 -0.6340  0.0757  1.3260
 6906SOL     OW32176   1.872   0.686   4.882 -0.1753  0.5267 -0.2527
 6906SOL    HW132177   1.864   0.741   4.960 -1.7894 -1.0933  0.7365
 6906SOL    HW232178   1.781   0.675   4.854  0.4991 -1.9958 -1.4424
 6907SOL     OW32179   3.829   2.681   2.025 -0.7419  0.2375  0.7918
 6907SOL    HW132180   3.840   2.732   2.105  2.4859  0.7876  0.0278
 6907SOL    HW232181   3.843   2.746   1.956 -2.1925  0.6190  0.8584
 6908SOL     OW32182   2.231   2.961   4.278 -0.0327  0.1206 -0.1509
 6908SOL    HW132183   2.290   2.963   4.353 -1.4300  0.7768  0.9173
 6908SOL    HW232184   2.267   2.879   4.245  1.6014  0.2882  1.2217
 6909SOL     OW32185   1.474   1.999   6.532 -0.0700  0.3823  0.3210
 6909SOL    HW132186   1.557   1.952   6.526 -1.2983 -1.9793  2.0644
 6909SOL    HW232187   1.466   2.013   6.627 -0.3015 -1.6787  0.5995
 6910SOL     OW32188   3.818   0.920   5.282 -0.1530  0.3882  0.0122
 6910SOL    HW132189   3.904   0.956   5.305  1.0135 -3.5139  1.8613
 6910SOL    HW232190   3.826   0.900   5.189 -1.0151 -0.0679  0.0408
 6911SOL     OW32191   1.852   0.949  13.970 -0.2100 -0.1988 -0.0881
 6911SOL    HW132192   1.886   1.002  14.043 -2.3990  0.9174  0.1266
 6911SOL    HW232193   1.761   0.944  13.999 -0.4107  2.2524 -0.2479
 6912SOL     OW32194   3.707   4.271   4.925 -0.5110 -0.3175  0.1234
 6912SOL    HW132195   3.780   4.317   4.884 -2.1305  1.7418 -0.4026
 6912SOL    HW232196   3.638   4.336   4.927 -0.7821 -0.5701 -1.0704
 6913SOL     OW32197   1.634   2.751  14.355 -0.3251  0.1454  0.1888
 6913SOL    HW132198   1.709   2.695  14.374 -2.1972 -2.2864  0.4268
 6913SOL    HW232199   1.655   2.772  14.264  0.0383  4.3298  1.2143
 6914SOL     OW32200   3.791   2.815   6.037  0.7353 -0.2550  0.0265
 6914SOL    HW132201   3.835   2.881   5.984  0.2427 -0.9294 -1.2311
 6914SOL    HW232202   3.707   2.860   6.048  0.7757 -0.0973 -0.3160
 6915SOL     OW32203   2.462   2.114   8.467 -0.0642  0.2584 -0.2197
 6915SOL    HW132204   2.526   2.186   8.466  1.3103 -0.9525  0.1108
 6915SOL    HW232205   2.453   2.107   8.562  0.5857  1.1320 -0.0891
 6916SOL     OW32206   4.300   0.429   4.434  0.2560 -0.2780  0.0524
 6916SOL    HW132207   4.335   0.471   4.356  0.4805 -0.1747  0.2083
 6916SOL    HW232208   4.229   0.490   4.457 -0.5709 -1.5122  0.7825
 6917SOL     OW32209   2.067   0.732  16.519  0.2647  0.1091 -0.0843
 6917SOL    HW132210   1.979   0.741  16.483  1.9743 -1.0043 -4.5168
 6917SOL    HW232211   2.074   0.820  16.554  0.0293 -0.1657  0.6591
 6918SOL     OW32212   2.318   0.349   3.040  0.1395  0.4409 -0.2614
 6918SOL    HW132213   2.275   0.307   2.965  1.2844  1.3491 -1.4349
 6918SOL    HW232214   2.253   0.406   3.082  1.0634  1.1435  0.2168
 6919SOL     OW32215   2.989   2.468   5.982  0.9672  0.1929 -0.2685
 6919SOL    HW132216   2.971   2.386   5.935  1.2369 -0.1039  0.1534
 6919SOL    HW232217   3.053   2.448   6.050  1.8763 -0.4381 -1.3220
 6920SOL     OW32218   4.012   2.540  11.693  0.0053 -0.3644 -0.4555
 6920SOL    HW132219   4.022   2.563  11.785  0.4890 -0.2732 -0.5324
 6920SOL    HW232220   3.947   2.604  11.665  0.5504 -0.0738 -1.0505
 6921SOL     OW32221   3.548   0.323   7.658 -0.6287  0.0319 -0.0024
 6921SOL    HW132222   3.608   0.317   7.732  1.0819  1.2399 -1.2855
 6921SOL    HW232223   3.469   0.325   7.711 -2.5739  0.3355 -2.9170
 6922SOL     OW32224   0.614   3.574  11.899 -0.3635 -0.5725  0.0753
 6922SOL    HW132225   0.683   3.589  11.963 -0.5458 -0.5648  0.2686
 6922SOL    HW232226   0.635   3.643  11.836  3.7575 -1.2969  0.6465
 6923SOL     OW32227   0.201   2.416  16.429 -0.0663 -0.1745 -0.5942
 6923SOL    HW132228   0.140   2.446  16.496 -1.7449 -0.4183 -2.0201
 6923SOL    HW232229   0.154   2.362  16.366  0.4141 -0.3786 -0.7794
 6924SOL     OW32230   3.301   2.551   1.262 -0.5871 -0.6933 -0.1732
 6924SOL    HW132231   3.258   2.617   1.208  1.9860  2.6199  1.7819
 6924SOL    HW232232   3.229   2.517   1.316 -0.5745  0.1768  0.4062
 6925SOL     OW32233   0.797   4.020  11.623  0.1650 -0.3028 -0.1765
 6925SOL    HW132234   0.805   4.114  11.608 -0.8913  0.1312  1.9639
 6925SOL    HW232235   0.882   3.978  11.607  1.7578  2.2997  1.4360
 6926SOL     OW32236   3.474   1.334   5.169 -0.0843 -0.3626 -0.0005
 6926SOL    HW132237   3.549   1.276   5.165  0.3405  0.3598 -2.9974
 6926SOL    HW232238   3.413   1.263   5.149 -0.0226 -0.3010 -0.4133
 6927SOL     OW32239   0.633   1.334   5.181 -0.3521 -0.7464  0.6460
 6927SOL    HW132240   0.561   1.394   5.197 -3.7095 -4.1094 -1.8652
 6927SOL    HW232241   0.625   1.322   5.087  0.6700 -0.9177  0.5807
 6928SOL     OW32242   3.508   0.263  11.522 -0.3839 -0.0135  0.1418
 6928SOL    HW132243   3.500   0.249  11.428  2.2977 -1.2201  0.0989
 6928SOL    HW232244   3.530   0.357  11.520  0.9767 -0.3535 -0.9677
 6929SOL     OW32245   0.418   3.920  11.677 -0.0512  0.3331 -0.2780
 6929SOL    HW132246   0.334   3.882  11.650 -0.5874  1.3308 -0.0338
 6929SOL    HW232247   0.392   3.928  11.769  0.1712 -3.0331  0.0861
 6930SOL     OW32248   0.326   1.749   8.311 -0.2043  0.1345  0.2222
 6930SOL    HW132249   0.393   1.726   8.375 -0.6424 -0.9249  0.3095
 6930SOL    HW232250   0.259   1.778   8.373 -0.9785  0.5561 -0.8134
 6931SOL     OW32251   3.276   0.351   7.740  0.3198  0.0457  0.2665
 6931SOL    HW132252   3.206   0.417   7.735  0.1789 -0.1270 -0.0619
 6931SOL    HW232253   3.308   0.375   7.826 -1.1856  0.7991  0.6279
 6932SOL     OW32254   1.840   3.539   4.516 -0.5335  0.1632 -0.0862
 6932SOL    HW132255   1.908   3.603   4.535 -1.2214  1.0507 -0.6581
 6932SOL    HW232256   1.819   3.506   4.603 -1.1413  2.0220  0.4669
 6933SOL     OW32257   4.562   0.620  16.072  0.1449 -0.3517  0.4702
 6933SOL    HW132258   4.543   0.658  16.158 -0.5810  0.8201 -0.2035
 6933SOL    HW232259   4.544   0.694  16.014  2.5685 -0.6213 -0.6007
 6934SOL     OW32260   3.344   3.249   2.167  0.1377  0.0097 -0.5941
 6934SOL    HW132261   3.345   3.237   2.072  2.3248  2.4467 -0.8771
 6934SOL    HW232262   3.414   3.187   2.189  0.2100  0.3128  0.0312
 6935SOL     OW32263   3.273   4.106  10.474 -0.1852  0.6434 -0.1811
 6935SOL    HW132264   3.255   4.037  10.539  0.5911  0.0314 -0.6068
 6935SOL    HW232265   3.183   4.126  10.453  0.2068  0.3126 -2.1455
 6936SOL     OW32266   3.201   1.302   9.361 -0.6054  0.1304 -0.6496
 6936SOL    HW132267   3.189   1.274   9.271 -2.3277 -0.4802 -0.2385
 6936SOL    HW232268   3.192   1.397   9.355  0.9274  0.3998  1.2969
 6937SOL     OW32269   3.543   4.097   2.335 -0.1106 -0.1281 -0.0830
 6937SOL    HW132270   3.465   4.129   2.380 -0.7305  0.2357 -1.4229
 6937SOL    HW232271   3.509   4.015   2.297 -2.7943 -0.2096  2.4348
 6938SOL     OW32272   0.932   0.067   2.930  0.4065  0.1010 -0.0977
 6938SOL    HW132273   1.006   0.069   2.991 -1.6555  1.7317  2.3389
 6938SOL    HW232274   0.892   0.153   2.936 -1.1040 -0.4781 -1.9577
 6939SOL     OW32275   0.205   1.696   0.539  0.3215  0.3003  0.0911
 6939SOL    HW132276   0.110   1.683   0.542  0.9427 -3.6842  2.6984
 6939SOL    HW232277   0.229   1.655   0.622  0.8430 -0.8967 -0.6467
 6940SOL     OW32278   1.301   0.660   8.093  0.0290 -0.4180  0.0447
 6940SOL    HW132279   1.396   0.668   8.096 -0.0222  0.4208 -0.6525
 6940SOL    HW232280   1.280   0.702   8.176 -0.7883  0.5794 -0.6704
 6941SOL     OW32281   4.598   3.060  10.037  0.3517 -0.2635 -0.0250
 6941SOL    HW132282   4.540   3.015  10.099  1.7495 -1.4350  0.4645
 6941SOL    HW232283   4.595   3.148  10.075  0.5026 -0.1660 -0.2411
 6942SOL     OW32284   1.533   3.816  10.136 -0.0074 -0.2875 -0.4855
 6942SOL    HW132285   1.541   3.724  10.163  2.6058  0.0494 -0.0255
 6942SOL    HW232286   1.503   3.803  10.046  1.7704 -1.7036 -0.8813
 6943SOL     OW32287   3.080   2.361   0.292 -0.1147 -0.2505 -0.3524
 6943SOL    HW132288   3.033   2.288   0.332  1.2539 -1.2458 -0.5503
 6943SOL    HW232289   3.134   2.388   0.367 -2.1951  1.0766  0.6747
 6944SOL     OW32290   4.517   4.035  11.352 -0.0297 -0.1635 -1.2001
 6944SOL    HW132291   4.435   3.986  11.358  0.4671 -0.8752 -0.1330
 6944SOL    HW232292   4.577   3.963  11.334  0.2051  0.4335 -2.7609
 6945SOL     OW32293   2.015   4.265   4.377 -0.2456 -0.1259  0.2652
 6945SOL    HW132294   2.070   4.321   4.433  0.9200 -0.7510 -0.2554
 6945SOL    HW232295   1.931   4.258   4.423 -0.9140 -0.0544 -0.9539
 6946SOL     OW32296   2.490   2.804   2.638 -0.2039 -0.3450  0.2000
 6946SOL    HW132297   2.421   2.795   2.572 -0.2094 -0.2042  0.1875
 6946SOL    HW232298   2.477   2.719   2.682  0.2925 -0.5013  0.0400
 6947SOL     OW32299   4.251   2.650   1.179 -0.2374 -0.0513 -0.1347
 6947SOL    HW132300   4.309   2.714   1.137  2.6825 -3.5414 -1.4374
 6947SOL    HW232301   4.282   2.568   1.141  0.0051  0.1908 -0.4694
 6948SOL     OW32302   3.866   4.642   7.410 -0.3893  0.1793 -0.8665
 6948SOL    HW132303   3.846   4.620   7.319 -2.7999  0.8695 -0.5073
 6948SOL    HW232304   3.783   4.687   7.427 -1.9281 -2.0018 -2.6847
 6949SOL     OW32305   3.777   2.889   8.826 -0.5578  0.2648 -0.3905
 6949SOL    HW132306   3.762   2.953   8.757  3.1076  0.5388 -0.9213
 6949SOL    HW232307   3.690   2.851   8.837  0.0143 -1.5226 -2.1099
 6950SOL     OW32308   4.118   1.939  14.678 -0.0736 -0.3674  0.2014
 6950SOL    HW132309   4.206   1.960  14.708 -0.4164  0.9472  0.2969
 6950SOL    HW232310   4.124   1.843  14.677  3.8750 -0.0564 -2.7899
 6951SOL     OW32311   0.002   2.732   5.460  0.1535 -0.0494  0.3206
 6951SOL    HW132312   0.041   2.818   5.445  0.5046 -0.0361  1.3374
 6951SOL    HW232313   0.078   2.676   5.442  0.9083  1.0815 -0.0084
 6952SOL     OW32314   4.024   3.825   6.669  0.1764  0.2001 -0.6864
 6952SOL    HW132315   4.005   3.916   6.646  0.6076  0.4508 -0.0499
 6952SOL    HW232316   4.035   3.841   6.763 -1.5230  2.0483 -0.8184
 6953SOL     OW32317   4.179   0.137   4.315  0.2873 -0.2942  0.0558
 6953SOL    HW132318   4.258   0.171   4.274 -0.0839  2.3777  1.5897
 6953SOL    HW232319   4.181   0.185   4.398 -0.9995 -2.7499  1.5101
 6954SOL     OW32320   4.554   2.045   6.288 -0.4772  0.0856  0.0416
 6954SOL    HW132321   4.472   2.022   6.331 -0.6613 -1.9698 -1.4169
 6954SOL    HW232322   4.590   1.958   6.271 -0.5012 -0.0160  0.5334
 6955SOL     OW32323   1.259   3.865   6.560 -0.0161  0.5452 -0.5621
 6955SOL    HW132324   1.306   3.938   6.599 -0.1404  0.6357 -0.5813
 6955SOL    HW232325   1.205   3.836   6.634  1.6723 -1.8458 -0.2443
 6956SOL     OW32326   1.189   1.088   8.876 -0.3738 -0.1072  0.0353
 6956SOL    HW132327   1.277   1.053   8.863 -0.9412 -0.3355 -3.3315
 6956SOL    HW232328   1.188   1.090   8.972 -1.8245  0.5139  0.0127
 6957SOL     OW32329   1.053   1.037   5.592 -0.0525  0.3956 -0.4128
 6957SOL    HW132330   0.974   0.984   5.578 -0.4685  0.7567  0.5843
 6957SOL    HW232331   1.113   1.002   5.526  0.0996 -1.9717  1.0063
 6958SOL     OW32332   1.977   2.632   6.874  0.0853  0.7037  0.6163
 6958SOL    HW132333   1.893   2.589   6.890 -0.7811  1.6554 -1.2879
 6958SOL    HW232334   1.955   2.702   6.812 -0.0342 -1.9242 -2.3456
 6959SOL     OW32335   2.533   4.528   0.946 -0.2700  0.2152 -0.1264
 6959SOL    HW132336   2.534   4.602   0.886  0.5262  0.0526 -0.3145
 6959SOL    HW232337   2.559   4.454   0.892 -0.6312 -0.6371  0.8515
 6960SOL     OW32338   0.159   3.434   2.455  0.3569  0.1181 -0.0325
 6960SOL    HW132339   0.165   3.406   2.364 -0.9028  0.2942 -0.1685
 6960SOL    HW232340   0.249   3.438   2.487  0.5859 -1.7921 -0.4612
 6961SOL     OW32341   1.078   1.647   2.674 -0.3625 -0.5036 -1.0750
 6961SOL    HW132342   1.031   1.595   2.609 -3.2950  0.8386 -0.0412
 6961SOL    HW232343   1.021   1.627   2.749  1.3389 -2.5506 -0.3399
 6962SOL     OW32344   1.631   0.326   3.134  0.2481  0.2027 -0.2461
 6962SOL    HW132345   1.642   0.264   3.062  0.5744  0.0436 -0.0618
 6962SOL    HW232346   1.544   0.298   3.162  0.3511  0.2359  0.1152
 6963SOL     OW32347   2.724   4.413   3.384 -0.0160 -0.1554 -0.5263
 6963SOL    HW132348   2.657   4.351   3.356 -0.5012  0.6429 -1.1461
 6963SOL    HW232349   2.804   4.364   3.401 -0.5753 -0.5448  1.0594
 6964SOL     OW32350   2.436   3.162  11.182  0.1388  0.6718  0.1989
 6964SOL    HW132351   2.465   3.247  11.216 -0.6838  0.6884  0.8537
 6964SOL    HW232352   2.416   3.181  11.091  0.9219  1.7027  0.2355
 6965SOL     OW32353   3.072   3.871   3.707  0.2420 -0.1022 -0.1023
 6965SOL    HW132354   3.030   3.941   3.756 -0.0960 -0.0785 -0.4250
 6965SOL    HW232355   3.149   3.844   3.757  0.8712  0.9959 -0.4918
 6966SOL     OW32356   2.148   1.474  16.400  0.8581 -0.1389  0.0898
 6966SOL    HW132357   2.055   1.455  16.408  0.7046  1.0782  1.1612
 6966SOL    HW232358   2.153   1.528  16.479  0.1837 -0.5819  0.4315
 6967SOL     OW32359   0.681   0.965   8.647  0.6983 -0.6008 -0.8685
 6967SOL    HW132360   0.689   0.878   8.686 -0.0221  0.3910  1.4881
 6967SOL    HW232361   0.717   0.944   8.561  2.9564  0.6328 -0.2240
 6968SOL     OW32362   0.126   0.125  10.015 -0.3701 -0.4969 -0.0148
 6968SOL    HW132363   0.201   0.115  10.073 -0.5314  3.0296  0.8311
 6968SOL    HW232364   0.075   0.188  10.066 -0.9207  0.0476 -1.2406
 6969SOL     OW32365   0.869   0.803   3.550 -0.4558 -0.7060  0.0014
 6969SOL    HW132366   0.874   0.720   3.504 -2.7379 -1.2032  0.6264
 6969SOL    HW232367   0.952   0.811   3.597 -1.8685 -0.0957  2.3784
 6970SOL     OW32368   1.636   0.069   1.876  0.4822 -0.0155 -0.1626
 6970SOL    HW132369   1.634   4.695   1.862 -1.8803 -0.2448  1.7600
 6970SOL    HW232370   1.698   0.071   1.950 -0.4672  2.4464  0.5496
 6971SOL     OW32371   2.598   2.217   6.324  0.4524  0.4147  0.2382
 6971SOL    HW132372   2.603   2.123   6.304 -1.4623  0.3288  0.2159
 6971SOL    HW232373   2.657   2.252   6.257  0.3257  0.5222  0.1826
 6972SOL     OW32374   2.571   0.950   6.758 -0.5552  0.6020 -0.0480
 6972SOL    HW132375   2.658   0.910   6.759 -0.1678  1.4485  0.0088
 6972SOL    HW232376   2.592   1.043   6.751 -2.1143  1.0187  0.8346
 6973SOL     OW32377   3.423   1.219   2.695 -0.1858  0.0618 -0.7704
 6973SOL    HW132378   3.346   1.204   2.640 -2.1499 -2.3339  2.5805
 6973SOL    HW232379   3.482   1.151   2.662 -0.5302 -1.3642  1.5398
 6974SOL     OW32380   0.999   3.911  13.423  0.0914  0.3439  0.0165
 6974SOL    HW132381   1.010   3.992  13.372  0.5653 -0.6784 -1.4888
 6974SOL    HW232382   0.906   3.920  13.443  0.1882  3.3434 -0.7597
 6975SOL     OW32383   3.032   1.774   8.339  0.1525 -0.1575 -0.1019
 6975SOL    HW132384   3.002   1.840   8.277 -0.2353 -1.2482 -1.0607
 6975SOL    HW232385   3.073   1.715   8.276 -1.2765 -1.1251 -0.1129
 6976SOL     OW32386   1.297   4.582   8.329 -0.4024 -0.1561  0.3873
 6976SOL    HW132387   1.297   4.522   8.404 -3.4354  0.9343  1.2440
 6976SOL    HW232388   1.212   4.563   8.290 -0.7248  0.9961  0.5095
 6977SOL     OW32389   2.737   1.984  15.947  0.4436  0.5290  0.4636
 6977SOL    HW132390   2.768   1.935  16.023 -1.8210 -0.8342  0.5204
 6977SOL    HW232391   2.694   2.060  15.985 -0.1595  0.4274 -0.0228
 6978SOL     OW32392   4.441   4.076   6.860 -0.2807  0.1868  0.2774
 6978SOL    HW132393   4.398   4.040   6.782 -0.5837  1.0099  0.0633
 6978SOL    HW232394   4.427   4.169   6.843 -2.1692 -0.6414 -2.7713
 6979SOL     OW32395   0.307   1.955   1.383  0.2304  0.0977 -0.5740
 6979SOL    HW132396   0.301   1.864   1.412  1.9842 -0.3565 -1.6708
 6979SOL    HW232397   0.260   1.988   1.460  0.6605 -0.0148 -0.2589
 6980SOL     OW32398   3.730   3.502   9.627 -0.4007 -0.1828  0.1009
 6980SOL    HW132399   3.803   3.552   9.590 -0.2545  0.2043  0.9034
 6980SOL    HW232400   3.656   3.539   9.580 -0.7583  1.4008  1.9120
 6981SOL     OW32401   1.043   3.775  10.983  0.5908  0.4434  0.0973
 6981SOL    HW132402   0.967   3.717  10.995 -0.9327  2.2462 -0.7645
 6981SOL    HW232403   1.057   3.790  10.890 -0.4955 -0.6882 -0.2575
 6982SOL     OW32404   4.017   0.496   4.907  0.1840  0.6155  0.3130
 6982SOL    HW132405   4.081   0.429   4.934 -0.4680  0.0955  0.5920
 6982SOL    HW232406   3.971   0.509   4.990 -0.4991 -0.3966  0.0957
 6983SOL     OW32407   3.598   0.970   4.581 -0.0482 -0.3127 -0.2068
 6983SOL    HW132408   3.675   0.989   4.527 -1.6685  1.3503 -1.8923
 6983SOL    HW232409   3.587   1.055   4.623 -3.5679 -1.1304  0.5297
 6984SOL     OW32410   4.268   1.988   8.515 -0.4883 -0.1753  0.8699
 6984SOL    HW132411   4.327   1.978   8.590 -2.2104  0.3912  2.3183
 6984SOL    HW232412   4.287   1.906   8.470  0.2419  0.9962 -0.9268
 6985SOL     OW32413   4.052   2.283   6.499  0.0377  0.2666 -0.3013
 6985SOL    HW132414   4.137   2.301   6.539 -0.2851  0.3268  0.3617
 6985SOL    HW232415   4.003   2.364   6.509  0.8809  0.6434  0.7115
 6986SOL     OW32416   2.502   0.877   5.461 -1.0215  0.6235 -0.4466
 6986SOL    HW132417   2.530   0.952   5.514  1.8508 -0.9574  0.2746
 6986SOL    HW232418   2.562   0.881   5.386 -1.3716  0.0498 -0.7526
 6987SOL     OW32419   4.238   0.938   7.994  0.0424  0.0372  0.0871
 6987SOL    HW132420   4.235   0.847   7.963 -5.1617  0.2483 -0.0442
 6987SOL    HW232421   4.144   0.948   8.011  0.0692  1.6067 -0.6878
 6988SOL     OW32422   1.247   2.386  16.958  0.3653  0.6418 -0.2602
 6988SOL    HW132423   1.321   2.343  16.914  0.0020 -0.4356  0.1867
 6988SOL    HW232424   1.305   2.440  17.013 -0.8929 -0.5363  2.2096
 6989SOL     OW32425   3.710   0.369  13.317 -0.9798 -0.2786 -0.1525
 6989SOL    HW132426   3.707   0.434  13.387 -1.3223 -0.5119  0.0544
 6989SOL    HW232427   3.719   0.283  13.359  0.4368 -0.3059 -0.5247
 6990SOL     OW32428   2.420   0.717   8.459  0.9600  0.5448 -0.3103
 6990SOL    HW132429   2.380   0.680   8.538  1.5087  0.4301 -0.0846
 6990SOL    HW232430   2.444   0.642   8.406  1.3216  0.2322  0.2963
 6991SOL     OW32431   0.431   1.069   5.825 -0.0729 -0.0313 -0.1462
 6991SOL    HW132432   0.526   1.066   5.832 -0.0350 -2.6395 -1.6562
 6991SOL    HW232433   0.408   1.121   5.748 -0.3084 -2.1584 -1.4959
 6992SOL     OW32434   0.863   2.486  15.123  0.1152  1.1450 -0.0094
 6992SOL    HW132435   0.838   2.545  15.051  0.9086 -0.6207 -1.7377
 6992SOL    HW232436   0.791   2.505  15.183 -0.2163  0.2346 -0.1091
 6993SOL     OW32437   4.689   0.810   9.226  0.4825  0.4787  0.2837
 6993SOL    HW132438   0.024   0.887   9.215  1.4996 -0.0930  1.5028
 6993SOL    HW232439   4.621   0.844   9.285  0.4280 -0.5046  0.8000
 6994SOL     OW32440   2.175   2.827  12.298  0.1465 -0.0200  0.5956
 6994SOL    HW132441   2.132   2.843  12.214 -1.1902 -0.0356  1.2744
 6994SOL    HW232442   2.127   2.752  12.334  3.0816 -1.1991  2.0872
 6995SOL     OW32443   0.310   3.868   1.844  0.4389 -0.2047 -0.7242
 6995SOL    HW132444   0.309   3.937   1.778  0.6866 -1.0881 -1.6508
 6995SOL    HW232445   0.286   3.785   1.804 -1.9521  0.7296 -1.2439
 6996SOL     OW32446   2.258   1.938   7.414 -0.6611  0.7894  0.5655
 6996SOL    HW132447   2.349   1.909   7.406 -0.5518  0.5730  2.6379
 6996SOL    HW232448   2.259   2.025   7.373 -1.2655  0.2200 -0.6472
 6997SOL     OW32449   3.960   3.621   3.207  0.3978 -0.1724 -0.4279
 6997SOL    HW132450   3.872   3.659   3.206  1.4388  2.1984  1.2753
 6997SOL    HW232451   3.947   3.530   3.177  1.1785  0.2268 -2.0168
 6998SOL     OW32452   3.839   3.329   5.333  0.2650  1.0547 -0.0920
 6998SOL    HW132453   3.928   3.360   5.352 -0.4627  1.3098  2.8780
 6998SOL    HW232454   3.789   3.410   5.327  2.1659  2.4025  2.5610
 6999SOL     OW32455   1.165   2.678  13.074 -0.0432 -0.7760  0.5699
 6999SOL    HW132456   1.209   2.760  13.051 -0.4311 -0.6557  0.2618
 6999SOL    HW232457   1.237   2.615  13.084 -0.7829 -1.3727  2.1112
 7000SOL     OW32458   0.136   3.123   3.249 -0.1493  0.0040  0.1633
 7000SOL    HW132459   0.189   3.196   3.217 -3.1127  2.4341  0.8759
 7000SOL    HW232460   0.195   3.048   3.239  0.1434  0.3506 -0.6882
 7001SOL     OW32461   3.226   1.055   5.464 -0.0050 -0.4461  0.1955
 7001SOL    HW132462   3.215   1.047   5.559 -1.0860 -1.8778 -0.0646
 7001SOL    HW232463   3.280   0.979   5.441  0.8086 -0.0766  0.8870
 7002SOL     OW32464   3.868   3.121   2.441 -0.1564  0.1916 -0.2150
 7002SOL    HW132465   3.956   3.088   2.421 -0.4098 -1.7031  1.8094
 7002SOL    HW232466   3.865   3.204   2.394  3.2766  0.4947  0.0823
 7003SOL     OW32467   2.145   1.772  10.366  0.2297  0.1456  0.0282
 7003SOL    HW132468   2.211   1.832  10.331  2.2052 -0.8098  2.1637
 7003SOL    HW232469   2.077   1.779  10.299  0.8992  3.0200 -0.3558
 7004SOL     OW32470   3.332   3.881  11.956  0.1381 -0.0014 -0.1360
 7004SOL    HW132471   3.242   3.902  11.931 -0.2886  0.2890  1.6736
 7004SOL    HW232472   3.367   3.969  11.945  0.7512  0.0501  2.3005
 7005SOL     OW32473   1.591   2.625  13.246  0.1080  0.1151  0.1099
 7005SOL    HW132474   1.557   2.594  13.330 -1.0537  0.2935 -0.2936
 7005SOL    HW232475   1.633   2.703  13.282  0.3036  0.5809 -1.1164
 7006SOL     OW32476   1.277   3.504   4.169  0.1369 -0.6009  0.0213
 7006SOL    HW132477   1.269   3.556   4.089  0.1674  0.3057  0.5978
 7006SOL    HW232478   1.373   3.512   4.164  0.1639 -1.3261 -0.5284
 7007SOL     OW32479   2.126   2.386   7.692  0.5934 -0.4382  1.1326
 7007SOL    HW132480   2.189   2.454   7.667 -1.1680  1.2172  1.1769
 7007SOL    HW232481   2.062   2.411   7.625  0.1025 -1.5689  1.1883
 7008SOL     OW32482   2.352   2.714   4.243  0.5809 -0.3376 -0.3585
 7008SOL    HW132483   2.280   2.661   4.208 -0.1158  2.2458 -2.8341
 7008SOL    HW232484   2.372   2.666   4.324 -3.2482  2.0298  1.9777
 7009SOL     OW32485   0.634   1.230   7.309 -0.4564 -0.5795 -0.0161
 7009SOL    HW132486   0.551   1.187   7.331 -1.3310  0.8396 -0.5928
 7009SOL    HW232487   0.680   1.173   7.247  2.9118  0.0859  1.8720
 7010SOL     OW32488   0.840   0.188  13.891 -0.5105  0.1890  0.3198
 7010SOL    HW132489   0.800   0.246  13.825  0.6869 -0.1085 -0.6681
 7010SOL    HW232490   0.933   0.203  13.875 -0.7154  0.3872 -0.6862
 7011SOL     OW32491   1.887   2.720   1.084  0.0587 -0.8652  0.8268
 7011SOL    HW132492   1.826   2.711   1.011 -0.9968 -4.1135  2.1269
 7011SOL    HW232493   1.875   2.807   1.124  0.7626  0.1566 -1.1641
 7012SOL     OW32494   1.307   3.645   2.590  0.4130  0.1225  0.5288
 7012SOL    HW132495   1.301   3.592   2.511  0.2856  2.5003 -1.0674
 7012SOL    HW232496   1.334   3.730   2.553  1.5112  0.1469  1.3865
 7013SOL     OW32497   2.132   3.235   9.097 -0.1394 -0.3422  0.3153
 7013SOL    HW132498   2.174   3.312   9.057 -0.0912  0.5106  2.0092
 7013SOL    HW232499   2.068   3.210   9.031  0.5270  0.6350 -0.7077
 7014SOL     OW32500   1.123   1.288   0.790  0.5831 -0.1209  0.5462
 7014SOL    HW132501   1.046   1.257   0.837 -0.2360  0.2926 -0.5304
 7014SOL    HW232502   1.114   1.382   0.808 -0.0074 -0.0978  0.1403
 7015SOL     OW32503   0.022   0.835  16.644 -0.2928 -0.1682  0.0197
 7015SOL    HW132504   4.708   0.776  16.577 -1.5273 -0.5983  1.0234
 7015SOL    HW232505   4.675   0.845  16.711 -0.7288  1.7953 -0.6954
 7016SOL     OW32506   2.694   1.405   7.121  0.1094 -0.5063  0.5756
 7016SOL    HW132507   2.658   1.336   7.065 -0.6210  1.5593 -1.4726
 7016SOL    HW232508   2.619   1.441   7.168  1.1041  0.0592  1.7153
 7017SOL     OW32509   0.432   2.814   4.411 -1.0200 -0.5040  0.4996
 7017SOL    HW132510   0.386   2.762   4.345  1.4182 -3.4628  1.1623
 7017SOL    HW232511   0.519   2.835   4.379 -0.6497  1.6655  2.9258
 7018SOL     OW32512   4.621   4.627   8.702  0.2829  0.3177  0.6613
 7018SOL    HW132513   4.634   4.550   8.757  0.1149  0.8820  1.4892
 7018SOL    HW232514   4.534   4.604   8.669 -0.8157  3.6428  1.3063
 7019SOL     OW32515   0.009   0.993   6.368 -0.5313 -0.4387  0.1608
 7019SOL    HW132516   0.039   1.059   6.431  0.7451 -1.0416  0.1926
 7019SOL    HW232517   0.017   0.912   6.419 -0.7161  0.0470  0.9615
 7020SOL     OW32518   1.939   2.053   4.130 -0.6778 -0.2466  0.5780
 7020SOL    HW132519   1.866   2.091   4.180  0.2742  0.7884  1.1965
 7020SOL    HW232520   1.977   1.987   4.189 -1.4462 -2.2600 -1.1823
 7021SOL     OW32521   0.337   3.775   9.508 -0.5706 -0.5138  0.2451
 7021SOL    HW132522   0.345   3.699   9.565 -1.6742 -1.1506 -0.4551
 7021SOL    HW232523   0.423   3.813   9.525 -1.4424  0.1241  3.2627
 7022SOL     OW32524   3.337   2.508   2.118 -0.0465 -0.0657  0.5549
 7022SOL    HW132525   3.339   2.553   2.203  1.2507 -1.1916  1.1227
 7022SOL    HW232526   3.412   2.551   2.076 -0.6131 -0.1927 -0.5611
 7023SOL     OW32527   1.887   2.636  12.159  0.1458 -0.3621 -0.0329
 7023SOL    HW132528   1.889   2.631  12.255  2.4845  1.3460  0.0115
 7023SOL    HW232529   1.945   2.561  12.142 -2.0005 -1.3831 -2.7756
 7024SOL     OW32530   0.284   4.148  13.714 -0.2753  0.1975  0.2371
 7024SOL    HW132531   0.291   4.240  13.737 -1.3311  0.2611  0.3009
 7024SOL    HW232532   0.243   4.113  13.793 -0.9735  0.4426 -0.0227
 7025SOL     OW32533   3.250   3.203   6.328 -0.6298 -0.2916 -0.1610
 7025SOL    HW132534   3.177   3.163   6.281  0.1400  1.9255 -3.2462
 7025SOL    HW232535   3.200   3.253   6.393  1.0856  0.5856  0.4688
 7026SOL     OW32536   4.327   2.463   0.735  0.5123 -0.8820 -0.1019
 7026SOL    HW132537   4.379   2.439   0.812 -0.0212  1.0083  0.8310
 7026SOL    HW232538   4.384   2.522   0.685  0.9075  0.4314  1.8994
 7027SOL     OW32539   1.582   3.926   5.200  0.2091  0.4338 -0.0182
 7027SOL    HW132540   1.513   3.897   5.260  0.8228  1.9551  1.4132
 7027SOL    HW232541   1.531   3.965   5.128  1.2644 -0.7112 -1.3833
 7028SOL     OW32542   0.258   2.495  14.344 -0.6596 -0.3941 -0.1297
 7028SOL    HW132543   0.168   2.470  14.362 -1.3621  1.1285 -1.5448
 7028SOL    HW232544   0.269   2.563  14.411 -2.7969 -0.8966  0.7036
 7029SOL     OW32545   2.510   1.759   2.690 -0.2195 -0.0672 -0.1504
 7029SOL    HW132546   2.573   1.805   2.745  0.5479 -0.5983 -0.5789
 7029SOL    HW232547   2.424   1.786   2.720  0.2650  1.8667 -0.4970
 7030SOL     OW32548   4.680   2.690   0.914 -0.4317  0.3686  0.2419
 7030SOL    HW132549   4.593   2.728   0.928  0.2930  1.7477  0.9614
 7030SOL    HW232550   0.004   2.753   0.858  2.2481 -2.1902 -0.4894
 7031SOL     OW32551   0.646   1.943  11.324 -0.0927  0.3857 -0.1338
 7031SOL    HW132552   0.706   1.995  11.379 -1.5804  0.9958  0.9034
 7031SOL    HW232553   0.586   1.910  11.391 -0.6730  1.2944 -0.2024
 7032SOL     OW32554   2.871   4.379   3.856  0.0593  0.0031  0.1999
 7032SOL    HW132555   2.791   4.418   3.891 -0.8444 -0.4624 -1.3241
 7032SOL    HW232556   2.881   4.437   3.781  0.7889 -1.4810 -0.8467
 7033SOL     OW32557   1.249   0.048  10.946  0.2016  0.7543 -0.5823
 7033SOL    HW132558   1.305   4.695  10.919 -1.2966  0.0724 -1.8126
 7033SOL    HW232559   1.167   4.720  10.956 -0.1427  0.8114 -3.0904
 7034SOL     OW32560   3.746   0.605   6.432 -0.0182 -0.2916  0.3399
 7034SOL    HW132561   3.807   0.608   6.505 -1.1529  2.2377  1.1832
 7034SOL    HW232562   3.776   0.525   6.390 -1.1452  0.3545 -1.7150
 7035SOL     OW32563   0.189   4.057   5.390  0.0479  0.1139 -0.2573
 7035SOL    HW132564   0.097   4.046   5.413  0.1688  0.5214  0.4448
 7035SOL    HW232565   0.228   4.066   5.477 -0.5766  0.3743 -0.0045
 7036SOL     OW32566   3.511   4.425  17.578 -0.5277 -0.0542 -0.3082
 7036SOL    HW132567   3.491   4.374  17.656  1.1499 -0.8553 -0.4019
 7036SOL    HW232568   3.481   4.511  17.608 -1.3447 -0.7261  0.8167
 7037SOL     OW32569   4.252   2.774  16.611  0.2883  0.0359  0.0110
 7037SOL    HW132570   4.310   2.850  16.612  3.2382 -2.1578 -3.5281
 7037SOL    HW232571   4.238   2.749  16.520  2.7506  0.5159 -0.4958
 7038SOL     OW32572   4.317   0.965  12.504 -0.3481  0.6183 -0.6179
 7038SOL    HW132573   4.309   0.896  12.437  1.1572 -1.2311  1.1043
 7038SOL    HW232574   4.405   1.001  12.491 -1.0470  1.9655 -1.5691
 7039SOL     OW32575   3.154   1.100   6.491  0.1307 -0.0339  0.3328
 7039SOL    HW132576   3.172   1.006   6.501  0.6017 -0.4300 -4.3491
 7039SOL    HW232577   3.149   1.112   6.396 -0.0177 -1.4734  0.1475
 7040SOL     OW32578   1.290   0.773   8.584 -0.1053  0.0508  0.0820
 7040SOL    HW132579   1.237   0.794   8.661 -0.6838  0.4577 -0.4301
 7040SOL    HW232580   1.357   0.839   8.601 -0.1728  0.2919 -0.6230
 7041SOL     OW32581   1.859   3.915   9.038  0.1416 -0.0295 -0.4199
 7041SOL    HW132582   1.807   3.905   8.957  0.4057  0.7755 -0.6883
 7041SOL    HW232583   1.951   3.931   9.018 -0.4729  4.0746  0.1941
 7042SOL     OW32584   3.885   1.439   2.987 -0.2300  0.7351  0.0681
 7042SOL    HW132585   3.826   1.423   3.061  0.9287  2.8918  1.4742
 7042SOL    HW232586   3.956   1.480   3.036 -3.2757  1.9091  3.5108
 7043SOL     OW32587   2.603   2.472  15.827  0.9761 -0.2564 -0.0054
 7043SOL    HW132588   2.625   2.565  15.821  0.5705 -0.0702  1.4529
 7043SOL    HW232589   2.510   2.480  15.806  1.0891  0.6008 -0.2047
 7044SOL     OW32590   3.621   2.230   2.807 -0.1316 -0.3646  0.5675
 7044SOL    HW132591   3.703   2.264   2.843 -0.1945 -0.2110  0.5653
 7044SOL    HW232592   3.565   2.308   2.803 -1.3347 -1.3792 -2.1312
 7045SOL     OW32593   1.811   4.677   4.155  0.3595 -0.6464 -0.1830
 7045SOL    HW132594   1.723   4.694   4.189 -0.0282 -0.2393 -1.4153
 7045SOL    HW232595   1.819   4.585   4.180 -0.9503 -0.8320 -0.4729
 7046SOL     OW32596   2.074   2.998   8.417 -0.6053  0.7919  0.6254
 7046SOL    HW132597   1.995   2.999   8.363  1.6243  2.2743 -2.6278
 7046SOL    HW232598   2.034   3.012   8.503 -1.3064 -2.8449  0.9042
 7047SOL     OW32599   2.180   0.635  11.151 -0.6478  0.1029  0.5792
 7047SOL    HW132600   2.087   0.630  11.125  0.2545 -0.5000 -2.5992
 7047SOL    HW232601   2.184   0.591  11.236 -1.1841 -1.8504 -0.3993
 7048SOL     OW32602   0.344   1.662   5.570 -0.9937  0.2985  0.2493
 7048SOL    HW132603   0.282   1.617   5.512  1.8452 -2.3531 -0.7317
 7048SOL    HW232604   0.381   1.731   5.515 -0.1662 -1.1218 -0.9583
 7049SOL     OW32605   2.197   1.949  14.402  0.1909 -0.2280  0.1265
 7049SOL    HW132606   2.193   1.854  14.391 -2.2466 -0.0104 -1.0087
 7049SOL    HW232607   2.121   1.955  14.461  0.7037  4.3870  0.3306
 7050SOL     OW32608   0.822   1.612   6.411  0.4977 -0.3665 -0.1985
 7050SOL    HW132609   0.741   1.604   6.461  1.0983 -3.0431  0.3755
 7050SOL    HW232610   0.813   1.703   6.382  1.9001  0.0025  0.5049
 7051SOL     OW32611   2.628   4.433   4.219 -0.5632 -0.7505 -0.2317
 7051SOL    HW132612   2.539   4.446   4.187 -1.0304 -3.9708 -0.2576
 7051SOL    HW232613   2.618   4.426   4.314 -0.1607 -0.5072 -0.1709
 7052SOL     OW32614   3.632   0.953   8.162 -0.1961  0.0011  0.3812
 7052SOL    HW132615   3.602   0.961   8.252 -0.3518  2.0112  0.1466
 7052SOL    HW232616   3.679   0.869   8.168 -0.3614 -0.1623 -0.5663
 7053SOL     OW32617   2.105   2.240   1.352  0.2850  0.1956  0.1978
 7053SOL    HW132618   2.022   2.194   1.361  0.2530  0.3751  0.8168
 7053SOL    HW232619   2.075   2.331   1.353 -0.1492  0.0887 -2.8119
 7054SOL     OW32620   1.847   1.014   9.857 -0.8791  0.1213  0.0253
 7054SOL    HW132621   1.910   0.999   9.787 -0.1922  1.3850  0.3676
 7054SOL    HW232622   1.907   0.993   9.929 -1.2732 -1.1279 -0.0227
 7055SOL     OW32623   3.481   2.428   6.114 -0.3491  0.2431  0.1762
 7055SOL    HW132624   3.519   2.466   6.192 -0.3582  2.0371 -0.6973
 7055SOL    HW232625   3.512   2.482   6.041 -0.3937 -0.5992 -0.4731
 7056SOL     OW32626   3.875   0.347   7.864  0.0268  0.0063 -0.0476
 7056SOL    HW132627   3.963   0.382   7.878  0.1219  0.0882 -0.8421
 7056SOL    HW232628   3.878   0.264   7.912  2.2094  0.1910  0.1015
 7057SOL     OW32629   1.363   2.511  13.125 -0.1540  0.1910 -0.5225
 7057SOL    HW132630   1.371   2.422  13.092 -0.0023 -0.7717  2.1502
 7057SOL    HW232631   1.449   2.536  13.158 -0.6847 -0.3678  1.2802
 7058SOL     OW32632   2.725   3.211   2.753  0.6910 -0.1170 -0.0487
 7058SOL    HW132633   2.650   3.166   2.715  0.4649  0.9454 -0.8480
 7058SOL    HW232634   2.708   3.183   2.843  1.2755  2.5794  0.9063
 7059SOL     OW32635   3.650   3.373   8.814  0.0462  0.4889 -0.2201
 7059SOL    HW132636   3.706   3.309   8.858 -1.1367 -1.4863 -1.5948
 7059SOL    HW232637   3.631   3.426   8.891  0.0963  1.2047 -0.6984
 7060SOL     OW32638   3.560   4.340   3.917  0.0124  0.1573 -0.1810
 7060SOL    HW132639   3.590   4.278   3.851  0.1052 -1.6908  1.5817
 7060SOL    HW232640   3.503   4.282   3.968 -2.2055  2.1149 -0.4478
 7061SOL     OW32641   2.877   4.659   7.257  0.2981  0.5230  0.2189
 7061SOL    HW132642   2.886   0.030   7.231  2.3409 -0.2759 -1.8832
 7061SOL    HW232643   2.967   4.626   7.256 -0.2609 -1.0379  1.1139
 7062SOL     OW32644   0.663   3.200   9.652 -0.1347  0.2301 -0.3731
 7062SOL    HW132645   0.677   3.162   9.739  0.9282 -2.1582 -1.5869
 7062SOL    HW232646   0.659   3.292   9.678  0.7599  0.5340 -1.3367
 7063SOL     OW32647   1.824   1.187   6.735  0.1670  0.5381  0.0707
 7063SOL    HW132648   1.838   1.170   6.642  0.4288  0.5552  0.1079
 7063SOL    HW232649   1.823   1.282   6.732  1.5434  0.5770  1.3049
 7064SOL     OW32650   0.501   4.440   0.479  0.2323 -0.4610 -0.6249
 7064SOL    HW132651   0.596   4.450   0.478  0.1162  0.6374 -0.6832
 7064SOL    HW232652   0.488   4.345   0.483 -0.8645 -0.2221  1.4613
 7065SOL     OW32653   3.245   3.534   8.632  0.5524  0.1485 -0.2598
 7065SOL    HW132654   3.242   3.629   8.642  0.6552  0.2674 -1.3697
 7065SOL    HW232655   3.268   3.515   8.723  2.6068 -2.1175 -1.2702
 7066SOL     OW32656   1.438   1.173   0.378 -0.2806 -0.0645 -0.1781
 7066SOL    HW132657   1.397   1.088   0.365 -2.5421  1.0982 -0.6109
 7066SOL    HW232658   1.432   1.211   0.291 -1.0318  3.2069  1.2829
 7067SOL     OW32659   2.337   0.525   5.444 -0.4680  0.2598  0.2119
 7067SOL    HW132660   2.284   0.502   5.521 -0.6422  0.8973  0.2825
 7067SOL    HW232661   2.426   0.542   5.473 -0.3530 -0.7396  0.4409
 7068SOL     OW32662   2.561   1.925  14.862 -0.0606 -0.0996 -0.1123
 7068SOL    HW132663   2.547   2.019  14.852 -0.2532  0.2884  3.9376
 7068SOL    HW232664   2.641   1.912  14.812  0.1458 -1.7076  0.6427
 7069SOL     OW32665   4.250   1.551  15.971 -0.0653  0.1377 -0.1430
 7069SOL    HW132666   4.164   1.587  15.951 -0.5416  0.6953  2.7937
 7069SOL    HW232667   4.304   1.586  15.901  0.0219 -0.1652 -0.2285
 7070SOL     OW32668   3.265   3.109   6.723  0.7581 -0.0486 -0.2009
 7070SOL    HW132669   3.307   3.040   6.672  1.1402 -0.2613  0.3996
 7070SOL    HW232670   3.350   3.152   6.721  1.2100 -0.9043  0.4828
 7071SOL     OW32671   0.200   3.102   3.837  0.4390 -0.1862 -0.0337
 7071SOL    HW132672   0.258   3.072   3.767 -0.4809 -0.7145 -0.5669
 7071SOL    HW232673   0.214   3.197   3.837  0.8891 -0.2534  0.7042
 7072SOL     OW32674   0.697   2.433   2.206  0.2918  0.0007 -0.0532
 7072SOL    HW132675   0.704   2.394   2.119 -0.8398 -2.0798  0.8108
 7072SOL    HW232676   0.750   2.513   2.198  0.6509  0.0232  2.5686
 7073SOL     OW32677   0.283   0.354   0.532 -0.2410  0.7244 -0.1012
 7073SOL    HW132678   0.364   0.362   0.481 -0.3054  1.0534 -0.1512
 7073SOL    HW232679   0.318   0.309   0.609 -0.7946 -0.3524 -0.4772
 7074SOL     OW32680   2.280   0.938  10.073  0.1636  0.0108 -0.6147
 7074SOL    HW132681   2.352   0.879  10.052 -0.2250  0.1091 -2.2312
 7074SOL    HW232682   2.320   0.975  10.152  0.2341 -1.3498 -0.0085
 7075SOL     OW32683   4.490   1.776   3.908 -0.1318 -0.2461  1.3487
 7075SOL    HW132684   4.492   1.688   3.944  2.0657 -1.1328 -0.9581
 7075SOL    HW232685   4.436   1.828   3.968 -0.5602 -0.8689  1.4995
 7076SOL     OW32686   0.531   1.644   9.085 -0.9749 -0.4444  0.2911
 7076SOL    HW132687   0.438   1.667   9.083 -0.7671  0.7192  3.0591
 7076SOL    HW232688   0.536   1.559   9.041 -0.5461  0.1059 -0.7264
 7077SOL     OW32689   0.984   3.475   2.023 -0.4177  0.2693 -0.2428
 7077SOL    HW132690   0.975   3.424   2.104 -0.0576  2.2235  1.0081
 7077SOL    HW232691   0.892   3.488   2.002 -0.1345  0.5684 -1.2839
 7078SOL     OW32692   4.604   0.161   6.480 -0.2881  0.2142  0.4651
 7078SOL    HW132693   4.637   0.242   6.520  1.9958 -1.1392  1.3623
 7078SOL    HW232694   4.644   0.168   6.393 -0.1811 -0.9688  0.4191
 7079SOL     OW32695   0.788   0.964   3.360  0.0845 -0.3052  0.0690
 7079SOL    HW132696   0.875   1.003   3.358  0.8558 -2.1366 -1.5481
 7079SOL    HW232697   0.793   0.936   3.451 -1.9364 -3.5185 -0.8076
 7080SOL     OW32698   4.361   4.537   9.728 -0.1173 -0.2968 -0.0134
 7080SOL    HW132699   4.286   4.483   9.707  0.0818 -0.7948  0.5681
 7080SOL    HW232700   4.402   4.487   9.798  0.2976  1.0364  0.6976
 7081SOL     OW32701   1.030   1.957   6.886  0.2071 -0.6583  0.1070
 7081SOL    HW132702   0.946   1.945   6.930 -0.1382 -0.9659 -0.6498
 7081SOL    HW232703   1.020   2.036   6.833 -0.4187  1.2665  3.1089
 7082SOL     OW32704   2.035   3.675   6.325 -0.5515  0.3075  0.9650
 7082SOL    HW132705   2.102   3.711   6.268 -1.3634  1.1617  0.5419
 7082SOL    HW232706   2.063   3.584   6.336  0.4152  0.6508  1.3433
 7083SOL     OW32707   0.976   3.535   9.118 -0.0285  0.7437  0.1552
 7083SOL    HW132708   1.026   3.523   9.199  1.2763  0.2487 -0.7303
 7083SOL    HW232709   0.935   3.450   9.109 -1.0372  1.3724 -1.1375
 7084SOL     OW32710   4.695   3.234   7.878 -0.4578  0.2524 -0.1628
 7084SOL    HW132711   4.626   3.215   7.941  0.0422 -0.6400  0.1073
 7084SOL    HW232712   0.007   3.146   7.861 -1.2135  0.6837 -3.8118
 7085SOL     OW32713   3.666   0.912   0.776 -0.1883 -0.0376  0.1615
 7085SOL    HW132714   3.626   0.997   0.758 -0.4808 -0.4821 -1.2708
 7085SOL    HW232715   3.631   0.903   0.865 -3.7655  4.1910 -0.8215
 7086SOL     OW32716   0.405   4.124  16.255  0.3474  0.5091 -0.3432
 7086SOL    HW132717   0.333   4.174  16.293 -0.3113 -0.0372 -0.8671
 7086SOL    HW232718   0.359   4.060  16.200 -2.9886  2.0482  0.6661
 7087SOL     OW32719   2.921   4.666  17.055  0.3046  0.3240 -0.3077
 7087SOL    HW132720   2.839   4.710  17.031 -0.2167  0.1613  1.1858
 7087SOL    HW232721   2.919   4.679  17.150 -0.0173 -0.2584 -0.2285
 7088SOL     OW32722   1.492   3.303   3.013  0.7793 -0.4712  0.0913
 7088SOL    HW132723   1.402   3.321   2.984  0.3640 -0.1726  1.5664
 7088SOL    HW232724   1.478   3.209   3.025 -3.2912  0.0587 -0.5162
 7089SOL     OW32725   0.931   1.402   7.654  0.3999  0.4808 -0.6345
 7089SOL    HW132726   0.932   1.376   7.562 -1.1004 -0.9109 -0.2526
 7089SOL    HW232727   0.840   1.395   7.682  0.4942  0.3958 -0.3515
 7090SOL     OW32728   4.500   1.807   4.853  0.7152 -0.1642  0.4841
 7090SOL    HW132729   4.421   1.860   4.865  0.0957 -0.4711 -2.3749
 7090SOL    HW232730   4.560   1.863   4.903  1.5920  0.4326 -1.2655
 7091SOL     OW32731   4.316   3.038   6.512 -0.1674  0.4897  0.7830
 7091SOL    HW132732   4.330   2.978   6.439  0.7951  1.2783  0.3281
 7091SOL    HW232733   4.369   3.007   6.585  0.6130 -0.8548 -0.3656
 7092SOL     OW32734   2.220   4.446  15.714  0.3549  0.6034  0.2556
 7092SOL    HW132735   2.288   4.476  15.654  1.1021 -0.3535  0.6051
 7092SOL    HW232736   2.168   4.400  15.648 -3.1686  1.8073  2.1923
 7093SOL     OW32737   1.699   0.056   6.367  0.6294 -0.3089 -0.0357
 7093SOL    HW132738   1.749   0.002   6.306 -1.5453 -1.5937 -0.7012
 7093SOL    HW232739   1.769   0.112   6.400  0.5450 -0.1110 -0.2004
 7094SOL     OW32740   3.524   2.095   3.139 -0.6814 -0.3525 -0.3260
 7094SOL    HW132741   3.455   2.136   3.087 -1.4267 -0.3105  0.6809
 7094SOL    HW232742   3.525   2.003   3.111 -0.1525  0.1075 -1.7973
 7095SOL     OW32743   0.759   1.879   4.071  0.2755  0.1758 -0.3966
 7095SOL    HW132744   0.794   1.868   4.159 -1.1707 -0.4522  0.1117
 7095SOL    HW232745   0.722   1.965   4.091 -0.7714 -0.4138  0.2410
 7096SOL     OW32746   2.507   1.064   2.755  0.4376  0.0443 -0.0370
 7096SOL    HW132747   2.602   1.068   2.759  0.4247  2.5967 -2.4937
 7096SOL    HW232748   2.486   1.157   2.762  0.0069  0.0181 -1.0372
 7097SOL     OW32749   0.639   0.642   8.129  0.2199 -0.0471 -0.0402
 7097SOL    HW132750   0.577   0.706   8.164  0.1277 -0.2961  0.2522
 7097SOL    HW232751   0.655   0.679   8.042  1.4966  1.2142  0.7174
 7098SOL     OW32752   2.535   2.089   7.011  0.1911 -0.3195  0.2315
 7098SOL    HW132753   2.598   2.106   7.080  0.7271  0.5513 -0.4630
 7098SOL    HW232754   2.563   2.006   6.972  0.3588 -0.8668  1.5324
 7099SOL     OW32755   0.089   4.216   8.136 -0.4632  0.5291  0.2007
 7099SOL    HW132756   0.078   4.135   8.086 -0.5961  0.9996 -0.5325
 7099SOL    HW232757   0.168   4.256   8.099 -0.3489 -1.2223 -1.4906
 7100SOL     OW32758   1.709   3.749   4.251 -0.1596 -0.0900  0.2100
 7100SOL    HW132759   1.628   3.783   4.288  0.4075  0.9972  0.4594
 7100SOL    HW232760   1.773   3.774   4.319  0.4364  0.7098 -0.6415
 7101SOL     OW32761   1.538   2.507  12.395 -0.1678 -0.1398  0.2525
 7101SOL    HW132762   1.553   2.580  12.336  0.0252  0.2754  0.8228
 7101SOL    HW232763   1.581   2.437  12.346  1.5337  0.9761  0.1888
 7102SOL     OW32764   2.252   4.232   9.849  0.4245 -0.2058 -0.2649
 7102SOL    HW132765   2.272   4.171   9.921 -2.3399  0.0662  0.7105
 7102SOL    HW232766   2.332   4.228   9.797 -0.0699  0.1303 -1.0443
 7103SOL     OW32767   0.479   1.868  10.232  0.1515  0.1088  0.2212
 7103SOL    HW132768   0.482   1.784  10.279  0.0062  0.3387  0.6440
 7103SOL    HW232769   0.558   1.863  10.179 -0.1313  0.5987 -0.2496
 7104SOL     OW32770   0.015   2.281   6.581  0.0485  0.9634  0.0205
 7104SOL    HW132771   0.059   2.248   6.660  1.8856  1.2529 -0.8837
 7104SOL    HW232772   0.062   2.239   6.509 -2.1633 -0.0133 -0.8709
 7105SOL     OW32773   3.088   1.956   6.797  0.4129 -0.5649  0.2691
 7105SOL    HW132774   3.125   2.013   6.730  0.9941  0.1368  1.1972
 7105SOL    HW232775   3.085   1.879   6.740 -0.8242  0.5033 -1.1108
 7106SOL     OW32776   3.043   4.621   3.309  0.7020  0.0907  0.0109
 7106SOL    HW132777   2.985   4.587   3.241  2.6630  1.3018 -2.2969
 7106SOL    HW232778   3.031   4.550   3.372 -0.9861 -0.6004 -1.0887
 7107SOL     OW32779   0.370   0.451  10.782 -0.0359  0.1567  0.0608
 7107SOL    HW132780   0.320   0.503  10.720  0.6764  0.9022  0.1205
 7107SOL    HW232781   0.374   0.510  10.857 -1.2098  0.0672  0.1892
 7108SOL     OW32782   4.032   1.173   9.094  0.5388 -0.3941  0.0421
 7108SOL    HW132783   4.065   1.084   9.079  0.9487 -0.4233  1.1098
 7108SOL    HW232784   3.938   1.158   9.094  0.4473  0.0574  3.1682
 7109SOL     OW32785   4.312   1.144  11.083  0.7159 -0.0983  0.3731
 7109SOL    HW132786   4.374   1.201  11.128  0.6304 -0.3261  0.7794
 7109SOL    HW232787   4.267   1.216  11.038  2.1023  0.8535  0.5010
 7110SOL     OW32788   3.321   2.828   3.457 -0.5149  0.6968  0.7356
 7110SOL    HW132789   3.304   2.747   3.506  1.3318 -0.3941 -0.4106
 7110SOL    HW232790   3.253   2.820   3.390 -0.0362 -4.1152  0.8067
 7111SOL     OW32791   1.169   4.644   6.338 -0.3076 -0.1677 -0.5888
 7111SOL    HW132792   1.196   4.589   6.264 -2.8650  0.0072 -1.6684
 7111SOL    HW232793   1.085   4.604   6.360 -0.4279 -0.0725 -0.8718
 7112SOL     OW32794   3.841   2.532   5.059 -0.7658  0.6910 -0.3354
 7112SOL    HW132795   3.818   2.618   5.096 -0.3117  0.6215  0.1058
 7112SOL    HW232796   3.879   2.561   4.976 -0.2248 -1.3054 -0.7844
 7113SOL     OW32797   2.931   4.007   9.540 -0.1900  0.0483 -0.4161
 7113SOL    HW132798   2.880   3.928   9.522  0.6559 -0.1191 -2.0536
 7113SOL    HW232799   3.021   3.987   9.518 -0.9941 -2.1591 -1.6555
 7114SOL     OW32800   1.013   2.742  16.365 -0.3656 -0.0437  0.4445
 7114SOL    HW132801   1.099   2.700  16.369  0.5745  2.1219  2.9565
 7114SOL    HW232802   1.044   2.833  16.367 -2.7490  0.7644  1.4942
 7115SOL     OW32803   4.110   3.385   6.664  0.6424 -0.0026 -0.4019
 7115SOL    HW132804   4.191   3.390   6.614  0.8186  1.2898  0.0163
 7115SOL    HW232805   4.138   3.365   6.753 -1.1877 -0.7918 -0.0114
 7116SOL     OW32806   1.446   2.670   5.859  0.1385 -0.7452  0.1662
 7116SOL    HW132807   1.357   2.646   5.886  0.1978 -0.3446  0.7134
 7116SOL    HW232808   1.469   2.727   5.932 -0.0951  0.3111 -0.5771
 7117SOL     OW32809   2.211   3.777   3.792  0.3723  0.2689 -0.2309
 7117SOL    HW132810   2.138   3.795   3.734 -0.7227 -2.3916  0.3216
 7117SOL    HW232811   2.279   3.765   3.726  1.0321 -2.0251  0.8630
 7118SOL     OW32812   4.202   1.373  10.996  0.1052 -0.0222 -0.0176
 7118SOL    HW132813   4.129   1.347  10.940 -1.1812  1.7585  0.8518
 7118SOL    HW232814   4.167   1.447  11.044 -0.1050 -0.7782  0.9822
 7119SOL     OW32815   0.632   2.140   7.597  0.1346 -0.4148 -0.0110
 7119SOL    HW132816   0.649   2.175   7.685 -2.9077 -2.3102  1.3120
 7119SOL    HW232817   0.547   2.180   7.575 -0.3854 -1.4591  0.1189
 7120SOL     OW32818   0.682   0.353   2.818 -0.1298  0.2776  0.3792
 7120SOL    HW132819   0.658   0.330   2.728  1.4751 -0.2423  0.0880
 7120SOL    HW232820   0.763   0.402   2.810 -0.1139  0.3486  1.0035
 7121SOL     OW32821   2.872   4.049   7.130 -0.5055 -0.6001 -0.0088
 7121SOL    HW132822   2.830   4.031   7.215 -1.1318 -1.8842 -0.5969
 7121SOL    HW232823   2.826   3.991   7.070 -3.8288  1.3583  0.6095
 7122SOL     OW32824   2.062   0.114   4.918 -0.1202  0.1520 -0.4718
 7122SOL    HW132825   2.077   0.103   4.824  1.9395  2.8175 -0.4634
 7122SOL    HW232826   1.970   0.141   4.918 -0.0925  0.2504  0.2207
 7123SOL     OW32827   3.472   1.848   3.008 -0.4730 -0.2800 -0.5067
 7123SOL    HW132828   3.566   1.830   3.011 -0.3352  0.5181 -0.1088
 7123SOL    HW232829   3.449   1.852   2.915  4.2214 -3.0420 -1.7924
 7124SOL     OW32830   0.470   0.810   3.077  0.0560  0.5647 -0.4186
 7124SOL    HW132831   0.389   0.762   3.060  1.1099 -1.7269  1.0613
 7124SOL    HW232832   0.501   0.816   2.987  1.3596  2.6133  0.1577
 7125SOL     OW32833   3.259   4.036   0.843  0.3830 -0.7813  0.8355
 7125SOL    HW132834   3.333   4.067   0.895  0.6723  2.2978 -1.4352
 7125SOL    HW232835   3.186   4.049   0.904 -0.6106 -1.2249 -0.2519
 7126SOL     OW32836   1.042   1.785   8.495  0.4002  0.3242 -0.4456
 7126SOL    HW132837   1.062   1.774   8.588  0.6356  2.1970 -0.2734
 7126SOL    HW232838   1.039   1.693   8.467 -0.6316  0.5248 -0.9813
 7127SOL     OW32839   2.701   3.449   0.148 -0.4038 -0.4122  0.5064
 7127SOL    HW132840   2.691   3.544   0.138 -0.9165 -0.5680 -0.5027
 7127SOL    HW232841   2.703   3.433   0.242  1.3617 -0.7671  0.4055
 7128SOL     OW32842   4.205   1.213   8.711  0.0314 -0.0050  0.6555
 7128SOL    HW132843   4.138   1.268   8.752 -0.0335  1.4343 -1.3826
 7128SOL    HW232844   4.270   1.274   8.677  1.9627 -2.1116  0.5304
 7129SOL     OW32845   2.422   0.216   4.650  0.2382 -0.9961 -0.1083
 7129SOL    HW132846   2.501   0.203   4.597  0.3140 -1.8934  0.2190
 7129SOL    HW232847   2.417   0.311   4.639  1.1082 -0.8290  0.8808
 7130SOL     OW32848   2.311   2.959   4.553 -0.1905  0.3886 -0.0569
 7130SOL    HW132849   2.358   3.035   4.518 -0.6827  2.0299  2.8735
 7130SOL    HW232850   2.366   2.936   4.627 -0.1938 -2.8238 -1.0531
 7131SOL     OW32851   3.388   2.043   5.766  0.4007  0.1808  0.4827
 7131SOL    HW132852   3.381   2.064   5.859 -1.0149  1.4431  0.0979
 7131SOL    HW232853   3.365   2.128   5.728  2.4133  0.4644 -0.1257
 7132SOL     OW32854   0.131   1.079   3.534  0.3114 -0.0496  0.3460
 7132SOL    HW132855   0.164   1.168   3.541 -0.3778  0.2021  0.4233
 7132SOL    HW232856   0.199   1.031   3.486  0.6765 -0.4224  1.2398
 7133SOL     OW32857   2.654   0.566  16.986  0.1143 -0.4767  0.3177
 7133SOL    HW132858   2.560   0.579  16.980 -0.2518 -2.3915  1.8281
 7133SOL    HW232859   2.667   0.509  16.911 -0.7906  0.8854 -0.8575
 7134SOL     OW32860   3.348   2.700   7.966 -0.2354 -0.5815  0.8426
 7134SOL    HW132861   3.414   2.761   7.933 -0.3212 -0.2929  1.2138
 7134SOL    HW232862   3.400   2.658   8.034  1.4988 -0.6736 -0.5345
 7135SOL     OW32863   0.684   2.597   7.907 -0.2096 -0.4072 -0.2830
 7135SOL    HW132864   0.757   2.551   7.948  0.7554  0.5803 -0.8812
 7135SOL    HW232865   0.610   2.572   7.962 -0.0466  0.9158  0.5241
 7136SOL     OW32866   2.363   3.897   8.255 -0.4089 -0.0571 -0.0742
 7136SOL    HW132867   2.410   3.950   8.191 -2.0813 -0.6505 -1.7790
 7136SOL    HW232868   2.296   3.957   8.288 -1.4558 -1.4580  0.3503
 7137SOL     OW32869   2.279   1.535   0.187 -0.2196 -0.9027  0.3316
 7137SOL    HW132870   2.238   1.466   0.239  0.8608  0.6193  3.1945
 7137SOL    HW232871   2.226   1.613   0.205 -2.6232 -1.9197 -2.3024
 7138SOL     OW32872   0.512   1.683   6.285 -0.5598 -0.5183  0.4061
 7138SOL    HW132873   0.591   1.717   6.326 -1.2541  0.4763  0.8995
 7138SOL    HW232874   0.477   1.755   6.233  3.9325  0.1194 -1.7587
 7139SOL     OW32875   1.415   3.582   7.019  0.2696  0.7950 -0.8326
 7139SOL    HW132876   1.439   3.635   7.095 -0.7735 -1.4641  1.0879
 7139SOL    HW232877   1.413   3.644   6.947 -0.4247  0.2572 -1.2814
 7140SOL     OW32878   4.035   2.890   7.415  0.3361  0.1914 -0.3751
 7140SOL    HW132879   4.034   2.869   7.322  1.8971  0.2892 -0.4100
 7140SOL    HW232880   4.129   2.894   7.432  0.5026 -2.7033 -0.5305
 7141SOL     OW32881   4.656   2.602   4.331 -0.5049 -0.8317 -0.1495
 7141SOL    HW132882   4.669   2.672   4.396 -0.8740 -2.1238  1.3084
 7141SOL    HW232883   4.698   2.525   4.368 -1.1201 -1.0295  0.1330
 7142SOL     OW32884   3.755   3.325  11.757  0.0478 -0.0698  0.2870
 7142SOL    HW132885   3.723   3.376  11.831 -0.8207  0.4658 -0.4451
 7142SOL    HW232886   3.843   3.360  11.754 -0.0048 -0.1359 -2.3316
 7143SOL     OW32887   3.768   0.659   1.032 -0.0447 -0.8788  0.0231
 7143SOL    HW132888   3.714   0.737   1.042  3.0842  1.2313  0.5042
 7143SOL    HW232889   3.792   0.632   1.120  0.3458  0.3253  0.2780
 7144SOL     OW32890   3.590   3.718   9.427  0.1329  0.1828 -0.8281
 7144SOL    HW132891   3.516   3.778   9.418  1.2142  1.4015 -1.6172
 7144SOL    HW232892   3.591   3.714   9.523  2.1191  0.9288 -0.8209
 7145SOL     OW32893   1.035   0.572   7.146 -0.0417  0.0449 -0.3779
 7145SOL    HW132894   1.053   0.666   7.141 -0.0936  0.0742 -0.0429
 7145SOL    HW232895   1.114   0.530   7.114  0.4801 -0.6407  1.7842
 7146SOL     OW32896   2.698   1.926   2.793 -0.4506  0.0450  0.3769
 7146SOL    HW132897   2.782   1.970   2.780 -0.1151  0.2756  3.3137
 7146SOL    HW232898   2.716   1.857   2.856  0.6410 -0.0744 -0.0612
 7147SOL     OW32899   0.696   2.770   9.187  0.3723 -0.1138 -0.4536
 7147SOL    HW132900   0.652   2.766   9.102  2.9939 -0.9562 -1.7750
 7147SOL    HW232901   0.782   2.740   9.157  0.8406  0.2493  0.5238
 7148SOL     OW32902   0.640   3.672   8.841  0.0126 -0.8616  0.5385
 7148SOL    HW132903   0.588   3.624   8.906 -0.8622 -2.1883 -1.1407
 7148SOL    HW232904   0.576   3.736   8.807  0.2688 -2.0483 -2.1704
 7149SOL     OW32905   0.306   0.709   1.715 -0.0506 -1.1560 -0.6370
 7149SOL    HW132906   0.378   0.686   1.774 -0.1523 -1.3994 -0.6078
 7149SOL    HW232907   0.343   0.789   1.680 -0.2568 -0.6907  0.1959
 7150SOL     OW32908   3.543   3.127   2.468  0.0788 -0.1995  0.1145
 7150SOL    HW132909   3.597   3.126   2.546  2.4666 -2.6244 -1.5467
 7150SOL    HW232910   3.454   3.115   2.502 -0.3223 -0.2675 -0.9507
 7151SOL     OW32911   0.624   1.255   2.606  0.4198  0.2770 -1.1163
 7151SOL    HW132912   0.678   1.199   2.550  0.7301  0.6922 -1.2347
 7151SOL    HW232913   0.536   1.222   2.589 -0.0760  1.1965 -0.3802
 7152SOL     OW32914   3.861   4.618   7.914 -0.1074  0.5788  0.7233
 7152SOL    HW132915   3.830   4.529   7.904 -0.0248  0.7599 -1.2350
 7152SOL    HW232916   3.955   4.606   7.899  0.0434 -0.1360  2.2836
 7153SOL     OW32917   1.538   0.911   0.547 -0.0556 -0.8312  0.0615
 7153SOL    HW132918   1.597   0.839   0.572 -0.0394 -0.2930  1.5751
 7153SOL    HW232919   1.502   0.879   0.465  0.1425 -0.1638 -0.2807
 7154SOL     OW32920   1.360   2.495   3.769 -0.2230 -0.9614 -0.0379
 7154SOL    HW132921   1.272   2.512   3.736 -0.2146 -1.4416 -0.3113
 7154SOL    HW232922   1.367   2.410   3.726 -0.2085  1.1847 -4.2337
 7155SOL     OW32923   0.064   0.632   7.970 -0.5100  0.0085 -0.7318
 7155SOL    HW132924   0.039   0.542   7.991  2.3626 -0.4582  0.6952
 7155SOL    HW232925   0.135   0.641   8.033 -0.9721  1.2605 -0.3924
 7156SOL     OW32926   0.700   1.093   3.662  0.5577  0.1090 -0.2859
 7156SOL    HW132927   0.680   1.184   3.642  1.2054  0.7424  1.9096
 7156SOL    HW232928   0.615   1.053   3.643  0.2817  0.1850  0.7962
 7157SOL     OW32929   0.792   4.243   9.953  0.1008 -0.5317  0.6116
 7157SOL    HW132930   0.864   4.222  10.013 -0.1047 -2.2575  0.2427
 7157SOL    HW232931   0.812   4.183   9.882 -0.8415 -0.6583  0.4434
 7158SOL     OW32932   3.108   1.668  12.121  0.6581  0.1165 -0.0567
 7158SOL    HW132933   3.102   1.724  12.199 -0.6110 -1.2291  0.8172
 7158SOL    HW232934   3.128   1.727  12.049  1.4254 -0.0007  0.0628
 7159SOL     OW32935   3.432   3.380   3.897  0.7203 -0.2089 -0.6760
 7159SOL    HW132936   3.523   3.352   3.893  0.7912  0.0075 -0.5688
 7159SOL    HW232937   3.444   3.437   3.973 -0.9547 -0.4761 -0.2030
 7160SOL     OW32938   0.286   2.048   2.642  0.3335  0.1760  0.4544
 7160SOL    HW132939   0.296   1.989   2.567 -0.3255  0.1876  0.3622
 7160SOL    HW232940   0.377   2.071   2.660 -0.0465  1.1915  1.0480
 7161SOL     OW32941   0.173   2.696   7.296 -0.4413  0.4141 -0.2539
 7161SOL    HW132942   0.223   2.705   7.377 -0.4944 -0.5281 -0.1165
 7161SOL    HW232943   0.251   2.711   7.242 -0.7177  0.7041 -0.5728
 7162SOL     OW32944   2.002   2.148   8.175  0.3677  0.4629 -0.0014
 7162SOL    HW132945   1.986   2.106   8.090  0.7968 -0.1173  0.2026
 7162SOL    HW232946   1.928   2.208   8.186 -1.3112 -1.3129 -1.4924
 7163SOL     OW32947   3.096   3.801   2.737  0.2443 -0.7696  0.4856
 7163SOL    HW132948   3.033   3.730   2.731  0.1028 -0.7767  2.0851
 7163SOL    HW232949   3.160   3.774   2.803  1.4605 -2.6153 -1.4461
 7164SOL     OW32950   1.795   0.909   5.088 -0.2599 -0.3789 -0.3815
 7164SOL    HW132951   1.825   0.907   5.179  0.3893  2.0178 -0.5329
 7164SOL    HW232952   1.702   0.933   5.090  0.8906  4.0535  0.6079
 7165SOL     OW32953   1.360   3.100   7.030 -0.1649  0.1384  0.0506
 7165SOL    HW132954   1.280   3.070   7.073 -0.0491  1.0110  0.8686
 7165SOL    HW232955   1.421   3.078   7.100 -0.1832  0.5384  0.1895
 7166SOL     OW32956   1.532   0.405  13.176 -0.1851  0.5358  0.5166
 7166SOL    HW132957   1.509   0.460  13.102 -0.7464 -0.2187  0.1232
 7166SOL    HW232958   1.621   0.380  13.152 -0.2725  1.6667 -1.0168
 7167SOL     OW32959   4.248   1.253   1.681  0.1712 -0.6643  0.7919
 7167SOL    HW132960   4.335   1.282   1.708 -0.1014 -0.6054  1.6048
 7167SOL    HW232961   4.220   1.331   1.633  1.5387 -1.0116 -0.5546
 7168SOL     OW32962   1.469   0.130   7.572 -0.1690 -0.6401 -0.3905
 7168SOL    HW132963   1.517   0.120   7.654 -0.4408  0.2611 -0.1181
 7168SOL    HW232964   1.498   0.218   7.548  1.3281 -0.4346  2.1871
 7169SOL     OW32965   1.063   3.492  14.280 -0.9367 -0.3914 -0.5040
 7169SOL    HW132966   1.125   3.452  14.341 -3.7328  0.3081  2.7831
 7169SOL    HW232967   1.106   3.576  14.261  0.0890 -1.3545 -2.4631
 7170SOL     OW32968   4.322   2.659   7.670  0.4869 -0.3328 -0.5472
 7170SOL    HW132969   4.323   2.624   7.759 -0.6405  1.4012  0.1528
 7170SOL    HW232970   4.408   2.702   7.672  1.1664 -1.7199  0.0240
 7171SOL     OW32971   4.019   1.377   2.378 -0.6229  0.0701  0.5545
 7171SOL    HW132972   3.985   1.329   2.453 -0.3839  1.4925  1.5834
 7171SOL    HW232973   3.938   1.386   2.327  0.3147  1.9753 -0.6083
 7172SOL     OW32974   2.327   1.780   6.175 -0.1350 -0.0932 -0.0077
 7172SOL    HW132975   2.246   1.817   6.209  0.2833  0.0361  0.8369
 7172SOL    HW232976   2.331   1.852   6.112 -0.1134 -0.8979 -0.9329
 7173SOL     OW32977   1.814   0.619   6.430  0.4154 -0.3097 -0.1365
 7173SOL    HW132978   1.723   0.602   6.407  0.2280 -1.5046  1.5183
 7173SOL    HW232979   1.801   0.678   6.504  0.4886  1.8611 -1.8503
 7174SOL     OW32980   1.498   0.358  16.795  0.4815 -0.3799  0.4926
 7174SOL    HW132981   1.535   0.369  16.708 -2.1366  1.2145 -0.4311
 7174SOL    HW232982   1.576   0.371  16.848  0.7992 -2.2156  0.4628
 7175SOL     OW32983   3.916   2.777  11.583  0.6030  0.4687  0.2908
 7175SOL    HW132984   3.850   2.811  11.522 -0.1294 -0.1320  0.7400
 7175SOL    HW232985   3.990   2.823  11.544  1.8125 -1.6610  0.0686
 7176SOL     OW32986   1.806   1.895   5.474 -0.1263  0.1143 -0.0392
 7176SOL    HW132987   1.726   1.844   5.461 -0.2071  0.7734 -2.1381
 7176SOL    HW232988   1.798   1.960   5.404 -1.1770  1.0903  0.9967
 7177SOL     OW32989   2.870   0.571  15.793 -0.0001  0.4859  0.2071
 7177SOL    HW132990   2.884   0.627  15.869  4.4016 -1.5113  0.8747
 7177SOL    HW232991   2.830   0.490  15.824 -0.8504  0.0762 -1.9628
 7178SOL     OW32992   1.668   4.202   3.585  0.4162  0.1192  0.1117
 7178SOL    HW132993   1.666   4.264   3.658  2.8867  0.6571 -0.2941
 7178SOL    HW232994   1.663   4.117   3.630 -0.1794  1.1790  2.0271
 7179SOL     OW32995   2.649   2.515   3.698 -0.2804 -0.0581  0.3498
 7179SOL    HW132996   2.662   2.473   3.613  0.8026 -2.1767  1.5716
 7179SOL    HW232997   2.633   2.602   3.661 -0.0781 -0.0535  0.2740
 7180SOL     OW32998   1.539   2.463  12.829  0.2296  0.2460 -0.2318
 7180SOL    HW132999   1.448   2.433  12.822  0.3310 -0.5312  1.7675
 7180SOL    HW233000   1.535   2.557  12.848 -0.5038 -0.1728  1.6849
 7181SOL     OW33001   4.281   0.437   4.747  0.4299  0.5877 -0.9411
 7181SOL    HW133002   4.313   0.483   4.825  1.5537 -0.8964 -0.5027
 7181SOL    HW233003   4.191   0.469   4.743 -0.6168 -1.9157  2.6609
 7182SOL     OW33004   4.470   2.392   4.213 -0.3754  0.4090 -0.2261
 7182SOL    HW133005   4.440   2.417   4.300  1.5264  0.9523  0.2784
 7182SOL    HW233006   4.491   2.466   4.157 -1.5679  1.2047  0.3919
 7183SOL     OW33007   1.815   2.923   0.022  0.2646  0.6482 -0.1374
 7183SOL    HW133008   1.896   2.959   0.057 -1.5928  3.4039  1.2850
 7183SOL    HW233009   1.784   2.869   0.095  0.6687 -0.4188 -0.7521
 7184SOL     OW33010   1.836   2.599   6.552  0.1141 -0.5631 -0.5756
 7184SOL    HW133011   1.878   2.651   6.620 -0.6779 -0.2451 -0.3264
 7184SOL    HW233012   1.883   2.517   6.563  3.5273  1.6773  1.4545
 7185SOL     OW33013   3.111   4.376   5.973  0.3682  0.0200 -0.1617
 7185SOL    HW133014   3.192   4.327   5.986  1.2502  1.3609 -0.6376
 7185SOL    HW233015   3.132   4.469   5.983 -0.0989  0.0466  0.5908
 7186SOL     OW33016   1.375   1.272   8.390 -0.5173 -0.2944  0.1933
 7186SOL    HW133017   1.323   1.259   8.469  1.8012  2.4869  2.1665
 7186SOL    HW233018   1.461   1.297   8.421 -0.0466 -0.6212 -0.8647
 7187SOL     OW33019   3.013   1.738  13.799 -0.6190  0.7015  0.0557
 7187SOL    HW133020   2.987   1.830  13.799  1.4368  1.2935  1.1780
 7187SOL    HW233021   3.097   1.730  13.845 -0.7662  3.1987  0.7988
 7188SOL     OW33022   1.823   1.023   5.617 -0.3134  0.2429 -0.0185
 7188SOL    HW133023   1.882   0.985   5.681 -2.2176 -0.3159  1.4108
 7188SOL    HW233024   1.779   1.083   5.678  0.2207  0.1598  0.4417
 7189SOL     OW33025   1.198   0.101   2.751 -0.3167  0.0936  0.3708
 7189SOL    HW133026   1.139   0.044   2.702  0.5892  0.7360 -1.4762
 7189SOL    HW233027   1.263   0.114   2.683 -1.0668 -0.4153 -0.4406
 7190SOL     OW33028   4.142   3.769   6.272  0.0064 -0.6200  0.2487
 7190SOL    HW133029   4.164   3.743   6.362  0.6539  1.4676  0.7055
 7190SOL    HW233030   4.050   3.746   6.267 -0.0606 -0.5906  1.4214
 7191SOL     OW33031   2.999   3.558   4.507 -0.2308  0.3185  0.3123
 7191SOL    HW133032   2.943   3.621   4.462 -2.2079 -0.5762  1.5670
 7191SOL    HW233033   3.029   3.600   4.587 -0.5356 -2.2117  1.7345
 7192SOL     OW33034   2.874   2.764  16.375  0.1150  0.2212  0.0732
 7192SOL    HW133035   2.881   2.835  16.438 -3.0515  2.1665 -1.7976
 7192SOL    HW233036   2.828   2.698  16.427 -1.0856 -0.7138 -2.1441
 7193SOL     OW33037   2.415   1.669   3.329 -0.0279  0.4759 -0.5242
 7193SOL    HW133038   2.405   1.668   3.424 -0.6351 -3.6155 -0.6332
 7193SOL    HW233039   2.452   1.583   3.308 -1.6085  0.1919 -2.1292
 7194SOL     OW33040   4.623   3.116  13.637  0.2059  0.0456 -0.1220
 7194SOL    HW133041   4.578   3.197  13.612 -2.2998 -1.7146 -1.2943
 7194SOL    HW233042   4.623   3.130  13.731 -0.1043 -0.3179 -0.0709
 7195SOL     OW33043   2.870   4.603   5.285 -0.3439 -0.0745  0.1699
 7195SOL    HW133044   2.875   4.684   5.235  1.2612  0.2984  0.9132
 7195SOL    HW233045   2.926   4.543   5.235  1.0025  1.6802 -0.4249
 7196SOL     OW33046   0.298   4.085   5.628 -0.3637  0.1474 -0.5338
 7196SOL    HW133047   0.339   4.010   5.672 -1.0866 -1.5561 -2.7588
 7196SOL    HW233048   0.247   4.132   5.695  0.3882 -0.0002  0.1461
 7197SOL     OW33049   1.798   3.461   4.760  0.3452  0.6629 -0.2814
 7197SOL    HW133050   1.732   3.523   4.790 -0.5699 -0.8771  0.9084
 7197SOL    HW233051   1.793   3.380   4.811  0.7591  0.7648 -0.0828
 7198SOL     OW33052   0.773   3.855   9.444 -0.0964  0.0337 -0.1808
 7198SOL    HW133053   0.768   3.877   9.351 -0.5836  1.3976  0.1687
 7198SOL    HW233054   0.782   3.763   9.420  0.5142  0.3588 -1.2369
 7199SOL     OW33055   4.406   1.932  11.219  0.6116  0.3536 -0.3223
 7199SOL    HW133056   4.311   1.928  11.228  0.7212  1.9565  1.4098
 7199SOL    HW233057   4.424   1.928  11.313  0.1244  3.1829 -0.1263
 7200SOL     OW33058   3.066   3.212   8.302 -1.0331 -0.4360 -0.0999
 7200SOL    HW133059   3.052   3.307   8.302 -1.7229 -0.5455 -0.9753
 7200SOL    HW233060   3.141   3.199   8.360  0.0630  3.3078 -0.6284
 7201SOL     OW33061   0.020   0.696   3.399  0.1449 -0.2415 -0.6632
 7201SOL    HW133062   4.668   0.647   3.438 -0.1908 -0.6342 -1.7972
 7201SOL    HW233063   0.079   0.624   3.379  0.1367 -1.0316  2.1620
 7202SOL     OW33064   4.565   1.953  12.580  0.2241  0.1196 -0.1531
 7202SOL    HW133065   4.631   1.887  12.560 -2.3719 -2.9363  1.3125
 7202SOL    HW233066   4.551   1.941  12.674 -0.3010  0.6337 -0.1679
 7203SOL     OW33067   3.217   3.533   6.346  0.0407 -0.0976 -0.2441
 7203SOL    HW133068   3.187   3.520   6.257 -4.8289  0.2846  1.3644
 7203SOL    HW233069   3.181   3.450   6.378  2.5708 -0.7328  0.9819
 7204SOL     OW33070   4.411   2.227   3.889  0.5647  0.2919  0.4699
 7204SOL    HW133071   4.400   2.200   3.980 -0.3416  0.2163  0.3374
 7204SOL    HW233072   4.384   2.149   3.841  2.6753 -0.8474  1.1498
 7205SOL     OW33073   4.683   4.094   2.233 -0.0782  0.2610 -0.1214
 7205SOL    HW133074   0.056   4.076   2.242  0.1394  0.6835 -1.4112
 7205SOL    HW233075   4.648   4.006   2.247  0.4076  0.3090  1.3363
 7206SOL     OW33076   1.465   0.397   7.675 -0.6001  0.3002 -0.5531
 7206SOL    HW133077   1.556   0.376   7.697 -0.9033 -1.8815 -1.3595
 7206SOL    HW233078   1.433   0.430   7.758 -0.9927 -0.3831 -0.4354
 7207SOL     OW33079   3.354   0.683  14.848 -0.2628  0.4459 -0.6679
 7207SOL    HW133080   3.298   0.676  14.925 -0.3358 -1.4571 -0.8818
 7207SOL    HW233081   3.432   0.653  14.894  0.1299  0.8412 -1.0715
 7208SOL     OW33082   3.981   2.053   4.669  0.1985 -0.5082 -0.0917
 7208SOL    HW133083   3.908   2.078   4.726 -0.6563 -1.7880 -0.6300
 7208SOL    HW233084   4.051   2.101   4.713  1.3504 -0.3468 -2.1609
 7209SOL     OW33085   0.257   0.787   1.989  0.0548  0.3533  0.1486
 7209SOL    HW133086   0.218   0.726   1.925 -0.5072 -1.1602  1.9139
 7209SOL    HW233087   0.238   0.877   1.963 -1.4739 -0.2514 -0.8501
 7210SOL     OW33088   2.103   2.184   7.080  0.7751  0.3321  0.0884
 7210SOL    HW133089   2.181   2.223   7.041 -0.6483  2.8490 -0.2632
 7210SOL    HW233090   2.136   2.181   7.170 -0.9779  0.0383  0.7235
 7211SOL     OW33091   1.090   4.211   3.722  0.1505  0.0284 -0.4332
 7211SOL    HW133092   1.086   4.168   3.808 -1.6772  0.3836 -0.3408
 7211SOL    HW233093   1.029   4.283   3.737  0.7579  0.3081  0.6712
 7212SOL     OW33094   1.347   2.474   5.037  0.1371 -0.1521  0.1702
 7212SOL    HW133095   1.401   2.550   5.013 -0.1786  0.3127  0.9247
 7212SOL    HW233096   1.346   2.434   4.950  0.0326 -1.7637  0.9155
 7213SOL     OW33097   1.080   2.670   1.653  0.7382 -0.2870 -0.4494
 7213SOL    HW133098   1.126   2.750   1.628 -1.0533  0.2142 -2.1242
 7213SOL    HW233099   1.039   2.644   1.570 -0.9984  1.0106  0.0087
 7214SOL     OW33100   1.250   0.856   4.367  0.8333 -0.2526 -0.1810
 7214SOL    HW133101   1.321   0.919   4.376 -0.3044  0.9169  0.6368
 7214SOL    HW233102   1.211   0.896   4.289 -4.2521 -1.0815  1.9235
 7215SOL     OW33103   2.051   2.719   4.404  0.2559 -0.3895 -0.1232
 7215SOL    HW133104   2.140   2.746   4.380  0.9836 -0.5712  2.3224
 7215SOL    HW233105   2.068   2.691   4.494 -0.9620  2.2469  0.9152
 7216SOL     OW33106   3.178   0.204   7.492 -0.3199 -0.1578 -0.0347
 7216SOL    HW133107   3.119   0.279   7.479  0.4756  0.1056 -2.1682
 7216SOL    HW233108   3.207   0.221   7.581  1.8082 -0.4816 -0.6652
 7217SOL     OW33109   2.065   1.753  16.202 -0.6928 -0.4462 -0.3719
 7217SOL    HW133110   2.087   1.777  16.112  0.7146 -3.1749 -0.7543
 7217SOL    HW233111   2.143   1.703  16.226 -0.5058 -0.4501 -0.9980
 7218SOL     OW33112   1.672   3.312   7.753 -0.0209 -0.4776  0.0911
 7218SOL    HW133113   1.664   3.352   7.840 -1.3276 -0.0680 -0.2156
 7218SOL    HW233114   1.767   3.299   7.759  0.1669  0.6760 -0.4203
 7219SOL     OW33115   3.772   2.172   4.826 -0.4377  0.0679  0.3680
 7219SOL    HW133116   3.749   2.080   4.840 -2.7153  1.1249  3.4596
 7219SOL    HW233117   3.729   2.198   4.744  0.2637 -2.5454 -0.8382
 7220SOL     OW33118   2.943   3.663  17.052  0.0069 -0.4936 -0.1550
 7220SOL    HW133119   2.933   3.686  16.960 -1.9102  0.2630  0.2275
 7220SOL    HW233120   2.993   3.582  17.050  0.2836 -0.2888 -1.1634
 7221SOL     OW33121   3.311   2.220   9.446  0.1683 -0.8089  0.2590
 7221SOL    HW133122   3.260   2.300   9.432  0.1596 -0.5233  1.9209
 7221SOL    HW233123   3.393   2.263   9.472 -0.9995  0.7305  1.3929
 7222SOL     OW33124   2.727   2.678   4.572  0.0305  0.5209  0.0516
 7222SOL    HW133125   2.711   2.772   4.575 -3.2947 -0.0431 -0.4718
 7222SOL    HW233126   2.637   2.646   4.567 -0.6127  1.9885  2.4455
 7223SOL     OW33127   3.375   4.466   4.301  1.4224  0.1958  0.4602
 7223SOL    HW133128   3.452   4.522   4.294  2.1438 -0.7069  1.2769
 7223SOL    HW233129   3.320   4.515   4.240  2.4149 -1.0796 -1.4513
 7224SOL     OW33130   3.784   1.486   0.395 -0.4756  0.3979  0.1742
 7224SOL    HW133131   3.800   1.475   0.301  1.7129  5.9945 -0.1270
 7224SOL    HW233132   3.789   1.581   0.396 -0.9597  0.4262 -0.1334
 7225SOL     OW33133   1.354   0.839   3.775 -0.2787 -0.4087 -0.8114
 7225SOL    HW133134   1.339   0.745   3.783 -1.2345 -0.3119 -1.4657
 7225SOL    HW233135   1.433   0.852   3.723 -0.1287 -0.8059 -0.6848
 7226SOL     OW33136   2.485   3.162   0.273 -0.0921 -0.0354  0.4758
 7226SOL    HW133137   2.529   3.102   0.333  2.0552  0.7158 -0.3129
 7226SOL    HW233138   2.467   3.228   0.341 -0.0894 -1.8956  2.2734
 7227SOL     OW33139   4.135   2.197  14.726  0.4755 -0.1293  0.2903
 7227SOL    HW133140   4.213   2.176  14.776  0.2846 -1.7115 -0.0821
 7227SOL    HW233141   4.109   2.110  14.694 -0.6938 -0.2297  1.5148
 7228SOL     OW33142   4.049   2.511   0.775  0.1580  0.7721  0.7692
 7228SOL    HW133143   4.044   2.601   0.807 -1.5696  1.6852 -2.0448
 7228SOL    HW233144   4.131   2.516   0.726 -0.5229  0.3571 -0.4091
 7229SOL     OW33145   0.307   1.837  11.160  0.1949  0.0216  0.2388
 7229SOL    HW133146   0.212   1.831  11.149  0.1175  1.7022 -0.0698
 7229SOL    HW233147   0.313   1.811  11.252  0.4415  1.2344  0.5734
 7230SOL     OW33148   0.505   2.561  10.409 -0.0493 -0.3678 -0.4809
 7230SOL    HW133149   0.420   2.530  10.378 -0.7363 -0.9234  1.9325
 7230SOL    HW233150   0.556   2.495  10.363 -0.8568  0.5598 -2.7123
 7231SOL     OW33151   2.288   4.130   7.877 -0.3496 -0.1343  0.7133
 7231SOL    HW133152   2.329   4.044   7.870  0.0043 -0.0251  1.3906
 7231SOL    HW233153   2.316   4.154   7.966  1.4887 -0.0892  0.1214
 7232SOL     OW33154   0.645   2.690   1.140 -0.5346 -0.2021 -0.3156
 7232SOL    HW133155   0.678   2.609   1.179  1.3776  0.8428  0.2396
 7232SOL    HW233156   0.688   2.755   1.195 -0.1741  1.6601 -2.7977
 7233SOL     OW33157   2.330   1.843   4.134 -0.0648 -0.1660 -0.2054
 7233SOL    HW133158   2.330   1.848   4.230 -0.4877 -0.1614 -0.2074
 7233SOL    HW233159   2.276   1.765   4.130  0.6988 -0.7221  0.2531
 7234SOL     OW33160   2.741   3.084   6.257 -1.0119 -0.2725  0.4152
 7234SOL    HW133161   2.689   3.118   6.330  2.1130 -0.0309  2.5326
 7234SOL    HW233162   2.745   2.992   6.280  2.7265 -0.0971  0.4550
 7235SOL     OW33163   3.548   0.373  13.074  0.4763 -0.2751  0.0668
 7235SOL    HW133164   3.461   0.341  13.053  0.0612  1.0306 -0.1627
 7235SOL    HW233165   3.550   0.333  13.161  2.3377  1.3915  0.8108
 7236SOL     OW33166   1.444   0.682  12.567 -0.4861  0.1225 -0.1159
 7236SOL    HW133167   1.400   0.754  12.612  0.9247  0.2903  0.9956
 7236SOL    HW233168   1.387   0.610  12.593 -2.4290  1.8158  0.2956
 7237SOL     OW33169   0.497   3.465  12.136 -0.3313 -0.6120 -0.3088
 7237SOL    HW133170   0.529   3.481  12.048  0.6131  1.1708  0.3604
 7237SOL    HW233171   0.474   3.373  12.138 -0.4301 -0.5717  0.4903
 7238SOL     OW33172   0.156   2.421  13.608  0.2728  0.0152  0.1927
 7238SOL    HW133173   0.077   2.368  13.621 -0.1354  1.2451  2.6699
 7238SOL    HW233174   0.142   2.460  13.522  2.5497 -2.2499 -1.1993
 7239SOL     OW33175   0.143   1.315   7.327 -0.0016  0.4284 -0.6563
 7239SOL    HW133176   0.170   1.261   7.253 -0.4056 -1.7467  0.7971
 7239SOL    HW233177   0.048   1.301   7.325 -0.0785  0.8162 -0.0099
 7240SOL     OW33178   4.199   4.534   8.971 -0.0072 -0.0573  0.4105
 7240SOL    HW133179   4.109   4.553   8.946  0.5545  1.2632 -0.6307
 7240SOL    HW233180   4.203   4.439   8.957 -1.3687 -0.0591 -0.0138
 7241SOL     OW33181   2.511   2.996   3.830  0.0581  0.2517  0.3655
 7241SOL    HW133182   2.554   2.988   3.744 -0.6997 -0.8290  0.0878
 7241SOL    HW233183   2.435   2.942   3.809 -0.5149  1.9914 -2.0280
 7242SOL     OW33184   2.125   3.321   2.073  0.5919  0.5366  0.3860
 7242SOL    HW133185   2.069   3.351   2.002  3.0925  1.2106 -1.2950
 7242SOL    HW233186   2.164   3.403   2.104  2.9844 -0.2104 -0.6438
 7243SOL     OW33187   1.667   4.208   4.037  1.0355 -0.2706 -0.4828
 7243SOL    HW133188   1.696   4.227   3.948  0.4059  0.8191 -0.4541
 7243SOL    HW233189   1.617   4.288   4.054 -1.2621 -1.9455  0.6663
 7244SOL     OW33190   4.219   2.677   6.991 -0.5626 -0.1363  0.4932
 7244SOL    HW133191   4.283   2.650   7.058  0.1763  0.0449 -0.1386
 7244SOL    HW233192   4.213   2.772   7.004 -0.1620  0.1612 -1.5677
 7245SOL     OW33193   3.520   1.846   9.044 -0.3519  0.0673 -0.0482
 7245SOL    HW133194   3.560   1.889   9.119 -0.9102 -2.0705  1.4583
 7245SOL    HW233195   3.586   1.780   9.026 -0.4525 -0.5280  1.8403
 7246SOL     OW33196   2.480   1.942   3.386  0.1318 -0.1053  0.1363
 7246SOL    HW133197   2.429   2.016   3.419 -0.8922 -1.1406  0.9156
 7246SOL    HW233198   2.430   1.883   3.329 -0.3118 -0.6407  1.0687
 7247SOL     OW33199   4.598   1.591   8.747  0.4344  0.6667  0.0088
 7247SOL    HW133200   4.692   1.580   8.761  0.2225  0.2536  1.0958
 7247SOL    HW233201   4.564   1.581   8.836 -0.3631 -1.4754 -0.5352
 7248SOL     OW33202   0.883   3.418   4.075  0.2865  0.4104  0.1243
 7248SOL    HW133203   0.828   3.404   3.998  2.1157 -0.5661 -1.0172
 7248SOL    HW233204   0.815   3.433   4.140  0.1218  0.6455 -0.1014
 7249SOL     OW33205   0.597   0.009  10.999  0.2133 -0.1596  0.0773
 7249SOL    HW133206   0.621   4.638  11.010 -0.5556  0.0995  4.0470
 7249SOL    HW233207   0.627   0.052  11.079  0.5267 -0.6368  0.2167
 7250SOL     OW33208   1.146   4.394   4.898 -0.1287 -0.2334  0.0132
 7250SOL    HW133209   1.141   4.364   4.989 -0.9148  0.7011  0.2805
 7250SOL    HW233210   1.055   4.422   4.887  0.3381  1.2307 -0.1509
 7251SOL     OW33211   1.844   3.080   1.733 -0.3141 -0.6369  0.0622
 7251SOL    HW133212   1.748   3.083   1.728 -0.5045 -0.8344  3.6549
 7251SOL    HW233213   1.869   3.172   1.743 -0.8643 -0.6560  1.6878
 7252SOL     OW33214   0.668   3.104   8.709  0.7565 -0.7817  0.5070
 7252SOL    HW133215   0.589   3.124   8.660  2.0459 -0.5973 -1.5119
 7252SOL    HW233216   0.630   3.087   8.796 -0.5808  1.1831  0.3063
 7253SOL     OW33217   2.318   2.889  11.616  0.1762 -0.1382  0.9818
 7253SOL    HW133218   2.260   2.924  11.683 -1.5502 -1.0888 -0.0094
 7253SOL    HW233219   2.386   2.846  11.668  2.2422  1.4421 -0.4127
 7254SOL     OW33220   0.375   4.526   6.673  0.1981  0.3566 -0.3481
 7254SOL    HW133221   0.361   4.447   6.724  1.4008 -1.5447 -2.9865
 7254SOL    HW233222   0.390   4.498   6.583 -0.5249  0.3419 -0.4621
 7255SOL     OW33223   1.948   2.418   0.785  0.3456  0.1702 -0.3564
 7255SOL    HW133224   1.948   2.389   0.876  0.0162  0.2307 -0.3354
 7255SOL    HW233225   1.902   2.354   0.731 -0.8030  0.1685  0.6176
 7256SOL     OW33226   0.079   4.418   5.645  0.1607 -0.1088  0.1691
 7256SOL    HW133227   0.085   4.387   5.555  0.1892  0.0969  0.1003
 7256SOL    HW233228   0.105   4.509   5.631 -1.2968  0.2435 -0.2430
 7257SOL     OW33229   2.234   3.003   5.440  0.2176 -0.5902  0.2201
 7257SOL    HW133230   2.274   3.087   5.417 -1.3441  0.2080  0.3936
 7257SOL    HW233231   2.271   2.984   5.526 -0.0582 -0.8921  0.2727
 7258SOL     OW33232   1.214   0.408  15.728  0.3051  0.4832 -0.3185
 7258SOL    HW133233   1.154   0.335  15.714  1.1765 -0.5331  1.2668
 7258SOL    HW233234   1.261   0.379  15.806 -0.8804  1.4507  0.7511
 7259SOL     OW33235   3.642   4.376   2.318  0.0002 -0.5989 -0.0808
 7259SOL    HW133236   3.622   4.287   2.289 -0.3152 -0.4804 -0.2316
 7259SOL    HW233237   3.554   4.414   2.316  0.6527  1.0217  2.1331
 7260SOL     OW33238   1.469   3.946   9.552  0.2165  0.3883  0.2760
 7260SOL    HW133239   1.396   3.997   9.517  1.2929 -1.3520 -4.4479
 7260SOL    HW233240   1.541   4.008   9.539  0.5184 -0.2830 -1.1639
 7261SOL     OW33241   3.026   3.279   1.491 -0.0550 -0.1874  0.0749
 7261SOL    HW133242   3.009   3.356   1.435 -0.9636 -0.8534 -0.5658
 7261SOL    HW233243   2.937   3.262   1.521 -0.1360 -0.6261 -0.4163
 7262SOL     OW33244   4.313   2.518  15.641 -0.3223  0.3755  0.3669
 7262SOL    HW133245   4.288   2.530  15.733 -0.0754 -0.3666  0.5301
 7262SOL    HW233246   4.240   2.461  15.618 -0.3243  0.5418 -0.0365
 7263SOL     OW33247   2.742   0.604   7.589 -0.1425 -0.0118  0.0993
 7263SOL    HW133248   2.756   0.697   7.568  2.2308 -0.6753 -1.2718
 7263SOL    HW233249   2.707   0.601   7.678  0.9717 -0.0593  0.5412
 7264SOL     OW33250   2.085   0.586   2.453 -0.3578 -0.0125  0.3551
 7264SOL    HW133251   2.123   0.653   2.509 -0.3341  0.6064 -0.3932
 7264SOL    HW233252   2.081   0.510   2.510  1.0923  0.1762  0.6923
 7265SOL     OW33253   1.151   3.086  12.481  0.1360  0.3908  0.0214
 7265SOL    HW133254   1.129   3.107  12.391  2.5758  0.2967 -0.5913
 7265SOL    HW233255   1.207   3.158  12.509  1.4220 -1.0707  1.2368
 7266SOL     OW33256   3.871   0.644   2.477  0.1843  0.0004  0.9923
 7266SOL    HW133257   3.891   0.616   2.567  0.1102  0.0563  1.0266
 7266SOL    HW233258   3.916   0.728   2.466 -2.0857  0.8846 -1.6457
 7267SOL     OW33259   3.336   0.680   1.985  0.0941 -0.6796  0.1367
 7267SOL    HW133260   3.254   0.679   1.937  0.2430  0.8554 -0.1717
 7267SOL    HW233261   3.328   0.603   2.041 -0.0069 -1.0457 -0.3789
 7268SOL     OW33262   4.274   1.875   9.939  0.0626 -0.0487 -0.1319
 7268SOL    HW133263   4.311   1.877   9.851 -0.1928  2.6605 -0.1822
 7268SOL    HW233264   4.225   1.956   9.928 -0.3675 -0.3047 -0.0673
 7269SOL     OW33265   3.494   1.604  10.515 -0.2178  0.2260 -0.5682
 7269SOL    HW133266   3.417   1.638  10.469  0.6250  2.6600 -0.1916
 7269SOL    HW233267   3.456   1.522  10.546  0.6474 -0.1496 -0.5214
 7270SOL     OW33268   0.962   1.702  17.626 -0.3971  0.8079  0.3223
 7270SOL    HW133269   1.012   1.760  17.684  0.0015  0.5707  0.2132
 7270SOL    HW233270   0.933   1.763  17.559 -0.9278 -0.5687 -0.7024
 7271SOL     OW33271   3.522   2.106  15.481 -0.2180  0.1027 -0.4510
 7271SOL    HW133272   3.539   2.106  15.387  1.2362  0.6238 -0.1862
 7271SOL    HW233273   3.478   2.021  15.489 -2.6029  1.3243 -0.5763
 7272SOL     OW33274   3.401   3.805  14.869  0.5044  0.0830 -0.3416
 7272SOL    HW133275   3.358   3.759  14.796 -2.2435 -0.0826  1.3911
 7272SOL    HW233276   3.323   3.852  14.898  0.5912  1.8775 -2.9477
 7273SOL     OW33277   2.049   3.857   7.639  0.0087 -0.6150  0.9169
 7273SOL    HW133278   2.036   3.937   7.691  0.7538 -1.0646  1.7865
 7273SOL    HW233279   2.095   3.887   7.561  1.8825 -2.3620  1.3634
 7274SOL     OW33280   4.169   1.595   3.671  0.5116  0.3119  0.3375
 7274SOL    HW133281   4.196   1.606   3.761  0.3985  0.3363  0.3689
 7274SOL    HW233282   4.222   1.658   3.622  3.2276 -1.1781  1.3817
 7275SOL     OW33283   3.569   0.240   2.014 -0.6800 -0.3108 -0.7272
 7275SOL    HW133284   3.633   0.188   1.966 -1.0631 -2.4877  1.1184
 7275SOL    HW233285   3.550   0.163   2.068  0.0374  0.6356  0.8754
 7276SOL     OW33286   4.655   0.226   5.837 -0.1800 -0.2512 -0.1022
 7276SOL    HW133287   4.581   0.260   5.887  0.7924  1.8199 -0.0843
 7276SOL    HW233288   4.605   0.201   5.759  1.4448 -1.0529 -0.9183
 7277SOL     OW33289   1.452   2.438   8.700 -0.4946  0.6295  0.2042
 7277SOL    HW133290   1.512   2.476   8.635  2.1775  0.1200  2.3688
 7277SOL    HW233291   1.490   2.350   8.708 -1.4181  0.2632  0.5689
 7278SOL     OW33292   2.318   2.174  14.687 -0.4046 -0.6744  0.0125
 7278SOL    HW133293   2.407   2.174  14.722 -0.8318  2.6360  1.0333
 7278SOL    HW233294   2.335   2.156  14.595 -0.2641 -1.6082  0.2126
 7279SOL     OW33295   4.255   1.418   6.802 -0.0988 -0.5279 -0.1262
 7279SOL    HW133296   4.310   1.382   6.872  1.9360 -1.0699 -2.0014
 7279SOL    HW233297   4.296   1.364   6.734  0.0821 -1.0814  0.4186
 7280SOL     OW33298   3.967   2.734   7.619  0.6239  0.5622 -0.8200
 7280SOL    HW133299   3.986   2.781   7.538 -0.3510  2.4866  0.0500
 7280SOL    HW233300   3.874   2.715   7.608  0.6242  1.3173 -2.0894
 7281SOL     OW33301   3.720   2.770   8.314  0.5091 -0.3934  0.6934
 7281SOL    HW133302   3.700   2.825   8.389 -0.7767  0.1627 -0.0600
 7281SOL    HW233303   3.780   2.710   8.359 -0.1832 -1.5517  0.0986
 7282SOL     OW33304   1.229   3.431   7.198 -0.0510 -0.0025  0.5076
 7282SOL    HW133305   1.302   3.441   7.136 -1.7171  0.9279 -1.3271
 7282SOL    HW233306   1.277   3.421   7.280 -0.5651  0.2007  0.8372
 7283SOL     OW33307   0.804   2.524   6.740 -0.0211 -0.5884  0.0362
 7283SOL    HW133308   0.798   2.500   6.647  0.3529  1.7851 -0.5951
 7283SOL    HW233309   0.896   2.505   6.762  0.7517  1.5866 -1.3450
 7284SOL     OW33310   4.310   0.601  11.489  0.1766  0.2372  0.4015
 7284SOL    HW133311   4.281   0.565  11.573  1.4840 -1.4814  0.1072
 7284SOL    HW233312   4.302   0.529  11.427  0.6664  0.3851  0.1634
 7285SOL     OW33313   3.736   3.424   4.991 -0.5006  0.3713 -0.2068
 7285SOL    HW133314   3.730   3.329   5.002  2.1709  0.6106  3.3765
 7285SOL    HW233315   3.829   3.431   5.012 -0.1257 -1.2125 -1.3023
 7286SOL     OW33316   2.199   2.736   2.972  0.5706 -0.1553 -0.1619
 7286SOL    HW133317   2.234   2.825   2.976  0.3399 -0.1808  2.3560
 7286SOL    HW233318   2.184   2.710   3.063  0.0163 -1.0751 -0.5195
 7287SOL     OW33319   1.562   2.773   4.451  0.0977  0.1029 -0.3798
 7287SOL    HW133320   1.658   2.775   4.452  0.0762  1.2522 -1.1598
 7287SOL    HW233321   1.537   2.783   4.359 -4.3984 -2.4364  0.5651
 7288SOL     OW33322   4.375   3.535   3.764  0.0285  0.2857  0.5937
 7288SOL    HW133323   4.439   3.604   3.777  1.2400 -0.2320 -2.6854
 7288SOL    HW233324   4.320   3.576   3.698 -0.3005  3.4937  2.8822
 7289SOL     OW33325   2.302   0.070   9.552 -0.3138  0.0818 -0.4458
 7289SOL    HW133326   2.248   4.719   9.586  1.6577  0.3587  3.2406
 7289SOL    HW233327   2.294   0.050   9.458  2.2897  1.5732 -0.9959
 7290SOL     OW33328   1.096   1.888   6.208 -0.1028 -0.2599 -0.2599
 7290SOL    HW133329   1.185   1.904   6.177  0.9727 -0.3679  2.8161
 7290SOL    HW233330   1.121   1.904   6.299  0.8906  1.3412 -0.8130
 7291SOL     OW33331   3.920   3.180   6.580 -0.4668 -0.4150  0.1980
 7291SOL    HW133332   3.959   3.263   6.607  0.2016 -0.7811  0.3562
 7291SOL    HW233333   3.887   3.192   6.491  1.5394  0.3487 -0.4490
 7292SOL     OW33334   0.615   4.184   7.784  0.0796 -0.0843 -0.0455
 7292SOL    HW133335   0.613   4.118   7.715 -0.5058  0.6636 -0.7485
 7292SOL    HW233336   0.590   4.262   7.734 -2.1055 -0.7618 -0.0102
 7293SOL     OW33337   0.490   3.626   1.817 -0.4409 -0.0032 -0.4349
 7293SOL    HW133338   0.530   3.588   1.738 -0.4789 -0.4012 -0.2604
 7293SOL    HW233339   0.400   3.642   1.788 -0.7212  1.0605  1.0790
 7294SOL     OW33340   1.828   2.875   4.411  0.1992  0.1656 -0.8306
 7294SOL    HW133341   1.846   2.922   4.329  0.3007 -1.7631 -1.9171
 7294SOL    HW233342   1.897   2.809   4.407  0.6419  0.5073  1.3414
 7295SOL     OW33343   1.964   0.654   5.341 -0.2252  0.3995  0.1541
 7295SOL    HW133344   1.868   0.656   5.337 -0.2775 -0.9087  0.8272
 7295SOL    HW233345   1.980   0.632   5.433  0.9367 -1.6373 -0.5478
 7296SOL     OW33346   4.405   0.061   9.563  0.5631 -0.5928  0.6898
 7296SOL    HW133347   4.418   0.006   9.486  0.4097  1.6476 -0.9303
 7296SOL    HW233348   4.403   4.720   9.636 -0.1813  0.3822  1.4995
 7297SOL     OW33349   2.578   2.399   4.547  0.3994 -0.2111  0.1218
 7297SOL    HW133350   2.645   2.367   4.608 -0.6130 -1.3481  0.6386
 7297SOL    HW233351   2.548   2.470   4.604 -2.5564 -0.9727 -0.5004
 7298SOL     OW33352   0.911   4.574  11.256  0.3797 -0.4405 -0.1627
 7298SOL    HW133353   0.944   4.589  11.345 -0.1085 -3.0479  0.4593
 7298SOL    HW233354   0.815   4.581  11.263  0.7871  4.2352  0.9644
 7299SOL     OW33355   3.892   1.501   5.051  0.3099  0.4103  0.4590
 7299SOL    HW133356   3.946   1.427   5.080 -1.5470 -1.0940  0.0927
 7299SOL    HW233357   3.925   1.572   5.106 -0.3430  0.5600  0.6520
 7300SOL     OW33358   0.251   1.837   4.454  0.2207  0.2937  0.2594
 7300SOL    HW133359   0.217   1.749   4.437  0.0828  0.3427  0.2777
 7300SOL    HW233360   0.276   1.868   4.367  1.6436 -0.2452  0.4871
 7301SOL     OW33361   2.525   3.957  11.135  0.1489 -0.8249  0.0337
 7301SOL    HW133362   2.567   4.043  11.137  2.6111 -2.0119 -0.2529
 7301SOL    HW233363   2.504   3.933  11.225  1.8482 -1.0550  0.3648
 7302SOL     OW33364   0.515   1.173   0.547  0.1981 -0.1089 -0.0456
 7302SOL    HW133365   0.436   1.194   0.496  0.2435  1.8571  0.6725
 7302SOL    HW233366   0.571   1.221   0.486  0.9359  1.4089  1.8360
 7303SOL     OW33367   2.773   2.598   5.651  0.6282 -0.1823  0.4416
 7303SOL    HW133368   2.830   2.544   5.596 -0.3250 -0.3451 -0.3887
 7303SOL    HW233369   2.743   2.650   5.577  3.2820 -0.6923 -1.0098
 7304SOL     OW33370   1.689   2.272  12.958 -0.2331  0.7066 -0.1646
 7304SOL    HW133371   1.633   2.195  12.962  0.1488  0.3720 -1.2039
 7304SOL    HW233372   1.629   2.334  12.915 -1.4524 -1.5445 -1.7557
 7305SOL     OW33373   2.233   2.681   8.924 -0.1095  0.2886 -0.3543
 7305SOL    HW133374   2.301   2.651   8.864 -0.2199  0.6735 -0.6808
 7305SOL    HW233375   2.167   2.702   8.857 -2.1958 -0.5829  1.4473
 7306SOL     OW33376   0.833   2.202   8.529 -0.2160 -0.9116 -0.2492
 7306SOL    HW133377   0.913   2.163   8.565  0.7483  1.1330 -0.1995
 7306SOL    HW233378   0.779   2.125   8.511  0.7450 -1.1901 -1.9346
 7307SOL     OW33379   2.204   4.109   8.291  0.4945  0.1315 -0.8646
 7307SOL    HW133380   2.125   4.110   8.236  0.8718  0.3824 -1.4035
 7307SOL    HW233381   2.167   4.108   8.379  1.7135  1.9447 -0.3362
 7308SOL     OW33382   4.311   2.381   2.689  0.7989  0.3722 -0.1008
 7308SOL    HW133383   4.318   2.286   2.679  2.0822  0.2837  1.7629
 7308SOL    HW233384   4.345   2.406   2.775 -0.5613 -1.7760  1.0668
 7309SOL     OW33385   0.356   1.284   7.609 -0.4713 -0.0600  0.6579
 7309SOL    HW133386   0.316   1.336   7.678  0.2352  0.3659  0.7463
 7309SOL    HW233387   0.290   1.216   7.593 -1.2541  0.0237  3.6558
 7310SOL     OW33388   0.556   4.566   6.092  0.0729  0.3949 -0.0717
 7310SOL    HW133389   0.590   4.655   6.091 -2.2146  1.2744 -0.7404
 7310SOL    HW233390   0.594   4.534   6.011 -2.0051 -1.3110 -0.3883
 7311SOL     OW33391   4.538   3.595   5.103  0.4284  0.0599 -0.1962
 7311SOL    HW133392   4.631   3.578   5.113  0.0502 -1.6085  0.4899
 7311SOL    HW233393   4.524   3.687   5.127 -1.1702 -0.4490  0.8233
 7312SOL     OW33394   3.436   2.861   6.941  0.5153  0.9358  0.5397
 7312SOL    HW133395   3.376   2.927   6.976  0.9221  1.8658 -0.5263
 7312SOL    HW233396   3.413   2.776   6.979 -0.1961  1.3253  0.9857
 7313SOL     OW33397   0.026   3.128   5.749  0.1538 -0.4529 -0.2353
 7313SOL    HW133398   4.717   3.114   5.659  0.1562 -0.1822 -0.2764
 7313SOL    HW233399   0.072   3.047   5.774  1.1982  0.8757  2.1073
 7314SOL     OW33400   4.679   4.608   0.769 -0.5780  0.0460 -0.4434
 7314SOL    HW133401   4.592   4.587   0.802 -0.0502 -1.0445  0.2595
 7314SOL    HW233402   4.684   4.546   0.696  1.1746 -1.0545  0.6007
 7315SOL     OW33403   4.330   0.335  11.400  0.6300  0.5398 -0.3047
 7315SOL    HW133404   4.378   0.324  11.482 -0.2332 -1.3822 -0.0465
 7315SOL    HW233405   4.403   0.318  11.340  0.4839  3.2977 -1.2664
 7316SOL     OW33406   2.082   0.798   1.230 -0.3747  0.0726  0.1940
 7316SOL    HW133407   2.091   0.791   1.325 -1.7081 -1.9880  0.1705
 7316SOL    HW233408   2.173   0.804   1.200 -0.8625  1.9217 -0.9182
 7317SOL     OW33409   2.445   1.571   5.096 -0.0477 -0.5079 -0.2257
 7317SOL    HW133410   2.405   1.641   5.045  1.4815  0.2956 -0.2939
 7317SOL    HW233411   2.368   1.523   5.127  0.0340 -1.1864 -1.0785
 7318SOL     OW33412   2.036   2.908  10.466 -0.0224 -0.2034 -0.0637
 7318SOL    HW133413   2.080   2.935  10.386 -1.8617  2.9370 -0.0335
 7318SOL    HW233414   1.949   2.904  10.427 -0.3633  1.0712  0.5584
 7319SOL     OW33415   2.292   0.232  11.227 -0.0726  0.0942  0.2225
 7319SOL    HW133416   2.339   0.313  11.249  0.4775 -0.5129  1.2816
 7319SOL    HW233417   2.336   0.223  11.142 -0.3690 -1.7495  0.2524
 7320SOL     OW33418   1.992   1.301  12.839 -0.5230  0.3710  0.9454
 7320SOL    HW133419   2.080   1.300  12.801  0.1913 -0.1357  2.6196
 7320SOL    HW233420   1.946   1.245  12.776  1.6963  2.8364 -2.8754
 7321SOL     OW33421   4.237   1.014   0.671  0.2884 -0.0175  0.1825
 7321SOL    HW133422   4.144   1.033   0.661  0.8499  3.2380  1.2091
 7321SOL    HW233423   4.274   1.092   0.631 -2.3192  1.3250  0.3791
 7322SOL     OW33424   4.270   3.148   3.069 -0.4440 -0.4156 -0.0687
 7322SOL    HW133425   4.335   3.081   3.092  0.2451 -0.8190 -3.2472
 7322SOL    HW233426   4.334   3.198   3.019 -0.1326  0.1984  0.9292
 7323SOL     OW33427   4.439   2.956   3.953  0.2538  0.3953  0.3148
 7323SOL    HW133428   4.513   3.016   3.947  1.0803 -0.7935 -1.7417
 7323SOL    HW233429   4.468   2.907   4.029 -2.2780 -2.6670 -0.6841
 7324SOL     OW33430   4.489   0.222  11.570  0.5912  0.1350  0.5194
 7324SOL    HW133431   4.429   0.173  11.626  1.7426 -1.4694  0.3319
 7324SOL    HW233432   4.569   0.181  11.602  0.3405 -0.8768 -0.1402
 7325SOL     OW33433   0.679   1.359   3.564 -0.0046  0.2275 -0.0083
 7325SOL    HW133434   0.699   1.434   3.620  0.9459  0.0618 -0.1255
 7325SOL    HW233435   0.717   1.385   3.480  1.3338  1.3920  0.9505
 7326SOL     OW33436   1.124   0.641   0.961  0.1508  0.3242 -0.3091
 7326SOL    HW133437   1.068   0.569   0.934  0.6209 -0.2394  0.2185
 7326SOL    HW233438   1.138   0.625   1.055 -0.8286  2.5042  0.2154
 7327SOL     OW33439   0.570   1.730   1.413 -0.7888 -0.3810  0.0102
 7327SOL    HW133440   0.495   1.682   1.448 -1.0005 -0.4308 -0.5129
 7327SOL    HW233441   0.628   1.717   1.488 -2.1053 -1.7883  0.7808
 7328SOL     OW33442   3.463   2.154   4.040 -0.0637  0.3056  0.2043
 7328SOL    HW133443   3.416   2.193   4.113  1.1273 -0.1234  1.1952
 7328SOL    HW233444   3.458   2.063   4.067  1.8195  0.0673 -0.2346
 7329SOL     OW33445   4.046   1.991  16.313  0.7691  0.6856  0.4015
 7329SOL    HW133446   4.037   2.030  16.226 -0.9075 -1.9329 -0.5879
 7329SOL    HW233447   3.981   1.922  16.301 -0.8865  1.9461  2.0575
 7330SOL     OW33448   0.699   1.640   8.154 -0.0927 -0.1126 -0.0496
 7330SOL    HW133449   0.790   1.620   8.133 -0.1545 -0.5044  0.0568
 7330SOL    HW233450   0.691   1.621   8.248  1.4429  0.5836  0.2236
 7331SOL     OW33451   2.472   1.621  16.005  0.2575 -0.1828 -0.1156
 7331SOL    HW133452   2.422   1.550  15.965 -0.0137  1.0489 -1.9483
 7331SOL    HW233453   2.537   1.639  15.938  1.6963  0.5671  1.4785
 7332SOL     OW33454   0.913   1.091  15.880  0.4210 -0.3227 -0.4030
 7332SOL    HW133455   0.904   1.137  15.964  4.4605 -1.3664  0.5689
 7332SOL    HW233456   0.821   1.087  15.852 -0.0939  1.0861  1.0445
 7333SOL     OW33457   3.484   1.498   9.111 -0.1078 -0.3837 -0.3471
 7333SOL    HW133458   3.409   1.513   9.169  2.2693 -1.6260  3.0941
 7333SOL    HW233459   3.446   1.426   9.062  2.5710 -2.1110  0.1162
 7334SOL     OW33460   4.328   3.084   4.763 -0.2681  0.0400 -0.1326
 7334SOL    HW133461   4.281   3.108   4.683  1.8854 -1.5132 -1.8642
 7334SOL    HW233462   4.338   3.164   4.815  1.9437 -0.2810 -0.0672
 7335SOL     OW33463   3.555   4.479   8.274  0.1847 -0.0410 -0.1463
 7335SOL    HW133464   3.558   4.422   8.196  1.9471 -0.0554 -0.0622
 7335SOL    HW233465   3.612   4.430   8.332 -1.1163 -0.4183  0.8089
 7336SOL     OW33466   4.693   3.559   9.273 -0.7533  0.2966 -0.0452
 7336SOL    HW133467   0.032   3.634   9.273  1.7729 -1.6633 -2.2484
 7336SOL    HW233468   4.664   3.563   9.182  1.6171 -0.8406 -0.8675
 7337SOL     OW33469   0.216   3.115   3.570  0.2766  0.4063 -0.5403
 7337SOL    HW133470   0.258   3.090   3.488  2.0889 -2.3209  1.2304
 7337SOL    HW233471   0.145   3.052   3.568 -0.6172  1.3687  0.3992
 7338SOL     OW33472   1.440   2.637   6.999 -0.6992 -0.5579  0.1941
 7338SOL    HW133473   1.527   2.676   7.004 -0.5684 -0.7787 -0.4404
 7338SOL    HW233474   1.384   2.681   7.063  0.4635  0.2082  0.6892
 7339SOL     OW33475   0.166   1.776  17.395  0.3261 -0.9775 -0.3371
 7339SOL    HW133476   0.250   1.752  17.358  0.7634  1.9761 -1.2302
 7339SOL    HW233477   0.172   1.742  17.484 -0.0621  0.7658  0.3552
 7340SOL     OW33478   2.644   0.780  12.610 -0.3579  0.1288 -0.4094
 7340SOL    HW133479   2.633   0.833  12.531  3.2456  1.5404  0.0293
 7340SOL    HW233480   2.739   0.767  12.612 -0.5493 -1.2660 -0.2516
 7341SOL     OW33481   0.916   1.261   4.104  0.1269  0.1795 -0.4044
 7341SOL    HW133482   0.951   1.213   4.029  1.3967  0.9728 -0.3116
 7341SOL    HW233483   0.933   1.196   4.172  0.1240  1.2884  0.6619
 7342SOL     OW33484   0.163   1.938   7.915  0.4823  0.5517  0.4266
 7342SOL    HW133485   0.247   1.923   7.872 -0.9614  0.5859 -2.3660
 7342SOL    HW233486   0.154   1.858   7.966 -1.2776 -0.3955 -1.3919
 7343SOL     OW33487   1.316   1.597  17.452  0.0680  0.4409 -0.3439
 7343SOL    HW133488   1.259   1.523  17.474  1.0767 -1.3767 -3.8510
 7343SOL    HW233489   1.337   1.570  17.363  0.2454  1.1359 -0.5135
 7344SOL     OW33490   2.795   3.390   3.925  0.0166  0.4302  0.6009
 7344SOL    HW133491   2.866   3.447   3.897  1.1230 -0.8203  0.9044
 7344SOL    HW233492   2.784   3.410   4.018  2.6984  0.2989  0.9315
 7345SOL     OW33493   4.245   4.610  12.769  0.0790  0.0947  0.4764
 7345SOL    HW133494   4.185   4.548  12.810  1.0400 -0.2344  1.3882
 7345SOL    HW233495   4.293   4.635  12.848  1.0569 -0.4199  0.0525
 7346SOL     OW33496   3.062   1.677   7.353 -0.1761 -0.0846 -0.2522
 7346SOL    HW133497   2.978   1.659   7.396  0.0364  1.9289  1.0032
 7346SOL    HW233498   3.046   1.686   7.259  0.7934 -1.0933 -0.5074
 7347SOL     OW33499   2.532   3.099   1.850  0.3109  0.0435 -0.1737
 7347SOL    HW133500   2.581   3.128   1.927 -1.6670 -0.8620  1.4605
 7347SOL    HW233501   2.444   3.126   1.877  0.7346  1.6244 -0.3815
 7348SOL     OW33502   0.820   1.214   6.058  0.2893 -0.0298  0.1828
 7348SOL    HW133503   0.762   1.254   5.993 -1.6536 -2.4818  0.4016
 7348SOL    HW233504   0.778   1.132   6.083 -0.6764  0.7250  1.0289
 7349SOL     OW33505   2.804   0.571   8.791  0.1033  0.2892  0.4222
 7349SOL    HW133506   2.743   0.503   8.818 -1.8287  1.5171 -0.8239
 7349SOL    HW233507   2.881   0.519   8.771 -1.2955 -1.6775  0.1422
 7350SOL     OW33508   0.373   1.715  13.810  0.4063  0.4855  0.4200
 7350SOL    HW133509   0.366   1.700  13.716  1.7085  0.9419  0.2501
 7350SOL    HW233510   0.467   1.708  13.823  0.7338 -1.1856 -3.1261
 7351SOL     OW33511   3.365   1.246   3.966  0.5172  0.0925  0.1787
 7351SOL    HW133512   3.457   1.270   3.951  1.1952 -1.8161  1.2586
 7351SOL    HW233513   3.372   1.218   4.057 -1.8046 -0.8904  0.0553
 7352SOL     OW33514   2.995   1.126  13.542 -0.0450 -0.1592  0.2596
 7352SOL    HW133515   2.926   1.093  13.600 -0.0918 -0.4533  0.0379
 7352SOL    HW233516   2.976   1.073  13.464 -1.3464  1.2617 -0.3835
 7353SOL     OW33517   3.808   3.277   8.390 -0.0726 -0.3227  0.0163
 7353SOL    HW133518   3.800   3.324   8.308  3.5341  1.0428  0.4612
 7353SOL    HW233519   3.722   3.293   8.430 -1.1031 -0.3842 -2.2029
 7354SOL     OW33520   1.515   4.484   4.021  0.0607  0.1022 -0.7396
 7354SOL    HW133521   1.557   4.562   4.057 -0.9846 -1.1917  3.3166
 7354SOL    HW233522   1.438   4.472   4.077  0.2893  0.7339 -0.2893
 7355SOL     OW33523   0.723   3.296   0.747  0.1446 -0.5890 -0.2818
 7355SOL    HW133524   0.743   3.211   0.787  2.0414 -0.4692 -0.9726
 7355SOL    HW233525   0.811   3.333   0.747  0.6048 -1.6747  0.2220
 7356SOL     OW33526   1.458   3.491  11.224  0.4253  0.3960 -0.1674
 7356SOL    HW133527   1.405   3.508  11.302 -2.3285 -1.4841 -1.6436
 7356SOL    HW233528   1.538   3.452  11.261  0.9331  1.7715  0.2041
 7357SOL     OW33529   0.456   0.501   8.722  0.0035 -0.1296  0.8330
 7357SOL    HW133530   0.445   0.581   8.773 -2.6964  0.5488 -0.8365
 7357SOL    HW233531   0.549   0.482   8.736  0.2305  0.8285  0.6104
 7358SOL     OW33532   4.214   0.955  15.540 -0.1648  0.0418 -0.0899
 7358SOL    HW133533   4.118   0.960  15.548 -0.2315 -0.5812 -0.5265
 7358SOL    HW233534   4.229   0.875  15.590 -0.7035  0.6215  0.9981
 7359SOL     OW33535   2.184   4.571  12.446 -0.4191  0.0009 -0.5144
 7359SOL    HW133536   2.142   4.494  12.408  0.4175 -0.5226 -0.3921
 7359SOL    HW233537   2.273   4.537  12.453 -0.7654 -1.1713 -1.8455
 7360SOL     OW33538   0.412   2.565   3.922 -0.1562 -0.2465 -0.2445
 7360SOL    HW133539   0.323   2.534   3.936  1.2232 -4.1920 -0.2423
 7360SOL    HW233540   0.428   2.537   3.832  1.0797  1.5516 -0.5984
 7361SOL     OW33541   1.753   3.683   6.637 -0.2711 -0.5786  0.0305
 7361SOL    HW133542   1.781   3.591   6.642  2.2485  0.1315 -1.2940
 7361SOL    HW233543   1.825   3.726   6.592  0.0844 -1.8053 -0.5810
 7362SOL     OW33544   1.794   4.081  15.529 -0.1843  0.3736 -0.6249
 7362SOL    HW133545   1.778   4.031  15.609 -0.3268 -0.3881 -1.1350
 7362SOL    HW233546   1.729   4.151  15.534  0.2885  0.8794 -1.3602
 7363SOL     OW33547   0.045   2.290   7.586 -0.5718 -0.0955  0.1221
 7363SOL    HW133548   0.012   2.249   7.666 -2.6165  1.4059  0.0412
 7363SOL    HW233549   0.129   2.247   7.572 -0.5482  0.1374 -0.4561
 7364SOL     OW33550   2.651   0.057   4.018  0.5433  0.2268 -0.5831
 7364SOL    HW133551   2.573   0.100   3.984 -0.1565 -1.0806 -0.6292
 7364SOL    HW233552   2.716   0.126   4.005  1.1339 -0.1066  0.6186
 7365SOL     OW33553   2.392   3.814   3.572 -0.1656  0.3401 -0.5143
 7365SOL    HW133554   2.388   3.827   3.477 -0.0021  3.1959 -0.1165
 7365SOL    HW233555   2.453   3.881   3.600 -0.8596  0.0532  1.7076
 7366SOL     OW33556   4.139   1.582  16.716  0.7162  0.6339 -0.0626
 7366SOL    HW133557   4.113   1.560  16.626  2.8920 -1.4961 -0.1590
 7366SOL    HW233558   4.225   1.540  16.719  0.1155 -0.3255  3.1053
 7367SOL     OW33559   3.835   3.444   7.505 -0.2492  0.2954  0.2953
 7367SOL    HW133560   3.760   3.393   7.536 -1.4126  2.1449  0.4760
 7367SOL    HW233561   3.795   3.530   7.496 -0.2673  0.1310 -1.2041
 7368SOL     OW33562   2.513   1.324   8.162 -0.1182 -0.4915 -0.3026
 7368SOL    HW133563   2.420   1.300   8.160  0.0189 -0.9533 -1.0049
 7368SOL    HW233564   2.535   1.313   8.254 -1.7954 -1.7588 -0.0357
 7369SOL     OW33565   1.629   0.681   4.733 -0.3082 -0.1268  0.8297
 7369SOL    HW133566   1.588   0.674   4.646  2.3478  2.2366 -0.6141
 7369SOL    HW233567   1.656   0.773   4.726 -1.4243  0.2596  1.6362
 7370SOL     OW33568   0.739   2.093   5.464 -0.0201 -0.1416  0.2150
 7370SOL    HW133569   0.675   2.039   5.419 -1.1274  3.0236 -1.9974
 7370SOL    HW233570   0.741   2.060   5.554 -0.7560 -1.2370 -0.1759
 7371SOL     OW33571   2.007   4.285   3.630  0.4587  0.0682  0.3836
 7371SOL    HW133572   1.952   4.289   3.709 -0.1682  0.5206 -0.0802
 7371SOL    HW233573   1.932   4.280   3.570 -0.4194  0.3965  1.4522
 7372SOL     OW33574   0.384   3.168   8.628  0.3752 -0.4404 -0.1791
 7372SOL    HW133575   0.353   3.258   8.636 -0.3106 -0.4099 -3.0221
 7372SOL    HW233576   0.298   3.133   8.653  0.4794 -0.4054  0.2215
 7373SOL     OW33577   0.646   3.356   4.310  0.2619 -0.4775 -0.0757
 7373SOL    HW133578   0.609   3.403   4.236  1.3325 -0.4796 -0.6131
 7373SOL    HW233579   0.562   3.331   4.349 -0.2266  1.7162  0.2679
 7374SOL     OW33580   1.004   2.483   3.539  0.2001  0.4293 -0.3234
 7374SOL    HW133581   1.032   2.420   3.605 -0.3538  1.9777  1.3885
 7374SOL    HW233582   0.999   2.415   3.472  2.6246  0.9584 -1.0468
 7375SOL     OW33583   1.966   1.037   3.438 -0.1076 -0.3424  0.2586
 7375SOL    HW133584   2.038   1.057   3.378 -0.3539  1.6675  0.6195
 7375SOL    HW233585   1.899   1.101   3.411  1.8408  1.5632 -0.0780
 7376SOL     OW33586   3.931   4.096   6.613  0.0425 -0.2321  0.3369
 7376SOL    HW133587   3.858   4.054   6.568  0.1981 -0.0856 -0.0625
 7376SOL    HW233588   3.898   4.185   6.616 -0.8367 -0.5264 -0.5816
 7377SOL     OW33589   1.139   2.612   4.199  0.8749  0.0187 -0.4326
 7377SOL    HW133590   1.200   2.602   4.127  2.4635 -2.9022  1.3426
 7377SOL    HW233591   1.057   2.586   4.158  1.1422  0.7440 -1.4203
 7378SOL     OW33592   2.575   3.626   4.748  0.1214 -0.1539 -0.0587
 7378SOL    HW133593   2.579   3.661   4.837 -2.2577  0.8745 -0.3549
 7378SOL    HW233594   2.491   3.581   4.757  0.8033 -1.4815 -0.2447
 7379SOL     OW33595   1.566   4.544   2.609  0.2058 -0.4932  0.3284
 7379SOL    HW133596   1.530   4.554   2.697 -1.1578  1.3801 -0.4572
 7379SOL    HW233597   1.643   4.489   2.628  1.1340  0.1825 -1.5600
 7380SOL     OW33598   3.603   0.972   3.308  0.3502  0.0723 -0.1573
 7380SOL    HW133599   3.529   1.030   3.291 -0.9551 -1.7923 -0.8028
 7380SOL    HW233600   3.678   1.029   3.326 -0.2432  0.9600 -0.4715
 7381SOL     OW33601   2.110   4.269   6.105 -0.4134 -0.4932 -0.0476
 7381SOL    HW133602   2.034   4.315   6.142 -0.1057  1.9498 -2.4418
 7381SOL    HW233603   2.186   4.327   6.111 -2.1673  1.8478 -0.0376
 7382SOL     OW33604   2.630   3.085   6.511 -0.1575  0.1013 -0.1192
 7382SOL    HW133605   2.563   3.114   6.573 -0.6879 -1.6509  0.1413
 7382SOL    HW233606   2.655   3.014   6.571 -0.6255 -0.2201 -0.2999
 7383SOL     OW33607   0.295   0.688   8.205  0.6039 -0.4951 -0.5108
 7383SOL    HW133608   0.375   0.741   8.212 -0.7486  1.8600 -2.9067
 7383SOL    HW233609   0.287   0.654   8.294  3.8328 -2.0184 -0.7969
 7384SOL     OW33610   0.365   3.755   0.165  0.3535  0.1252  0.4077
 7384SOL    HW133611   0.359   3.692   0.094  0.3012 -0.4813  0.9511
 7384SOL    HW233612   0.277   3.756   0.202 -0.2378  0.9727 -1.0408
 7385SOL     OW33613   2.636   0.328  16.395 -0.5599 -0.7043  0.1643
 7385SOL    HW133614   2.573   0.312  16.325 -1.0642  1.8786  0.0136
 7385SOL    HW233615   2.590   0.380  16.461 -0.6215  1.6215 -1.7039
 7386SOL     OW33616   0.115   2.061   9.441 -0.3907  0.0819 -0.0990
 7386SOL    HW133617   0.163   2.036   9.520 -0.4230 -1.2542 -0.5166
 7386SOL    HW233618   0.064   2.138   9.468  1.2905  0.7806  1.1153
 7387SOL     OW33619   4.382   0.316   0.636 -0.7934  0.5865 -0.0466
 7387SOL    HW133620   4.448   0.300   0.569  0.8191 -0.0899  1.6741
 7387SOL    HW233621   4.301   0.310   0.586 -0.2622  3.5467 -1.2544
 7388SOL     OW33622   3.340   2.187   8.975 -0.0153  0.3255 -0.2762
 7388SOL    HW133623   3.344   2.125   9.048  0.7116 -0.6643 -1.1516
 7388SOL    HW233624   3.320   2.270   9.017  1.2810  0.7139 -0.4215
 7389SOL     OW33625   0.870   4.314   2.155  0.1300 -0.0485 -0.6773
 7389SOL    HW133626   0.893   4.282   2.068  1.0315  1.9448 -1.1816
 7389SOL    HW233627   0.917   4.397   2.164 -1.5266  0.9331 -0.9148
 7390SOL     OW33628   3.867   4.670   4.029 -0.0366  0.8190  0.0663
 7390SOL    HW133629   3.863   4.580   3.994 -1.0105  1.3833 -1.2622
 7390SOL    HW233630   3.962   4.681   4.037  0.0886  0.2817 -0.6886
 7391SOL     OW33631   4.230   3.874   4.951 -0.0973 -0.6469 -0.1283
 7391SOL    HW133632   4.184   3.940   5.003  2.4651  1.8736 -1.0719
 7391SOL    HW233633   4.314   3.852   4.991 -0.5014 -2.6249 -0.3521
 7392SOL     OW33634   3.046   2.828   9.766  0.0338 -0.0684  0.1913
 7392SOL    HW133635   3.135   2.855   9.745  0.5576 -1.3524  0.7613
 7392SOL    HW233636   3.052   2.847   9.860 -0.0362 -2.9707  0.7789
 7393SOL     OW33637   2.846   1.084   0.190  0.6327 -0.1424  0.1301
 7393SOL    HW133638   2.924   1.104   0.137  0.7312  0.6217  0.5627
 7393SOL    HW233639   2.812   1.009   0.142  0.2352  0.8985 -1.2161
 7394SOL     OW33640   2.619   2.774   3.545 -0.4455  0.3708  0.0504
 7394SOL    HW133641   2.663   2.858   3.533  0.9196 -0.1054  1.7981
 7394SOL    HW233642   2.529   2.804   3.533 -0.5545 -1.0482 -2.7731
 7395SOL     OW33643   0.979   1.918   5.327 -0.4454  0.0562 -0.0500
 7395SOL    HW133644   1.007   1.911   5.419 -1.8070 -0.2791  0.3517
 7395SOL    HW233645   0.990   2.012   5.316  1.3373 -0.4743 -2.9472
 7396SOL     OW33646   3.873   3.624   0.965  0.5692 -0.7148 -0.0874
 7396SOL    HW133647   3.836   3.627   1.053  1.5647 -0.9201  0.3389
 7396SOL    HW233648   3.880   3.719   0.952 -1.7458 -0.7135 -1.4417
 7397SOL     OW33649   3.487   3.852   2.262 -0.3759  0.2347  0.4226
 7397SOL    HW133650   3.443   3.801   2.330 -1.4882 -1.4649 -1.5924
 7397SOL    HW233651   3.543   3.790   2.216 -0.8429  0.9543 -1.1408
 7398SOL     OW33652   0.734   4.251   3.339 -0.0473  0.1546  0.4305
 7398SOL    HW133653   0.728   4.209   3.253  0.0857  0.2671  0.3673
 7398SOL    HW233654   0.652   4.299   3.352  0.1633  0.9286 -1.2017
 7399SOL     OW33655   1.287   3.160   0.963 -0.5153 -0.1703  0.5075
 7399SOL    HW133656   1.369   3.138   0.919 -0.0948  0.4083  1.0019
 7399SOL    HW233657   1.230   3.186   0.891  0.4316  0.7626  0.0940
 7400SOL     OW33658   4.504   3.000   3.069 -0.4799 -0.4367 -0.4094
 7400SOL    HW133659   4.512   2.913   3.108  1.1758  0.5343  1.3765
 7400SOL    HW233660   4.579   3.009   3.011 -1.0593 -1.0766 -1.2664
 7401SOL     OW33661   4.179   4.320   1.628 -0.3045 -0.0020 -0.2980
 7401SOL    HW133662   4.174   4.227   1.651 -0.0507  0.1676  0.4578
 7401SOL    HW233663   4.106   4.358   1.676 -0.6407 -1.2063  0.1457
 7402SOL     OW33664   0.720   4.714  16.600 -0.1052  0.0498 -0.6043
 7402SOL    HW133665   0.707   4.627  16.564  1.9900 -0.2076 -0.7283
 7402SOL    HW233666   0.672   0.054  16.544  0.5156  2.4778  1.4850
 7403SOL     OW33667   0.089   0.773  11.533  0.8593  0.3355  0.1476
 7403SOL    HW133668   0.070   0.809  11.446  0.3616 -1.6265 -0.5577
 7403SOL    HW233669   0.156   0.835  11.561 -0.9744  3.1324 -1.6033
 7404SOL     OW33670   1.816   0.304   6.455 -0.2188  0.0918 -0.0544
 7404SOL    HW133671   1.879   0.372   6.476 -1.7115  1.0346  1.3558
 7404SOL    HW233672   1.732   0.336   6.488  1.0126  0.7657  2.4050
 7405SOL     OW33673   3.749   3.168   5.040 -0.5898  0.1748  0.3330
 7405SOL    HW133674   3.758   3.094   4.980  2.0897 -0.2475  1.2384
 7405SOL    HW233675   3.772   3.123   5.122 -1.5836  0.0115  0.5232
 7406SOL     OW33676   2.258   3.482   5.821  0.3773 -0.6800 -0.0451
 7406SOL    HW133677   2.201   3.410   5.849 -0.3970 -0.0478  0.0046
 7406SOL    HW233678   2.232   3.490   5.729 -0.0331 -1.3664  0.0062
 7407SOL     OW33679   1.575   0.724   8.706  0.2611 -0.0741  0.3951
 7407SOL    HW133680   1.584   0.806   8.755 -1.7425 -0.5405  1.5490
 7407SOL    HW233681   1.660   0.682   8.716  0.4893 -0.0011 -1.2622
 7408SOL     OW33682   0.844   1.261  16.103 -0.4709 -0.6386 -0.6370
 7408SOL    HW133683   0.884   1.224  16.182 -0.0699 -1.4685 -1.2259
 7408SOL    HW233684   0.754   1.261  16.136  0.3653  1.6120  1.6357
 7409SOL     OW33685   2.644   0.395  16.767 -0.2094 -0.2431 -0.1244
 7409SOL    HW133686   2.595   0.433  16.694 -0.2959 -0.4578 -0.1800
 7409SOL    HW233687   2.700   0.326  16.730 -0.8608  0.4610 -2.4432
 7410SOL     OW33688   3.963   2.627   1.111  0.3808  0.4763 -0.6946
 7410SOL    HW133689   4.047   2.672   1.111 -0.1640  1.4793  1.4856
 7410SOL    HW233690   3.902   2.693   1.077 -0.8708 -0.5323 -0.3924
 7411SOL     OW33691   0.261   0.040  16.113  0.2773 -0.5016 -0.3587
 7411SOL    HW133692   0.214   0.109  16.065 -1.3094  1.4380  3.9502
 7411SOL    HW233693   0.212   0.022  16.194  1.7123  0.0799  0.6529
 7412SOL     OW33694   1.374   3.653   3.268 -0.3619  0.0721  0.1687
 7412SOL    HW133695   1.437   3.706   3.218 -0.7981  0.7219  0.3134
 7412SOL    HW233696   1.420   3.569   3.266  1.2258  0.9180  0.3131
 7413SOL     OW33697   1.629   4.041   8.206  0.0420 -0.0187 -0.0808
 7413SOL    HW133698   1.664   3.971   8.261  0.1205 -0.6694 -0.9661
 7413SOL    HW233699   1.659   4.123   8.244 -1.2944 -0.1319  1.2129
 7414SOL     OW33700   1.818   1.168  10.639  0.3283  0.1802  0.1763
 7414SOL    HW133701   1.800   1.074  10.647  0.1268  0.0602 -1.6884
 7414SOL    HW233702   1.790   1.183  10.549 -0.3971  0.7827  0.5032
 7415SOL     OW33703   0.109   3.046   8.602 -0.2012 -0.2759 -0.0896
 7415SOL    HW133704   0.031   3.078   8.557 -0.6546 -1.0371  0.1646
 7415SOL    HW233705   0.078   3.046   8.692  1.3861  2.1462  0.4605
 7416SOL     OW33706   1.656   1.537   3.950 -0.0009 -1.0787 -0.3719
 7416SOL    HW133707   1.602   1.615   3.958 -0.7012 -1.6111  0.0493
 7416SOL    HW233708   1.732   1.563   4.002  1.3313 -3.5369 -1.0840
 7417SOL     OW33709   4.476   2.619   0.226 -0.3311 -0.4081 -0.2018
 7417SOL    HW133710   4.446   2.528   0.219 -1.4450 -0.1654  1.5575
 7417SOL    HW233711   4.393   2.661   0.207  0.0349 -0.1540 -1.2446
 7418SOL     OW33712   4.644   0.130  15.699  0.1997  0.1121 -0.2173
 7418SOL    HW133713   4.628   0.094  15.612  0.4049  0.4837 -0.4128
 7418SOL    HW233714   4.596   0.212  15.685 -2.0978 -0.8917  1.9403
 7419SOL     OW33715   3.529   2.863   7.843  0.0942  0.5507  0.2462
 7419SOL    HW133716   3.448   2.876   7.794 -0.0108 -0.6119  0.1046
 7419SOL    HW233717   3.549   2.954   7.864 -0.4244  0.6698  0.2168
 7420SOL     OW33718   1.014   2.176   8.895 -0.3335 -0.0388  0.2710
 7420SOL    HW133719   0.956   2.134   8.831 -0.0565  0.3385 -0.2330
 7420SOL    HW233720   0.990   2.268   8.886  0.3666  0.2442  1.2572
 7421SOL     OW33721   0.279   1.070   3.097  0.8694  0.1333 -0.0816
 7421SOL    HW133722   0.254   1.015   3.023 -0.2381  0.5530 -0.0246
 7421SOL    HW233723   0.358   1.034   3.138  0.1627 -0.1040  1.0701
 7422SOL     OW33724   2.001   4.138  14.233 -0.0720  0.0090  0.2057
 7422SOL    HW133725   1.953   4.085  14.297  2.5576 -1.0261  1.3335
 7422SOL    HW233726   2.070   4.075  14.215 -0.6005 -0.2126 -1.0555
 7423SOL     OW33727   2.612   1.678  14.161  0.4560 -0.2726 -0.4046
 7423SOL    HW133728   2.571   1.624  14.093 -0.7696  1.1950 -0.8169
 7423SOL    HW233729   2.674   1.739  14.122 -0.2367  1.1949  0.7567
 7424SOL     OW33730   2.868   1.552  15.624  0.0344 -0.0146  0.1015
 7424SOL    HW133731   2.806   1.585  15.689  0.8921  0.3578  0.7277
 7424SOL    HW233732   2.901   1.634  15.587 -1.3836  0.5622  0.1436
 7425SOL     OW33733   4.610   3.164   3.888  0.1963 -0.1776  0.0280
 7425SOL    HW133734   4.703   3.184   3.876  0.4560 -1.6592 -0.5013
 7425SOL    HW233735   4.573   3.218   3.818  2.2821  0.4725 -0.5813
 7426SOL     OW33736   3.628   2.088   4.619 -0.2715  0.3385  0.3877
 7426SOL    HW133737   3.649   2.000   4.587 -0.8224 -0.1655  1.4168
 7426SOL    HW233738   3.568   2.118   4.551  0.0157  1.0561  0.4556
 7427SOL     OW33739   4.486   3.883   0.753 -0.5652  0.0879 -0.4725
 7427SOL    HW133740   4.454   3.800   0.717 -0.7480 -0.9304  2.0625
 7427SOL    HW233741   4.408   3.903   0.804  1.0960  4.4227  0.3067
 7428SOL     OW33742   0.513   1.873  15.513 -0.0902  0.9879 -0.3704
 7428SOL    HW133743   0.536   1.879  15.421 -1.3450 -2.8159 -0.9363
 7428SOL    HW233744   0.588   1.914  15.556  1.3213 -1.0156 -0.9377
 7429SOL     OW33745   0.431   2.853  16.879  0.1614 -0.2502 -0.2092
 7429SOL    HW133746   0.424   2.790  16.807 -0.0573 -0.0489 -0.3625
 7429SOL    HW233747   0.507   2.816  16.924 -0.6475 -1.7759 -0.0777
 7430SOL     OW33748   2.887   0.952  12.440  0.0232 -0.2320  0.2489
 7430SOL    HW133749   2.821   1.017  12.466 -1.2057 -0.8494 -1.3368
 7430SOL    HW233750   2.967   1.003  12.429 -0.5667  0.3074 -1.4862
 7431SOL     OW33751   4.091   2.261   3.078  0.7410 -0.4731  0.0086
 7431SOL    HW133752   4.144   2.224   3.148 -1.1314 -2.2643  0.4913
 7431SOL    HW233753   4.008   2.266   3.125  1.6769 -1.1370  1.7180
 7432SOL     OW33754   1.040   1.738  17.025  0.3863  0.0757 -0.0113
 7432SOL    HW133755   1.119   1.688  17.045 -0.3308 -0.3865  1.6593
 7432SOL    HW233756   0.976   1.686  17.074 -0.1811 -0.4973 -1.3654
 7433SOL     OW33757   3.420   3.926  17.112  0.0314 -0.3462 -0.0196
 7433SOL    HW133758   3.432   4.004  17.058 -0.9429  0.2751  0.6571
 7433SOL    HW233759   3.468   3.960  17.188 -2.1453  1.0134  0.7637
 7434SOL     OW33760   0.522   2.655   6.076 -0.2352 -0.2352 -0.2315
 7434SOL    HW133761   0.611   2.682   6.097 -0.1464  0.6436 -1.7536
 7434SOL    HW233762   0.541   2.595   6.005  0.9168 -0.8671  0.6131
 7435SOL     OW33763   4.158   1.612   3.337 -0.5176  0.2798  0.3860
 7435SOL    HW133764   4.244   1.650   3.317 -0.8586  1.7773  1.7469
 7435SOL    HW233765   4.149   1.554   3.261  0.9727  1.4773 -0.7009
 7436SOL     OW33766   4.303   3.823  17.481  0.5067  0.1331  0.4936
 7436SOL    HW133767   4.263   3.738  17.459  1.4904  0.1487 -1.3844
 7436SOL    HW233768   4.228   3.878  17.500 -2.0967 -2.6232 -1.7125
 7437SOL     OW33769   1.967   4.544   7.904 -0.0880  0.6094 -0.1484
 7437SOL    HW133770   1.954   4.570   7.995 -2.9477 -1.5737  0.0754
 7437SOL    HW233771   1.904   4.472   7.891 -0.7818  1.2360 -0.2550
 7438SOL     OW33772   2.472   4.516  11.231 -0.6203 -0.3652 -0.1059
 7438SOL    HW133773   2.432   4.499  11.317  1.2624 -1.5435  0.5406
 7438SOL    HW233774   2.564   4.513  11.255 -0.2803  0.1632 -1.3492
 7439SOL     OW33775   0.001   2.804  10.030 -0.2479  0.3311 -0.1313
 7439SOL    HW133776   4.694   2.894  10.014 -1.8377  0.3735  2.6952
 7439SOL    HW233777   4.656   2.751   9.984  2.5436 -0.7969 -2.7885
 7440SOL     OW33778   2.157   2.186   3.974  0.2911  0.2354 -0.0060
 7440SOL    HW133779   2.229   2.205   4.035  0.4057 -1.8009  0.4833
 7440SOL    HW233780   2.080   2.198   4.030  0.6494  1.4477  0.2312
 7441SOL     OW33781   2.634   0.763  17.204 -0.0616  0.1355  0.9167
 7441SOL    HW133782   2.642   0.699  17.134 -0.6163  1.6339 -0.5086
 7441SOL    HW233783   2.541   0.787  17.198  0.4078  1.0232 -2.5503
 7442SOL     OW33784   4.297   0.996   2.485 -0.7926 -0.1690  0.0837
 7442SOL    HW133785   4.304   1.069   2.546  0.6397 -0.6246  0.4490
 7442SOL    HW233786   4.382   0.954   2.495 -0.6049 -0.6712 -3.4368
 7443SOL     OW33787   4.265   4.434   6.063 -0.0851  0.0933  0.5908
 7443SOL    HW133788   4.348   4.440   6.111 -0.8808 -2.5243  2.2978
 7443SOL    HW233789   4.211   4.381   6.121  0.9019 -1.1060  0.4234
 7444SOL     OW33790   4.556   3.170   0.826 -0.1599  0.4573  0.2707
 7444SOL    HW133791   4.565   3.075   0.823  0.6988  0.5039  1.4069
 7444SOL    HW233792   4.639   3.193   0.869  1.3988 -1.9373 -1.4285
 7445SOL     OW33793   3.259   2.521   4.096 -0.4174  0.1269 -0.4453
 7445SOL    HW133794   3.233   2.567   4.175  1.4144  0.6911 -0.1677
 7445SOL    HW233795   3.281   2.434   4.130 -1.2413 -1.3009 -3.5162
 7446SOL     OW33796   1.555   4.102   4.266 -0.6039 -0.0005 -0.1663
 7446SOL    HW133797   1.484   4.061   4.217 -0.2359 -0.2455 -0.4976
 7446SOL    HW233798   1.616   4.120   4.194  1.7220  0.1141  1.8360
 7447SOL     OW33799   1.475   0.745   2.875  0.0727 -0.5151 -0.3172
 7447SOL    HW133800   1.569   0.766   2.871  0.0091 -0.3607 -0.9713
 7447SOL    HW233801   1.473   0.654   2.904  0.7284 -0.7944 -1.1313
 7448SOL     OW33802   3.044   0.058   7.877 -0.0900  0.0842 -0.1186
 7448SOL    HW133803   3.016   4.689   7.857 -2.2923  0.6893  0.2319
 7448SOL    HW233804   3.117   0.058   7.940  0.7399 -2.1926 -1.0670
 7449SOL     OW33805   1.159   0.208   5.531 -0.3918 -0.7646  0.2657
 7449SOL    HW133806   1.232   0.243   5.479 -0.4583 -0.4589  0.3778
 7449SOL    HW233807   1.090   0.269   5.504 -1.1454 -1.7167  0.0353
 7450SOL     OW33808   1.166   2.400  10.625 -0.0145  0.0169  0.0120
 7450SOL    HW133809   1.237   2.458  10.653 -0.7084  0.0276  1.7414
 7450SOL    HW233810   1.129   2.371  10.708  0.3585  1.0754  0.5485
 7451SOL     OW33811   2.879   4.611  16.773 -0.3111  0.4371  0.0399
 7451SOL    HW133812   2.917   4.650  16.851 -1.9560 -2.3317  2.2423
 7451SOL    HW233813   2.858   4.524  16.809  1.4423  0.1784  0.4635
 7452SOL     OW33814   4.430   2.363   7.983  0.2623  0.1006 -0.4722
 7452SOL    HW133815   4.458   2.284   8.029 -1.4765 -1.2480 -1.7089
 7452SOL    HW233816   4.424   2.323   7.896  1.8069 -1.8834  0.3328
 7453SOL     OW33817   0.081   4.285   4.916 -0.4134 -0.0979  0.5464
 7453SOL    HW133818   0.048   4.236   4.841  2.2539  0.9108 -1.2684
 7453SOL    HW233819   0.146   4.220   4.943 -0.9656 -0.1615  1.7554
 7454SOL     OW33820   2.932   2.201   2.916  0.1080  0.1555  0.3110
 7454SOL    HW133821   2.950   2.144   2.991 -1.1642 -1.0296 -0.2909
 7454SOL    HW233822   2.911   2.126   2.861  0.0620  1.3671 -1.3123
 7455SOL     OW33823   0.261   0.179   4.717 -0.1175  0.0101  0.0418
 7455SOL    HW133824   0.354   0.196   4.733 -0.2601  1.1003 -0.2813
 7455SOL    HW233825   0.261   0.095   4.762 -0.5450 -0.1446 -0.2459
 7456SOL     OW33826   3.631   0.407   5.537  0.4580  0.8165 -0.3101
 7456SOL    HW133827   3.540   0.430   5.516  0.4840  0.8817 -0.3522
 7456SOL    HW233828   3.674   0.493   5.534  1.1685  0.5086  1.1839
 7457SOL     OW33829   2.266   4.702  11.853 -0.6807  0.0226  0.1079
 7457SOL    HW133830   2.188   0.006  11.804 -0.9869 -1.5772 -0.2350
 7457SOL    HW233831   2.267   0.049  11.920 -1.2341  0.4396 -0.3116
 7458SOL     OW33832   0.565   3.007   9.472  0.1318 -0.3399  0.2731
 7458SOL    HW133833   0.603   3.075   9.528 -1.4284  1.3054 -0.6549
 7458SOL    HW233834   0.597   2.934   9.525 -0.6338 -0.3294  0.7506
 7459SOL     OW33835   3.003   0.499  16.221 -0.0115  0.2765 -0.0620
 7459SOL    HW133836   3.075   0.517  16.282 -0.5016 -0.8002  0.8345
 7459SOL    HW233837   3.036   0.419  16.180  2.3427  0.2262  1.9830
 7460SOL     OW33838   1.276   1.946   4.650  0.4761 -0.2419 -0.6760
 7460SOL    HW133839   1.307   1.992   4.729 -0.0658 -1.2262  0.1148
 7460SOL    HW233840   1.207   2.004   4.619 -1.2335 -2.5188 -1.0663
 7461SOL     OW33841   3.235   0.077   4.374  0.2440 -0.6560  0.6246
 7461SOL    HW133842   3.145   0.046   4.374  0.0572 -0.1744 -2.0981
 7461SOL    HW233843   3.245   0.130   4.452 -1.6335  1.4903 -0.6131
 7462SOL     OW33844   3.091   3.411   8.823  0.2536 -0.0369 -0.4563
 7462SOL    HW133845   3.104   3.417   8.729 -2.8824 -0.3797 -0.9396
 7462SOL    HW233846   3.176   3.379   8.854 -0.6040  0.3246  2.2799
 7463SOL     OW33847   0.269   4.695   9.811  0.1968  0.1855 -0.0733
 7463SOL    HW133848   0.246   0.052   9.863  1.1571 -0.8897  1.9781
 7463SOL    HW233849   0.311   4.641   9.878  0.1674 -1.9723 -1.7754
 7464SOL     OW33850   2.562   2.088   2.306 -0.9643 -0.1041 -0.2305
 7464SOL    HW133851   2.591   2.048   2.388 -1.2851  1.4542  0.6379
 7464SOL    HW233852   2.622   2.047   2.244 -0.6874 -1.2392  0.7705
 7465SOL     OW33853   3.913   2.758   0.815 -0.1468 -0.5939  0.7561
 7465SOL    HW133854   3.860   2.796   0.885  0.0447 -1.7244  1.5105
 7465SOL    HW233855   3.881   2.802   0.737 -0.0717 -0.9755  0.5111
 7466SOL     OW33856   0.608   2.894   2.532 -0.1267  0.1623  0.1052
 7466SOL    HW133857   0.697   2.859   2.530  0.4564  1.7889 -2.3325
 7466SOL    HW233858   0.623   2.977   2.486  1.0054 -0.2536 -0.2821
 7467SOL     OW33859   0.342   1.012  12.034  0.3426 -0.0492 -0.3045
 7467SOL    HW133860   0.293   0.939  11.995  2.9681 -1.2424 -1.3620
 7467SOL    HW233861   0.383   1.059  11.961 -2.4830  0.6549 -1.4171
 7468SOL     OW33862   2.440   4.576   5.670  0.0001  0.1111 -0.7975
 7468SOL    HW133863   2.504   4.645   5.651  1.6470 -1.4380 -0.9035
 7468SOL    HW233864   2.500   4.510   5.705  0.9721  2.6641  2.3724
 7469SOL     OW33865   1.526   3.906   5.985  0.1547  0.0090 -0.0256
 7469SOL    HW133866   1.496   3.943   5.902 -0.6333  2.4434  1.3531
 7469SOL    HW233867   1.463   3.954   6.039  1.0846  0.1427  0.9420
 7470SOL     OW33868   3.463   1.335  16.650 -0.1119 -0.2231 -0.5236
 7470SOL    HW133869   3.388   1.319  16.591 -1.5324 -0.8752  1.4748
 7470SOL    HW233870   3.466   1.261  16.710  2.7197  1.0786  0.9565
 7471SOL     OW33871   1.074   4.556  13.095  0.1320  0.1241  0.2298
 7471SOL    HW133872   1.133   4.483  13.078 -0.2225 -0.1979  0.3697
 7471SOL    HW233873   1.065   4.554  13.190  0.5722 -0.4923  0.2610
 7472SOL     OW33874   1.938   1.208   7.380  0.3875  0.0845  0.7656
 7472SOL    HW133875   1.908   1.123   7.414 -0.4220  0.7277  1.6892
 7472SOL    HW233876   1.914   1.272   7.448  1.6994  0.4052  0.9333
 7473SOL     OW33877   3.328   0.046  11.238 -0.6103  1.2207  0.1378
 7473SOL    HW133878   3.390   0.015  11.305 -0.6714 -0.3705 -0.5335
 7473SOL    HW233879   3.343   4.716  11.158  1.4828 -0.3946  1.5512
 7474SOL     OW33880   2.982   1.909   7.208 -0.5993 -0.1953 -0.0447
 7474SOL    HW133881   2.953   1.999   7.192  0.7131  0.1899 -0.2637
 7474SOL    HW233882   3.051   1.897   7.143 -0.3001  0.5425  0.1414
 7475SOL     OW33883   2.294   4.483  13.884  0.4044  0.4816  0.4197
 7475SOL    HW133884   2.357   4.425  13.841 -0.3074 -1.4373  1.9685
 7475SOL    HW233885   2.349   4.534  13.943 -4.5978  5.4189  0.7669
 7476SOL     OW33886   2.299   3.544  10.666  0.2907  0.2952  0.4568
 7476SOL    HW133887   2.240   3.527  10.739 -0.5295  1.2656  0.0176
 7476SOL    HW233888   2.255   3.623  10.636  0.6299 -0.9055 -3.2055
 7477SOL     OW33889   4.423   1.395   1.057 -0.0930  0.2634  0.0428
 7477SOL    HW133890   4.482   1.320   1.043 -1.6150 -1.0648  0.6793
 7477SOL    HW233891   4.340   1.354   1.083 -0.6419  2.3996  1.6334
 7478SOL     OW33892   1.319   2.142   8.326 -0.0324 -0.3952 -0.3960
 7478SOL    HW133893   1.400   2.144   8.377 -1.1374 -0.2928  1.3513
 7478SOL    HW233894   1.284   2.056   8.352 -0.7831  0.1196  0.2882
 7479SOL     OW33895   4.360   1.928  16.677  0.3470  0.1816  0.6660
 7479SOL    HW133896   4.365   2.013  16.634  0.6042 -1.0061 -1.6615
 7479SOL    HW233897   4.293   1.885  16.624  0.3273  2.4934 -1.1602
 7480SOL     OW33898   1.543   4.538   9.344  0.5783  0.5718  0.2179
 7480SOL    HW133899   1.559   4.631   9.327 -0.2463  0.6436 -0.1649
 7480SOL    HW233900   1.608   4.500   9.285 -0.1749  0.3330 -0.4622
 7481SOL     OW33901   3.143   0.310   0.855  0.1800  0.1958 -0.3321
 7481SOL    HW133902   3.121   0.218   0.873  1.7203 -0.3710 -1.2552
 7481SOL    HW233903   3.060   0.336   0.815  0.8836  1.7719 -0.7390
 7482SOL     OW33904   0.705   3.911  10.950  0.3912 -0.2854  0.4044
 7482SOL    HW133905   0.664   3.827  10.932  2.8316 -1.3672 -0.1875
 7482SOL    HW233906   0.720   3.905  11.044  0.8141  0.5382  0.3891
 7483SOL     OW33907   4.225   0.247  11.144 -0.0849  0.2280  0.3141
 7483SOL    HW133908   4.232   0.281  11.233  1.0622  0.3585  0.1710
 7483SOL    HW233909   4.312   0.209  11.133 -0.9790 -1.9763  0.8614
 7484SOL     OW33910   1.245   1.592  14.671  0.2451  0.1909  0.3182
 7484SOL    HW133911   1.241   1.578  14.577 -2.4748  0.3879  0.4046
 7484SOL    HW233912   1.338   1.613  14.671  0.8455 -2.4469  1.6213
 7485SOL     OW33913   2.264   3.212  11.572  0.6499 -0.1013  0.1130
 7485SOL    HW133914   2.334   3.192  11.510  0.9398 -0.9011  0.6987
 7485SOL    HW233915   2.239   3.304  11.562  2.0499  0.4299  1.4071
 7486SOL     OW33916   0.290   4.118   4.334  0.1460 -0.4034 -0.0979
 7486SOL    HW133917   0.320   4.134   4.423  0.6183 -3.3545  0.2767
 7486SOL    HW233918   0.222   4.185   4.328  1.5776  1.1566  1.5171
 7487SOL     OW33919   3.767   1.893   4.813  0.2268  0.9797  1.2058
 7487SOL    HW133920   3.710   1.831   4.859 -0.5342  0.2352 -0.7254
 7487SOL    HW233921   3.763   1.874   4.719  0.0810  0.9559  1.2167
 7488SOL     OW33922   3.621   4.176   3.159 -0.4152  0.2162 -0.4963
 7488SOL    HW133923   3.637   4.271   3.162 -1.5437  0.3385  1.4472
 7488SOL    HW233924   3.685   4.143   3.221 -0.7427 -0.6764 -0.6424
 7489SOL     OW33925   4.437   2.402   8.265 -0.3709  0.6185 -0.3488
 7489SOL    HW133926   4.434   2.427   8.173 -0.5502  0.8676 -0.2744
 7489SOL    HW233927   4.491   2.323   8.273 -0.6067  0.5171  0.2982
 7490SOL     OW33928   4.451   4.605   7.525 -0.0107  0.1420  0.5256
 7490SOL    HW133929   4.489   4.623   7.611  0.4752 -0.8432  0.5130
 7490SOL    HW233930   4.363   4.585   7.556 -0.2621  0.4106 -0.0070
 7491SOL     OW33931   0.127   4.245   2.502  0.1487  0.6290 -0.4121
 7491SOL    HW133932   0.120   4.150   2.504 -0.9580  0.6863 -1.2990
 7491SOL    HW233933   0.207   4.250   2.554  0.1221 -0.7396 -0.2412
 7492SOL     OW33934   1.387   4.270   5.885 -0.2413 -0.1920 -0.0876
 7492SOL    HW133935   1.392   4.202   5.818  1.7605  1.7862 -1.9254
 7492SOL    HW233936   1.340   4.222   5.954  1.8621  1.1287  2.2685
 7493SOL     OW33937   3.809   0.975   5.554 -0.0444  0.0004 -0.0578
 7493SOL    HW133938   3.847   0.901   5.602 -1.1812  0.0403  0.8834
 7493SOL    HW233939   3.813   0.944   5.463 -1.9135 -2.0660  0.5550
 7494SOL     OW33940   1.554   4.326  17.121  0.5087  0.1737 -0.2513
 7494SOL    HW133941   1.487   4.357  17.059  2.1163 -0.3428 -2.2365
 7494SOL    HW233942   1.634   4.370  17.092  1.0928 -0.0191  1.0926
 7495SOL     OW33943   2.630   2.672   9.241  0.5035 -0.2944 -0.0338
 7495SOL    HW133944   2.562   2.728   9.279  0.1342  0.4956 -1.8347
 7495SOL    HW233945   2.663   2.628   9.319 -1.4780  1.5000  1.8326
 7496SOL     OW33946   1.312   0.724   9.687 -0.3506 -0.3337  0.0685
 7496SOL    HW133947   1.391   0.671   9.698  0.4418  1.0938  1.2344
 7496SOL    HW233948   1.330   0.768   9.604 -2.4553 -0.8774 -0.6688
 7497SOL     OW33949   0.371   1.846   5.823  0.0835 -0.0526 -0.6052
 7497SOL    HW133950   0.313   1.920   5.805  0.6345  0.8112  1.2060
 7497SOL    HW233951   0.421   1.831   5.743  1.2353 -0.4219  0.1763
 7498SOL     OW33952   0.676   2.547  15.946  0.0318  0.0634 -0.3612
 7498SOL    HW133953   0.747   2.581  16.000 -0.2911  0.3609 -0.1199
 7498SOL    HW233954   0.699   2.578  15.858 -1.2886  0.0261 -0.7235
 7499SOL     OW33955   1.624   4.020   4.519  0.1023 -0.3676 -0.2020
 7499SOL    HW133956   1.592   4.063   4.440 -0.1337 -1.1602 -0.5426
 7499SOL    HW233957   1.717   4.010   4.498 -0.0374 -0.6947 -0.6849
 7500SOL     OW33958   0.498   0.682  11.691  0.4372 -0.9782  0.9019
 7500SOL    HW133959   0.592   0.667  11.684  0.5331 -0.9170  2.0605
 7500SOL    HW233960   0.495   0.777  11.705 -2.3045 -0.8398 -0.5818
 7501SOL     OW33961   2.872   3.582   3.582 -0.1814  0.0028 -0.3468
 7501SOL    HW133962   2.863   3.573   3.677  0.1188  0.0617 -0.3120
 7501SOL    HW233963   2.843   3.673   3.574  3.6681  1.3049  0.5206
 7502SOL     OW33964   2.984   1.036   2.069 -0.2844 -0.2813 -0.2896
 7502SOL    HW133965   2.974   0.977   1.995 -0.8790  1.1069 -1.3066
 7502SOL    HW233966   2.908   1.012   2.122 -0.7087 -0.5992 -1.0556
 7503SOL     OW33967   2.515   4.239   5.411 -0.6581  0.2713 -0.7183
 7503SOL    HW133968   2.520   4.175   5.340 -0.9283  0.0104 -0.5062
 7503SOL    HW233969   2.598   4.284   5.393  0.2439 -0.5075  1.4675
 7504SOL     OW33970   3.524   0.774   5.015  0.3348 -0.4811  0.2139
 7504SOL    HW133971   3.606   0.823   5.017 -0.5251  0.9903 -0.2577
 7504SOL    HW233972   3.497   0.775   4.923  1.8634  0.1710 -0.2193
 7505SOL     OW33973   1.973   1.895  13.036 -0.5298  0.1331 -0.7341
 7505SOL    HW133974   1.991   1.947  12.958  1.4605 -0.8735 -0.9636
 7505SOL    HW233975   2.065   1.906  13.063 -0.6897  1.7060 -0.8757
 7506SOL     OW33976   0.301   0.782  13.002  0.5607  0.5957  0.3554
 7506SOL    HW133977   0.233   0.765  13.068 -1.3060 -1.1607 -2.0147
 7506SOL    HW233978   0.266   0.744  12.921  1.4422  0.2244  0.1444
 7507SOL     OW33979   0.879   4.098  17.201 -0.0207  0.5018 -0.0360
 7507SOL    HW133980   0.899   4.075  17.111 -1.9106 -1.5184  0.0501
 7507SOL    HW233981   0.948   4.048  17.245  0.9583  0.1995 -1.9291
 7508SOL     OW33982   3.280   3.371  12.603  0.1202  0.0734  0.0937
 7508SOL    HW133983   3.290   3.397  12.695 -1.1952 -0.8936  0.5159
 7508SOL    HW233984   3.286   3.276  12.612 -2.2644 -0.0584  0.2143
 7509SOL     OW33985   2.739   3.364   6.986  0.3299 -0.5335 -0.0543
 7509SOL    HW133986   2.671   3.371   6.919 -1.1777 -0.5124  1.4716
 7509SOL    HW233987   2.811   3.325   6.937  0.2107 -0.1027 -0.5768
 7510SOL     OW33988   1.020   3.271   7.295  0.3096  0.2047 -0.6154
 7510SOL    HW133989   1.070   3.346   7.262  0.4812  1.1268  1.7682
 7510SOL    HW233990   1.024   3.283   7.390  3.0988 -0.1860 -0.6783
 7511SOL     OW33991   2.197   4.588  14.243  0.1530 -0.1145  0.2461
 7511SOL    HW133992   2.282   4.615  14.208 -0.8950  2.6111 -0.2178
 7511SOL    HW233993   2.185   4.633  14.327 -0.2583 -0.2981  0.2877
 7512SOL     OW33994   0.272   3.066  16.972 -0.3265 -0.4103  0.0917
 7512SOL    HW133995   0.268   3.046  17.066 -2.1725  0.5237  0.2168
 7512SOL    HW233996   0.331   3.003  16.932  2.2743  0.4964  2.5086
 7513SOL     OW33997   1.726   0.276   6.171 -0.2263 -0.1867  0.1423
 7513SOL    HW133998   1.792   0.274   6.241 -1.4180 -0.4641  1.2759
 7513SOL    HW233999   1.682   0.193   6.192  1.5459 -0.3036  3.5820
 7514SOL     OW34000   2.311   2.205   2.278  0.1966  0.1302  0.2501
 7514SOL    HW134001   2.396   2.161   2.276  1.5789  2.8152 -0.2627
 7514SOL    HW234002   2.329   2.278   2.337 -0.4395 -0.0970  0.7211
 7515SOL     OW34003   0.945   0.393  14.902 -0.2212  0.0527 -0.0742
 7515SOL    HW134004   1.007   0.385  14.829 -2.1290 -2.0358 -1.4594
 7515SOL    HW234005   0.977   0.466  14.954 -0.9644  1.1161 -1.1052
 7516SOL     OW34006   1.191   0.238  12.472  0.4789 -0.2243  0.2814
 7516SOL    HW134007   1.227   0.174  12.533 -3.4904 -2.1019  0.6146
 7516SOL    HW234008   1.268   0.247  12.415  1.9343 -1.5578  2.0304
 7517SOL     OW34009   1.860   1.337   7.616  0.2072 -0.1609  0.4917
 7517SOL    HW134010   1.857   1.326   7.711  4.6937 -1.1791  0.5063
 7517SOL    HW234011   1.856   1.433   7.609  2.0290 -0.0873  0.3333
 7518SOL     OW34012   3.028   1.576   1.154 -0.4758  0.1411  0.0769
 7518SOL    HW134013   3.079   1.624   1.089  0.0225 -0.9681 -0.3421
 7518SOL    HW234014   3.080   1.606   1.228 -1.1568 -0.5182  0.8211
 7519SOL     OW34015   2.021   2.835   2.324  0.1222 -0.0633  0.2234
 7519SOL    HW134016   2.052   2.828   2.234  0.7186  0.4049  0.3904
 7519SOL    HW234017   1.932   2.866   2.303 -0.4216 -1.2048  0.8639
 7520SOL     OW34018   2.850   3.846  14.493 -0.4691  0.0181 -0.5426
 7520SOL    HW134019   2.820   3.849  14.584 -1.2974  2.5064 -0.8965
 7520SOL    HW234020   2.769   3.820  14.450  0.3073 -0.7680 -1.5215
 7521SOL     OW34021   4.210   2.394   8.662  0.1735 -0.3499 -0.0548
 7521SOL    HW134022   4.187   2.416   8.571  0.4617  1.2941  0.2796
 7521SOL    HW234023   4.297   2.355   8.661 -0.5693 -2.0002 -0.9615
 7522SOL     OW34024   4.539   0.694   4.530 -0.3374  0.0184 -0.1622
 7522SOL    HW134025   4.490   0.618   4.500  0.1410 -0.5250  0.4383
 7522SOL    HW234026   4.631   0.672   4.516  0.7867  2.7679  2.9847
 7523SOL     OW34027   4.037   0.900   9.082 -0.6174  0.2267  0.6738
 7523SOL    HW134028   4.024   0.824   9.024 -1.3843  1.7231 -1.1268
 7523SOL    HW234029   4.040   0.858   9.168  1.5042  1.7165  1.3220
 7524SOL     OW34030   4.714   4.053   7.064  0.5541  0.1555 -0.1196
 7524SOL    HW134031   0.075   4.102   7.062  1.3600 -1.1489  0.5334
 7524SOL    HW234032   4.655   4.121   7.095  1.3325  0.7017  0.1403
 7525SOL     OW34033   4.308   0.406   3.355 -0.0370 -0.2261  0.0250
 7525SOL    HW134034   4.223   0.450   3.363 -1.0617 -1.9233 -1.7484
 7525SOL    HW234035   4.290   0.335   3.295 -1.7199 -0.1024  0.3922
 7526SOL     OW34036   2.736   4.119   1.932  0.1267 -0.6289  0.8690
 7526SOL    HW134037   2.817   4.117   1.882 -0.1920  1.1536  0.2583
 7526SOL    HW234038   2.760   4.176   2.005  1.3147 -1.1282  0.8620
 7527SOL     OW34039   3.437   2.123  11.627  0.7587 -0.0849 -0.1343
 7527SOL    HW134040   3.401   2.181  11.559 -1.3968  1.7981  2.6396
 7527SOL    HW234041   3.366   2.058  11.632  1.6203 -1.0555 -0.5103
 7528SOL     OW34042   2.787   2.894   0.908 -0.4048  0.0185 -0.4184
 7528SOL    HW134043   2.705   2.894   0.858 -0.2200 -0.1306 -0.7161
 7528SOL    HW234044   2.745   2.881   0.994  2.2838 -1.4648  0.6634
 7529SOL     OW34045   4.678   1.250   8.990  0.3017 -0.5521  0.0845
 7529SOL    HW134046   4.634   1.330   8.959 -1.0010 -1.0342  0.6748
 7529SOL    HW234047   4.663   1.192   8.916 -0.8412 -0.4965  0.2659
 7530SOL     OW34048   2.413   4.040   2.940  0.4484  0.1653  0.3979
 7530SOL    HW134049   2.485   4.084   2.895 -1.5259  2.6876 -0.2517
 7530SOL    HW234050   2.345   4.102   2.916 -0.7747 -1.9914 -1.6657
 7531SOL     OW34051   1.493   2.704  14.084 -0.0305  0.4830  0.1283
 7531SOL    HW134052   1.491   2.626  14.141 -2.9294  0.3930 -0.1191
 7531SOL    HW234053   1.587   2.699  14.067 -0.0219 -2.8350  1.0455
 7532SOL     OW34054   4.449   0.082   5.026  0.2344 -0.0681  0.2026
 7532SOL    HW134055   4.506   0.025   5.077  1.6473 -0.5520 -1.9086
 7532SOL    HW234056   4.484   0.059   4.940 -0.3891 -0.5177  0.0664
 7533SOL     OW34057   3.150   1.823  13.081 -0.7403  0.0346  0.0164
 7533SOL    HW134058   3.219   1.841  13.017 -0.9556 -3.5848 -1.2195
 7533SOL    HW234059   3.163   1.729  13.092 -0.7522  0.1308  0.8788
 7534SOL     OW34060   1.003   4.049  10.542 -0.8290 -0.1597  0.0857
 7534SOL    HW134061   0.911   4.038  10.521 -0.9929 -1.8321  1.6738
 7534SOL    HW234062   1.004   4.129  10.595  0.5985 -1.0325  1.4007
 7535SOL     OW34063   3.378   1.696  13.616 -0.0803  0.1165  0.0675
 7535SOL    HW134064   3.404   1.723  13.704 -0.0727 -0.5255  0.2680
 7535SOL    HW234065   3.377   1.778  13.568  1.2924 -0.7668 -1.4808
 7536SOL     OW34066   3.668   2.805  16.212  0.4077 -0.3512 -0.2738
 7536SOL    HW134067   3.701   2.876  16.267  1.1549 -0.3263 -0.7476
 7536SOL    HW234068   3.597   2.853  16.169 -0.2932 -0.0496  1.2488
 7537SOL     OW34069   3.093   3.947   6.325  0.3129 -0.1564  0.1631
 7537SOL    HW134070   3.150   4.012   6.284 -1.2622  1.3725  0.3802
 7537SOL    HW234071   3.010   3.996   6.332 -0.5328 -1.1314 -2.9036
 7538SOL     OW34072   3.976   3.550   1.853  0.3392 -0.6336  0.1389
 7538SOL    HW134073   3.950   3.630   1.899  0.0747 -0.4386 -0.3541
 7538SOL    HW234074   3.983   3.587   1.765 -1.1043  0.7409  0.5965
 7539SOL     OW34075   4.708   2.124   3.474 -0.6045 -0.3641 -0.1746
 7539SOL    HW134076   0.003   2.218   3.486 -2.0294 -0.2981  1.2407
 7539SOL    HW234077   4.711   2.132   3.379  0.6646  0.2851 -0.0839
 7540SOL     OW34078   0.208   2.865  13.774 -0.4642 -0.2787  0.1057
 7540SOL    HW134079   0.249   2.908  13.850 -0.9753 -0.5197  0.5162
 7540SOL    HW234080   0.255   2.781  13.777 -0.6705 -0.3828  0.4949
 7541SOL     OW34081   1.623   0.904   6.425 -0.5908 -0.2723  0.0039
 7541SOL    HW134082   1.712   0.939   6.415 -0.7380  0.5034  1.4023
 7541SOL    HW234083   1.582   0.971   6.480  0.1632 -0.1234  0.3861
 7542SOL     OW34084   2.477   2.874   8.191 -0.9979 -0.1106  0.3822
 7542SOL    HW134085   2.411   2.852   8.257 -0.9915 -2.9265 -0.5673
 7542SOL    HW234086   2.548   2.901   8.248 -0.3252 -2.1724  0.5165
 7543SOL     OW34087   2.392   0.331   7.877  0.4358 -0.7512  0.4022
 7543SOL    HW134088   2.343   0.292   7.804  1.1456 -0.2430 -0.3407
 7543SOL    HW234089   2.447   0.256   7.901 -0.3827 -1.8120 -1.0569
 7544SOL     OW34090   2.825   4.612   8.983  0.1271 -0.1159 -0.0005
 7544SOL    HW134091   2.770   4.637   9.058  0.6183 -0.1371  0.3651
 7544SOL    HW234092   2.853   4.695   8.946 -0.9736  0.2838  0.0688
 7545SOL     OW34093   4.159   0.197   1.801  0.2519 -0.0183  0.3750
 7545SOL    HW134094   4.243   0.235   1.775  0.5229 -0.4980  0.5586
 7545SOL    HW234095   4.171   0.105   1.779  1.0821  1.2471 -4.4869
 7546SOL     OW34096   1.845   0.124   7.531  0.3891  1.1591 -0.1958
 7546SOL    HW134097   1.892   0.113   7.614 -1.1766  0.3455  0.5932
 7546SOL    HW234098   1.839   0.218   7.516 -3.4063  0.3381 -3.7225
 7547SOL     OW34099   3.873   2.438   9.971  0.3371  0.1144  0.5295
 7547SOL    HW134100   3.810   2.454  10.041 -0.5522  0.6971 -0.4098
 7547SOL    HW234101   3.948   2.466  10.023  0.7451  2.0838 -1.1242
 7548SOL     OW34102   4.147   1.948  11.229  0.3342 -0.3282 -0.6671
 7548SOL    HW134103   4.143   2.043  11.243 -1.7863 -0.5784  0.3986
 7548SOL    HW234104   4.101   1.942  11.146  1.5791 -1.6559 -1.2498
 7549SOL     OW34105   3.489   0.688   4.101  0.3196  0.1736 -0.2592
 7549SOL    HW134106   3.459   0.724   4.017 -1.7367 -1.3574 -0.1486
 7549SOL    HW234107   3.507   0.596   4.082  0.1544  0.4527 -1.7526
 7550SOL     OW34108   3.248   0.507  13.804  0.4827  0.0888  0.0955
 7550SOL    HW134109   3.184   0.437  13.812 -1.0227  1.4712  0.1949
 7550SOL    HW234110   3.256   0.523  13.898 -2.0304 -0.8024  0.4625
 7551SOL     OW34111   1.241   0.027   6.676  0.1990 -0.0199 -0.1044
 7551SOL    HW134112   1.260   0.085   6.602 -2.6228  0.2993 -0.5662
 7551SOL    HW234113   1.228   0.092   6.745  0.0148  0.1206 -0.2720
 7552SOL     OW34114   0.479   1.574   7.926  0.3818  0.0402 -0.3582
 7552SOL    HW134115   0.480   1.481   7.946 -0.6843  0.0120 -0.4036
 7552SOL    HW234116   0.524   1.608   8.004  0.6545  1.5370 -1.1753
 7553SOL     OW34117   3.189   1.511  13.174 -0.5064 -0.6769  0.1758
 7553SOL    HW134118   3.278   1.485  13.197  0.4644  2.8691  0.3200
 7553SOL    HW234119   3.187   1.490  13.080  2.8005  0.1850 -0.0543
 7554SOL     OW34120   1.836   0.378   2.017 -0.0457  0.4517 -0.2185
 7554SOL    HW134121   1.891   0.318   1.966  1.8696  1.1270  1.0449
 7554SOL    HW234122   1.832   0.454   1.960  0.9737  0.3594 -0.4210
 7555SOL     OW34123   4.509   1.452   0.547 -0.1104  0.3328  0.1933
 7555SOL    HW134124   4.585   1.429   0.494 -0.1933  0.8065 -0.1315
 7555SOL    HW234125   4.556   1.476   0.627  1.4711 -0.0786 -0.6133
 7556SOL     OW34126   2.205   3.804   8.051 -0.2507 -0.8710 -0.1776
 7556SOL    HW134127   2.112   3.828   8.051 -0.5902 -2.1940 -0.3056
 7556SOL    HW234128   2.236   3.855   8.126 -0.2083  0.8062 -1.3292
 7557SOL     OW34129   0.481   1.977  14.257 -0.2334  0.0625 -0.1880
 7557SOL    HW134130   0.480   2.000  14.164 -0.7451 -1.0720 -0.4765
 7557SOL    HW234131   0.520   2.052  14.301  1.1192 -0.5815 -0.2821
 7558SOL     OW34132   2.509   2.995  17.119 -0.3771 -0.1679  0.2910
 7558SOL    HW134133   2.413   3.002  17.111 -0.5300 -0.3969  2.0330
 7558SOL    HW234134   2.513   2.928  17.187  2.3019  1.3477  1.6190
 7559SOL     OW34135   0.302   3.097   2.731 -0.7903  0.2787  0.0697
 7559SOL    HW134136   0.386   3.104   2.777 -1.4566  2.3875  0.9868
 7559SOL    HW234137   0.292   3.003   2.741  3.3614 -0.1306  0.3551
 7560SOL     OW34138   0.374   0.063  12.684  0.4256 -0.0085  0.1168
 7560SOL    HW134139   0.387   4.693  12.712  4.2546  0.4816 -0.0271
 7560SOL    HW234140   0.463   0.097  12.672  1.2796 -1.2780  3.0426
 7561SOL     OW34141   3.012   3.093  16.427 -0.1009  0.1909 -0.0328
 7561SOL    HW134142   3.056   3.171  16.394 -0.0036 -0.0713 -0.5196
 7561SOL    HW234143   3.055   3.102  16.512 -0.2694 -1.8783  0.2713
 7562SOL     OW34144   0.727   2.239   0.981  0.2703 -0.4409 -0.0472
 7562SOL    HW134145   0.741   2.330   0.953 -1.0454 -0.5282 -0.9880
 7562SOL    HW234146   0.632   2.233   0.980  0.2574 -0.1587 -0.7689
 7563SOL     OW34147   3.661   3.778   5.247  0.3721  0.0026  0.6932
 7563SOL    HW134148   3.644   3.684   5.258  1.4581 -0.1757  0.8135
 7563SOL    HW234149   3.613   3.806   5.169  0.0293  0.9322  1.2365
 7564SOL     OW34150   3.186   1.720  11.826  0.3197 -0.6200  0.1977
 7564SOL    HW134151   3.248   1.662  11.870 -1.9004 -1.3377  2.4075
 7564SOL    HW234152   3.182   1.673  11.743  0.7166 -1.6691  0.7728
 7565SOL     OW34153   4.070   2.126   9.079  0.1863 -0.5783  0.2016
 7565SOL    HW134154   4.043   2.040   9.047  0.4807 -0.3671 -0.6198
 7565SOL    HW234155   4.001   2.181   9.044  2.8863  2.0207 -1.0333
 7566SOL     OW34156   1.784   2.215   1.590 -0.4160  0.1003 -0.3239
 7566SOL    HW134157   1.701   2.228   1.635  0.4180  0.0962  1.2385
 7566SOL    HW234158   1.850   2.240   1.656  0.5429  0.1681 -1.3038
 7567SOL     OW34159   4.308   2.678   4.514 -0.7572 -0.0732  0.0325
 7567SOL    HW134160   4.245   2.746   4.491 -0.2621 -0.4938 -2.5257
 7567SOL    HW234161   4.388   2.723   4.485 -1.6636  0.7384 -1.1945
 7568SOL     OW34162   3.531   2.641   4.340  1.0997 -0.1918 -0.6932
 7568SOL    HW134163   3.561   2.554   4.366  0.1116 -0.6618 -1.1057
 7568SOL    HW234164   3.504   2.628   4.249 -0.9830 -1.0979  0.0358
 7569SOL     OW34165   0.896   1.051  15.390  0.0977 -0.0939  0.2511
 7569SOL    HW134166   0.807   1.087  15.386 -0.1799 -0.9330 -1.3018
 7569SOL    HW234167   0.886   0.960  15.360 -1.9728 -0.1232  1.0511
 7570SOL     OW34168   1.253   0.126   4.652  0.0080  0.5553  0.2615
 7570SOL    HW134169   1.317   0.055   4.645 -1.5765 -1.0139  1.4346
 7570SOL    HW234170   1.182   0.095   4.596 -0.7363  1.2793  0.7947
 7571SOL     OW34171   3.591   2.766   5.727  0.7426  0.1367 -0.4238
 7571SOL    HW134172   3.669   2.806   5.764 -0.2185 -0.0239  1.7447
 7571SOL    HW234173   3.574   2.819   5.649  0.7844  0.1898 -0.3961
 7572SOL     OW34174   1.766   1.181  12.714  0.5193  0.7278 -0.4646
 7572SOL    HW134175   1.752   1.195  12.620  1.8214 -2.7052 -1.1741
 7572SOL    HW234176   1.672   1.193  12.728  0.3256 -0.6985 -0.5236
 7573SOL     OW34177   4.236   3.459   5.935  0.1796 -0.1360  0.1924
 7573SOL    HW134178   4.260   3.411   6.014  0.0836 -0.4263  0.0466
 7573SOL    HW234179   4.252   3.543   5.978  1.5989 -1.6321  2.6217
 7574SOL     OW34180   2.227   0.381   3.897  0.3581 -0.5496  0.3343
 7574SOL    HW134181   2.141   0.417   3.877  0.8525  1.3185  1.5607
 7574SOL    HW234182   2.276   0.434   3.833 -0.8893 -0.9496 -0.9542
 7575SOL     OW34183   4.096   1.046   4.656  0.3758 -0.4126 -0.4564
 7575SOL    HW134184   4.047   1.068   4.735  0.5872 -1.7530  0.0581
 7575SOL    HW234185   4.156   1.120   4.646  0.3204 -0.0193  2.1033
 7576SOL     OW34186   2.233   0.245   9.004 -0.2444  0.1130 -0.0099
 7576SOL    HW134187   2.320   0.260   9.039 -0.4663  0.6163  0.3275
 7576SOL    HW234188   2.234   0.316   8.940  0.1053 -1.7567 -2.0795
 7577SOL     OW34189   4.220   1.852   0.514  0.2395 -0.0876 -0.5698
 7577SOL    HW134190   4.245   1.766   0.480 -2.1523 -1.1401  0.3655
 7577SOL    HW234191   4.296   1.893   0.556  0.9523 -1.6544 -0.3393
 7578SOL     OW34192   3.816   1.466   3.481 -0.1257 -0.3353  0.1461
 7578SOL    HW134193   3.856   1.414   3.412  0.7121  1.8298 -0.9966
 7578SOL    HW234194   3.770   1.523   3.420  0.1019 -0.2503  0.0542
 7579SOL     OW34195   4.188   2.201   7.027  0.4411  0.2653 -0.2963
 7579SOL    HW134196   4.109   2.169   7.071  1.1846 -0.5567  0.4423
 7579SOL    HW234197   4.252   2.168   7.090 -2.2750 -2.2930  1.1687
 7580SOL     OW34198   4.056   2.628   7.882 -0.1285 -0.5848  0.0925
 7580SOL    HW134199   4.065   2.651   7.790  0.0004  2.9639  0.9721
 7580SOL    HW234200   3.961   2.631   7.890 -0.0555 -0.6188  0.9887
 7581SOL     OW34201   1.724   3.183   7.109 -0.2706 -0.1101 -0.2493
 7581SOL    HW134202   1.691   3.271   7.122  0.2170  0.1473 -0.7093
 7581SOL    HW234203   1.648   3.136   7.143  0.5297 -2.4763 -1.7036
 7582SOL     OW34204   0.265   0.412   7.736  0.3013 -0.2095  0.0146
 7582SOL    HW134205   0.254   0.334   7.790  1.0376  0.8125  1.6561
 7582SOL    HW234206   0.311   0.474   7.793  1.7781 -1.6932  0.4443
 7583SOL     OW34207   0.033   4.233   7.850  0.0261 -0.2769  0.1214
 7583SOL    HW134208   0.062   4.315   7.812 -2.8142  0.6078 -0.1553
 7583SOL    HW234209   4.663   4.258   7.870 -0.0585  0.9524 -1.7633
 7584SOL     OW34210   2.081   0.462   3.145  0.1701 -0.2582  0.3116
 7584SOL    HW134211   2.013   0.493   3.205 -0.0343 -2.6016  1.2888
 7584SOL    HW234212   2.085   0.372   3.177 -0.7599 -0.2965  0.3274
 7585SOL     OW34213   1.960   1.662   2.330  0.2360  0.2278  0.0480
 7585SOL    HW134214   1.929   1.722   2.262 -0.5019  0.1188  0.2901
 7585SOL    HW234215   1.882   1.640   2.380  0.1314  3.5674  1.3637
 7586SOL     OW34216   0.659   3.831   8.197 -0.1893 -0.1018 -0.3886
 7586SOL    HW134217   0.635   3.923   8.198 -2.2290 -0.6363  0.7802
 7586SOL    HW234218   0.594   3.809   8.130  0.2519 -0.6046 -0.6518
 7587SOL     OW34219   0.813   0.033   4.734 -0.1265  0.4809  0.4331
 7587SOL    HW134220   0.808   0.085   4.815  0.2967  0.5171  0.4342
 7587SOL    HW234221   0.908   0.025   4.724 -0.3368  0.5668 -1.5605
 7588SOL     OW34222   0.679   3.289   2.073  0.2124  0.0742 -0.1553
 7588SOL    HW134223   0.689   3.371   2.025  1.5973 -0.3647 -0.6167
 7588SOL    HW234224   0.592   3.287   2.112  1.2251 -4.3454  1.8623
 7589SOL     OW34225   4.145   0.367   7.892 -0.6248  0.4056 -0.1309
 7589SOL    HW134226   4.160   0.408   7.807 -1.3529 -2.3757 -1.6181
 7589SOL    HW234227   4.156   0.273   7.874  0.1009  0.4954 -0.1448
 7590SOL     OW34228   3.106   1.903   4.677  0.3185 -0.3951  0.3157
 7590SOL    HW134229   3.172   1.920   4.744  0.7690  1.0796 -0.4900
 7590SOL    HW234230   3.023   1.902   4.724  0.1877 -0.6725  0.0820
 7591SOL     OW34231   4.557   4.144  10.117 -0.3992  0.1674  0.6026
 7591SOL    HW134232   4.500   4.221  10.116  0.4276  0.7374 -2.2549
 7591SOL    HW234233   4.616   4.169  10.045  2.1855 -3.2079  1.5338
 7592SOL     OW34234   2.129   2.066   2.741 -0.5399 -0.1833 -0.2542
 7592SOL    HW134235   2.097   1.999   2.802 -0.2496 -0.4849 -0.4337
 7592SOL    HW234236   2.135   2.023   2.656  0.2126 -1.6347  0.5317
 7593SOL     OW34237   1.829   3.871   3.362  0.1780 -0.0754  0.0639
 7593SOL    HW134238   1.757   3.931   3.385 -0.8802 -1.2248 -0.2475
 7593SOL    HW234239   1.863   3.914   3.284 -0.5646  0.8699  0.2563
 7594SOL     OW34240   3.795   2.966  15.053 -0.6443 -0.0171 -0.0210
 7594SOL    HW134241   3.750   3.032  15.105 -2.7369 -1.5342  0.0733
 7594SOL    HW234242   3.760   2.881  15.077  0.0878 -1.2740 -3.3472
 7595SOL     OW34243   3.755   1.971   0.744  0.5772  0.0138 -0.1315
 7595SOL    HW134244   3.670   2.014   0.736 -0.0335 -1.7574 -3.2585
 7595SOL    HW234245   3.819   2.042   0.746 -0.2091  0.6993  0.7783
 7596SOL     OW34246   3.251   3.264   7.264  0.2646  0.5219 -0.2669
 7596SOL    HW134247   3.172   3.262   7.318 -0.8049 -0.0978 -1.8648
 7596SOL    HW234248   3.298   3.342   7.296  0.0997 -0.7317  3.0332
 7597SOL     OW34249   3.277   1.249   0.572  0.3859 -0.0965  0.4320
 7597SOL    HW134250   3.216   1.320   0.591 -0.2412 -0.3719 -0.5194
 7597SOL    HW234251   3.280   1.238   0.477 -2.1904 -0.1117  0.3596
 7598SOL     OW34252   2.876   1.133   5.064  0.1138  0.1855 -0.4574
 7598SOL    HW134253   2.832   1.067   5.011  0.0543  0.5367 -0.8441
 7598SOL    HW234254   2.931   1.076   5.118  0.6104  0.1709 -0.9750
 7599SOL     OW34255   2.598   0.474   3.893 -0.1661 -0.0073 -0.3818
 7599SOL    HW134256   2.520   0.512   3.852  0.2648  1.9536  0.6135
 7599SOL    HW234257   2.640   0.549   3.936 -0.0819 -1.2381  1.6633
 7600SOL     OW34258   2.724   0.285   6.565 -0.1285  0.2044 -0.5312
 7600SOL    HW134259   2.745   0.193   6.546  1.7131  0.2774  1.0991
 7600SOL    HW234260   2.766   0.296   6.651  1.6271 -0.2411 -1.3317
 7601SOL     OW34261   4.693   3.086  17.218  0.7938 -0.4021 -0.0723
 7601SOL    HW134262   4.620   3.061  17.162 -0.2152  0.3293  0.9207
 7601SOL    HW234263   4.683   3.019  17.286 -0.4065  0.4599  0.6055
 7602SOL     OW34264   3.154   2.807   8.378  0.5271  0.4467  0.1779
 7602SOL    HW134265   3.169   2.752   8.455  2.8675  1.1204  0.2069
 7602SOL    HW234266   3.216   2.878   8.395  1.2005 -0.5894  2.0545
 7603SOL     OW34267   3.711   1.839   2.400  0.3092 -0.1700 -0.3796
 7603SOL    HW134268   3.800   1.864   2.375  0.9291 -2.3524 -0.3697
 7603SOL    HW234269   3.714   1.746   2.382  0.0218 -0.4295  0.8863
 7604SOL     OW34270   1.679   1.762   0.774  0.7065  0.6427  0.0469
 7604SOL    HW134271   1.766   1.722   0.772  0.6031  0.3933  0.5474
 7604SOL    HW234272   1.626   1.701   0.723 -1.8145  1.3525  1.8235
 7605SOL     OW34273   1.286   2.963   5.744  0.0026 -0.5987  0.3542
 7605SOL    HW134274   1.338   2.996   5.817  1.3393 -1.3635 -0.2603
 7605SOL    HW234275   1.323   2.875   5.741  3.5213  0.9511 -1.5838
 7606SOL     OW34276   2.479   4.145   1.802 -0.1783  0.3358 -0.1467
 7606SOL    HW134277   2.410   4.123   1.865 -0.4801 -0.7369 -0.8423
 7606SOL    HW234278   2.558   4.120   1.848 -1.8244 -0.9239  1.9898
 7607SOL     OW34279   4.103   1.201   5.893 -0.0880  0.6006 -0.3021
 7607SOL    HW134280   4.117   1.255   5.971  0.5693 -1.5825  1.0661
 7607SOL    HW234281   4.190   1.205   5.853  0.7645  0.0156  1.4963
 7608SOL     OW34282   2.383   4.077   6.776  0.0529 -0.0158 -0.7135
 7608SOL    HW134283   2.474   4.060   6.803  0.0120  1.9351  0.6326
 7608SOL    HW234284   2.332   3.997   6.760  0.3113 -0.0784 -1.2198
 7609SOL     OW34285   2.770   3.553  17.548  0.1072  0.6164  0.1429
 7609SOL    HW134286   2.775   3.539  17.453 -1.3448 -1.2939  0.3748
 7609SOL    HW234287   2.706   3.623  17.562  0.7807  1.7481 -2.4176
 7610SOL     OW34288   1.260   1.517   0.980 -0.2926  0.3355 -0.3313
 7610SOL    HW134289   1.189   1.529   0.918  2.4574  0.7663 -3.3920
 7610SOL    HW234290   1.328   1.477   0.925 -1.0169  1.3644 -1.9587
 7611SOL     OW34291   4.643   0.832   5.969  0.2925  0.0722  0.6796
 7611SOL    HW134292   4.707   0.768   6.000 -0.1315 -0.2099  0.9732
 7611SOL    HW234293   4.602   0.845   6.054 -2.2025 -0.0767 -0.5233
 7612SOL     OW34294   1.223   2.959   4.988 -0.6387  0.4957  0.4557
 7612SOL    HW134295   1.277   2.901   4.934  1.1850  2.0368  0.6260
 7612SOL    HW234296   1.165   2.894   5.027  0.5242  0.4583  2.0963
 7613SOL     OW34297   1.084   2.984   8.880 -0.0972 -0.0704 -0.5667
 7613SOL    HW134298   1.042   3.001   8.796 -0.0676 -0.8516 -0.7404
 7613SOL    HW234299   1.143   2.910   8.867 -0.3511 -0.8414  2.6339
 7614SOL     OW34300   1.789   3.803   4.841  0.1875 -0.1683 -0.0912
 7614SOL    HW134301   1.766   3.803   4.748  2.2656 -1.0506 -0.5981
 7614SOL    HW234302   1.713   3.847   4.879  0.7397  1.7339 -1.1915
 7615SOL     OW34303   4.427   3.204   7.529  0.2156  0.0451 -0.4576
 7615SOL    HW134304   4.408   3.184   7.438 -1.7831  0.3803 -0.1163
 7615SOL    HW234305   4.354   3.163   7.576  2.0652 -0.4934  1.9420
 7616SOL     OW34306   3.654   0.667   8.141 -0.7824 -0.0195  0.1809
 7616SOL    HW134307   3.585   0.659   8.206 -0.8099 -0.0482  0.1477
 7616SOL    HW234308   3.724   0.663   8.207  0.5332  0.1079 -1.2028
 7617SOL     OW34309   2.744   1.128   3.507  0.6545 -0.6614  0.5922
 7617SOL    HW134310   2.804   1.203   3.512 -1.2804  0.8774  0.9982
 7617SOL    HW234311   2.712   1.148   3.419 -0.2083  0.4623  1.1516
 7618SOL     OW34312   4.037   0.333   2.333 -0.3416 -0.4442 -0.0303
 7618SOL    HW134313   4.030   0.265   2.266  0.1275 -1.5784  1.0646
 7618SOL    HW234314   4.083   0.407   2.292 -0.8969 -0.5095 -0.7768
 7619SOL     OW34315   1.946   3.769   5.463 -0.2638  0.2532 -0.2442
 7619SOL    HW134316   1.917   3.745   5.375  0.0169 -0.4963 -0.1389
 7619SOL    HW234317   1.963   3.862   5.452  2.8073 -0.0290  1.8904
 7620SOL     OW34318   1.527   3.410   8.953 -0.2063 -0.0088  0.3151
 7620SOL    HW134319   1.534   3.497   8.913 -0.7489 -0.3485 -0.5203
 7620SOL    HW234320   1.432   3.401   8.959 -0.5428  1.5224 -2.5291
 7621SOL     OW34321   4.507   4.292   7.150  0.5560 -0.3702  0.1309
 7621SOL    HW134322   4.479   4.373   7.193  0.9301  0.7293 -1.6915
 7621SOL    HW234323   4.506   4.299   7.055 -0.1689  1.8904  0.3199
 7622SOL     OW34324   0.075   2.570  17.470 -0.2158  0.2009  0.4134
 7622SOL    HW134325   0.064   2.511  17.396 -2.1062 -0.9614  1.6228
 7622SOL    HW234326   0.001   2.630  17.461  0.7168  1.3316  0.3767
 7623SOL     OW34327   4.028   0.217   7.309 -0.3853 -0.7105  0.3601
 7623SOL    HW134328   4.038   0.281   7.239  0.4199 -1.0048  0.2067
 7623SOL    HW234329   3.935   0.207   7.290  0.1809 -0.9119 -2.3156
 7624SOL     OW34330   4.565   0.407  14.854  0.5716  0.4332 -0.3009
 7624SOL    HW134331   4.498   0.397  14.785 -0.4773 -0.3475  0.8175
 7624SOL    HW234332   4.549   0.329  14.908 -3.0667  0.6550 -1.0082
 7625SOL     OW34333   2.327   2.650  15.008  0.0143  0.0804  0.8292
 7625SOL    HW134334   2.411   2.654  14.961 -0.2694 -0.3430  0.2891
 7625SOL    HW234335   2.294   2.737  14.986 -1.1570 -0.3194  1.0420
 7626SOL     OW34336   4.037   3.638   1.588 -0.3230 -0.2381 -0.0091
 7626SOL    HW134337   3.956   3.647   1.537 -0.7291  0.3574  0.7497
 7626SOL    HW234338   4.085   3.576   1.533  0.1038  1.8697 -2.0011
 7627SOL     OW34339   0.584   3.731  16.047 -0.1100 -0.0397  0.3246
 7627SOL    HW134340   0.494   3.760  16.036  0.0364  0.3644  0.1903
 7627SOL    HW234341   0.622   3.816  16.069  1.3390  0.1031 -2.6772
 7628SOL     OW34342   0.600   1.913   1.978  0.1572 -0.1628 -0.5074
 7628SOL    HW134343   0.588   1.822   1.953 -1.9593 -0.1177  0.3576
 7628SOL    HW234344   0.694   1.904   1.996 -0.2801 -0.9059  1.3520
 7629SOL     OW34345   1.640   2.099   4.349  0.2252  0.8228  0.5129
 7629SOL    HW134346   1.685   2.181   4.331 -1.7690  1.9876  0.8230
 7629SOL    HW234347   1.559   2.106   4.297  0.2927 -0.9545  0.1525
 7630SOL     OW34348   3.964   1.881   8.984 -0.0070 -0.3042  0.2695
 7630SOL    HW134349   3.883   1.908   9.026 -0.5947 -1.6860  0.0290
 7630SOL    HW234350   3.989   1.794   9.014  0.0883 -0.2503  0.3464
 7631SOL     OW34351   3.246   4.625   4.124 -0.6670  0.1041  0.2913
 7631SOL    HW134352   3.151   4.615   4.131 -0.9172  2.4262  0.3905
 7631SOL    HW234353   3.261   4.717   4.147 -1.5711  0.2604  0.2588
 7632SOL     OW34354   0.732   3.540  13.878  0.3211 -0.0359 -0.0874
 7632SOL    HW134355   0.669   3.473  13.905  0.6438 -0.0589  0.5988
 7632SOL    HW234356   0.785   3.551  13.957 -0.0589 -2.4510  0.4984
 7633SOL     OW34357   1.950   0.224   5.915  0.0662 -0.0962 -0.1026
 7633SOL    HW134358   1.982   0.288   5.979 -1.8601  0.4122  0.3414
 7633SOL    HW234359   2.003   0.251   5.841 -0.0858  2.5211  0.7592
 7634SOL     OW34360   2.833   2.647   9.804  0.4483  0.6585 -0.5930
 7634SOL    HW134361   2.916   2.619   9.844 -0.8044  1.1817  2.3822
 7634SOL    HW234362   2.864   2.724   9.757  0.5099  0.6429 -0.5780
 7635SOL     OW34363   4.656   1.215   8.166 -0.8469 -1.0455 -0.0776
 7635SOL    HW134364   4.587   1.225   8.100  1.0186  2.1325 -1.5726
 7635SOL    HW234365   4.621   1.148   8.225  1.3200  0.3447  2.7913
 7636SOL     OW34366   0.788   3.490   6.004 -0.0582  0.1327 -0.1577
 7636SOL    HW134367   0.741   3.573   6.013  0.1567 -0.0237  2.4946
 7636SOL    HW234368   0.873   3.520   6.035 -1.0521 -0.3297  2.9658
 7637SOL     OW34369   2.748   0.438   3.027 -0.3960 -0.7789 -0.1851
 7637SOL    HW134370   2.696   0.518   3.034  0.0546 -0.4425 -0.6047
 7637SOL    HW234371   2.688   0.381   3.073  0.9206 -0.2806  2.1392
 7638SOL     OW34372   3.088   1.037   0.653 -0.4306 -0.6976 -0.0685
 7638SOL    HW134373   3.120   1.119   0.616  0.4797 -2.4827 -3.2971
 7638SOL    HW234374   3.151   1.005   0.718 -0.9500 -0.6427  0.4627
 7639SOL     OW34375   1.389   0.283   9.901  0.1202 -0.0689  0.2955
 7639SOL    HW134376   1.320   0.268   9.965  0.3920 -0.8081  0.4197
 7639SOL    HW234377   1.347   0.328   9.828 -4.0004 -0.4335  2.4449
 7640SOL     OW34378   0.849   0.228   6.666 -0.7099  0.0994 -0.2921
 7640SOL    HW134379   0.873   0.141   6.633  1.9472  1.1856 -1.2883
 7640SOL    HW234380   0.831   0.273   6.584 -0.3540  2.4008  0.8809
 7641SOL     OW34381   0.458   2.242   9.962 -0.5976 -0.3352 -0.3750
 7641SOL    HW134382   0.554   2.249   9.960 -0.5200 -1.3828 -0.3371
 7641SOL    HW234383   0.449   2.336   9.981  3.0793 -0.1729  0.7639
 7642SOL     OW34384   3.678   3.374   2.891  0.3467  0.1663  0.2363
 7642SOL    HW134385   3.687   3.396   2.799  1.0678  1.7106  0.6695
 7642SOL    HW234386   3.751   3.313   2.903 -0.6310 -0.8681  0.9334
 7643SOL     OW34387   0.954   4.441   3.827 -0.0684 -0.0036 -0.5796
 7643SOL    HW134388   1.048   4.455   3.837 -0.7324  3.0977  1.0596
 7643SOL    HW234389   0.930   4.533   3.827  1.9662  0.5232 -1.7296
 7644SOL     OW34390   2.968   4.090   3.807 -0.0000  0.0741  0.5880
 7644SOL    HW134391   3.036   4.143   3.848 -1.0037 -0.2202  2.5864
 7644SOL    HW234392   2.897   4.152   3.823  0.6575  0.5314  1.7317
 7645SOL     OW34393   3.160   3.812   0.404 -0.3007 -0.0121 -0.2603
 7645SOL    HW134394   3.206   3.875   0.349 -1.6635  0.6994 -0.5867
 7645SOL    HW234395   3.103   3.777   0.335  0.8229  1.3254 -1.8804
 7646SOL     OW34396   4.172   4.574   5.854 -0.3495 -0.7216  0.4106
 7646SOL    HW134397   4.138   4.501   5.802  0.4010 -0.4402 -0.4682
 7646SOL    HW234398   4.211   4.529   5.929  0.5915 -3.4302 -1.6912
 7647SOL     OW34399   2.828   4.303   7.307 -0.2945  0.0620  0.5142
 7647SOL    HW134400   2.746   4.259   7.333  0.3877 -0.9768  0.9510
 7647SOL    HW234401   2.831   4.375   7.370 -1.9143  0.4788  0.1001
 7648SOL     OW34402   2.092   1.482   3.464 -0.0626 -0.5829 -0.4683
 7648SOL    HW134403   2.145   1.419   3.415 -0.0787 -0.2673 -0.8936
 7648SOL    HW234404   2.132   1.480   3.551  0.9702  0.9478 -0.9087
 7649SOL     OW34405   2.426   1.546  10.614  0.5087  0.2001  0.1407
 7649SOL    HW134406   2.481   1.486  10.665  0.0527 -0.6739 -0.4009
 7649SOL    HW234407   2.355   1.563  10.675 -1.1773 -1.1254 -1.4619
 7650SOL     OW34408   2.317   1.631   3.577 -0.1149 -0.5128 -0.4587
 7650SOL    HW134409   2.314   1.664   3.667  1.6173 -0.9196 -0.2442
 7650SOL    HW234410   2.372   1.556   3.601  2.0152  2.0713  2.7775
 7651SOL     OW34411   3.460   0.217   6.305  0.8089  0.0418  0.4493
 7651SOL    HW134412   3.380   0.165   6.313 -0.5486  2.0199 -0.3999
 7651SOL    HW234413   3.436   0.306   6.332  0.1410  0.1470 -0.4876
 7652SOL     OW34414   2.578   2.823   9.726  0.0719 -0.0657 -0.8885
 7652SOL    HW134415   2.596   2.751   9.787 -2.2720  0.1900  0.1176
 7652SOL    HW234416   2.652   2.823   9.665 -0.8650  0.3565 -2.0098
 7653SOL     OW34417   2.769   4.268   3.070 -0.1749  0.2482 -0.2888
 7653SOL    HW134418   2.736   4.301   2.986 -0.6650 -1.9522 -0.9598
 7653SOL    HW234419   2.817   4.347   3.097  1.1850  0.1606 -2.4074
 7654SOL     OW34420   3.714   1.057   2.268 -0.2236  0.3374  0.0555
 7654SOL    HW134421   3.668   1.058   2.184  0.4142 -1.5323 -0.3168
 7654SOL    HW234422   3.666   0.980   2.297  1.3808 -0.8229 -0.3612
 7655SOL     OW34423   2.147   3.862   6.825  1.0120 -0.3531 -0.1668
 7655SOL    HW134424   2.195   3.780   6.820  1.0937 -0.4748  2.4061
 7655SOL    HW234425   2.106   3.855   6.911  0.6203 -2.9135 -0.5728
 7656SOL     OW34426   2.096   3.164  16.926  0.1803  0.0138  0.0802
 7656SOL    HW134427   2.177   3.119  16.903  0.1517 -0.3698  0.7366
 7656SOL    HW234428   2.087   3.240  16.868 -0.0284 -0.0030  0.0892
 7657SOL     OW34429   4.678   3.080  15.330 -0.8114  0.5155  0.7985
 7657SOL    HW134430   4.713   3.167  15.313 -2.6689  0.8930 -1.1597
 7657SOL    HW234431   0.035   3.038  15.368 -1.8198 -1.2648  0.9036
 7658SOL     OW34432   0.500   4.520   7.017 -0.0126 -0.0110  0.0115
 7658SOL    HW134433   0.537   4.601   7.051 -1.3583  0.0559  1.3398
 7658SOL    HW234434   0.551   4.513   6.936 -0.2925  1.1940 -0.2803
 7659SOL     OW34435   0.813   1.919   0.565  0.2169  0.2897 -0.2973
 7659SOL    HW134436   0.819   2.009   0.596 -1.9711  0.2518  0.2889
 7659SOL    HW234437   0.753   1.884   0.631  0.4923  1.9751  0.8544
 7660SOL     OW34438   0.303   2.090   6.468  0.0137 -0.5883 -0.2025
 7660SOL    HW134439   0.266   2.125   6.387  0.7529 -0.2093 -0.3820
 7660SOL    HW234440   0.285   1.997   6.459  0.3597 -0.5080 -1.5991
 7661SOL     OW34441   1.249   0.168  16.532 -0.3731 -0.1901 -0.0631
 7661SOL    HW134442   1.275   0.140  16.620  0.6625 -0.6158 -0.5097
 7661SOL    HW234443   1.188   0.098  16.508 -0.4349 -0.9207  2.2543
 7662SOL     OW34444   0.809   2.845   7.880 -0.0636  0.5777 -0.2135
 7662SOL    HW134445   0.758   2.765   7.895  1.2548  0.0373  1.4406
 7662SOL    HW234446   0.895   2.807   7.900 -0.7612 -1.1282 -0.4349
 7663SOL     OW34447   3.999   1.098   0.705  0.2903 -0.4116  0.8618
 7663SOL    HW134448   3.947   1.156   0.649  2.8194 -2.9724 -4.0893
 7663SOL    HW234449   3.946   1.088   0.784  0.9771 -0.0153  1.3722
 7664SOL     OW34450   0.003   1.589   7.702  0.7104  0.1968 -0.1385
 7664SOL    HW134451   4.688   1.619   7.786 -1.6579  1.2245 -1.5183
 7664SOL    HW234452   4.675   1.648   7.644 -1.0821  0.4843  1.6336
 7665SOL     OW34453   3.914   0.319   4.028  0.1207  0.1394  0.3165
 7665SOL    HW134454   3.989   0.352   3.978  0.2212 -0.2098  0.2319
 7665SOL    HW234455   3.886   0.236   3.988 -0.1567  0.3702  0.0370
 7666SOL     OW34456   1.352   2.415   6.106  0.3540  0.0692  0.2866
 7666SOL    HW134457   1.425   2.423   6.044  1.5577 -3.2515  1.2897
 7666SOL    HW234458   1.395   2.440   6.188  0.9674  0.5035 -0.1659
 7667SOL     OW34459   4.265   1.111   2.884 -0.7546  0.0296 -0.1560
 7667SOL    HW134460   4.274   1.016   2.882  0.1027  0.1325 -0.9145
 7667SOL    HW234461   4.301   1.136   2.799  0.4025  1.9296  0.8859
 7668SOL     OW34462   2.401   4.504   5.383 -0.2678 -0.3118 -0.3785
 7668SOL    HW134463   2.483   4.503   5.433 -0.8918 -0.4552  0.6412
 7668SOL    HW234464   2.364   4.420   5.408 -0.3338  0.2028  1.2230
 7669SOL     OW34465   1.402   1.228   4.969  0.1009  0.4096 -0.4365
 7669SOL    HW134466   1.310   1.203   4.961 -0.3971  1.9210  0.5182
 7669SOL    HW234467   1.392   1.323   4.966  2.2288  0.7783  3.7134
 7670SOL     OW34468   3.394   1.502  13.939 -0.0505  0.0652 -0.2000
 7670SOL    HW134469   3.334   1.505  13.865 -0.4912  0.1682  0.1602
 7670SOL    HW234470   3.338   1.497  14.017  0.7587  0.6412  0.4222
 7671SOL     OW34471   3.246   2.158  16.591  0.7009  0.4293  0.4569
 7671SOL    HW134472   3.212   2.229  16.537 -1.7849 -0.4018  0.9339
 7671SOL    HW234473   3.320   2.203  16.632  0.6862 -1.6235  2.7647
 7672SOL     OW34474   1.962   4.600  16.150  0.1259  0.0701  0.3036
 7672SOL    HW134475   2.011   4.533  16.102 -3.7960 -2.1877 -0.5232
 7672SOL    HW234476   2.032   4.651  16.191  0.7482 -0.6121  0.0862
 7673SOL     OW34477   3.148   3.541   7.594  0.4030  0.5164  0.4256
 7673SOL    HW134478   3.072   3.528   7.538  1.1868 -1.4902 -0.1857
 7673SOL    HW234479   3.148   3.460   7.646  0.2172 -1.5250 -2.7493
 7674SOL     OW34480   3.314   4.554   8.475  0.1404  0.1586  0.0388
 7674SOL    HW134481   3.234   4.555   8.423 -0.2389  1.9508  0.6490
 7674SOL    HW234482   3.370   4.600   8.412 -0.8115 -0.0456 -0.9498
 7675SOL     OW34483   3.045   3.011   6.588 -0.1968 -0.1701  0.3765
 7675SOL    HW134484   2.970   2.989   6.643  0.0541  0.0284  0.7948
 7675SOL    HW234485   3.110   3.053   6.644 -0.0498  2.6957 -1.9018
 7676SOL     OW34486   2.598   3.953   9.924  0.4084  0.4847 -0.0623
 7676SOL    HW134487   2.620   3.927  10.014  2.4211 -0.5301 -0.8376
 7676SOL    HW234488   2.687   3.957   9.889  0.4613 -2.8599 -0.3301
 7677SOL     OW34489   1.810   4.490   8.545 -0.6895  0.0078 -0.6250
 7677SOL    HW134490   1.856   4.571   8.523  1.4568 -1.0514 -0.0701
 7677SOL    HW234491   1.731   4.521   8.589  0.6076  0.1147  1.5923
 7678SOL     OW34492   0.294   4.611  10.099  0.0605  0.1555  0.3477
 7678SOL    HW134493   0.315   4.518  10.110 -0.1895 -0.4258 -4.1484
 7678SOL    HW234494   0.346   4.656  10.165  2.0422 -1.1923 -0.2713
 7679SOL     OW34495   1.450   1.295   4.314  0.7272  0.3895 -0.0709
 7679SOL    HW134496   1.450   1.317   4.221  2.2662  2.4403  0.4153
 7679SOL    HW234497   1.468   1.380   4.355 -3.1625  0.5193  1.3786
 7680SOL     OW34498   0.642   0.083   4.083 -0.7248  0.0609 -0.4685
 7680SOL    HW134499   0.640   0.110   4.174  0.0242 -0.0467 -0.4237
 7680SOL    HW234500   0.550   0.059   4.067 -0.7750 -1.7122  2.5408
 7681SOL     OW34501   1.481   4.019  12.923 -0.1337  0.0747  0.4490
 7681SOL    HW134502   1.391   4.021  12.890 -0.5625 -2.2847  1.4672
 7681SOL    HW234503   1.506   4.109  12.903  0.8065  0.8012  4.8510
 7682SOL     OW34504   4.701   3.845   0.583 -0.0568  0.2649  0.2729
 7682SOL    HW134505   0.004   3.757   0.611 -0.7146 -1.0728 -3.3802
 7682SOL    HW234506   4.635   3.872   0.647  0.1771  2.2768 -0.3183
 7683SOL     OW34507   2.057   1.565   4.847  0.7549 -0.5676 -0.5405
 7683SOL    HW134508   2.014   1.648   4.823  0.4376 -0.6916 -0.3902
 7683SOL    HW234509   2.087   1.531   4.763  0.7383 -1.1931 -0.2891
 7684SOL     OW34510   1.075   2.206   3.364  0.5924 -0.4380  0.1403
 7684SOL    HW134511   1.082   2.230   3.271 -0.1674  3.5671  1.1337
 7684SOL    HW234512   1.167   2.208   3.392  1.1475 -0.3325 -1.6601
 7685SOL     OW34513   1.134   0.839   8.775  0.1870  0.2009  0.5007
 7685SOL    HW134514   1.051   0.822   8.818  0.7462  1.4108  2.0293
 7685SOL    HW234515   1.154   0.920   8.822  0.3807 -0.3793  1.4251
 7686SOL     OW34516   0.254   2.111   1.836  0.1615  0.1170  0.5769
 7686SOL    HW134517   0.236   2.077   1.748 -0.1891 -1.8232  1.3942
 7686SOL    HW234518   0.341   2.151   1.826 -0.3226  0.6880 -1.3197
 7687SOL     OW34519   4.558   4.591   5.215  0.8728  0.3829 -0.2813
 7687SOL    HW134520   4.607   4.511   5.194  1.7234  0.9378 -0.4212
 7687SOL    HW234521   4.471   4.552   5.217  1.3839 -0.6754  1.5871
 7688SOL     OW34522   2.086   2.861   4.945  0.7946  0.2326 -0.3117
 7688SOL    HW134523   2.006   2.903   4.976  0.7163  0.1926 -0.4600
 7688SOL    HW234524   2.147   2.934   4.954  1.1462  0.1407 -1.9681
 7689SOL     OW34525   2.271   0.093   4.246  0.7980  0.9659 -0.5412
 7689SOL    HW134526   2.189   0.076   4.199 -0.9777  2.7678  1.9152
 7689SOL    HW234527   2.287   0.182   4.215  0.4077  1.2676  0.1309
 7690SOL     OW34528   3.482   2.177   6.748 -0.5156  0.6398  0.1598
 7690SOL    HW134529   3.561   2.130   6.722 -1.9879 -0.7627 -1.7900
 7690SOL    HW234530   3.470   2.154   6.840 -2.2970  1.1407  0.0550
 7691SOL     OW34531   0.852   4.569   9.484  1.0259  0.5590  0.6671
 7691SOL    HW134532   0.808   4.555   9.568  0.4886 -1.8966 -0.0266
 7691SOL    HW234533   0.830   4.660   9.464 -4.3729 -0.3515  2.4073
 7692SOL     OW34534   1.187   1.599  13.902  0.2356 -0.5938 -0.8344
 7692SOL    HW134535   1.200   1.509  13.872  2.2684 -0.4694 -0.2795
 7692SOL    HW234536   1.094   1.581  13.915  0.1527 -0.4419 -1.2040
 7693SOL     OW34537   1.646   0.659   5.410 -0.6307 -0.3844 -0.3081
 7693SOL    HW134538   1.587   0.597   5.453 -1.2658  0.5334  0.1564
 7693SOL    HW234539   1.603   0.737   5.446  0.8285  0.4805 -0.4397
 7694SOL     OW34540   3.528   4.681   7.565 -0.5555 -0.3241 -0.7485
 7694SOL    HW134541   3.440   4.700   7.598 -0.9397  0.0062 -1.9302
 7694SOL    HW234542   3.585   4.709   7.637  0.5788  0.3600 -1.9034
 7695SOL     OW34543   1.461   1.612   7.154 -0.6829 -0.7662 -0.0292
 7695SOL    HW134544   1.372   1.604   7.119 -0.4112 -1.2827 -0.6131
 7695SOL    HW234545   1.507   1.586   7.074 -0.6855 -0.5343 -0.1066
 7696SOL     OW34546   3.287   3.079   7.012  0.1423 -0.0921  0.0808
 7696SOL    HW134547   3.284   3.163   7.057  1.2880 -1.0467  1.9473
 7696SOL    HW234548   3.243   3.107   6.932  0.2117 -1.5279 -0.4694
 7697SOL     OW34549   2.121   4.045   9.532 -0.2414 -0.5046  0.4794
 7697SOL    HW134550   2.089   4.060   9.621  0.5426 -0.6170  0.7736
 7697SOL    HW234551   2.047   3.991   9.502  0.4889  0.1839 -2.5055
 7698SOL     OW34552   3.818   1.870  10.853  0.2957  0.2786  0.1625
 7698SOL    HW134553   3.910   1.899  10.851  0.8688 -1.4006  1.9375
 7698SOL    HW234554   3.804   1.889  10.946  2.9337  0.7038  0.4813
 7699SOL     OW34555   1.824   3.462  10.934 -0.3472 -0.3107 -0.0356
 7699SOL    HW134556   1.740   3.439  10.894 -1.0034  0.5097  0.8505
 7699SOL    HW234557   1.861   3.538  10.888  2.0823 -1.0396  0.7348
 7700SOL     OW34558   0.042   1.528  10.467 -0.1901 -0.1095 -0.6802
 7700SOL    HW134559   4.708   1.475  10.409  0.4411 -0.2396 -1.1639
 7700SOL    HW234560   0.001   1.517  10.552  1.8369  1.7840  0.5249
 7701SOL     OW34561   3.856   2.942   1.878 -0.5091 -0.3119  0.1216
 7701SOL    HW134562   3.765   2.969   1.866  0.0316  1.1828 -0.5786
 7701SOL    HW234563   3.895   3.028   1.892 -0.0060 -0.5068 -0.0892
 7702SOL     OW34564   2.308   0.886   0.432  0.1724  0.3605  0.2662
 7702SOL    HW134565   2.284   0.794   0.417  0.9983  0.2060 -0.1129
 7702SOL    HW234566   2.401   0.888   0.454  0.6901 -0.9181 -1.8339
 7703SOL     OW34567   0.114   1.879   2.014 -0.2132  0.0440 -0.3678
 7703SOL    HW134568   0.183   1.854   2.074 -0.8055 -1.4523 -0.3116
 7703SOL    HW234569   0.139   1.838   1.931 -1.7500 -0.7154 -0.4668
 7704SOL     OW34570   1.449   3.195  14.710  0.5144 -0.6270 -0.1028
 7704SOL    HW134571   1.425   3.180  14.802 -2.2576  2.3780 -0.3267
 7704SOL    HW234572   1.380   3.148  14.664 -0.2378 -0.3831  0.7782
 7705SOL     OW34573   1.388   3.137   5.566  0.4645  0.5668  0.3241
 7705SOL    HW134574   1.305   3.156   5.523  2.0085  1.3825 -2.3179
 7705SOL    HW234575   1.357   3.061   5.615  0.9571  0.6607  0.7933
 7706SOL     OW34576   0.454   3.038   0.665  0.7687  0.0617 -0.6269
 7706SOL    HW134577   0.539   3.007   0.695  1.1637 -0.7387 -2.5961
 7706SOL    HW234578   0.390   2.987   0.714  0.4131  0.7754 -0.3421
 7707SOL     OW34579   0.062   0.542   7.012  0.2310 -0.3249  0.1131
 7707SOL    HW134580   0.137   0.600   7.002  0.1255 -0.3875 -0.9560
 7707SOL    HW234581   0.104   0.457   7.028 -1.5069 -1.1015  0.5638
 7708SOL     OW34582   4.249   2.021   0.858  0.1032  0.3395  0.1629
 7708SOL    HW134583   4.297   2.007   0.776  1.5405 -0.1108  1.0828
 7708SOL    HW234584   4.225   2.112   0.844  1.6862  1.2330  3.2905
 7709SOL     OW34585   3.730   4.101   2.553  0.2626 -0.0890 -0.2726
 7709SOL    HW134586   3.654   4.103   2.611 -1.9970 -1.3093 -3.1597
 7709SOL    HW234587   3.686   4.138   2.476 -0.7289 -2.1673 -0.6953
 7710SOL     OW34588   1.416   2.393   7.096  0.2273  0.1411  0.0602
 7710SOL    HW134589   1.421   2.477   7.050  2.9029 -1.0109 -1.7648
 7710SOL    HW234590   1.460   2.408   7.180  2.2433  0.5589 -1.0728
 7711SOL     OW34591   4.647   4.120   5.431 -0.2156 -0.7813 -0.3605
 7711SOL    HW134592   4.634   4.067   5.352 -0.6328  0.2659 -0.9986
 7711SOL    HW234593   4.598   4.071   5.497  0.9712 -0.0206  1.0782
 7712SOL     OW34594   1.996   1.251   4.334  0.0358 -0.1334 -0.5032
 7712SOL    HW134595   2.016   1.222   4.423 -0.4592 -1.7911 -0.9257
 7712SOL    HW234596   1.904   1.276   4.337  0.2966  1.0172 -1.8542
 7713SOL     OW34597   2.709   2.374  17.342  0.1229  0.3124  0.8158
 7713SOL    HW134598   2.747   2.295  17.302 -2.3287  0.4264 -1.7045
 7713SOL    HW234599   2.750   2.385  17.428 -0.4030 -3.5982  1.5668
 7714SOL     OW34600   1.425   4.658   3.767 -0.3656  0.2455  0.9581
 7714SOL    HW134601   1.420   0.032   3.752  0.7353  0.2463  0.5345
 7714SOL    HW234602   1.492   4.651   3.836  2.0198  2.3186 -1.1126
 7715SOL     OW34603   4.199   4.543   7.080  0.2241 -0.1417  0.8097
 7715SOL    HW134604   4.139   4.566   7.009  1.5826  2.1915  0.4202
 7715SOL    HW234605   4.282   4.531   7.034  0.3408 -0.2239  1.0448
 7716SOL     OW34606   3.182   0.126  14.057 -0.2933  0.5854 -0.2161
 7716SOL    HW134607   3.143   0.091  14.137  1.3558 -0.8802 -0.0671
 7716SOL    HW234608   3.275   0.106  14.064 -0.8460 -2.0867 -0.7517
 7717SOL     OW34609   3.818   1.142   0.935  0.1269 -0.1223 -1.0297
 7717SOL    HW134610   3.758   1.187   0.876 -2.5589 -1.9707  0.3206
 7717SOL    HW234611   3.848   1.217   0.986  1.6264 -0.0317 -2.0592
 7718SOL     OW34612   2.449   3.748  15.159 -0.7231  0.1443  0.2840
 7718SOL    HW134613   2.395   3.787  15.227 -0.4048  0.6880  0.2161
 7718SOL    HW234614   2.416   3.791  15.080 -1.0376 -1.2490 -0.3580
 7719SOL     OW34615   2.272   2.372   6.071  0.3901  0.4749 -0.1234
 7719SOL    HW134616   2.320   2.392   6.152 -0.1160  1.0953  0.0274
 7719SOL    HW234617   2.337   2.371   6.001  0.3687  0.7080 -0.1475
 7720SOL     OW34618   4.335   3.928   8.047 -0.3260 -0.4455 -0.0624
 7720SOL    HW134619   4.264   3.992   8.050 -0.7860 -0.8899 -1.4987
 7720SOL    HW234620   4.293   3.871   7.982 -1.9531 -0.4994  1.0463
 7721SOL     OW34621   1.185   3.215   5.047 -0.0996  0.1221  0.0780
 7721SOL    HW134622   1.192   3.120   5.038 -0.5354  0.1274 -0.3456
 7721SOL    HW234623   1.140   3.224   4.963 -0.4511 -0.4700  0.2043
 7722SOL     OW34624   3.159   0.882   8.546 -0.1634 -0.3564 -0.1517
 7722SOL    HW134625   3.072   0.912   8.572 -0.3009  0.0993 -1.1511
 7722SOL    HW234626   3.210   0.928   8.613 -1.6159 -1.5424  1.7642
 7723SOL     OW34627   1.490   2.882   0.052 -0.3909 -0.4417  0.6290
 7723SOL    HW134628   1.455   2.967   0.078  1.6664  1.6183 -3.3545
 7723SOL    HW234629   1.557   2.911  17.676 -0.3840 -0.5220  0.5996
 7724SOL     OW34630   2.201   2.717   9.214 -0.0009 -0.8642 -0.5723
 7724SOL    HW134631   2.220   2.705   9.121  0.8454  0.7657 -0.6135
 7724SOL    HW234632   2.173   2.808   9.210  1.1717 -0.5519 -1.4705
 7725SOL     OW34633   4.299   1.186   7.583 -0.7611 -0.1225 -0.7930
 7725SOL    HW134634   4.239   1.114   7.603  3.0875 -2.5560  2.0428
 7725SOL    HW234635   4.360   1.158   7.651 -2.2342  1.6292  1.2585
 7726SOL     OW34636   0.606   4.658   6.470  0.0296  0.0706  0.2283
 7726SOL    HW134637   0.561   4.717   6.410 -0.7563 -0.5408  0.2165
 7726SOL    HW234638   0.612   4.581   6.414  0.6369  0.3893 -0.1383
 7727SOL     OW34639   2.841   0.726   3.198 -0.4115  0.6619  0.1668
 7727SOL    HW134640   2.770   0.716   3.134 -0.5252 -0.2277  0.4306
 7727SOL    HW234641   2.899   0.782   3.146 -2.0669  0.5785 -1.7418
 7728SOL     OW34642   1.978   2.241   1.776  0.0158 -0.1964  0.0697
 7728SOL    HW134643   1.967   2.149   1.801  0.0891 -0.1823  0.1534
 7728SOL    HW234644   2.066   2.261   1.808 -1.4772  3.3968  1.9343
 7729SOL     OW34645   1.896   1.834  15.603 -0.3626 -0.1512 -0.1583
 7729SOL    HW134646   1.832   1.769  15.576 -0.8381  1.1540 -2.1699
 7729SOL    HW234647   1.856   1.864  15.685  0.9419 -1.4593  0.9494
 7730SOL     OW34648   2.475   2.959  16.390 -0.0604 -0.1398  0.1341
 7730SOL    HW134649   2.450   2.968  16.298 -0.4949  2.4701  0.4949
 7730SOL    HW234650   2.562   2.998  16.387 -0.2558  0.3655  0.9824
 7731SOL     OW34651   2.797   3.965  13.884 -0.4214  0.4774 -0.0216
 7731SOL    HW134652   2.739   3.890  13.889 -1.0895  1.1290  2.1825
 7731SOL    HW234653   2.851   3.952  13.963 -0.0373  1.2211 -0.1606
 7732SOL     OW34654   3.771   3.980   6.240 -0.2627  0.4345  0.3146
 7732SOL    HW134655   3.777   3.960   6.146  2.4030  1.3254  0.2886
 7732SOL    HW234656   3.836   4.049   6.255  1.1207 -0.8418  0.2036
 7733SOL     OW34657   2.178   0.250   7.062  0.1543  0.3395  0.2303
 7733SOL    HW134658   2.183   0.155   7.067 -1.3796  0.3536  2.2281
 7733SOL    HW234659   2.262   0.269   7.103  0.1387  1.1154 -0.0785
 7734SOL     OW34660   1.652   3.478   6.877 -0.4026  0.8801  0.2272
 7734SOL    HW134661   1.688   3.478   6.965  0.7433 -0.3293 -0.2468
 7734SOL    HW234662   1.589   3.550   6.886 -1.3002  0.2241 -0.7597
 7735SOL     OW34663   4.109   4.224   6.836 -0.7233 -0.2659  0.3845
 7735SOL    HW134664   4.045   4.166   6.794 -0.0035 -0.8950  0.1709
 7735SOL    HW234665   4.106   4.300   6.778  4.5352 -1.1068 -0.9863
 7736SOL     OW34666   2.782   1.441   8.081  0.1490 -0.1794  0.4979
 7736SOL    HW134667   2.689   1.428   8.100 -0.0547 -0.0321 -0.3867
 7736SOL    HW234668   2.777   1.526   8.037  0.6211 -0.5147 -0.2083
 7737SOL     OW34669   3.900   1.805   6.000 -0.4625 -0.0404  0.1383
 7737SOL    HW134670   3.850   1.723   5.996 -2.9763  1.4958 -0.1795
 7737SOL    HW234671   3.897   1.824   6.093 -0.1639 -0.3198  0.2013
 7738SOL     OW34672   3.961   4.316   2.561  0.0784 -0.3237 -0.3765
 7738SOL    HW134673   3.949   4.365   2.642  1.0203 -0.6555 -0.0326
 7738SOL    HW234674   3.938   4.228   2.590 -1.8762  0.4420  0.4010
 7739SOL     OW34675   3.837   2.963   7.090  0.3288  0.1924  0.3139
 7739SOL    HW134676   3.874   3.036   7.140 -0.5853  0.0921  1.1320
 7739SOL    HW234677   3.873   2.887   7.136  1.0985 -0.4813 -1.3760
 7740SOL     OW34678   1.303   4.164  10.659 -0.1606  1.0701  0.3376
 7740SOL    HW134679   1.256   4.227  10.605  0.4328  0.3440 -1.0316
 7740SOL    HW234680   1.333   4.102  10.593  3.6944  1.0427  2.0671
 7741SOL     OW34681   1.708   4.024   2.999 -0.6738 -0.3576 -0.4217
 7741SOL    HW134682   1.777   3.965   3.030 -3.3461 -3.7668 -0.9819
 7741SOL    HW234683   1.773   4.089   2.971  0.9506 -1.9955 -0.4693
 7742SOL     OW34684   4.486   2.320   0.937 -0.5907  0.1663 -0.3620
 7742SOL    HW134685   4.501   2.225   0.935  0.8073  0.4112 -1.4163
 7742SOL    HW234686   4.573   2.356   0.958 -1.3641  1.1279  1.1422
 7743SOL     OW34687   2.164   3.991   3.552 -0.3426 -0.5172  0.5530
 7743SOL    HW134688   2.246   3.940   3.554 -0.6744 -1.0637  0.2451
 7743SOL    HW234689   2.178   4.032   3.637 -1.4689 -1.5921  1.2570
 7744SOL     OW34690   1.092   3.998   7.393 -0.2343  0.0090  0.0762
 7744SOL    HW134691   1.127   4.087   7.394 -1.7574  0.6225 -1.0232
 7744SOL    HW234692   1.176   3.955   7.411  0.4656  2.0276  1.5949
 7745SOL     OW34693   0.221   1.032   4.047  0.4820 -0.1183 -0.3512
 7745SOL    HW134694   0.302   1.028   3.996  0.0306  0.6674 -1.1409
 7745SOL    HW234695   0.172   1.100   4.000  1.2526  0.6194 -0.0829
 7746SOL     OW34696   3.196   4.318   4.765  0.5807 -0.2508 -0.3222
 7746SOL    HW134697   3.261   4.365   4.713  0.8486  0.0210  0.2537
 7746SOL    HW234698   3.126   4.349   4.707 -0.7672  0.5872  1.7231
 7747SOL     OW34699   0.113   1.724  11.691  0.4953  0.1281  0.2288
 7747SOL    HW134700   0.035   1.776  11.713 -1.5437 -1.9703 -2.0758
 7747SOL    HW234701   0.157   1.729  11.776  2.0065 -2.6626 -0.4311
 7748SOL     OW34702   2.998   3.135   4.010 -0.1359 -0.1003 -0.0113
 7748SOL    HW134703   2.913   3.179   4.018  0.3548  0.1941  3.4016
 7748SOL    HW234704   3.050   3.204   3.969  1.3276 -0.9203  0.4585
 7749SOL     OW34705   2.962   1.989   2.744 -0.4604  0.1647  0.5151
 7749SOL    HW134706   3.006   2.066   2.707 -1.0060  0.3398  0.2178
 7749SOL    HW234707   3.033   1.925   2.755  1.9199  2.7993  0.4731
 7750SOL     OW34708   2.070   0.429  16.793 -0.7148  0.4830 -0.0068
 7750SOL    HW134709   2.043   0.338  16.799 -0.5085  0.3109 -1.5846
 7750SOL    HW234710   2.111   0.440  16.878 -0.3948  1.6500 -0.3158
 7751SOL     OW34711   0.020   0.807   2.316  0.6391 -0.0203  0.9176
 7751SOL    HW134712   0.097   0.762   2.280 -0.4648 -0.9681 -0.2470
 7751SOL    HW234713   0.050   0.898   2.307  1.2748 -0.2530  0.6345
 7752SOL     OW34714   0.688   0.120  13.221 -0.3882  0.4665  0.3401
 7752SOL    HW134715   0.684   0.081  13.309 -1.5037  0.5706  0.3360
 7752SOL    HW234716   0.775   0.092  13.192  0.3436 -0.2462  3.1730
 7753SOL     OW34717   0.885   0.017  12.099 -0.8818 -0.4423  0.0877
 7753SOL    HW134718   0.853   0.089  12.045  0.6795  0.8094  0.8245
 7753SOL    HW234719   0.891   4.665  12.036 -0.9548 -1.2881  1.0620
 7754SOL     OW34720   0.499   2.613   2.561 -0.5702  0.3164  0.2376
 7754SOL    HW134721   0.573   2.577   2.609  1.2516  0.8147 -2.2039
 7754SOL    HW234722   0.528   2.704   2.561 -0.8490  0.4056 -0.1860
 7755SOL     OW34723   0.010   2.147   7.873  0.1669  0.3586  0.2552
 7755SOL    HW134724   0.034   2.229   7.916 -1.3217  0.1980  1.4329
 7755SOL    HW234725   0.079   2.083   7.889  1.0502  1.0973 -0.6021
 7756SOL     OW34726   3.330   2.267  17.371  0.0351 -0.4172  0.4094
 7756SOL    HW134727   3.327   2.274  17.467 -0.7313  0.2217  0.3416
 7756SOL    HW234728   3.333   2.361  17.352  0.4734 -0.3301  0.9242
 7757SOL     OW34729   2.706   2.417   3.422  0.3058 -0.5782  0.2433
 7757SOL    HW134730   2.760   2.372   3.358 -1.9217 -1.1439 -1.2278
 7757SOL    HW234731   2.623   2.373   3.402  0.0703  0.0973 -0.2722
 7758SOL     OW34732   4.291   0.649   9.060 -0.3164  0.4813 -0.5782
 7758SOL    HW134733   4.272   0.725   9.115 -1.5622  1.0561 -1.8154
 7758SOL    HW234734   4.319   0.590   9.130 -1.5294  1.2223  0.5426
 7759SOL     OW34735   4.620   0.678   1.833 -0.6821 -0.6675 -0.1399
 7759SOL    HW134736   4.619   0.645   1.923 -1.2096  1.7018  0.7153
 7759SOL    HW234737   4.553   0.625   1.790 -0.3714  1.4414 -3.2111
 7760SOL     OW34738   4.501   1.606   8.167 -0.5879  0.1638 -0.0003
 7760SOL    HW134739   4.435   1.591   8.099  0.5255 -1.3233 -0.7487
 7760SOL    HW234740   4.490   1.521   8.210  0.4252 -0.5326 -1.0955
 7761SOL     OW34741   0.950   2.222   6.333 -0.2346  0.7514  0.4912
 7761SOL    HW134742   0.944   2.134   6.295 -1.4447 -0.0170  2.4800
 7761SOL    HW234743   0.980   2.274   6.258  0.9183 -0.0825  0.3641
 7762SOL     OW34744   4.641   2.064   2.181  0.5018 -0.1529  0.7318
 7762SOL    HW134745   4.548   2.074   2.200  0.6820  0.9542  1.0189
 7762SOL    HW234746   4.678   2.049   2.268  1.9944 -3.4598 -0.4482
 7763SOL     OW34747   1.250   2.496  14.406  0.5565 -0.8686  0.1535
 7763SOL    HW134748   1.328   2.534  14.447 -0.7400  1.6025  0.3174
 7763SOL    HW234749   1.284   2.421  14.358 -1.0660 -0.6520 -1.3446
 7764SOL     OW34750   2.318   2.689   9.574  0.5390 -0.5713 -0.4137
 7764SOL    HW134751   2.375   2.736   9.635 -0.5747 -0.8659  0.8528
 7764SOL    HW234752   2.370   2.610   9.559  2.3355  0.4406  0.4191
 7765SOL     OW34753   3.516   1.579   2.154 -0.2979 -0.4569 -0.3964
 7765SOL    HW134754   3.587   1.626   2.198 -1.5113  1.7189 -0.7759
 7765SOL    HW234755   3.555   1.563   2.068 -0.0678  0.7007 -0.5016
 7766SOL     OW34756   0.899   2.722   3.570  0.4360 -0.1390 -0.0356
 7766SOL    HW134757   0.931   2.637   3.540  0.4165  0.0640 -0.6441
 7766SOL    HW234758   0.808   2.694   3.561 -0.3580  1.0122  4.8966
 7767SOL     OW34759   0.464   3.882  14.509 -0.4239 -0.0813  0.1926
 7767SOL    HW134760   0.556   3.875  14.533 -0.1456 -0.6021 -1.0768
 7767SOL    HW234761   0.456   3.831  14.429 -1.3084  0.0117  0.2152
 7768SOL     OW34762   2.073   1.593   8.193  0.3834  0.6275 -0.1305
 7768SOL    HW134763   2.019   1.659   8.237  0.2426 -0.6933  1.6856
 7768SOL    HW234764   2.122   1.645   8.129  1.2594 -1.5524 -1.2480
 7769SOL     OW34765   0.167   4.458  12.552  0.6033 -0.5406  0.5310
 7769SOL    HW134766   0.253   4.439  12.587  1.2143 -1.9795 -1.6868
 7769SOL    HW234767   0.184   4.544  12.514  0.5123 -1.5863 -1.9484
 7770SOL     OW34768   4.151   0.269   3.205 -0.1524  0.4159 -0.2324
 7770SOL    HW134769   4.109   0.336   3.259 -0.5820 -1.5138  1.8144
 7770SOL    HW234770   4.072   0.218   3.186 -0.7490  0.5502  1.8925
 7771SOL     OW34771   3.278   2.361   5.607  0.0671  0.1836 -0.4459
 7771SOL    HW134772   3.370   2.333   5.602  0.3805  1.0621  0.6407
 7771SOL    HW234773   3.284   2.451   5.636 -0.4744  0.5132 -1.3631
 7772SOL     OW34774   1.030   4.507   7.440  0.5220 -0.2616 -0.2325
 7772SOL    HW134775   1.096   4.522   7.372  1.2138 -0.3593  0.4109
 7772SOL    HW234776   1.075   4.446   7.498 -1.8086 -0.4971  1.3043
 7773SOL     OW34777   1.735   3.670  14.428 -0.1901  0.1439  0.2169
 7773SOL    HW134778   1.790   3.599  14.393 -2.1378 -0.8371 -0.8866
 7773SOL    HW234779   1.802   3.714  14.480  0.2474 -1.3709  0.9399
 7774SOL     OW34780   4.132   0.862   1.713 -0.2956 -1.1271  0.4540
 7774SOL    HW134781   4.138   0.821   1.799 -0.1175 -0.5252  0.7283
 7774SOL    HW234782   4.142   0.786   1.655  0.6242  0.2074 -1.1102
 7775SOL     OW34783   1.906   2.159   3.397 -0.3630 -0.3406  0.4341
 7775SOL    HW134784   1.962   2.081   3.396  2.1349  1.4635 -3.5991
 7775SOL    HW234785   1.831   2.134   3.451 -0.3287 -1.7896 -0.1728
 7776SOL     OW34786   4.025   1.262   5.172  0.2232 -0.0204  0.3051
 7776SOL    HW134787   3.992   1.256   5.262  3.3936 -2.7632  1.2764
 7776SOL    HW234788   4.105   1.212   5.184  0.7021  0.8512  0.7353
 7777SOL     OW34789   2.324   1.928  17.180 -0.2591  0.2452 -0.5562
 7777SOL    HW134790   2.286   2.000  17.129 -2.6839 -0.5067  0.1781
 7777SOL    HW234791   2.417   1.942  17.164 -0.0837  0.0492  0.3144
 7778SOL     OW34792   2.377   0.236   3.418 -0.1068  0.7062 -0.0291
 7778SOL    HW134793   2.473   0.242   3.412 -0.1402  3.1968  2.1193
 7778SOL    HW234794   2.379   0.161   3.478  1.2228  1.3163  0.6984
 7779SOL     OW34795   4.605   2.446   2.469  0.4951 -0.4369  0.0952
 7779SOL    HW134796   4.516   2.480   2.455  0.1484 -1.9015 -1.3574
 7779SOL    HW234797   4.577   2.368   2.517  0.6267 -1.0601 -0.8373
 7780SOL     OW34798   0.948   3.381   7.787  0.6214 -0.2631 -0.2768
 7780SOL    HW134799   0.889   3.320   7.831 -0.6910  1.5810  0.5044
 7780SOL    HW234800   0.978   3.438   7.858 -3.8968  1.7901 -0.0392
 7781SOL     OW34801   1.097   3.295   4.142 -0.4304  0.0527  0.2455
 7781SOL    HW134802   1.023   3.343   4.105 -0.2761  1.4971  1.8061
 7781SOL    HW234803   1.156   3.367   4.164 -0.9180 -0.1555  2.1508
 7782SOL     OW34804   4.535   1.395   5.210 -0.4524 -0.4508 -0.3410
 7782SOL    HW134805   4.450   1.355   5.223 -0.8037  1.3626  2.8772
 7782SOL    HW234806   4.581   1.335   5.269  0.3274  2.0300  1.5781
 7783SOL     OW34807   0.239   1.188   0.889 -0.0231 -0.1979 -0.3794
 7783SOL    HW134808   0.195   1.113   0.929  1.7710 -1.5077 -0.8429
 7783SOL    HW234809   0.168   1.221   0.834  0.2929 -2.3322 -2.0498
 7784SOL     OW34810   1.450   0.642  13.624  0.1635  0.8541  0.3758
 7784SOL    HW134811   1.458   0.572  13.558  1.2078  0.1629  1.2379
 7784SOL    HW234812   1.418   0.715  13.572 -0.6090 -0.4512 -0.9949
 7785SOL     OW34813   2.337   0.796   4.857  0.1837  0.3399  0.2161
 7785SOL    HW134814   2.404   0.824   4.919 -1.1814  1.9839  0.9346
 7785SOL    HW234815   2.372   0.823   4.772 -0.8522  1.4518  0.1419
 7786SOL     OW34816   0.308   1.565   6.451 -0.0128  0.4213 -0.2963
 7786SOL    HW134817   0.386   1.592   6.403  1.8774 -0.9430  2.0385
 7786SOL    HW234818   0.331   1.534   6.539  0.4732  0.7065 -0.3223
 7787SOL     OW34819   4.113   1.302   3.681 -0.7022  0.3478 -0.2271
 7787SOL    HW134820   4.178   1.281   3.614 -0.0870 -0.9072  0.7539
 7787SOL    HW234821   4.114   1.397   3.679  2.3034  0.3118  0.2617
 7788SOL     OW34822   1.723   1.571   7.995 -0.0644 -0.5140 -0.3091
 7788SOL    HW134823   1.681   1.509   8.055 -1.2484 -0.3495 -0.9718
 7788SOL    HW234824   1.683   1.551   7.910 -3.3983 -0.0140  1.1345
 7789SOL     OW34825   0.191   0.270   4.945 -0.4326 -0.1521  0.3024
 7789SOL    HW134826   0.217   0.242   4.857  0.0893 -0.6941  0.6358
 7789SOL    HW234827   0.236   0.354   4.956 -1.7126  0.3839  1.3230
 7790SOL     OW34828   0.691   0.997   2.922  1.1359 -0.2035  0.1672
 7790SOL    HW134829   0.622   1.049   2.963  1.7624  1.0251 -0.3420
 7790SOL    HW234830   0.648   0.940   2.858 -0.9644 -1.0773  2.3948
 7791SOL     OW34831   0.168   4.595   8.106 -0.1340  0.2164 -0.5976
 7791SOL    HW134832   0.085   4.611   8.061 -0.7353 -1.8950 -0.2382
 7791SOL    HW234833   0.152   4.621   8.197  3.5118  0.8146 -0.1193
 7792SOL     OW34834   4.052   2.175   3.688  0.1668  0.5654 -0.0912
 7792SOL    HW134835   4.094   2.185   3.773  0.3460 -0.7046 -0.0337
 7792SOL    HW234836   4.012   2.089   3.693  1.3814  0.1007  1.4655
 7793SOL     OW34837   2.376   2.073   0.444  0.0265 -0.9886  0.2675
 7793SOL    HW134838   2.393   2.144   0.506 -0.1619 -1.6422  1.0744
 7793SOL    HW234839   2.458   2.074   0.395  0.4399 -3.1031  0.8994
 7794SOL     OW34840   1.902   4.596   4.578  0.4995 -0.1638 -0.1580
 7794SOL    HW134841   1.817   4.583   4.535  0.6248 -0.6241 -0.2689
 7794SOL    HW234842   1.939   4.667   4.527  0.2357 -0.1592 -0.3433
 7795SOL     OW34843   1.883   2.322  12.710 -0.0084  0.0554 -0.4536
 7795SOL    HW134844   1.788   2.320  12.722  0.0033  2.0932 -0.0293
 7795SOL    HW234845   1.903   2.410  12.741 -1.8319  0.4666 -0.4111
 7796SOL     OW34846   0.737   1.084   8.160 -0.0172  0.3889 -0.1453
 7796SOL    HW134847   0.687   1.162   8.183 -0.1994  0.0838  0.4926
 7796SOL    HW234848   0.702   1.067   8.072 -2.3421  0.8243  0.6985
 7797SOL     OW34849   4.191   4.473   3.321  0.0529  0.5901  0.4322
 7797SOL    HW134850   4.277   4.435   3.338 -0.2160 -0.9928 -1.6386
 7797SOL    HW234851   4.185   4.466   3.225  2.5856 -0.6147  0.3654
 7798SOL     OW34852   1.941   2.926   6.353  0.4568  0.3626  0.4735
 7798SOL    HW134853   1.939   2.969   6.439  3.2023 -3.0836  2.2332
 7798SOL    HW234854   2.001   2.991   6.316 -0.4887  2.1328  1.9813
 7799SOL     OW34855   1.246   1.400   8.922  0.0571 -0.8255  0.0498
 7799SOL    HW134856   1.291   1.461   8.863 -0.2709 -1.3872 -0.7821
 7799SOL    HW234857   1.156   1.393   8.891  0.9533 -2.4874 -2.1829
 7800SOL     OW34858   0.803   2.681   7.420  0.3290  0.2576 -0.6413
 7800SOL    HW134859   0.794   2.659   7.512 -2.6941  0.3175 -0.9446
 7800SOL    HW234860   0.734   2.747   7.412 -2.4580 -2.8438 -1.9020
 7801SOL     OW34861   0.141   1.636   2.214  0.0590 -0.4426 -0.1473
 7801SOL    HW134862   0.050   1.664   2.209  0.3092  0.2751 -0.7631
 7801SOL    HW234863   0.150   1.621   2.308  0.8660 -0.1825 -0.1776
 7802SOL     OW34864   0.247   2.570   5.434 -0.0809  0.3470 -0.1999
 7802SOL    HW134865   0.343   2.571   5.441 -0.0732  0.0638 -0.2675
 7802SOL    HW234866   0.237   2.620   5.353  1.3155 -0.2581 -0.7493
 7803SOL     OW34867   0.837   2.642   2.228  0.3235  0.0502  0.0495
 7803SOL    HW134868   0.835   2.730   2.267 -1.4596  0.2541 -0.5275
 7803SOL    HW234869   0.918   2.652   2.178 -0.4672  0.0175 -1.2306
 7804SOL     OW34870   0.816   3.445   6.797 -0.0039 -0.2555  0.0738
 7804SOL    HW134871   0.731   3.430   6.839  0.4397  0.7192  1.3272
 7804SOL    HW234872   0.845   3.353   6.794 -2.5545 -1.1573  2.4692
 7805SOL     OW34873   1.020   4.572   5.930  0.3883  0.1658 -0.7154
 7805SOL    HW134874   1.004   4.648   5.986 -0.5506 -1.8316  1.7161
 7805SOL    HW234875   1.079   4.523   5.987  0.9872  2.0952  0.3337
 7806SOL     OW34876   1.202   0.252   6.080  0.4624  0.3271 -0.7102
 7806SOL    HW134877   1.123   0.199   6.077  1.2819 -0.8759 -1.4472
 7806SOL    HW234878   1.172   0.338   6.107 -2.3340 -0.1899 -2.1787
 7807SOL     OW34879   1.329   0.194   8.011  0.1351 -0.2088  0.0982
 7807SOL    HW134880   1.332   0.146   7.929 -0.7279  0.3664 -0.2681
 7807SOL    HW234881   1.243   0.165   8.041 -0.4065  1.1643 -0.1641
 7808SOL     OW34882   1.185   1.101   6.610 -0.3966 -0.0897  0.6685
 7808SOL    HW134883   1.178   1.015   6.652  2.4523 -1.2631 -1.2012
 7808SOL    HW234884   1.121   1.094   6.540  0.5466 -1.1751 -0.0898
 7809SOL     OW34885   1.136   2.380   3.142  0.5321  0.1281 -0.2620
 7809SOL    HW134886   1.145   2.427   3.059 -0.5862 -0.6234 -0.8087
 7809SOL    HW234887   1.151   2.456   3.200 -0.5912  0.0041  0.1857
 7810SOL     OW34888   2.263   0.314   6.082 -0.2575  0.7203 -0.1432
 7810SOL    HW134889   2.335   0.322   6.144 -1.5933  1.0109  1.3514
 7810SOL    HW234890   2.248   0.220   6.073 -2.8412  1.2891 -2.0233
 7811SOL     OW34891   3.633   2.930   4.069 -0.2187  0.1493 -0.1386
 7811SOL    HW134892   3.617   2.852   4.016 -4.2729  1.7411 -1.2335
 7811SOL    HW234893   3.690   2.889   4.134 -2.1096 -2.1407  0.0834
 7812SOL     OW34894   2.980   4.683  17.351 -0.0784  0.1894 -0.7158
 7812SOL    HW134895   2.898   4.677  17.399  0.7894  0.9514  0.8607
 7812SOL    HW234896   3.042   4.638  17.409  0.8289  0.9595 -1.0851
 7813SOL     OW34897   4.681   3.830  15.592 -0.3085  0.1267 -0.1316
 7813SOL    HW134898   4.695   3.846  15.685  0.4238  1.5708 -0.4964
 7813SOL    HW234899   4.591   3.854  15.571 -0.3531 -0.5789 -0.7688
 7814SOL     OW34900   2.721   1.479   3.837 -0.0950 -0.6305 -0.4167
 7814SOL    HW134901   2.790   1.540   3.861 -0.4177 -0.2531 -0.4599
 7814SOL    HW234902   2.650   1.503   3.896 -0.3158  1.0250 -1.3740
 7815SOL     OW34903   4.129   4.118   3.068 -0.3669 -0.5926  0.0966
 7815SOL    HW134904   4.152   4.208   3.090 -0.5554 -0.5073 -0.0555
 7815SOL    HW234905   4.132   4.114   2.972  1.5038  1.4733  0.0721
 7816SOL     OW34906   0.531   1.593  11.194 -0.5567 -0.6032 -0.1196
 7816SOL    HW134907   0.576   1.510  11.177  1.7865  0.3629  1.5720
 7816SOL    HW234908   0.472   1.553  11.259 -0.0291  1.9120  1.8631
 7817SOL     OW34909   4.187   4.598   1.772 -0.7164 -0.0436  0.6736
 7817SOL    HW134910   4.123   4.546   1.819 -1.7384 -0.1797 -0.8500
 7817SOL    HW234911   4.218   4.538   1.704 -0.0474  3.0077 -1.7044
 7818SOL     OW34912   0.240   2.204  15.037  0.5004  0.1954 -0.4010
 7818SOL    HW134913   0.181   2.237  14.969 -0.4187 -2.4165 -0.8622
 7818SOL    HW234914   0.288   2.287  15.044  0.9671 -0.1518  0.4230
 7819SOL     OW34915   0.692   3.819  11.768 -0.1693  0.8142 -0.1195
 7819SOL    HW134916   0.632   3.876  11.815  0.7688  1.2270  0.5845
 7819SOL    HW234917   0.737   3.885  11.714  0.2087  0.3978 -0.3168
 7820SOL     OW34918   0.549   2.934   6.956  0.3855  0.2409  0.1101
 7820SOL    HW134919   0.601   2.879   6.897 -0.1809 -0.2243  0.0426
 7820SOL    HW234920   0.517   3.006   6.903  1.5525 -0.0139 -0.9482
 7821SOL     OW34921   4.472   3.231   2.873  0.4281 -0.5657 -0.0410
 7821SOL    HW134922   4.463   3.196   2.785  0.2430 -0.9655  0.1398
 7821SOL    HW234923   4.557   3.190   2.890  1.0881  0.9140  0.2640
 7822SOL     OW34924   0.870   2.643  16.115 -0.0792 -0.2703  0.9170
 7822SOL    HW134925   0.928   2.694  16.060  0.3324 -0.6934  0.9592
 7822SOL    HW234926   0.913   2.663  16.198 -1.3932  0.6891  1.3786
 7823SOL     OW34927   1.898   2.516   4.642  0.3158  0.0147  0.0916
 7823SOL    HW134928   1.961   2.587   4.647 -0.2157  0.5888 -1.3826
 7823SOL    HW234929   1.949   2.448   4.599  0.4797  0.7182 -0.8234
 7824SOL     OW34930   4.183   4.405  11.128  0.3788 -0.2603 -0.4761
 7824SOL    HW134931   4.096   4.418  11.165 -0.2895  1.6697 -2.7376
 7824SOL    HW234932   4.200   4.499  11.115 -2.7521  0.5154  1.2519
 7825SOL     OW34933   1.151   4.271   8.278  0.6844 -0.1637 -0.1492
 7825SOL    HW134934   1.131   4.365   8.282  1.2285 -0.1593  2.9176
 7825SOL    HW234935   1.162   4.253   8.372 -0.4687 -0.2331 -0.0258
 7826SOL     OW34936   0.174   4.357   3.230 -0.3497  0.2365 -0.2323
 7826SOL    HW134937   0.180   4.432   3.170  0.4338  0.6605  0.3863
 7826SOL    HW234938   0.201   4.287   3.171 -1.2463 -1.0362  0.8552
 7827SOL     OW34939   2.081   3.428   5.495 -0.9271  0.5132  0.1558
 7827SOL    HW134940   2.014   3.376   5.539 -0.9535 -0.5227 -1.0794
 7827SOL    HW234941   2.083   3.503   5.554 -3.9248  0.9232 -0.2872
 7828SOL     OW34942   0.457   4.155   8.483 -0.5221 -0.8799  0.1783
 7828SOL    HW134943   0.530   4.123   8.429 -0.2665 -0.3305  0.2001
 7828SOL    HW234944   0.387   4.091   8.475 -3.1355  2.0918 -0.4558
 7829SOL     OW34945   1.807   2.646  14.580 -0.0776 -0.1423 -0.0609
 7829SOL    HW134946   1.822   2.558  14.546 -0.6806  0.3969 -1.7398
 7829SOL    HW234947   1.869   2.684  14.517 -0.6883  0.1855 -0.4686
 7830SOL     OW34948   0.787   4.092  14.655  0.1122 -0.6397 -0.6432
 7830SOL    HW134949   0.799   4.155  14.725  1.1443  1.3505 -2.6163
 7830SOL    HW234950   0.749   4.142  14.583 -0.9225  0.8281  0.9327
 7831SOL     OW34951   0.319   4.677   5.835 -0.4524 -0.2638 -0.3843
 7831SOL    HW134952   0.228   4.694   5.810 -0.1225 -0.1601 -1.5224
 7831SOL    HW234953   0.360   0.020   5.776 -0.1754  1.0540  1.2341
 7832SOL     OW34954   1.528   3.560   4.778 -0.6237  0.2982 -0.2630
 7832SOL    HW134955   1.454   3.542   4.835 -0.3140  2.8409  0.9612
 7832SOL    HW234956   1.520   3.650   4.746 -1.4386  1.2599  2.6858
 7833SOL     OW34957   0.382   2.250   7.521 -0.4421  1.4525  0.5143
 7833SOL    HW134958   0.342   2.171   7.484  0.9455  0.2751  1.5392
 7833SOL    HW234959   0.383   2.301   7.440 -1.8090  2.0876  0.8946
 7834SOL     OW34960   0.311   3.454   8.185  0.0813 -0.1683 -0.2823
 7834SOL    HW134961   0.304   3.365   8.152 -2.0448 -0.9118  2.1543
 7834SOL    HW234962   0.387   3.489   8.139 -0.6005 -0.5154 -1.6649
 7835SOL     OW34963   2.430   2.969   3.495  0.0587 -0.0978 -0.3032
 7835SOL    HW134964   2.482   3.046   3.473 -2.5958  1.6800 -0.3613
 7835SOL    HW234965   2.338   2.990   3.506 -0.2540 -1.2214 -0.7567
 7836SOL     OW34966   1.036   2.978   3.199 -0.2452 -0.7049  0.1920
 7836SOL    HW134967   1.085   2.900   3.225  1.1081  0.6309  1.6443
 7836SOL    HW234968   1.106   3.038   3.170 -0.8409 -0.1930 -0.1762
 7837SOL     OW34969   4.231   2.196   1.334 -0.3530 -0.1267 -0.6116
 7837SOL    HW134970   4.177   2.264   1.374  0.6783  1.8852 -2.6432
 7837SOL    HW234971   4.170   2.141   1.286 -2.3365  0.4872  1.1967
 7838SOL     OW34972   2.463   2.406   3.851 -0.1035 -0.6373  0.0076
 7838SOL    HW134973   2.528   2.427   3.784  2.1861 -0.4062  2.2933
 7838SOL    HW234974   2.410   2.485   3.856  1.3659  0.3736 -0.3567
 7839SOL     OW34975   0.616   2.480   4.469 -1.1279 -0.1628  0.6471
 7839SOL    HW134976   0.662   2.547   4.418  1.5704 -1.7997  0.9137
 7839SOL    HW234977   0.656   2.504   4.553 -0.0592 -0.4690  0.2326
 7840SOL     OW34978   3.737   3.027   6.692 -0.4345 -0.8730 -0.3336
 7840SOL    HW134979   3.757   2.936   6.668  0.4426 -0.8463  0.3018
 7840SOL    HW234980   3.795   3.077   6.634  0.4057  0.8182  1.9779
 7841SOL     OW34981   2.764   1.621   6.076  0.2727 -0.2496  0.6776
 7841SOL    HW134982   2.859   1.623   6.070  0.3109  0.6146  1.4982
 7841SOL    HW234983   2.753   1.531   6.045  0.5576  0.0235 -0.2231
 7842SOL     OW34984   0.141   2.153   3.025  0.2569 -0.6186  0.2079
 7842SOL    HW134985   0.122   2.059   3.019  0.0830 -0.4052 -2.4546
 7842SOL    HW234986   0.170   2.176   2.937  2.0329  0.5171  1.0983
 7843SOL     OW34987   0.364   0.499   0.994 -0.3905  0.0515  0.6327
 7843SOL    HW134988   0.437   0.498   1.056  0.4751  0.9976 -0.3734
 7843SOL    HW234989   0.294   0.524   1.053 -0.1475 -1.8526  1.7270
 7844SOL     OW34990   4.235   1.652   6.408 -0.5633  0.7684  0.6154
 7844SOL    HW134991   4.222   1.605   6.491 -1.3831  2.2512  1.3446
 7844SOL    HW234992   4.317   1.611   6.380 -1.7634  1.0466 -3.2670
 7845SOL     OW34993   4.294   1.234  14.179 -0.0536 -0.5358  0.6585
 7845SOL    HW134994   4.292   1.211  14.086  1.3394 -1.2253  0.7926
 7845SOL    HW234995   4.214   1.286  14.184  1.5660  2.2852 -2.5697
 7846SOL     OW34996   0.967   3.071   8.672 -0.4566  0.0264 -0.0244
 7846SOL    HW134997   0.996   3.139   8.612 -0.3238  0.7282  0.8328
 7846SOL    HW234998   0.879   3.105   8.692 -0.3672 -0.1880  0.7374
 7847SOL     OW34999   4.269   2.504   3.256  0.1524 -0.6718 -1.0751
 7847SOL    HW135000   4.331   2.573   3.280 -0.6534 -0.6056  0.8588
 7847SOL    HW235001   4.291   2.438   3.323  0.9069  2.0175  1.3375
 7848SOL     OW35002   4.382   2.362   0.176 -0.1922  0.1681  0.4142
 7848SOL    HW135003   4.393   2.267   0.183 -1.4879  0.0336  0.7449
 7848SOL    HW235004   4.444   2.385   0.107 -1.4615 -0.0253 -0.7883
 7849SOL     OW35005   0.791   3.352   9.208 -0.1643 -0.3018  0.3564
 7849SOL    HW135006   0.826   3.349   9.297 -0.7348  2.5847  0.7002
 7849SOL    HW235007   0.763   3.261   9.205  1.9343 -0.8861 -1.0602
 7850SOL     OW35008   0.356   1.406   8.289 -0.6165  0.2937  0.3878
 7850SOL    HW135009   0.275   1.398   8.339 -0.8378 -0.4629 -0.0918
 7850SOL    HW235010   0.414   1.408   8.364 -0.2348 -0.8065  0.1183
 7851SOL     OW35011   3.227   4.541   2.695 -0.0391 -0.2697 -0.5651
 7851SOL    HW135012   3.305   4.570   2.743 -0.4705 -0.2513  0.1299
 7851SOL    HW235013   3.232   4.448   2.714  0.2381  0.1600  1.4692
 7852SOL     OW35014   0.679   0.114   0.238 -0.3352 -0.3005 -0.3885
 7852SOL    HW135015   0.755   0.164   0.207  0.2865 -0.3136  1.1237
 7852SOL    HW235016   0.620   0.125   0.163 -0.0872 -0.6263 -0.6317
 7853SOL     OW35017   3.525   4.009   3.529  0.2961  0.4068  0.1229
 7853SOL    HW135018   3.485   3.923   3.515 -0.6841  0.9691 -0.5511
 7853SOL    HW235019   3.463   4.068   3.485  0.0940 -1.3149 -1.8832
 7854SOL     OW35020   1.356   1.965  17.678  0.0196  0.4234  0.2956
 7854SOL    HW135021   1.426   1.900  17.669 -0.9074 -0.4919 -0.2871
 7854SOL    HW235022   1.390   2.011   0.069  1.8384  0.5350 -0.5955
 7855SOL     OW35023   4.323   1.226   0.540  0.2440 -0.5255 -0.3481
 7855SOL    HW135024   4.280   1.263   0.464  0.0532 -0.8138 -0.3809
 7855SOL    HW235025   4.409   1.268   0.535 -0.5666  1.4356  2.3066
 7856SOL     OW35026   2.229   3.055  10.977  0.5898  0.7251  0.9091
 7856SOL    HW135027   2.157   3.118  10.987  0.6131  1.1428 -1.5731
 7856SOL    HW235028   2.229   3.043  10.882 -1.0829  2.2287  0.7063
 7857SOL     OW35029   1.170   4.304  15.639  0.0071 -0.6442  0.4981
 7857SOL    HW135030   1.251   4.305  15.589  0.9716  0.7266  2.1067
 7857SOL    HW235031   1.190   4.297  15.732  1.5228  0.3276  0.2440
 7858SOL     OW35032   3.342   2.587   7.005 -0.1227  0.5308 -0.2366
 7858SOL    HW135033   3.276   2.656   7.017  0.7922  1.5133 -0.8285
 7858SOL    HW235034   3.284   2.514   6.987 -0.1282  0.3429  0.5172
 7859SOL     OW35035   2.988   1.680   2.113  0.9008 -0.5874  0.0843
 7859SOL    HW135036   3.004   1.675   2.019  2.6229  5.2198  0.0660
 7859SOL    HW235037   3.072   1.645   2.141  0.7460 -0.9670  0.0794
 7860SOL     OW35038   3.228   1.553   4.108  0.1064 -0.3587 -0.0418
 7860SOL    HW135039   3.164   1.587   4.170  0.0600 -0.2749 -0.1349
 7860SOL    HW235040   3.291   1.520   4.172 -1.1462 -2.8441 -0.0551
 7861SOL     OW35041   3.462   2.967   9.301  0.3193  0.1770  0.0671
 7861SOL    HW135042   3.401   2.923   9.360 -3.0926  5.9090  0.7984
 7861SOL    HW235043   3.509   3.024   9.362  1.3849 -2.3454  1.6112
 7862SOL     OW35044   3.089   1.268  16.257  0.1365 -0.1499  0.1839
 7862SOL    HW135045   3.022   1.221  16.208 -0.5996  0.0823  0.9634
 7862SOL    HW235046   3.125   1.305  16.176 -0.0473  0.3796  0.3475
 7863SOL     OW35047   3.652   2.217   7.534 -0.2375 -0.0063 -0.4020
 7863SOL    HW135048   3.736   2.229   7.488 -0.2014 -0.8139 -0.5534
 7863SOL    HW235049   3.678   2.257   7.617 -2.6171 -0.5150  0.5854
 7864SOL     OW35050   0.263   1.775  10.730  0.0337 -0.2575 -0.2672
 7864SOL    HW135051   0.184   1.762  10.783  0.2595 -1.7463 -0.2882
 7864SOL    HW235052   0.322   1.758  10.804 -1.0537  2.1423  1.1764
 7865SOL     OW35053   0.394   1.748  14.386  0.2001 -0.4811 -0.4721
 7865SOL    HW135054   0.426   1.833  14.355 -0.9273  0.3116  0.5382
 7865SOL    HW235055   0.474   1.696  14.389  0.6299  0.1534 -0.9332
 7866SOL     OW35056   0.942   2.479   5.943 -0.9871  0.1715  0.0509
 7866SOL    HW135057   0.853   2.472   5.908 -0.8307  1.0312 -0.5096
 7866SOL    HW235058   0.983   2.537   5.879 -2.1583  0.8896 -0.0504
 7867SOL     OW35059   1.480   2.681   1.922 -0.1111 -0.2974  0.3804
 7867SOL    HW135060   1.555   2.649   1.872  0.1064 -0.5988  0.9026
 7867SOL    HW235061   1.446   2.751   1.867 -0.3716 -0.3961  0.4177
 7868SOL     OW35062   2.747   4.062   5.518 -0.7208 -0.3303  0.2287
 7868SOL    HW135063   2.827   4.087   5.564  0.0691 -2.5213  0.0542
 7868SOL    HW235064   2.791   4.070   5.433 -0.1757 -0.3163  0.5137
 7869SOL     OW35065   2.112   3.590   0.270  0.2797 -0.4541 -0.2464
 7869SOL    HW135066   2.165   3.516   0.300  0.0599 -0.0231  1.2025
 7869SOL    HW235067   2.156   3.659   0.319  0.0298  0.2735 -1.0445
 7870SOL     OW35068   1.345   4.161   8.873  0.2269  0.0726 -0.3046
 7870SOL    HW135069   1.345   4.173   8.968  1.7378  1.0606 -0.4226
 7870SOL    HW235070   1.278   4.221   8.842 -0.3257  0.0642  0.8739
 7871SOL     OW35071   2.849   4.090   4.422 -0.1038 -0.8083 -0.2195
 7871SOL    HW135072   2.863   4.175   4.380  0.3547 -2.1481 -2.7531
 7871SOL    HW235073   2.810   4.125   4.502  2.0887  0.2065  0.4135
 7872SOL     OW35074   4.566   3.907  10.240  0.0500 -0.2844  0.2857
 7872SOL    HW135075   4.568   3.995  10.203 -0.4397 -0.0661  0.7859
 7872SOL    HW235076   4.471   3.898  10.250 -0.0736  0.9256  0.2295
 7873SOL     OW35077   1.342   3.247  16.198 -0.0318  0.1403 -0.3496
 7873SOL    HW135078   1.297   3.218  16.278 -1.2277  1.2912 -0.6056
 7873SOL    HW235079   1.393   3.320  16.233 -1.5880  0.2495  1.7367
 7874SOL     OW35080   2.143   0.736   8.915 -0.3217  0.1100  0.3945
 7874SOL    HW135081   2.166   0.823   8.882  2.6826 -0.7057  0.3823
 7874SOL    HW235082   2.226   0.708   8.954 -0.1750  1.6424  1.1624
 7875SOL     OW35083   1.856   4.411   4.181 -0.0960 -0.3487  0.6660
 7875SOL    HW135084   1.823   4.338   4.128  5.4833 -2.6889  0.3519
 7875SOL    HW235085   1.913   4.362   4.240 -0.0390 -1.0105  0.0588
 7876SOL     OW35086   0.299   2.720  14.472 -0.1731  0.5571  0.1433
 7876SOL    HW135087   0.357   2.793  14.448  0.8859 -0.8732 -1.5976
 7876SOL    HW235088   0.217   2.770  14.466  0.7393  2.1847  1.3239
 7877SOL     OW35089   3.039   0.689  11.308 -0.0793 -0.3390 -0.3377
 7877SOL    HW135090   3.095   0.682  11.230 -1.9602  0.3966 -1.7400
 7877SOL    HW235091   3.054   0.782  11.324  0.0252 -0.3005 -0.6547
 7878SOL     OW35092   4.031   0.866   2.430 -0.2376 -0.0823  0.3128
 7878SOL    HW135093   4.117   0.852   2.468  0.6599  0.5952 -1.4807
 7878SOL    HW235094   4.049   0.886   2.338 -1.2729 -0.1603  0.0889
 7879SOL     OW35095   1.004   2.597  14.486 -0.0418  0.1637 -0.5517
 7879SOL    HW135096   1.008   2.565  14.576  0.7024  1.5895 -0.0766
 7879SOL    HW235097   1.089   2.560  14.461 -0.3585 -0.4369 -0.7533
 7880SOL     OW35098   2.055   0.168   8.020  0.0265  0.3409  0.1772
 7880SOL    HW135099   2.083   0.259   8.009  0.1964  0.1415 -1.1043
 7880SOL    HW235100   2.012   0.176   8.105 -0.7215 -2.3207  0.0364
 7881SOL     OW35101   2.795   3.989  10.455 -0.0817 -0.1046 -0.2183
 7881SOL    HW135102   2.829   3.925  10.518 -2.5061 -0.2604  0.9451
 7881SOL    HW235103   2.709   4.018  10.485  0.8279  2.0962  0.2455
 7882SOL     OW35104   0.506   1.719   7.287 -0.3579  0.0716  0.0423
 7882SOL    HW135105   0.451   1.652   7.327  0.4963 -0.6256  0.0453
 7882SOL    HW235106   0.521   1.774   7.363 -1.0780  2.0202 -1.2298
 7883SOL     OW35107   0.287   3.227  17.430 -0.2075  0.2824  0.3439
 7883SOL    HW135108   0.219   3.232  17.364  2.9509  1.7908 -2.7976
 7883SOL    HW235109   0.353   3.288  17.398  0.5968 -0.3154  0.8434
 7884SOL     OW35110   1.760   0.746  13.118  0.1651 -0.7753 -0.1630
 7884SOL    HW135111   1.684   0.804  13.125  1.5095  0.9070  0.5059
 7884SOL    HW235112   1.754   0.702  13.203  1.9073 -1.6004 -0.4878
 7885SOL     OW35113   0.878   2.413   8.351  0.0603  0.1681 -0.4112
 7885SOL    HW135114   0.888   2.355   8.427  0.9636  2.4442  1.2131
 7885SOL    HW235115   0.804   2.375   8.305  1.6052 -2.1315 -1.0337
 7886SOL     OW35116   1.793   3.560   8.157  0.0236 -0.1046 -0.5675
 7886SOL    HW135117   1.863   3.495   8.160  0.6410  0.5780 -0.1241
 7886SOL    HW235118   1.833   3.627   8.102 -1.4936  0.8507 -0.5164
 7887SOL     OW35119   0.653   3.544   2.458  0.7668 -0.0784 -0.1690
 7887SOL    HW135120   0.744   3.549   2.489  0.2734 -0.4057  1.3285
 7887SOL    HW235121   0.670   3.537   2.364  0.0924 -1.7429 -0.1611
 7888SOL     OW35122   0.269   4.714   1.510 -0.5413  0.0636  0.4519
 7888SOL    HW135123   0.216   4.659   1.452 -0.3848  1.1471 -0.7286
 7888SOL    HW235124   0.343   4.656   1.530  0.9606  0.5870 -3.5103
 7889SOL     OW35125   0.117   0.698   0.921 -0.5656 -0.1231  0.3434
 7889SOL    HW135126   0.124   0.695   1.016  1.0367 -2.5944  0.1413
 7889SOL    HW235127   0.090   0.613   0.885 -1.0939  0.8584 -1.6190
 7890SOL     OW35128   1.972   3.319   1.786  0.0889 -0.0270  0.0404
 7890SOL    HW135129   1.938   3.404   1.756  0.0643  0.0333  0.2442
 7890SOL    HW235130   2.052   3.316   1.732 -0.2335 -1.6012 -0.3377
 7891SOL     OW35131   0.120   2.107   4.285  0.2781  0.2524 -0.0526
 7891SOL    HW135132   0.155   2.112   4.374  1.4544 -2.2523 -0.3769
 7891SOL    HW235133   0.165   2.032   4.244  0.8280 -0.5857  2.0520
 7892SOL     OW35134   3.133   0.193   2.167 -0.1569  0.0260 -0.5181
 7892SOL    HW135135   3.088   0.179   2.250 -0.9235  0.0806 -0.9279
 7892SOL    HW235136   3.072   0.229   2.103 -0.5072  2.1750  1.0264
 7893SOL     OW35137   1.240   2.235  11.421  0.0828  0.4749  0.0375
 7893SOL    HW135138   1.305   2.264  11.357 -1.0588  0.1561 -1.2835
 7893SOL    HW235139   1.176   2.212  11.353  1.2711 -1.4090 -0.4691
 7894SOL     OW35140   3.712   1.429   8.975 -0.4241 -0.4211  0.2337
 7894SOL    HW135141   3.633   1.439   9.027  0.6508  3.8782  1.0410
 7894SOL    HW235142   3.724   1.507   8.921  0.7459 -0.3549  0.5821
 7895SOL     OW35143   0.313   0.417  15.417 -0.4502  0.5490 -0.0163
 7895SOL    HW135144   0.325   0.483  15.485 -0.1939 -0.8700  1.3003
 7895SOL    HW235145   0.283   0.348  15.477 -3.5002  0.4960 -1.6028
 7896SOL     OW35146   2.801   0.528   1.449 -0.3757 -0.0618  0.3012
 7896SOL    HW135147   2.723   0.478   1.473 -1.7282  2.0876  0.4760
 7896SOL    HW235148   2.854   0.457   1.414 -0.0939  0.0582  0.4880
 7897SOL     OW35149   3.673   0.383  17.282 -0.1205 -0.1562  0.0459
 7897SOL    HW135150   3.624   0.452  17.326 -2.9301  0.0818 -3.5083
 7897SOL    HW235151   3.762   0.408  17.308 -0.8179  1.6512  0.7015
 7898SOL     OW35152   3.527   2.523   0.900 -0.1939  0.1855 -0.1825
 7898SOL    HW135153   3.553   2.489   0.986 -2.5895 -0.4071  0.3053
 7898SOL    HW235154   3.602   2.485   0.854 -0.2692 -1.5259  1.0832
 7899SOL     OW35155   0.768   3.763   4.411  0.0743  0.3813  0.3271
 7899SOL    HW135156   0.762   3.749   4.317  0.0891 -1.4403  0.5973
 7899SOL    HW235157   0.741   3.854   4.418 -3.7261 -0.7446  0.4039
 7900SOL     OW35158   3.697   4.047   6.513 -0.3121 -0.6165 -0.1549
 7900SOL    HW135159   3.652   3.963   6.511 -4.0726  1.3553  1.2448
 7900SOL    HW235160   3.653   4.090   6.440 -0.9737  1.2143  1.3345
 7901SOL     OW35161   4.497   4.233   2.058 -0.0336  0.4488  0.5391
 7901SOL    HW135162   4.562   4.188   2.111  0.5908 -0.9508 -1.4263
 7901SOL    HW235163   4.540   4.252   1.975  0.8160  0.4594  0.9887
 7902SOL     OW35164   2.803   3.359   3.424  0.0822 -0.6215 -0.3095
 7902SOL    HW135165   2.808   3.436   3.480  2.8438  0.3976 -1.9209
 7902SOL    HW235166   2.779   3.395   3.339  1.2812  0.5676 -0.1393
 7903SOL     OW35167   4.693   3.153   7.510 -0.1416  0.0041  0.1885
 7903SOL    HW135168   0.009   3.235   7.475  0.0288  0.3368  1.1266
 7903SOL    HW235169   4.607   3.186   7.535  0.9106  3.9911 -1.3543
 7904SOL     OW35170   1.855   0.579   9.727  0.4710 -0.1781 -0.3604
 7904SOL    HW135171   1.930   0.542   9.772  1.6263  2.7177  0.0879
 7904SOL    HW235172   1.806   0.626   9.794  0.4903  1.0392 -1.1777
 7905SOL     OW35173   3.319   3.697   8.353  0.5627 -0.0052 -0.5572
 7905SOL    HW135174   3.362   3.683   8.438 -1.7331  0.3621  0.6682
 7905SOL    HW235175   3.252   3.757   8.386  0.3196 -1.3270  1.3564
 7906SOL     OW35176   2.779   3.009   3.550 -0.1825 -0.3300  0.7924
 7906SOL    HW135177   2.818   2.981   3.633  0.9790  0.6721  0.5652
 7906SOL    HW235178   2.766   3.101   3.571  2.1862  0.4741 -1.3031
 7907SOL     OW35179   0.694   3.055   9.186 -0.0018 -0.4767  0.3031
 7907SOL    HW135180   0.737   3.028   9.104  0.5449  0.2464  0.3530
 7907SOL    HW235181   0.694   2.974   9.236  0.4056 -0.6552  0.0150
 7908SOL     OW35182   3.961   1.086  11.906  0.3565  0.6030  0.3879
 7908SOL    HW135183   3.879   1.097  11.859 -0.1043 -0.6633  0.9040
 7908SOL    HW235184   3.933   1.033  11.981  0.9650  1.5150  1.2574
 7909SOL     OW35185   1.320   2.896  12.209 -0.2749 -0.1247 -0.5141
 7909SOL    HW135186   1.381   2.969  12.203 -0.9425  0.5099  0.3464
 7909SOL    HW235187   1.265   2.930  12.280 -0.0891 -1.1504  0.1129
 7910SOL     OW35188   1.673   4.521  11.059  0.4274  0.3796 -0.4179
 7910SOL    HW135189   1.701   4.430  11.073 -0.2279  0.3210  0.5166
 7910SOL    HW235190   1.740   4.547  10.997  1.1769  1.1471  0.7138
 7911SOL     OW35191   1.019   3.816  11.491  0.4478  0.0813  0.0540
 7911SOL    HW135192   1.000   3.722  11.489 -1.0669  0.4138 -2.5533
 7911SOL    HW235193   1.032   3.829  11.397  0.0345  0.7177  0.0813
 7912SOL     OW35194   4.709   2.753  13.981 -0.2713 -0.2295  0.1803
 7912SOL    HW135195   0.065   2.718  14.026  0.9763  3.5601  0.9977
 7912SOL    HW235196   0.025   2.826  13.931 -0.6554 -0.8818 -1.0585
 7913SOL     OW35197   0.872   4.060   3.452 -0.0066 -0.3818 -0.1302
 7913SOL    HW135198   0.851   4.033   3.541 -0.4786  0.3832 -0.0070
 7913SOL    HW235199   0.811   4.134   3.453  1.2106  0.6198  0.2602
 7914SOL     OW35200   4.255   3.885   0.876 -0.1430 -0.1199 -0.0299
 7914SOL    HW135201   4.162   3.901   0.894  0.3282 -0.2356  2.5105
 7914SOL    HW235202   4.272   3.794   0.899  2.3194  1.1637  3.1999
 7915SOL     OW35203   1.221   2.068   0.502 -0.1095  0.2073  0.1401
 7915SOL    HW135204   1.284   2.126   0.545  1.1232 -1.4061  0.5121
 7915SOL    HW235205   1.230   2.085   0.408 -1.1023 -1.4026 -0.2310
 7916SOL     OW35206   1.023   2.013   3.102 -0.1945 -0.1204  0.4010
 7916SOL    HW135207   1.063   1.928   3.084 -0.5536 -0.5247  1.5275
 7916SOL    HW235208   1.104   2.065   3.095  0.2698 -1.0719 -1.3992
 7917SOL     OW35209   1.457   1.622  11.779  0.7040  0.8786  0.2665
 7917SOL    HW135210   1.433   1.662  11.863 -1.8783 -1.0888  0.4475
 7917SOL    HW235211   1.431   1.687  11.714 -1.4661  1.6578  1.9068
 7918SOL     OW35212   0.992   0.590   2.248 -0.5053  0.5046 -0.1557
 7918SOL    HW135213   1.065   0.614   2.191  1.1126  1.1968  2.2238
 7918SOL    HW235214   0.987   0.658   2.315  2.8098  0.0778  0.4871
 7919SOL     OW35215   2.328   3.097  10.127  0.4035  0.0049 -0.0815
 7919SOL    HW135216   2.413   3.084  10.169  0.4633 -0.0696 -0.2235
 7919SOL    HW235217   2.348   3.061  10.041 -0.9527  0.4170 -0.5677
 7920SOL     OW35218   4.165   3.488   2.568  0.4857  0.4977  0.7458
 7920SOL    HW135219   4.121   3.460   2.648  1.2441  0.6496  1.2149
 7920SOL    HW235220   4.095   3.549   2.544  0.4548 -0.2084 -0.9374
 7921SOL     OW35221   0.925   0.095   7.040 -0.3770 -0.1276  0.5049
 7921SOL    HW135222   0.938   0.166   6.977  0.5128 -0.5285  0.2343
 7921SOL    HW235223   0.915   0.018   6.985  2.0710  0.4873 -0.8127
 7922SOL     OW35224   1.132   1.412  13.602 -0.6118 -0.2330 -0.0116
 7922SOL    HW135225   1.064   1.479  13.617  1.2609  1.8161 -0.7356
 7922SOL    HW235226   1.155   1.391  13.692  0.2505 -0.4898 -0.3027
 7923SOL     OW35227   1.971   0.795  12.729 -0.9273  0.1944  0.7178
 7923SOL    HW135228   2.048   0.738  12.733 -0.9590 -0.0153 -2.0373
 7923SOL    HW235229   1.985   0.856  12.657 -0.2828 -0.8609 -0.0488
 7924SOL     OW35230   1.327   2.239   8.074 -0.2358 -0.4318  0.8546
 7924SOL    HW135231   1.411   2.195   8.078  0.6969  1.3207  0.5805
 7924SOL    HW235232   1.305   2.224   8.166 -0.4925 -1.6140  0.5955
 7925SOL     OW35233   3.118   0.465   6.543  0.3744 -0.0103 -0.1247
 7925SOL    HW135234   3.094   0.419   6.463  1.5978  2.5405 -1.9747
 7925SOL    HW235235   3.061   0.541   6.537 -0.0841 -0.3043  0.5119
 7926SOL     OW35236   0.188   0.983   8.321 -0.2475  0.8630  0.0239
 7926SOL    HW135237   0.175   0.930   8.243 -1.6805  0.1452  0.7534
 7926SOL    HW235238   0.110   0.954   8.368 -0.0236 -1.1785 -0.8470
 7927SOL     OW35239   2.906   1.353   2.352 -0.2698 -0.3744  0.1120
 7927SOL    HW135240   2.963   1.405   2.408  1.0993 -1.5348 -0.2210
 7927SOL    HW235241   2.872   1.419   2.293  0.6381  0.6004  0.6817
 7928SOL     OW35242   1.145   4.033   4.726 -0.0811  0.0751 -0.9908
 7928SOL    HW135243   1.173   4.027   4.818  2.9071  0.8708 -1.8196
 7928SOL    HW235244   1.059   4.073   4.733  0.0428  0.4761 -1.7975
 7929SOL     OW35245   3.543   2.238   2.105 -0.0173 -0.0636 -0.1880
 7929SOL    HW135246   3.552   2.160   2.160 -0.1370 -1.4440 -2.1011
 7929SOL    HW235247   3.631   2.273   2.115 -0.7341  1.6710 -0.0569
 7930SOL     OW35248   0.460   1.692   8.590  0.3544  0.6269 -0.1563
 7930SOL    HW135249   0.553   1.705   8.570  0.7880 -1.7907  0.3093
 7930SOL    HW235250   0.454   1.769   8.646  0.2765  1.0016 -0.6764
 7931SOL     OW35251   1.742   4.321   4.805 -0.1485  0.8331 -0.1552
 7931SOL    HW135252   1.804   4.385   4.839 -1.4743  2.2334 -0.3602
 7931SOL    HW235253   1.663   4.375   4.814 -0.3241  0.2753  1.6163
 7932SOL     OW35254   0.550   4.392   7.612 -0.4206  0.2099 -0.1565
 7932SOL    HW135255   0.501   4.314   7.585  2.1621 -1.3753 -0.2703
 7932SOL    HW235256   0.597   4.412   7.531 -3.7714  0.2104 -2.1298
 7933SOL     OW35257   0.923   0.912   4.591 -0.2035 -0.2062 -0.0083
 7933SOL    HW135258   0.965   0.830   4.567  0.5119  0.1429  0.0455
 7933SOL    HW235259   0.997   0.957   4.633  1.1112 -1.9019 -0.5011
 7934SOL     OW35260   0.614   0.769   3.897 -0.0120  0.9978  0.5410
 7934SOL    HW135261   0.561   0.842   3.930  0.3328  1.1487  0.7516
 7934SOL    HW235262   0.685   0.820   3.858 -0.5543  0.8431 -0.6677
 7935SOL     OW35263   2.704   1.024  15.539  0.0829  0.2871  0.1204
 7935SOL    HW135264   2.618   1.052  15.570 -0.9413 -1.9349 -0.6715
 7935SOL    HW235265   2.704   0.937  15.578  0.2402 -0.4580 -1.5260
 7936SOL     OW35266   0.471   3.164   6.797  0.2273 -0.1441 -0.0663
 7936SOL    HW135267   0.544   3.162   6.735  0.0369  1.8858 -0.3429
 7936SOL    HW235268   0.393   3.164   6.741 -2.4798 -1.4074  3.7261
 7937SOL     OW35269   1.513   1.908  14.740  0.3367  0.4030 -0.5736
 7937SOL    HW135270   1.509   1.813  14.734  0.4240  0.3332  0.5679
 7937SOL    HW235271   1.419   1.926  14.734 -0.4397 -3.3193  0.5600
 7938SOL     OW35272   2.464   4.300   9.685  0.4073  0.0276  0.2292
 7938SOL    HW135273   2.389   4.358   9.673  1.5178  1.5970  0.9256
 7938SOL    HW235274   2.449   4.236   9.615 -0.6969 -0.4267  0.8760
 7939SOL     OW35275   4.717   0.115   4.331  0.1263  0.7891 -0.1080
 7939SOL    HW135276   0.058   0.073   4.389 -1.1761 -0.5936  0.2679
 7939SOL    HW235277   4.650   0.137   4.396  0.3412 -0.9343  0.6941
 7940SOL     OW35278   2.224   3.011   3.065 -0.0418  0.0736  0.4354
 7940SOL    HW135279   2.197   2.992   3.155 -0.4584 -0.4897  0.1965
 7940SOL    HW235280   2.266   3.095   3.082  0.5595 -0.0665 -0.3490
 7941SOL     OW35281   0.047   4.718  16.328 -0.3731  0.0158  0.4362
 7941SOL    HW135282   0.008   0.005  16.415  0.6248  3.8302  0.5252
 7941SOL    HW235283   4.716   0.073  16.301  1.0678  1.1448  0.8712
 7942SOL     OW35284   1.873   4.009  13.285 -0.3875  0.4382 -0.2164
 7942SOL    HW135285   1.814   3.980  13.215 -0.4824 -0.3704  0.1922
 7942SOL    HW235286   1.939   4.049  13.228  0.9100  2.2648  2.5805
 7943SOL     OW35287   2.978   1.439   1.898 -0.5909 -0.6359  0.0266
 7943SOL    HW135288   3.038   1.511   1.879  0.5430 -1.5422  0.1506
 7943SOL    HW235289   3.041   1.373   1.929  0.9170  0.8823  0.1622
 7944SOL     OW35290   1.557   3.521   4.154  0.0300  0.2589 -0.5229
 7944SOL    HW135291   1.621   3.587   4.179  0.4747  0.6016 -2.5126
 7944SOL    HW235292   1.594   3.445   4.199  0.0413  0.9192  0.5687
 7945SOL     OW35293   4.500   4.290  11.264 -0.0295  0.4383 -0.3540
 7945SOL    HW135294   4.495   4.197  11.284 -1.6045 -0.1431 -3.3727
 7945SOL    HW235295   4.591   4.302  11.290 -0.0274 -0.8275  0.2241
 7946SOL     OW35296   0.064   1.911   1.022 -0.5988  0.2228 -0.6736
 7946SOL    HW135297   0.145   1.870   0.992 -0.5207  1.1540 -1.7285
 7946SOL    HW235298   0.107   1.991   1.052 -4.4858  1.5204  1.4236
 7947SOL     OW35299   4.508   0.984   9.381  0.0137  0.1085  0.2199
 7947SOL    HW135300   4.447   0.944   9.319 -1.5972 -0.1834  1.9949
 7947SOL    HW235301   4.566   1.045   9.336 -0.7206 -0.1315 -1.0741
 7948SOL     OW35302   0.295   0.736  13.345 -0.2326  0.1835 -0.1586
 7948SOL    HW135303   0.268   0.759  13.434  0.8725 -0.2497  0.2904
 7948SOL    HW235304   0.212   0.730  13.298 -1.9323 -0.2360  2.9342
 7949SOL     OW35305   1.494   3.287  16.646 -0.7175  0.2891 -0.4919
 7949SOL    HW135306   1.520   3.310  16.557  0.8636 -1.9125 -0.5955
 7949SOL    HW235307   1.573   3.309  16.695  0.0808 -2.6397 -0.4825
 7950SOL     OW35308   2.638   0.653   2.780 -0.4888  0.0305  0.4423
 7950SOL    HW135309   2.620   0.718   2.712  1.7763  0.8122  0.5599
 7950SOL    HW235310   2.615   0.565   2.751  2.2067 -0.8610  0.9511
 7951SOL     OW35311   4.018   2.043  16.890 -0.1053 -0.3775  0.1994
 7951SOL    HW135312   3.983   1.971  16.837  0.8166 -1.0834  0.5432
 7951SOL    HW235313   3.942   2.092  16.921 -0.8351 -1.1745 -0.3232
 7952SOL     OW35314   0.214   2.267   0.296  0.0593 -0.1626 -0.3363
 7952SOL    HW135315   0.247   2.279   0.207  1.7294 -0.1033  0.3027
 7952SOL    HW235316   0.132   2.318   0.296 -0.1059 -0.4277 -3.3406
 7953SOL     OW35317   2.860   1.062   4.347  0.3427  0.3470 -0.1695
 7953SOL    HW135318   2.866   0.983   4.295 -0.8201  0.0894  0.0872
 7953SOL    HW235319   2.797   1.112   4.296  0.7141 -0.4393 -1.4037
 7954SOL     OW35320   3.251   4.302   5.731 -0.2558 -0.1233  0.0929
 7954SOL    HW135321   3.343   4.321   5.748 -0.9736  1.5213  2.1369
 7954SOL    HW235322   3.207   4.358   5.795  0.3478  1.0280 -0.5011
 7955SOL     OW35323   3.966   0.683   5.627 -0.4453  0.3496  0.8470
 7955SOL    HW135324   3.986   0.609   5.684  0.0660 -0.6666 -0.6216
 7955SOL    HW235325   3.991   0.643   5.544  2.9385  0.6109  1.7564
 7956SOL     OW35326   4.554   4.559   2.044  0.2311 -0.0887  0.1438
 7956SOL    HW135327   4.580   4.543   2.135  0.7444 -0.8087 -0.1289
 7956SOL    HW235328   4.504   4.482   2.020 -0.0184 -0.0376  0.5025
 7957SOL     OW35329   4.546   1.576   2.795 -0.2100  0.2451  0.0935
 7957SOL    HW135330   4.524   1.631   2.870  0.6400  1.2933 -0.4240
 7957SOL    HW235331   4.492   1.620   2.729  0.7306 -0.5860 -1.2468
 7958SOL     OW35332   0.877   3.689   8.286 -0.4107 -0.1734  0.6063
 7958SOL    HW135333   0.824   3.639   8.348  0.3128  2.6802  3.4815
 7958SOL    HW235334   0.814   3.748   8.245  0.6159 -2.1330 -3.8528
 7959SOL     OW35335   2.534   4.412   7.328  0.5067  0.2320  0.2477
 7959SOL    HW135336   2.449   4.391   7.289  0.1434  0.0774  1.1271
 7959SOL    HW235337   2.543   4.337   7.387  2.5195  0.1196 -0.2367
 7960SOL     OW35338   4.174   2.891  11.601 -0.3718 -0.6659  0.0955
 7960SOL    HW135339   4.228   2.812  11.606 -0.1499 -0.7595 -3.4956
 7960SOL    HW235340   4.229   2.948  11.547 -1.5463 -1.1879 -1.6472
 7961SOL     OW35341   0.039   1.813   1.710 -0.6868 -0.2189  0.0823
 7961SOL    HW135342   4.665   1.801   1.710 -0.6118 -0.6396 -1.8740
 7961SOL    HW235343   0.070   1.734   1.755 -0.1600 -0.7770 -1.2856
 7962SOL     OW35344   4.199   2.224   0.669 -0.6780  0.3186 -0.7586
 7962SOL    HW135345   4.243   2.191   0.591  2.1366 -0.0877  0.9900
 7962SOL    HW235346   4.247   2.306   0.679  1.2914 -0.9714  0.4460
 7963SOL     OW35347   4.493   0.506   9.162 -0.1297 -0.4410  0.1214
 7963SOL    HW135348   4.543   0.427   9.144  0.1893 -0.6254  1.8786
 7963SOL    HW235349   4.548   0.578   9.129  0.9353 -0.9364  0.8275
 7964SOL     OW35350   3.136   1.920   0.281 -0.2473  0.6914 -0.2776
 7964SOL    HW135351   3.083   1.988   0.239 -1.6238  0.0505  0.4298
 7964SOL    HW235352   3.087   1.926   0.363  0.5895  4.2170  0.0039
 7965SOL     OW35353   4.479   3.301  15.859 -0.0521  0.0560  0.2240
 7965SOL    HW135354   4.533   3.237  15.813 -3.4297 -2.0675 -0.7428
 7965SOL    HW235355   4.528   3.383  15.851 -0.7596  0.6320  1.9058
 7966SOL     OW35356   2.354   2.255   2.726 -0.1743 -0.3257 -0.7076
 7966SOL    HW135357   2.287   2.189   2.744  0.4209 -0.3627  1.4116
 7966SOL    HW235358   2.429   2.225   2.777 -0.5754  0.6059  0.4424
 7967SOL     OW35359   0.361   1.694   0.310  0.2135  0.3143  0.2699
 7967SOL    HW135360   0.324   1.699   0.398 -1.2372  1.6907 -0.4218
 7967SOL    HW235361   0.334   1.779   0.275  0.5436 -0.1798 -1.2164
 7968SOL     OW35362   3.465   4.274   0.115 -0.0132  0.4509  0.1072
 7968SOL    HW135363   3.557   4.259   0.136 -0.1528  0.2739  0.6049
 7968SOL    HW235364   3.428   4.219   0.184  1.0085 -0.8009 -0.3637
 7969SOL     OW35365   3.068   2.244   5.226  0.0965 -0.3701 -0.0782
 7969SOL    HW135366   3.000   2.177   5.228 -1.9856  1.7382 -0.2651
 7969SOL    HW235367   3.151   2.198   5.238  0.3274  0.8093  3.0681
 7970SOL     OW35368   4.643   1.325  10.913  0.2088  0.3728 -0.2531
 7970SOL    HW135369   4.697   1.376  10.973  0.3158  1.3522 -1.1837
 7970SOL    HW235370   4.567   1.384  10.915  0.0388  0.1545 -0.2624
 7971SOL     OW35371   0.720   4.611   5.373 -0.6149 -0.1476  0.0821
 7971SOL    HW135372   0.676   4.581   5.453 -2.0338  0.9223 -0.2970
 7971SOL    HW235373   0.790   4.658   5.420 -1.4407  0.1136  1.0622
 7972SOL     OW35374   4.216   3.290   5.178 -0.1028 -0.0395 -0.0946
 7972SOL    HW135375   4.277   3.328   5.115 -0.1492  1.4190  0.7388
 7972SOL    HW235376   4.140   3.347   5.175 -0.6143 -0.6135  1.5204
 7973SOL     OW35377   3.066   0.092   9.076 -0.3357 -0.1254  0.4001
 7973SOL    HW135378   3.122   0.113   9.001 -1.9112 -0.4335 -0.8885
 7973SOL    HW235379   3.106   0.009   9.099 -0.9865 -1.0936 -1.9460
 7974SOL     OW35380   4.589   4.617   6.421 -0.1225  0.2848  0.7389
 7974SOL    HW135381   4.584   4.710   6.442  0.4285  0.6993 -0.9394
 7974SOL    HW235382   4.675   4.589   6.452 -1.1309 -1.8033  1.6778
 7975SOL     OW35383   2.037   4.357   4.707  0.2941  0.1114  0.3780
 7975SOL    HW135384   2.103   4.397   4.764  1.5528 -0.7911 -0.4385
 7975SOL    HW235385   2.000   4.429   4.657  1.9654  0.5671 -0.1988
 7976SOL     OW35386   3.053   0.401  13.536  0.5650  0.3342 -0.3869
 7976SOL    HW135387   3.137   0.367  13.505 -0.0279 -1.3183 -0.1950
 7976SOL    HW235388   2.996   0.403  13.458  2.4614  0.9855 -1.7557
 7977SOL     OW35389   3.184   0.253  11.784 -0.3230 -0.1945  0.3217
 7977SOL    HW135390   3.119   0.293  11.725  2.2367  2.8578 -0.3937
 7977SOL    HW235391   3.221   0.200  11.714  0.7177  1.0010 -0.0131
 7978SOL     OW35392   3.257   0.682   9.410  0.0033  0.0675  0.3546
 7978SOL    HW135393   3.332   0.710   9.462 -0.5104 -0.4756  1.3812
 7978SOL    HW235394   3.188   0.728   9.457  0.2489 -0.9458  1.6853
 7979SOL     OW35395   4.114   2.086   1.108 -0.9242 -0.0533 -0.0650
 7979SOL    HW135396   4.087   2.172   1.076  0.0684  1.0131  1.9654
 7979SOL    HW235397   4.160   2.051   1.032 -0.4008 -0.2547  0.3449
 7980SOL     OW35398   2.343   0.332   1.745  0.1179 -0.4803 -0.2846
 7980SOL    HW135399   2.300   0.327   1.831  1.0930 -0.5827  0.1984
 7980SOL    HW235400   2.332   0.244   1.710 -0.5123 -1.0189  1.2609
 7981SOL     OW35401   3.099   2.404   9.387 -0.0202 -0.2608 -0.2108
 7981SOL    HW135402   3.063   2.456   9.459  0.3452 -0.3738  0.0528
 7981SOL    HW235403   3.028   2.399   9.323  0.8448 -0.5237 -1.1352
 7982SOL     OW35404   3.538   0.777   7.330  0.9704 -0.1261  0.1518
 7982SOL    HW135405   3.518   0.818   7.414 -0.1488 -0.7044  0.1815
 7982SOL    HW235406   3.576   0.851   7.283  0.9512 -0.7556 -0.8607
 7983SOL     OW35407   3.995   1.150   5.648 -0.2678 -0.6012 -0.4667
 7983SOL    HW135408   4.008   1.152   5.743  0.2283  1.7703 -0.6003
 7983SOL    HW235409   3.946   1.068   5.636 -0.6833 -0.4909  0.4118
 7984SOL     OW35410   1.717   4.248   8.453 -0.2954  0.4600  0.7004
 7984SOL    HW135411   1.737   4.341   8.457  0.4546  0.2840  0.8672
 7984SOL    HW235412   1.648   4.254   8.519 -1.4456 -0.1515 -0.4454
 7985SOL     OW35413   3.331   4.717   6.866  0.3922  0.0616  0.7290
 7985SOL    HW135414   3.288   4.709   6.781 -0.5591  0.9694  1.1249
 7985SOL    HW235415   3.268   4.675   6.925 -0.5510 -0.0956 -0.3999
 7986SOL     OW35416   3.665   3.110  11.325  0.2339 -0.0650 -0.5320
 7986SOL    HW135417   3.699   3.023  11.347 -0.1681  0.0739  0.6377
 7986SOL    HW235418   3.725   3.163  11.378  1.6216 -0.0787 -2.0840
 7987SOL     OW35419   3.467   0.875   0.552 -0.8046  0.6511 -0.6443
 7987SOL    HW135420   3.439   0.916   0.634 -0.1371 -1.3655  0.6085
 7987SOL    HW235421   3.556   0.909   0.551 -0.4224 -0.3481 -0.8521
 7988SOL     OW35422   1.535   0.016   6.764 -0.2521 -0.1749  0.2292
 7988SOL    HW135423   1.577   4.658   6.730  0.5891  0.6299 -0.5835
 7988SOL    HW235424   1.451   0.024   6.720  1.8208  1.5178 -3.3739
 7989SOL     OW35425   3.018   0.535   4.838  0.2495  0.0671 -0.2628
 7989SOL    HW135426   3.056   0.616   4.806  1.5271 -0.3442  0.1806
 7989SOL    HW235427   2.937   0.571   4.874  0.1939 -0.1887 -0.1284
 7990SOL     OW35428   0.602   2.766   6.514 -0.0441 -0.5132  0.9815
 7990SOL    HW135429   0.514   2.802   6.519  0.1215  0.0865 -0.3452
 7990SOL    HW235430   0.591   2.702   6.443  0.4086  0.6331 -0.1399
 7991SOL     OW35431   0.203   3.809   8.818 -0.1498 -0.1428  0.2022
 7991SOL    HW135432   0.135   3.830   8.882 -0.0217 -3.1195  1.3289
 7991SOL    HW235433   0.286   3.843   8.852  0.4099 -1.4558  0.1602
 7992SOL     OW35434   1.747   0.690   4.446  0.4139  0.2563  0.3531
 7992SOL    HW135435   1.669   0.740   4.423 -0.2246 -0.5211  0.8256
 7992SOL    HW235436   1.710   0.602   4.439 -1.1927  0.9657  0.0145
 7993SOL     OW35437   0.984   2.200   4.271  0.2624 -0.0257  0.5220
 7993SOL    HW135438   0.992   2.295   4.256  0.1701 -0.1319 -0.2253
 7993SOL    HW235439   0.895   2.194   4.236  1.0619 -1.3058 -1.2890
 7994SOL     OW35440   1.767   3.179  13.204 -0.4316 -0.2410  0.3738
 7994SOL    HW135441   1.738   3.159  13.293 -1.2467 -0.7910 -0.0205
 7994SOL    HW235442   1.759   3.274  13.215  0.2107 -0.1324 -0.1323
 7995SOL     OW35443   3.769   3.356  10.628  0.5783 -0.0765 -0.5630
 7995SOL    HW135444   3.745   3.440  10.588  0.2202 -0.5525 -1.3668
 7995SOL    HW235445   3.828   3.386  10.697 -0.2732 -0.0039  0.1433
 7996SOL     OW35446   3.820   0.502   8.671 -0.4177  0.6659  0.3892
 7996SOL    HW135447   3.908   0.476   8.698 -0.4906  0.1571  0.1337
 7996SOL    HW235448   3.818   0.592   8.703 -4.8109  0.3786  0.8577
 7997SOL     OW35449   1.110   1.325   5.749 -0.0935 -0.3627 -0.3496
 7997SOL    HW135450   1.147   1.327   5.837  1.6096 -2.4648 -1.0406
 7997SOL    HW235451   1.088   1.233   5.734  2.5737 -0.9475 -0.6561
 7998SOL     OW35452   2.907   0.713   1.289 -0.2549 -0.9494  0.1388
 7998SOL    HW135453   2.879   0.650   1.356  0.7226 -1.7149 -0.1722
 7998SOL    HW235454   2.971   0.655   1.246  1.1630  0.0822  0.8759
 7999SOL     OW35455   3.595   3.788   3.862 -0.3993  0.4085  0.3394
 7999SOL    HW135456   3.667   3.766   3.803  0.6275 -0.7979  2.0104
 7999SOL    HW235457   3.614   3.718   3.925 -0.6053  1.0020  1.0717
 8000SOL     OW35458   3.282   2.244  11.176 -0.3603  0.5639 -0.1891
 8000SOL    HW135459   3.302   2.332  11.144  1.4927  0.6775  1.2479
 8000SOL    HW235460   3.306   2.251  11.268  1.4671  0.3789 -0.6424
 8001SOL     OW35461   4.592   0.089   1.913  0.1847  0.2978  0.4837
 8001SOL    HW135462   4.566   0.012   1.965  0.4529  0.8751  1.4771
 8001SOL    HW235463   4.601   0.165   1.970 -0.6970  1.3249 -0.7575
 8002SOL     OW35464   0.284   1.969   3.730  0.1410 -0.2923  0.1628
 8002SOL    HW135465   0.279   1.878   3.699  0.5650 -0.2196 -0.1162
 8002SOL    HW235466   0.192   1.984   3.753 -0.1380 -2.1302  0.2603
 8003SOL     OW35467   4.388   1.748   2.908  0.0131  0.3552  0.2527
 8003SOL    HW135468   4.363   1.834   2.943 -0.1242  0.0801  0.8169
 8003SOL    HW235469   4.303   1.725   2.871  0.1399 -1.0888  0.9002
 8004SOL     OW35470   0.171   0.943   8.051 -0.0571  0.1868  0.5341
 8004SOL    HW135471   0.266   0.947   8.063  0.0794  0.7476 -0.7339
 8004SOL    HW235472   0.160   1.029   8.011  1.5856  0.4922  0.7318
 8005SOL     OW35473   1.381   1.982   1.157 -0.2588  0.4229  0.4841
 8005SOL    HW135474   1.460   2.013   1.203 -0.0722 -1.4274  1.4139
 8005SOL    HW235475   1.418   1.905   1.115 -0.0352  1.5033 -1.2953
 8006SOL     OW35476   0.182   3.770   6.444  0.0034 -0.4608  0.1256
 8006SOL    HW135477   0.205   3.862   6.451 -0.3870 -0.6191  3.5017
 8006SOL    HW235478   0.204   3.730   6.528  0.2943 -1.3489 -0.3739
 8007SOL     OW35479   4.274   0.641   4.039  0.2921 -0.3759 -0.2207
 8007SOL    HW135480   4.201   0.665   4.096  0.7442  1.0514 -0.2636
 8007SOL    HW235481   4.303   0.725   4.004  0.9186  0.2078  1.6942
 8008SOL     OW35482   4.175   1.325   0.740 -0.1263 -0.1469 -0.0361
 8008SOL    HW135483   4.258   1.304   0.699 -0.5246 -0.6234 -0.5882
 8008SOL    HW235484   4.108   1.313   0.673  1.1333 -0.4247 -1.2507
 8009SOL     OW35485   0.323   0.837   0.302  0.2843 -0.0392  0.4160
 8009SOL    HW135486   0.275   0.920   0.295 -0.1345 -0.2022  1.3000
 8009SOL    HW235487   0.290   0.781   0.231  1.6934 -0.6357  0.2329
 8010SOL     OW35488   1.715   0.725   0.366 -0.2197  0.1593 -0.3061
 8010SOL    HW135489   1.790   0.667   0.354  0.9917  1.6008  0.2703
 8010SOL    HW235490   1.735   0.769   0.448 -1.9263  0.5612 -0.0960
 8011SOL     OW35491   1.886   2.270   2.894  0.4323  0.2323 -0.4264
 8011SOL    HW135492   1.923   2.185   2.875 -0.4700  0.1222 -1.6884
 8011SOL    HW235493   1.891   2.280   2.989 -0.3540 -0.2799 -0.3350
 8012SOL     OW35494   4.719   1.384   2.113  0.0433  0.9259  0.1171
 8012SOL    HW135495   0.057   1.310   2.124  0.4178  1.2892  0.5831
 8012SOL    HW235496   0.044   1.446   2.170  2.9750  0.9332 -2.2843
 8013SOL     OW35497   1.859   0.750  13.813  0.5856 -0.1242 -0.0505
 8013SOL    HW135498   1.803   0.691  13.864 -0.7096 -0.1637 -1.5348
 8013SOL    HW235499   1.862   0.824  13.873  1.2861  0.2551 -0.5497
 8014SOL     OW35500   1.095   2.082   7.268  0.0861  0.4536 -0.5717
 8014SOL    HW135501   1.090   1.987   7.253  0.4902  0.0264  2.1489
 8014SOL    HW235502   1.188   2.087   7.289  0.8835 -2.4084 -3.3747
 8015SOL     OW35503   1.167   1.236   4.332 -0.5619  0.0972 -0.5114
 8015SOL    HW135504   1.143   1.315   4.380  2.3304 -0.4479  1.7932
 8015SOL    HW235505   1.259   1.228   4.354 -0.8708 -3.0154 -0.3431
 8016SOL     OW35506   1.214   0.406   3.610 -0.5254  0.3162 -0.0943
 8016SOL    HW135507   1.133   0.357   3.620  1.0506 -2.6722 -1.7143
 8016SOL    HW235508   1.212   0.467   3.684 -1.4944 -0.4807  0.5300
 8017SOL     OW35509   0.620   3.625   5.787  0.0486  0.5841  0.4639
 8017SOL    HW135510   0.683   3.552   5.792  0.1229  0.6325  0.2409
 8017SOL    HW235511   0.556   3.572   5.739  0.8632 -1.3119  1.4538
 8018SOL     OW35512   1.759   1.318  11.752 -0.0798 -0.5947 -0.0453
 8018SOL    HW135513   1.709   1.374  11.692  0.6040  0.2036  0.1410
 8018SOL    HW235514   1.761   1.378  11.827  2.8832  1.5599 -1.8383
 8019SOL     OW35515   2.992   2.090  11.527  0.9453  0.9180  0.6538
 8019SOL    HW135516   3.069   2.054  11.571  1.5207 -1.0266 -1.9801
 8019SOL    HW235517   2.950   2.148  11.592  2.3317  0.5630  1.8676
 8020SOL     OW35518   0.773   0.996   1.893 -0.2988 -0.0483 -0.1398
 8020SOL    HW135519   0.846   1.013   1.833  0.7773  0.4141  1.2891
 8020SOL    HW235520   0.767   0.900   1.889  1.9360 -0.2353  0.7338
 8021SOL     OW35521   1.544   2.381   6.633 -0.5714  0.4171  0.3965
 8021SOL    HW135522   1.524   2.456   6.576  1.0463 -1.3356 -2.4696
 8021SOL    HW235523   1.454   2.363   6.660  0.1242 -0.8735  1.8216
 8022SOL     OW35524   0.758   3.531   6.330 -0.0038  0.0219  0.6328
 8022SOL    HW135525   0.795   3.585   6.261 -0.1086  0.2299  0.7393
 8022SOL    HW235526   0.831   3.524   6.392  0.2946 -1.9666  0.0761
 8023SOL     OW35527   2.455   3.850   3.313  0.2764  0.0158 -0.2815
 8023SOL    HW135528   2.531   3.905   3.292 -0.5382  0.9799 -0.7207
 8023SOL    HW235529   2.390   3.896   3.259 -0.3760 -1.7484 -0.9777
 8024SOL     OW35530   1.242   0.863   2.302 -0.5401 -0.5532 -0.4177
 8024SOL    HW135531   1.287   0.849   2.386  0.3860 -0.6424 -0.9280
 8024SOL    HW235532   1.255   0.957   2.292 -0.3925 -0.7709 -2.1566
 8025SOL     OW35533   3.639   0.695  14.915  0.4651 -0.4543 -0.0003
 8025SOL    HW135534   3.666   0.710  15.006 -2.7458  0.4520  0.7917
 8025SOL    HW235535   3.670   0.769  14.863  0.1748  0.0474  0.5489
 8026SOL     OW35536   1.009   1.033   4.230 -0.2099  0.2525  0.1363
 8026SOL    HW135537   0.992   1.012   4.322  0.5506 -0.7791  0.0366
 8026SOL    HW235538   1.072   1.104   4.238  1.2135 -1.0686  0.6709
 8027SOL     OW35539   1.841   2.798  10.085  0.3813 -0.9512 -0.6010
 8027SOL    HW135540   1.876   2.838  10.165 -0.1164 -1.2630 -0.2290
 8027SOL    HW235541   1.777   2.740  10.125 -2.2439  0.7885 -2.2960
 8028SOL     OW35542   2.004   1.363  16.044 -0.7827  0.5703 -0.0758
 8028SOL    HW135543   1.945   1.332  16.114 -0.2064  1.1164  0.6507
 8028SOL    HW235544   1.956   1.433  16.001 -3.3422 -2.1316 -1.7040
 8029SOL     OW35545   2.678   1.871   3.537  0.2033  0.5933  0.2057
 8029SOL    HW135546   2.663   1.779   3.558 -1.4680  0.6913 -0.5413
 8029SOL    HW235547   2.612   1.894   3.471  1.9826  1.1732 -1.3663
 8030SOL     OW35548   2.309   1.368   1.170 -0.1911 -0.0925  0.2866
 8030SOL    HW135549   2.386   1.417   1.141 -2.1191  1.8892 -1.4345
 8030SOL    HW235550   2.351   1.285   1.144 -0.1697 -0.3711  1.2164
 8031SOL     OW35551   4.648   3.982   4.375  0.3189  0.0895 -1.0106
 8031SOL    HW135552   4.666   3.982   4.281 -0.5617  3.5029 -1.1654
 8031SOL    HW235553   4.718   3.924   4.405  1.0390 -0.0219 -2.8679
 8032SOL     OW35554   3.338   0.179   2.480  0.0413 -0.2275 -0.5735
 8032SOL    HW135555   3.258   0.171   2.532  0.2266 -4.6364 -1.0197
 8032SOL    HW235556   3.315   0.256   2.427 -0.9502  0.9870  1.5993
 8033SOL     OW35557   1.535   1.334   5.292 -0.2574  0.9381 -0.0445
 8033SOL    HW135558   1.496   1.248   5.277  1.9027 -0.5354  2.7202
 8033SOL    HW235559   1.628   1.313   5.283 -0.8627 -2.1614  1.1417
 8034SOL     OW35560   2.734   0.758   1.640 -0.1847 -0.2102 -0.2867
 8034SOL    HW135561   2.717   0.684   1.699  2.2866 -1.0412 -0.6121
 8034SOL    HW235562   2.754   0.723   1.553  2.4782 -0.7289  0.5259
 8035SOL     OW35563   1.148   2.107  12.979  0.1732 -0.3543  0.4637
 8035SOL    HW135564   1.146   2.028  12.926 -1.7101 -0.3455  0.5122
 8035SOL    HW235565   1.067   2.156  12.962  1.8283  1.9286 -0.9121
 8036SOL     OW35566   4.181   2.841   0.891 -0.0525  0.4768  0.0971
 8036SOL    HW135567   4.091   2.821   0.865 -0.5781 -0.3082  2.4704
 8036SOL    HW235568   4.221   2.850   0.805 -1.7225  2.0999 -0.4904
 8037SOL     OW35569   2.321   4.032   6.177  0.0550  0.4791  0.2660
 8037SOL    HW135570   2.350   4.121   6.199 -0.5205  0.3221  1.6442
 8037SOL    HW235571   2.400   4.015   6.126  0.6767 -0.2953  1.5082
 8038SOL     OW35572   3.035   2.813   2.826 -0.3135  0.3067 -0.4605
 8038SOL    HW135573   2.986   2.767   2.894  2.3988 -0.1335  1.1849
 8038SOL    HW235574   3.118   2.818   2.874 -1.8392 -1.4338  2.3660
 8039SOL     OW35575   0.755   1.869   5.886 -0.5506 -0.1040 -0.5035
 8039SOL    HW135576   0.826   1.834   5.939 -1.2601 -0.8076 -0.0238
 8039SOL    HW235577   0.727   1.944   5.939 -0.3269 -2.6074  3.0722
 8040SOL     OW35578   4.420   3.885  15.504 -0.5006 -0.3351  0.0915
 8040SOL    HW135579   4.364   3.882  15.426 -1.2236 -0.7533  0.6321
 8040SOL    HW235580   4.357   3.925  15.563  0.4398  1.0848  0.1099
 8041SOL     OW35581   2.207   4.305   3.441 -0.1633 -0.4902 -0.1478
 8041SOL    HW135582   2.144   4.250   3.395 -0.3769  1.5007 -2.2709
 8041SOL    HW235583   2.180   4.284   3.531  0.0208  0.2416  0.0875
 8042SOL     OW35584   3.802   3.395   2.373 -0.2434 -0.1043 -0.2219
 8042SOL    HW135585   3.726   3.408   2.429 -0.1822 -1.0337  0.0801
 8042SOL    HW235586   3.869   3.448   2.417 -0.7964  0.4959 -0.1035
 8043SOL     OW35587   0.558   0.719   1.398 -0.1196 -0.5125  0.6493
 8043SOL    HW135588   0.602   0.669   1.466  1.4229 -1.0875 -0.7701
 8043SOL    HW235589   0.606   0.802   1.400 -1.2475  0.1421  0.8584
 8044SOL     OW35590   4.053   2.339   6.822 -0.0397  0.4395 -0.1440
 8044SOL    HW135591   4.128   2.352   6.765 -1.6482  1.7493 -1.9771
 8044SOL    HW235592   4.092   2.285   6.890  0.7932  1.3795  0.1064
 8045SOL     OW35593   4.643   0.945   7.635  0.5752  0.0156 -0.2413
 8045SOL    HW135594   4.615   0.912   7.549 -0.4004  0.1541  0.0241
 8045SOL    HW235595   4.568   0.987   7.677  0.3882 -2.3263  1.7889
 8046SOL     OW35596   3.394   3.492   3.215 -0.5580 -0.3483 -0.2510
 8046SOL    HW135597   3.359   3.424   3.157  0.5936 -0.8296 -0.3858
 8046SOL    HW235598   3.321   3.553   3.216  0.4138  0.8219 -2.1806
 8047SOL     OW35599   2.752   0.629   0.690 -0.6336  0.1470  0.2698
 8047SOL    HW135600   2.800   0.711   0.676 -0.1366 -0.1282  0.3417
 8047SOL    HW235601   2.665   0.663   0.673  0.0887  1.2820 -1.2452
 8048SOL     OW35602   0.239   4.030  11.338 -0.2203  0.6373  0.1570
 8048SOL    HW135603   0.264   3.939  11.352  1.1543  0.5887 -2.6846
 8048SOL    HW235604   0.261   4.038  11.245 -0.1509  0.3982  0.1538
 8049SOL     OW35605   1.686   2.849  15.681  0.1937 -0.2404  0.9643
 8049SOL    HW135606   1.656   2.918  15.740  1.1283  1.2246 -0.2769
 8049SOL    HW235607   1.614   2.786  15.687 -0.3522  0.2319 -0.6696
 8050SOL     OW35608   0.549   1.006   3.247 -0.0926  0.3270 -0.1827
 8050SOL    HW135609   0.528   0.926   3.198  2.1019  0.5153 -1.4156
 8050SOL    HW235610   0.636   0.994   3.284  0.0037  0.0871 -0.4822
 8051SOL     OW35611   3.608   4.343   1.530 -0.2708 -0.5676 -0.1828
 8051SOL    HW135612   3.635   4.364   1.441  1.8631  0.8636  0.8068
 8051SOL    HW235613   3.578   4.253   1.513  2.1418 -1.3003 -0.6110
 8052SOL     OW35614   0.687   4.659  15.871 -0.1587  0.3895  0.3670
 8052SOL    HW135615   0.669   4.565  15.869  1.8502  0.0203 -0.5275
 8052SOL    HW235616   0.634   4.677  15.949 -0.2866 -0.5514  0.5033
 8053SOL     OW35617   0.406   1.613  15.368 -0.0578  0.4413 -0.1173
 8053SOL    HW135618   0.492   1.654  15.361  2.5071 -4.8439  0.2774
 8053SOL    HW235619   0.356   1.691  15.392 -0.0046  0.6674 -0.7503
 8054SOL     OW35620   3.942   2.285   7.512  0.4056 -0.1232 -0.4946
 8054SOL    HW135621   3.997   2.360   7.536 -0.8952  0.5910  0.2542
 8054SOL    HW235622   4.014   2.223   7.512 -2.2541 -3.1913  1.0561
 8055SOL     OW35623   0.029   2.449   1.353  0.0128  0.1928 -0.1065
 8055SOL    HW135624   4.708   2.501   1.284  0.7281 -0.6970 -1.2169
 8055SOL    HW235625   0.065   2.510   1.417 -0.2682  0.3920 -0.1409
 8056SOL     OW35626   3.642   1.300   0.771  0.2263  0.6340  0.5408
 8056SOL    HW135627   3.548   1.314   0.782 -0.0140 -0.8962  0.5181
 8056SOL    HW235628   3.673   1.390   0.762  1.7529 -0.0467 -0.9939
 8057SOL     OW35629   3.168   1.015   3.603 -0.2481 -0.3658  0.2077
 8057SOL    HW135630   3.103   1.069   3.647  0.3374  0.7153 -0.2364
 8057SOL    HW235631   3.238   1.081   3.603  1.2354 -1.9388 -0.6733
 8058SOL     OW35632   0.976   0.441   4.367  0.2127 -0.2558 -0.1618
 8058SOL    HW135633   0.896   0.434   4.315  0.5038 -0.2903 -0.5981
 8058SOL    HW235634   0.955   0.389   4.444 -2.9127  2.0395  0.5456
 8059SOL     OW35635   4.356   0.924   4.462 -0.5757  0.3648  0.0132
 8059SOL    HW135636   4.412   0.989   4.504 -1.0144  1.0418 -0.4476
 8059SOL    HW235637   4.394   0.843   4.496 -0.2954  1.2541  1.8198
 8060SOL     OW35638   0.607   3.283   8.961 -0.0017 -0.1080 -0.7263
 8060SOL    HW135639   0.592   3.192   8.986  0.9754  0.3227  1.4704
 8060SOL    HW235640   0.605   3.335   9.042  0.2695 -0.2096 -0.6570
 8061SOL     OW35641   0.046   3.515   9.813  0.3958 -0.2274  0.2769
 8061SOL    HW135642   0.110   3.452   9.845 -1.7015 -3.1781 -1.2338
 8061SOL    HW235643   0.063   3.513   9.719 -1.0207  0.4774 -0.0002
 8062SOL     OW35644   0.487   4.159   0.500  0.2883 -1.0852 -0.1782
 8062SOL    HW135645   0.422   4.112   0.552  2.1713 -0.4913  2.7081
 8062SOL    HW235646   0.491   4.105   0.421  2.7015 -1.3874  0.1621
 8063SOL     OW35647   1.491   2.826   8.520  0.3233  0.3649  0.2629
 8063SOL    HW135648   1.536   2.829   8.604 -0.5000  1.7869  0.6436
 8063SOL    HW235649   1.498   2.733   8.496 -2.4421 -0.1893  1.5604
 8064SOL     OW35650   3.922   3.280  13.227 -0.3694  0.2781  0.2382
 8064SOL    HW135651   3.890   3.199  13.266 -3.9372  0.4262 -2.4057
 8064SOL    HW235652   3.914   3.347  13.295 -0.5583 -0.7850  1.2644
 8065SOL     OW35653   3.969   0.708  11.968 -0.2762  0.2006 -0.4360
 8065SOL    HW135654   3.882   0.675  11.945  0.4630  0.6959 -3.9748
 8065SOL    HW235655   3.998   0.731  11.880 -0.1080  0.3020 -0.3547
 8066SOL     OW35656   3.135   3.368   7.033 -0.2467  0.2969  0.6582
 8066SOL    HW135657   3.078   3.434   7.074 -0.3433  1.4712 -1.3981
 8066SOL    HW235658   3.163   3.322   7.113 -0.2812  0.5571  0.8211
 8067SOL     OW35659   1.419   0.965   4.093  0.4873  0.1489  0.2874
 8067SOL    HW135660   1.407   0.882   4.046  1.7251 -0.6730  1.4194
 8067SOL    HW235661   1.365   1.033   4.053  1.0151  0.5700  0.2853
 8068SOL     OW35662   0.369   2.579   8.842 -0.6735 -0.1306 -0.1142
 8068SOL    HW135663   0.395   2.608   8.755 -1.8755 -1.1946 -0.8299
 8068SOL    HW235664   0.363   2.484   8.833 -0.7007  0.1224 -2.6106
 8069SOL     OW35665   4.515   1.308   6.404 -0.0833  0.2831  0.0230
 8069SOL    HW135666   4.476   1.277   6.486 -4.3646  1.2563 -1.6177
 8069SOL    HW235667   4.605   1.277   6.410 -0.2249 -0.4597 -1.7822
 8070SOL     OW35668   0.061   2.281  14.841 -0.4283 -0.1752 -0.3469
 8070SOL    HW135669   0.087   2.268  14.750  0.7227 -0.6872  0.0597
 8070SOL    HW235670   4.690   2.253  14.842 -0.8080  1.0055 -2.4806
 8071SOL     OW35671   2.359   1.892  14.034  0.3009 -0.7316 -0.2334
 8071SOL    HW135672   2.432   1.942  14.070 -1.4399  2.0039 -0.4856
 8071SOL    HW235673   2.344   1.825  14.100 -1.4666  1.9114  2.0383
 8072SOL     OW35674   4.250   1.180   3.896  0.4604  0.2519  0.1096
 8072SOL    HW135675   4.195   1.218   3.827  2.5415  2.5538 -0.2704
 8072SOL    HW235676   4.332   1.198   3.851  0.2441 -0.2166 -0.4652
 8073SOL     OW35677   1.728   0.374   8.489 -0.2262 -0.3883 -0.1109
 8073SOL    HW135678   1.657   0.407   8.545  0.1988 -1.2473  0.9359
 8073SOL    HW235679   1.780   0.326   8.553  1.4510  0.3589 -0.9157
 8074SOL     OW35680   0.973   1.679   7.663 -0.4821  0.4237 -0.0781
 8074SOL    HW135681   1.062   1.683   7.698  0.3350 -0.5281 -2.0490
 8074SOL    HW235682   0.964   1.586   7.644 -1.7873  0.5951 -0.3165
 8075SOL     OW35683   1.402   3.143   1.544 -0.1462  0.3296  0.0500
 8075SOL    HW135684   1.416   3.120   1.452 -2.0508 -0.7064  0.0244
 8075SOL    HW235685   1.320   3.191   1.531 -0.4856 -0.7660 -1.8893
 8076SOL     OW35686   2.014   1.527   9.659 -0.0630 -0.0154 -0.3442
 8076SOL    HW135687   2.035   1.610   9.702  0.6295  0.4680 -1.6343
 8076SOL    HW235688   2.043   1.463   9.724 -0.2664 -0.7819 -0.9985
 8077SOL     OW35689   2.383   3.298   6.343  0.0883  0.3695 -0.3651
 8077SOL    HW135690   2.374   3.216   6.294  2.6431  0.3155 -0.7649
 8077SOL    HW235691   2.444   3.350   6.290 -2.9557  2.6988 -1.5943
 8078SOL     OW35692   1.448   2.493  11.508  0.3602  0.5135 -0.0260
 8078SOL    HW135693   1.365   2.533  11.532 -0.7089 -3.0266  2.2193
 8078SOL    HW235694   1.497   2.560  11.461  3.6864 -1.2984  0.8569
 8079SOL     OW35695   3.873   1.458   6.230  0.3561 -0.3378  0.3242
 8079SOL    HW135696   3.816   1.481   6.303 -1.0859 -0.5761 -0.7070
 8079SOL    HW235697   3.909   1.373   6.255 -0.8236 -0.9837 -0.1389
 8080SOL     OW35698   3.532   1.623   8.352  0.5895 -0.2993  0.2767
 8080SOL    HW135699   3.625   1.637   8.368  0.4283  0.7467  0.3349
 8080SOL    HW235700   3.531   1.597   8.260 -0.9780 -1.0903  0.5238
 8081SOL     OW35701   1.752   1.934   1.772 -0.1175  0.0386 -0.1197
 8081SOL    HW135702   1.727   1.849   1.807 -1.0612  1.3025  2.2974
 8081SOL    HW235703   1.842   1.949   1.801  0.2386 -0.3187 -1.0330
 8082SOL     OW35704   3.537   1.317   4.371 -0.4228 -0.4992 -0.6182
 8082SOL    HW135705   3.522   1.273   4.455  3.5673 -0.1702  0.2896
 8082SOL    HW235706   3.506   1.244   4.317  2.0469 -1.8704 -0.1795
 8083SOL     OW35707   2.128   1.173  14.323 -0.3819 -0.0231 -0.3216
 8083SOL    HW135708   2.083   1.138  14.247 -0.0338 -0.5736 -0.2760
 8083SOL    HW235709   2.104   1.114  14.395  1.1613  0.4532  0.5973
 8084SOL     OW35710   3.702   2.176   6.550  0.8650  0.0033  0.0977
 8084SOL    HW135711   3.717   2.094   6.596 -1.1353 -0.8887 -0.8240
 8084SOL    HW235712   3.736   2.227   6.624  1.6262  0.7086 -0.7471
 8085SOL     OW35713   1.413   3.234   7.678  0.1791  0.1560  0.8403
 8085SOL    HW135714   1.344   3.294   7.649  0.5497 -0.7274 -1.8564
 8085SOL    HW235715   1.488   3.291   7.693  0.2415  0.0991  0.7460
 8086SOL     OW35716   1.428   3.070   7.467 -0.1709 -0.4908 -1.0089
 8086SOL    HW135717   1.399   2.982   7.492 -1.2784  0.1777  0.0140
 8086SOL    HW235718   1.418   3.127   7.543  1.8844 -1.2242 -0.1759
 8087SOL     OW35719   3.118   0.738   4.308  0.1780 -0.6741 -0.3561
 8087SOL    HW135720   3.176   0.662   4.301 -0.3624 -0.8121 -3.3798
 8087SOL    HW235721   3.157   0.781   4.384  1.1185  0.4177 -1.4502
 8088SOL     OW35722   3.248   0.175  13.593  0.4818 -0.7562  0.1630
 8088SOL    HW135723   3.273   0.085  13.614  0.5064 -1.0098 -0.9241
 8088SOL    HW235724   3.155   0.177  13.614  0.4769 -2.6613  0.3516
 8089SOL     OW35725   1.139   2.234  14.356  0.2538 -0.0178  0.3767
 8089SOL    HW135726   1.200   2.167  14.384 -0.5026 -0.4443  1.0228
 8089SOL    HW235727   1.141   2.300  14.426  0.6549 -0.5150  0.8324
 8090SOL     OW35728   1.985   0.949   1.886 -0.1676  0.3755  0.2106
 8090SOL    HW135729   2.030   0.976   1.967  0.2716 -1.1428  0.4859
 8090SOL    HW235730   1.965   0.858   1.907  0.7592  0.1539  0.1478
 8091SOL     OW35731   0.095   1.947   4.005  0.6261 -0.2993  0.1251
 8091SOL    HW135732   0.170   1.888   4.010 -0.7562 -2.1052 -0.6039
 8091SOL    HW235733   0.109   2.013   4.073 -0.8020  0.8310 -0.6644
 8092SOL     OW35734   2.229   1.809   4.662  0.0185 -0.3689  0.2548
 8092SOL    HW135735   2.179   1.851   4.731  1.8746  0.1605  1.2529
 8092SOL    HW235736   2.256   1.725   4.698 -0.1796  0.2692  1.8796
 8093SOL     OW35737   2.773   3.511  13.717  0.3577  0.6112 -0.2777
 8093SOL    HW135738   2.794   3.529  13.625  1.3535  2.1481  0.2503
 8093SOL    HW235739   2.721   3.431  13.704 -0.2008  1.3620 -2.7200
 8094SOL     OW35740   0.371   0.305   1.229 -0.2287  0.6102  0.3059
 8094SOL    HW135741   0.382   0.265   1.143  1.1426  0.9459  0.3329
 8094SOL    HW235742   0.422   0.385   1.217  2.0859 -1.1041 -1.2222
 8095SOL     OW35743   3.755   1.326   4.863 -0.1735  0.5407  0.2488
 8095SOL    HW135744   3.750   1.384   4.940  1.4537  1.6390 -0.4651
 8095SOL    HW235745   3.830   1.271   4.885  0.3747  1.0228 -0.3722
 8096SOL     OW35746   3.497   2.922  13.617  0.2802  0.3844  0.1316
 8096SOL    HW135747   3.422   2.886  13.663 -0.5085  2.7990  0.7533
 8096SOL    HW235748   3.547   2.843  13.597  0.5466  0.9332 -1.3673
 8097SOL     OW35749   3.161   4.035   2.071 -0.1826  0.4574  0.5511
 8097SOL    HW135750   3.074   4.053   2.035  0.6916 -1.7280 -2.6847
 8097SOL    HW235751   3.198   4.122   2.056 -1.1424  0.7347 -0.2487
 8098SOL     OW35752   4.147   0.975   7.272  0.1565  0.2608  0.0689
 8098SOL    HW135753   4.188   0.890   7.256  0.3719  0.2337  0.7625
 8098SOL    HW235754   4.129   0.984   7.178  0.6520  0.7521  0.0260
 8099SOL     OW35755   3.157   1.021   5.749  0.4210 -0.4343 -0.2475
 8099SOL    HW135756   3.239   1.008   5.797  1.1462 -2.2082 -1.9929
 8099SOL    HW235757   3.119   1.084   5.810  1.4831 -1.4810  1.5145
 8100SOL     OW35758   0.778   1.413  11.634  0.2534  0.0512 -0.0200
 8100SOL    HW135759   0.725   1.345  11.675 -0.5694  1.2500  0.8961
 8100SOL    HW235760   0.802   1.369  11.553 -2.3762  1.7232 -1.6732
 8101SOL     OW35761   0.790   3.660  10.590 -0.1583  0.3255  0.0424
 8101SOL    HW135762   0.818   3.730  10.649  0.1032 -0.6011  1.0298
 8101SOL    HW235763   0.734   3.713  10.533 -0.6646 -1.6194 -1.2958
 8102SOL     OW35764   3.594   2.004  10.722 -0.8484 -0.1367  0.1227
 8102SOL    HW135765   3.530   1.936  10.741  0.7257 -1.7877 -0.5540
 8102SOL    HW235766   3.669   1.967  10.768 -1.8123 -1.5299  0.5812
 8103SOL     OW35767   1.169   4.233   4.296  0.5000 -0.1514 -0.3766
 8103SOL    HW135768   1.175   4.146   4.257  2.2065  0.7428 -2.1173
 8103SOL    HW235769   1.085   4.268   4.267  0.2878  0.3287  0.7882
 8104SOL     OW35770   2.721   3.161   4.257  0.0244  0.1395  0.0201
 8104SOL    HW135771   2.771   3.237   4.226  0.4338 -0.3944 -0.6197
 8104SOL    HW235772   2.645   3.155   4.200  0.9149  1.2330 -1.2960
 8105SOL     OW35773   0.134   4.355   4.329 -0.4291 -0.4545 -0.0400
 8105SOL    HW135774   0.088   4.351   4.412  1.6467  2.1079  1.2588
 8105SOL    HW235775   0.103   4.434   4.285  3.8030  0.3692 -1.6029
 8106SOL     OW35776   4.214   4.412  15.277  0.3157  0.0430  0.7888
 8106SOL    HW135777   4.153   4.360  15.226 -0.4798 -0.0380  1.8307
 8106SOL    HW235778   4.232   4.359  15.355 -1.3665  0.0372  1.1736
 8107SOL     OW35779   1.971   0.693   1.981  0.2286 -0.0574 -0.1241
 8107SOL    HW135780   2.042   0.640   1.946 -0.4859 -0.9932 -0.1764
 8107SOL    HW235781   1.904   0.647   1.930 -1.5303  0.5034  1.6734
 8108SOL     OW35782   4.440   1.368   8.301 -0.0546  0.0367  0.6447
 8108SOL    HW135783   4.431   1.385   8.394 -4.3295  2.6594 -0.2617
 8108SOL    HW235784   4.481   1.282   8.294 -2.8521 -1.1031 -1.7157
 8109SOL     OW35785   2.019   1.295   8.539  0.2588 -0.0427 -0.4596
 8109SOL    HW135786   2.110   1.295   8.567  0.0451 -0.6527  0.2371
 8109SOL    HW235787   2.019   1.247   8.456  0.3104  1.8647 -1.5535
 8110SOL     OW35788   2.510   1.902   4.856  0.3601  0.5027  0.0029
 8110SOL    HW135789   2.502   1.894   4.951 -2.3680  2.9113 -0.0229
 8110SOL    HW235790   2.442   1.965   4.832 -0.8202 -1.6791 -2.3161
 8111SOL     OW35791   0.476   0.332   7.001  0.2327 -0.0490  0.7631
 8111SOL    HW135792   0.494   0.382   6.921  1.5829 -0.7383  0.6365
 8111SOL    HW235793   0.388   0.299   6.986  0.6123  0.1296 -1.8568
 8112SOL     OW35794   4.550   3.645  16.669  0.1004  0.0348  0.3019
 8112SOL    HW135795   4.575   3.654  16.761  1.2641 -0.2115  0.0044
 8112SOL    HW235796   4.592   3.562  16.650 -0.5708 -0.6447  1.7642
 8113SOL     OW35797   2.900   1.462   6.444  0.2597 -0.5285 -0.0047
 8113SOL    HW135798   2.961   1.495   6.511  1.4182 -0.4744 -1.0780
 8113SOL    HW235799   2.955   1.416   6.381  1.2920  1.1802 -0.3492
 8114SOL     OW35800   0.185   3.386  11.028 -0.0628  0.0130 -0.1354
 8114SOL    HW135801   0.260   3.440  11.003  0.1901 -0.3498 -0.1565
 8114SOL    HW235802   0.220   3.350  11.110 -3.0247  1.9384  2.0091
 8115SOL     OW35803   0.340   2.700   9.168  0.5876  0.0441 -0.4041
 8115SOL    HW135804   0.398   2.746   9.107  0.8856  0.9767  0.5953
 8115SOL    HW235805   0.251   2.726   9.143 -0.6273 -1.0514  2.8412
 8116SOL     OW35806   1.968   2.350   6.513 -0.0005 -0.1183 -0.1852
 8116SOL    HW135807   1.989   2.324   6.423 -0.2166 -1.9943  0.3065
 8116SOL    HW235808   2.050   2.320   6.551 -0.8235 -0.6130  1.2441
 8117SOL     OW35809   1.631   1.087   3.191 -0.2147 -0.0714 -0.2726
 8117SOL    HW135810   1.545   1.045   3.197  1.3986 -3.3979 -0.2146
 8117SOL    HW235811   1.679   1.010   3.162 -0.1276 -0.0648 -0.1430
 8118SOL     OW35812   2.784   0.540   3.396 -0.1934 -0.2069  0.1864
 8118SOL    HW135813   2.871   0.514   3.426 -0.1193 -1.4705 -1.1418
 8118SOL    HW235814   2.808   0.611   3.337  0.4162 -0.9955 -0.5049
 8119SOL     OW35815   1.384   1.667   3.913 -0.3131 -0.1241 -0.1928
 8119SOL    HW135816   1.357   1.598   3.973  0.0088  0.6069  0.7932
 8119SOL    HW235817   1.301   1.710   3.895 -0.8179 -0.9036  0.2889
 8120SOL     OW35818   3.178   3.429  14.925 -0.8859 -0.1420  0.2771
 8120SOL    HW135819   3.161   3.505  14.869  0.2265  0.4247  0.7089
 8120SOL    HW235820   3.100   3.421  14.980  0.4102  0.7455  2.2328
 8121SOL     OW35821   0.988   2.543  13.990 -0.4299 -0.0795  0.0568
 8121SOL    HW135822   0.981   2.531  14.085  0.1522  1.3526  0.2791
 8121SOL    HW235823   0.929   2.617  13.977 -0.4028  0.2197  1.5617
 8122SOL     OW35824   4.359   1.539   0.099 -0.1404 -0.4752  0.3887
 8122SOL    HW135825   4.440   1.591   0.102 -1.1568  1.2132 -1.6725
 8122SOL    HW235826   4.347   1.523   0.005  0.2007 -0.3334  0.3204
 8123SOL     OW35827   0.072   0.092  13.531  0.4622  0.1200 -0.0340
 8123SOL    HW135828   0.077   0.072  13.437  0.5132 -2.6221  0.5625
 8123SOL    HW235829   4.706   0.054  13.542  0.4776  0.0339 -0.2079
 8124SOL     OW35830   0.516   0.323   5.939  0.6264 -0.4207 -0.2388
 8124SOL    HW135831   0.485   0.393   5.996 -0.4048 -0.8448 -0.2891
 8124SOL    HW235832   0.575   0.276   5.998  0.5830 -0.6991 -0.4185
 8125SOL     OW35833   3.342   3.917   3.208  0.4650 -0.2625 -0.3303
 8125SOL    HW135834   3.297   3.985   3.158  1.7515 -0.7608 -2.1391
 8125SOL    HW235835   3.277   3.896   3.275 -1.2015  4.0786 -0.5814
 8126SOL     OW35836   2.901   2.391   6.671 -0.3189  0.5626  0.5658
 8126SOL    HW135837   2.912   2.452   6.598 -0.6506 -0.3456 -0.2501
 8126SOL    HW235838   2.829   2.341   6.632  0.9483 -0.6665 -0.2341
 8127SOL     OW35839   2.262   0.258   0.237  0.0952 -0.1444 -0.0413
 8127SOL    HW135840   2.178   0.268   0.282 -0.5113  0.9206 -1.4110
 8127SOL    HW235841   2.307   0.330   0.282  0.5966 -0.7532  0.4304
 8128SOL     OW35842   1.733   2.509   2.048  0.4771 -0.0974  0.2465
 8128SOL    HW135843   1.698   2.424   2.075 -0.9625  0.5648  0.4972
 8128SOL    HW235844   1.709   2.516   1.956  0.4496  0.1476  0.2711
 8129SOL     OW35845   3.084   2.708   5.864  0.4779  0.2812 -0.0649
 8129SOL    HW135846   3.112   2.665   5.783 -0.5864  1.0417 -0.8246
 8129SOL    HW235847   3.018   2.648   5.899  0.0494 -0.1910 -1.7248
 8130SOL     OW35848   3.033   4.070   1.050 -0.2324 -0.5014 -0.4520
 8130SOL    HW135849   3.065   3.988   1.088  1.5253  0.5494  0.3652
 8130SOL    HW235850   2.958   4.074   1.109  0.1762 -0.7343  0.0921
 8131SOL     OW35851   3.046   0.463   8.590  0.0854  0.2704 -0.9804
 8131SOL    HW135852   3.054   0.458   8.686 -1.4516  0.0192 -0.8571
 8131SOL    HW235853   3.120   0.407   8.567 -0.5341 -1.4306  1.1738
 8132SOL     OW35854   0.160   0.241   3.884  0.3337 -0.3874  0.2166
 8132SOL    HW135855   0.210   0.244   3.802 -0.2645 -2.0189 -0.2238
 8132SOL    HW235856   0.139   0.148   3.896  0.2744 -0.6524 -1.8813
 8133SOL     OW35857   1.400   1.422  12.453 -0.1408 -0.2602  0.6362
 8133SOL    HW135858   1.368   1.489  12.393  1.2437  0.1746  0.3766
 8133SOL    HW235859   1.314   1.395  12.485  0.4438  0.3072  2.7138
 8134SOL     OW35860   2.304   3.956  10.325  0.1763  0.6517 -0.2436
 8134SOL    HW135861   2.391   3.970  10.362  0.8484  0.0758 -1.6416
 8134SOL    HW235862   2.253   4.023  10.372  0.3255  0.5930  0.0044
 8135SOL     OW35863   4.526   1.110   9.641 -0.1417 -0.3357  0.0134
 8135SOL    HW135864   4.490   1.040   9.696 -0.3316 -0.1850  0.0817
 8135SOL    HW235865   4.537   1.065   9.558  2.4651  0.1788  0.0980
 8136SOL     OW35866   1.198   3.924   3.633 -0.4664  0.1622  0.0573
 8136SOL    HW135867   1.149   4.006   3.624  2.3835  1.7978 -0.2878
 8136SOL    HW235868   1.281   3.959   3.603  1.2075 -2.4926  1.5923
 8137SOL     OW35869   3.982   0.584   6.977  0.2134  0.0038  0.1007
 8137SOL    HW135870   3.898   0.545   6.999  2.0732 -3.9868  0.2000
 8137SOL    HW235871   3.976   0.610   6.885 -2.6214  1.3744  0.6808
 8138SOL     OW35872   0.596   0.262   3.798  0.5099  0.6919 -0.3474
 8138SOL    HW135873   0.654   0.308   3.737  1.9235 -0.3892  0.1748
 8138SOL    HW235874   0.619   0.300   3.882  1.6056 -0.9700  0.1132
 8139SOL     OW35875   1.397   1.789  11.989  0.2417 -0.3620  0.2242
 8139SOL    HW135876   1.345   1.866  12.011 -0.2190 -0.4829 -0.4017
 8139SOL    HW235877   1.472   1.832  11.947 -1.1968  1.8079 -0.1226
 8140SOL     OW35878   2.423   2.019  12.933 -0.4502  0.1100 -0.4410
 8140SOL    HW135879   2.386   2.103  12.960 -1.1119 -0.3197  0.0147
 8140SOL    HW235880   2.368   1.964  12.989  0.4134 -1.7144 -1.3817
 8141SOL     OW35881   3.765   0.431   1.427  0.1247  0.2343  0.1572
 8141SOL    HW135882   3.845   0.379   1.438  1.6380  2.5210 -0.1445
 8141SOL    HW235883   3.702   0.367   1.461  1.0316 -0.3315  0.7630
 8142SOL     OW35884   1.341   1.770   3.249 -0.7113 -0.1215 -0.1368
 8142SOL    HW135885   1.321   1.820   3.328  3.3744  0.4348  0.5040
 8142SOL    HW235886   1.411   1.711   3.274 -1.0319 -0.1778  0.6097
 8143SOL     OW35887   1.405   3.505   5.223  0.3759  0.1660  0.5056
 8143SOL    HW135888   1.393   3.536   5.133 -0.1057 -1.3296  0.0607
 8143SOL    HW235889   1.319   3.487   5.261 -0.4321  2.1890 -0.3261
 8144SOL     OW35890   3.795   3.771   7.360  0.6279 -0.3328 -0.7019
 8144SOL    HW135891   3.721   3.740   7.309 -0.9080 -2.6820  2.9036
 8144SOL    HW235892   3.748   3.769   7.444 -0.7844 -1.8945 -1.5323
 8145SOL     OW35893   2.798   0.644   8.154 -0.4503  0.6261 -0.1091
 8145SOL    HW135894   2.762   0.555   8.148  1.0193  0.3655 -5.0258
 8145SOL    HW235895   2.738   0.684   8.217 -0.1866  0.1294  0.4519
 8146SOL     OW35896   3.082   0.091   3.054 -0.2134  0.1882 -0.4318
 8146SOL    HW135897   3.102   0.166   2.997  3.2447 -0.6763 -0.3886
 8146SOL    HW235898   3.050   0.140   3.129 -1.3368 -1.6600  0.3056
 8147SOL     OW35899   2.718   2.427   4.828  0.3865  0.1937 -0.2913
 8147SOL    HW135900   2.807   2.399   4.846 -0.4606 -1.7118  0.8518
 8147SOL    HW235901   2.712   2.510   4.876 -0.9510 -0.7156  1.0960
 8148SOL     OW35902   0.736   1.879   6.732  0.2729 -0.2467 -0.2007
 8148SOL    HW135903   0.776   1.933   6.664 -0.3011  1.1393  0.5368
 8148SOL    HW235904   0.810   1.821   6.745 -0.7735 -1.0318  2.2745
 8149SOL     OW35905   2.700   2.800   6.569 -0.2236 -0.1325  0.2555
 8149SOL    HW135906   2.741   2.795   6.483 -0.2406 -1.6901  0.3398
 8149SOL    HW235907   2.647   2.722   6.555 -1.0571  0.6644 -1.0760
 8150SOL     OW35908   3.080   2.969   5.892  0.0004 -0.2277  0.5141
 8150SOL    HW135909   2.987   2.978   5.912 -0.3151  0.0056 -1.0510
 8150SOL    HW235910   3.078   2.874   5.888 -0.3550 -0.2123  0.2949
 8151SOL     OW35911   1.288   1.479  14.986  0.0163  1.1026 -0.2909
 8151SOL    HW135912   1.273   1.433  15.069 -0.5859  0.3615 -0.8072
 8151SOL    HW235913   1.379   1.455  14.971  0.1862  1.1199  0.7341
 8152SOL     OW35914   4.209   3.165   8.804 -0.3173  0.2787 -0.2055
 8152SOL    HW135915   4.275   3.179   8.736  0.7644 -1.1431  0.5503
 8152SOL    HW235916   4.182   3.247   8.845  1.0825  0.4382  0.4302
 8153SOL     OW35917   0.052   0.104   8.572  0.2293  0.1177 -0.6802
 8153SOL    HW135918   4.716   0.043   8.619 -1.5689  0.6448 -2.1687
 8153SOL    HW235919   0.055   0.180   8.630 -1.3248 -0.6697  0.4512
 8154SOL     OW35920   2.308   4.295   4.047  0.3683  0.1599  0.4981
 8154SOL    HW135921   2.231   4.265   4.094  0.0386 -0.0982 -0.2082
 8154SOL    HW235922   2.339   4.367   4.102 -0.2375  1.1592 -0.4859
 8155SOL     OW35923   2.375   4.545   4.132 -0.1358 -0.2719 -0.1659
 8155SOL    HW135924   2.358   4.569   4.041  0.2099  0.7283  0.0373
 8155SOL    HW235925   2.355   4.629   4.173 -1.1257 -1.3456  1.5479
 8156SOL     OW35926   3.207   0.773   8.247 -0.3109  0.3389 -0.1370
 8156SOL    HW135927   3.188   0.820   8.328  0.2868 -0.6733  0.5783
 8156SOL    HW235928   3.193   0.836   8.176 -2.0417 -0.6684 -0.6729
 8157SOL     OW35929   0.596   1.654   6.564  0.3736  0.2953  0.1170
 8157SOL    HW135930   0.566   1.640   6.654  1.9446 -1.3281  0.4078
 8157SOL    HW235931   0.600   1.749   6.567  0.1222  0.3808 -2.3872
 8158SOL     OW35932   1.117   4.200   2.325  0.0162 -0.7513  0.1557
 8158SOL    HW135933   1.027   4.168   2.329 -0.1009 -0.5783 -1.3207
 8158SOL    HW235934   1.160   4.117   2.304  0.7402 -0.3364 -0.0312
 8159SOL     OW35935   3.337   0.558   4.314  0.2340  0.4065  0.6370
 8159SOL    HW135936   3.373   0.605   4.239 -1.5604 -1.3267 -1.2884
 8159SOL    HW235937   3.357   0.466   4.300 -1.2073  0.4108 -1.4171
 8160SOL     OW35938   1.026   1.105   3.893 -0.1325  0.2052 -0.4001
 8160SOL    HW135939   0.998   1.133   3.806 -0.5063 -2.4095 -1.1020
 8160SOL    HW235940   1.117   1.135   3.890  0.3923 -1.5491 -1.5607
 8161SOL     OW35941   1.162   3.268   1.575 -0.0810 -0.4444  0.4622
 8161SOL    HW135942   1.164   3.352   1.529 -1.3420 -0.7418 -0.1250
 8161SOL    HW235943   1.075   3.231   1.563  0.1472  0.1831 -2.9735
 8162SOL     OW35944   2.378   4.479  15.468 -0.3341 -0.0810 -0.0110
 8162SOL    HW135945   2.431   4.451  15.393 -0.1189  0.5846 -0.1116
 8162SOL    HW235946   2.298   4.517  15.432 -0.0984  1.1201  0.7408
 8163SOL     OW35947   2.283   2.574   4.857  0.2580 -0.2239 -0.0561
 8163SOL    HW135948   2.273   2.583   4.952  0.3649 -2.1741  0.1494
 8163SOL    HW235949   2.217   2.505   4.852  0.7080 -0.6091 -0.6080
 8164SOL     OW35950   3.948   1.597   1.811 -0.2504  0.5901  0.0074
 8164SOL    HW135951   3.982   1.568   1.896  0.1657 -2.2098 -1.1229
 8164SOL    HW235952   3.955   1.519   1.757 -0.4072  1.9568 -2.0183
 8165SOL     OW35953   4.095   2.164   8.388 -0.0917 -0.3551 -0.0680
 8165SOL    HW135954   4.146   2.228   8.338  0.2233 -0.2820  0.3558
 8165SOL    HW235955   4.166   2.124   8.438  1.3417  2.2177 -0.0348
 8166SOL     OW35956   2.005   4.105   9.791  0.0897 -0.6568  0.2301
 8166SOL    HW135957   2.079   4.162   9.815 -0.0443 -1.2564  2.0726
 8166SOL    HW235958   2.038   4.024   9.829  0.3144 -0.6349  0.0831
 8167SOL     OW35959   0.785   4.369   4.066 -0.2178 -0.2135  0.0731
 8167SOL    HW135960   0.835   4.405   4.139  0.6993 -0.2800 -0.5230
 8167SOL    HW235961   0.849   4.394   4.000  0.4553 -2.7286 -0.2142
 8168SOL     OW35962   3.996   0.962   6.012 -0.0850  0.0446  0.6369
 8168SOL    HW135963   4.059   1.032   5.998  1.7231 -1.5196  0.8991
 8168SOL    HW235964   3.958   0.996   6.092  1.9817  0.6452  1.3688
 8169SOL     OW35965   3.295   2.872   4.895 -0.2714  0.6746 -0.5389
 8169SOL    HW135966   3.201   2.888   4.888 -0.0512  1.9673 -0.5478
 8169SOL    HW235967   3.314   2.852   4.803 -0.2355 -1.0436 -0.1584
 8170SOL     OW35968   0.846   2.257  10.416  0.2939 -0.3036 -0.6073
 8170SOL    HW135969   0.861   2.163  10.422 -1.8658 -0.4259  3.1756
 8170SOL    HW235970   0.791   2.274  10.493  1.3198  3.0804 -0.6357
 8171SOL     OW35971   1.486   3.834   4.692 -0.0452  0.0247 -0.5082
 8171SOL    HW135972   1.529   3.894   4.631 -0.3369  1.1775  0.4198
 8171SOL    HW235973   1.408   3.822   4.638 -0.6983  0.9208  0.2278
 8172SOL     OW35974   1.547   2.496   4.437 -0.0318  0.4264  0.3926
 8172SOL    HW135975   1.539   2.591   4.447 -0.3280  0.4747 -0.3356
 8172SOL    HW235976   1.564   2.488   4.344 -1.5556  0.5190  0.0937
 8173SOL     OW35977   1.301   2.988   8.346  0.2928  0.0209  0.1893
 8173SOL    HW135978   1.268   3.077   8.346 -0.9426 -0.4532  2.7055
 8173SOL    HW235979   1.354   2.989   8.426  1.3405  0.3034 -0.5037
 8174SOL     OW35980   4.013   2.482  12.007  0.3768  0.2521  0.5843
 8174SOL    HW135981   3.965   2.405  11.977 -4.1437  2.5787  1.8203
 8174SOL    HW235982   3.948   2.524  12.063 -2.9491 -3.5955 -0.4021
 8175SOL     OW35983   1.654   2.808   8.733  0.0705  0.1487 -0.2450
 8175SOL    HW135984   1.634   2.801   8.826 -1.4876 -0.0979 -0.5966
 8175SOL    HW235985   1.745   2.837   8.729 -0.3960  1.4917 -1.0401
 8176SOL     OW35986   3.062   1.363  14.859 -0.2153 -0.5147  0.0656
 8176SOL    HW135987   3.043   1.391  14.769 -2.6357  0.5365  0.8841
 8176SOL    HW235988   3.131   1.427  14.877  0.6264 -1.5530  0.4856
 8177SOL     OW35989   0.954   0.405   2.012  0.5408 -0.3193  0.1064
 8177SOL    HW135990   0.968   0.436   2.101  0.5810  0.5617 -0.2000
 8177SOL    HW235991   1.034   0.442   1.974 -0.2642  1.1745 -0.1488
 8178SOL     OW35992   4.014   2.521   8.790  0.4481 -0.1888 -0.0461
 8178SOL    HW135993   4.070   2.599   8.796 -1.1315  1.1595 -2.5097
 8178SOL    HW235994   4.063   2.468   8.727 -1.8841  0.7473 -2.6409
 8179SOL     OW35995   4.323   2.941  10.335  0.4170 -0.2126 -0.1931
 8179SOL    HW135996   4.309   2.861  10.285 -1.7029  1.7130 -2.6596
 8179SOL    HW235997   4.409   2.928  10.375 -0.1943  0.0093  1.1926
 8180SOL     OW35998   2.073   2.716   4.692 -0.2471  0.7509  0.5911
 8180SOL    HW135999   2.134   2.722   4.766 -0.7634  0.7991  1.0202
 8180SOL    HW236000   2.013   2.789   4.707  0.7753  0.7987  4.4192
 8181SOL     OW36001   4.455   1.433  15.260  0.0342 -0.4068  0.2165
 8181SOL    HW136002   4.512   1.509  15.277 -1.4554  0.7469  0.0312
 8181SOL    HW236003   4.388   1.473  15.205  1.3901 -0.8416 -1.7515
 8182SOL     OW36004   0.494   3.958   5.781 -0.5468  0.8872 -0.2912
 8182SOL    HW136005   0.569   3.913   5.818 -0.8712 -0.3025 -1.0665
 8182SOL    HW236006   0.535   4.023   5.724 -1.8280  1.0164 -1.0765
 8183SOL     OW36007   4.416   0.216  12.874  0.1477 -0.3027  0.9369
 8183SOL    HW136008   4.504   0.237  12.903  0.4260 -0.0395 -0.1127
 8183SOL    HW236009   4.390   0.133  12.915 -1.9498  0.6674  1.5862
 8184SOL     OW36010   2.963   1.946   8.109  0.5801  0.4859 -0.0196
 8184SOL    HW136011   2.908   2.016   8.145 -2.2740 -2.3150  1.0245
 8184SOL    HW236012   3.034   2.006   8.085 -0.2380  1.4422 -0.0933
 8185SOL     OW36013   4.515   2.393   2.872 -0.2511 -0.0199 -0.0218
 8185SOL    HW136014   4.568   2.468   2.842  0.2176 -0.4597 -0.2932
 8185SOL    HW236015   4.547   2.369   2.959 -1.0166  0.9698  0.5314
 8186SOL     OW36016   1.486   0.525   3.968  0.0908  0.0213  0.2475
 8186SOL    HW136017   1.435   0.561   4.040 -0.0817 -0.0887  0.1791
 8186SOL    HW236018   1.567   0.513   4.018  0.2991  1.3210  0.2082
 8187SOL     OW36019   0.739   3.896   1.705 -0.1807  0.2003  0.7012
 8187SOL    HW136020   0.675   3.964   1.685  0.1544  0.5226  0.7390
 8187SOL    HW236021   0.790   3.892   1.625  1.1564  2.8115  1.4319
 8188SOL     OW36022   1.427   0.525   6.491  0.3112 -0.0500 -0.3532
 8188SOL    HW136023   1.485   0.551   6.420 -0.7222 -1.1314 -1.5975
 8188SOL    HW236024   1.479   0.547   6.568  1.6701 -1.9286 -0.7572
 8189SOL     OW36025   2.060   3.734  16.764 -0.4156 -0.0959  0.7135
 8189SOL    HW136026   1.970   3.704  16.776 -1.1386  0.3567 -3.5986
 8189SOL    HW236027   2.096   3.689  16.840 -1.9619 -0.5349  1.1911
 8190SOL     OW36028   0.864   3.777   9.026  0.2645 -0.0225 -0.3747
 8190SOL    HW136029   0.896   3.698   9.070 -2.0367  0.6816  2.5275
 8190SOL    HW236030   0.812   3.736   8.956  0.1530  2.1468 -1.5678
 8191SOL     OW36031   0.506   0.739   6.614 -0.0341 -0.2512  0.4099
 8191SOL    HW136032   0.596   0.708   6.614 -0.3791 -1.2108 -1.7455
 8191SOL    HW236033   0.516   0.831   6.638  2.1777 -0.2550 -0.5732
 8192SOL     OW36034   2.678   2.020   3.763  0.1052  0.6384  0.1040
 8192SOL    HW136035   2.671   1.966   3.685 -1.3277  0.1276  0.5858
 8192SOL    HW236036   2.590   2.008   3.798  0.5191  3.5478  2.1603
 8193SOL     OW36037   1.816   1.181  11.522  0.3026 -0.1439  0.4429
 8193SOL    HW136038   1.737   1.127  11.520  0.4049 -0.2519 -0.5452
 8193SOL    HW236039   1.792   1.236  11.596 -2.5080 -1.1993  0.3005
 8194SOL     OW36040   0.587   3.419   6.950  0.0435  0.9027  0.7826
 8194SOL    HW136041   0.525   3.455   6.887  1.7442  1.9546 -0.2706
 8194SOL    HW236042   0.531   3.360   7.001  0.6733 -0.0184  0.4049
 8195SOL     OW36043   0.286   0.467  17.397 -0.0767 -0.1929  0.0240
 8195SOL    HW136044   0.265   0.556  17.369 -0.8214 -0.2732  0.3332
 8195SOL    HW236045   0.234   0.460  17.477 -0.8942  1.2732 -0.3800
 8196SOL     OW36046   2.856   2.713   1.661  0.1996  0.2668 -0.2653
 8196SOL    HW136047   2.874   2.730   1.753 -1.6170 -0.5482  0.2485
 8196SOL    HW236048   2.805   2.632   1.664 -0.6355  0.7634 -0.7006
 8197SOL     OW36049   4.170   4.383   6.352  0.4056 -0.2370 -0.2123
 8197SOL    HW136050   4.248   4.434   6.332 -1.3045  2.6977  0.5486
 8197SOL    HW236051   4.099   4.445   6.370  0.9587 -0.6948  3.4822
 8198SOL     OW36052   2.352   3.822   5.331 -0.0791  0.9604 -0.0919
 8198SOL    HW136053   2.405   3.840   5.408 -0.2051  1.4141 -0.1095
 8198SOL    HW236054   2.356   3.727   5.321  1.3133  0.9778  0.2649
 8199SOL     OW36055   1.460   1.710  10.232 -0.1545  0.4230 -0.2755
 8199SOL    HW136056   1.459   1.762  10.152 -1.4600 -0.2104 -0.6842
 8199SOL    HW236057   1.481   1.783  10.289 -0.2759  1.6886 -1.8679
 8200SOL     OW36058   0.963   4.346   9.613  0.2060 -0.8597 -0.2514
 8200SOL    HW136059   1.007   4.418   9.659  1.5686 -0.5093 -2.1011
 8200SOL    HW236060   0.916   4.398   9.548 -1.5279 -0.3724  1.3950
 8201SOL     OW36061   4.272   3.985  16.268 -0.4782 -0.6193 -0.0151
 8201SOL    HW136062   4.205   3.991  16.337 -0.2873  0.2259  0.1054
 8201SOL    HW236063   4.244   4.053  16.206  1.1355 -0.2574 -0.3485
 8202SOL     OW36064   0.205   2.581   0.447  0.2575  0.8777 -0.2677
 8202SOL    HW136065   0.164   2.655   0.491 -0.4583  0.3062  0.0469
 8202SOL    HW236066   0.146   2.562   0.374 -1.5989  0.5715  1.3166
 8203SOL     OW36067   2.096   3.552   2.487  0.5539  0.3673 -0.1763
 8203SOL    HW136068   2.011   3.577   2.521  0.2207 -0.4914 -0.3887
 8203SOL    HW236069   2.155   3.578   2.558  1.0524 -1.0499 -0.0755
 8204SOL     OW36070   2.912   0.584   5.469 -0.4748  0.3543 -0.4063
 8204SOL    HW136071   2.928   0.668   5.512  1.9390  0.2517 -1.1006
 8204SOL    HW236072   2.967   0.600   5.392  0.3372  0.3310  0.1633
 8205SOL     OW36073   4.535   2.617   7.045 -0.6103 -0.0267  0.0527
 8205SOL    HW136074   4.582   2.596   7.126 -2.5992 -1.5842  0.8235
 8205SOL    HW236075   4.512   2.529   7.015 -0.7691  0.7982 -2.2450
 8206SOL     OW36076   2.791   3.449   2.864  0.5660 -0.2188  0.1557
 8206SOL    HW136077   2.828   3.495   2.788  1.5449  0.1483  0.8411
 8206SOL    HW236078   2.762   3.364   2.832 -2.7334  0.0484  2.4767
 8207SOL     OW36079   1.421   1.055   4.456 -0.7800  0.1374  0.1530
 8207SOL    HW136080   1.441   1.129   4.399 -1.6836 -0.8355 -1.4139
 8207SOL    HW236081   1.507   1.022   4.482 -1.0956 -0.6610  0.1796
 8208SOL     OW36082   0.761   1.940   3.029 -0.2459  0.1298 -0.4817
 8208SOL    HW136083   0.853   1.964   3.035 -0.9120  2.0352  1.9762
 8208SOL    HW236084   0.759   1.913   2.937 -1.5654 -2.6643  0.3839
 8209SOL     OW36085   4.248   0.664   3.065 -0.4783 -0.3823  0.5102
 8209SOL    HW136086   4.174   0.721   3.088 -1.7618 -1.4214 -1.0548
 8209SOL    HW236087   4.287   0.682   3.151 -1.6302  0.9888  0.7636
 8210SOL     OW36088   0.729   1.984   1.629 -0.3493  0.0804  1.0215
 8210SOL    HW136089   0.817   2.014   1.605 -0.3662  0.4390  1.4184
 8210SOL    HW236090   0.744   1.889   1.634 -2.0000 -0.2075  0.4800
 8211SOL     OW36091   4.238   1.471   9.395  0.2044 -0.2844  0.2044
 8211SOL    HW136092   4.240   1.553   9.445  0.5869 -0.2933  0.2025
 8211SOL    HW236093   4.330   1.444   9.400 -0.1272 -1.2124  1.2164
 8212SOL     OW36094   4.650   0.413  11.805  0.1255 -0.1488  0.2112
 8212SOL    HW136095   4.564   0.401  11.764 -0.2745  1.3250  0.6210
 8212SOL    HW236096   4.620   0.399  11.894 -0.9541  0.0218 -0.1285
 8213SOL     OW36097   2.849   2.422   0.202 -0.3732  0.1514  0.0485
 8213SOL    HW136098   2.931   2.411   0.252 -0.8259 -0.6761  0.6203
 8213SOL    HW236099   2.772   2.450   0.251 -2.0576 -1.6098 -1.5578
 8214SOL     OW36100   4.409   0.919   5.028  0.2538  0.1603 -0.6556
 8214SOL    HW136101   4.428   0.866   5.106  1.8627 -1.9730 -2.4944
 8214SOL    HW236102   4.456   0.870   4.961 -0.4737 -0.1959 -0.9075
 8215SOL     OW36103   3.328   0.562   5.116  0.1392 -0.1155 -0.2689
 8215SOL    HW136104   3.375   0.479   5.114  0.1510 -0.1314  0.9689
 8215SOL    HW236105   3.391   0.630   5.092 -0.0439  0.3808  0.6804
 8216SOL     OW36106   4.497   0.972   3.528 -0.1998  0.0894 -0.3694
 8216SOL    HW136107   4.470   0.907   3.592 -1.4093 -0.8574 -1.8514
 8216SOL    HW236108   4.407   0.986   3.495  0.6554  0.5922 -2.5242
 8217SOL     OW36109   0.651   3.018   4.963  0.2820 -0.1648  0.4779
 8217SOL    HW136110   0.560   3.043   4.979 -0.2085 -0.6498 -1.5386
 8217SOL    HW236111   0.685   3.105   4.944  1.2859 -0.4451  0.9944
 8218SOL     OW36112   3.462   1.205  17.492 -0.3039 -0.1029  0.3348
 8218SOL    HW136113   3.468   1.206  17.397 -0.1330 -2.0757  0.3371
 8218SOL    HW236114   3.386   1.148  17.505  0.0483 -0.4311  0.9865
 8219SOL     OW36115   4.532   3.106   5.123  0.2672  0.0693 -0.7769
 8219SOL    HW136116   4.484   3.181   5.087 -1.2058 -1.1943 -1.4690
 8219SOL    HW236117   4.600   3.095   5.058 -0.0693 -0.1596 -1.0875
 8220SOL     OW36118   0.131   3.914   2.056  0.4115 -0.6580 -0.6405
 8220SOL    HW136119   0.170   3.883   2.138 -0.2548 -0.3873 -0.2092
 8220SOL    HW236120   0.183   3.872   1.988  1.8207  0.8260 -0.4896
 8221SOL     OW36121   2.922   0.609   2.871 -0.2602 -0.4091  0.1996
 8221SOL    HW136122   2.831   0.621   2.842 -1.0939 -3.4567  1.5297
 8221SOL    HW236123   2.909   0.531   2.925  1.8398 -0.3045  0.8350
 8222SOL     OW36124   0.920   2.568  12.197  0.7629 -0.2657 -0.0226
 8222SOL    HW136125   0.971   2.525  12.129  0.1196  0.2034 -0.8065
 8222SOL    HW236126   0.986   2.577  12.266  0.4102  0.7158  0.1883
 8223SOL     OW36127   0.054   2.948   0.791  0.3350 -0.2937  0.2918
 8223SOL    HW136128   0.053   3.022   0.851 -2.0218  0.3673 -0.5756
 8223SOL    HW236129   0.142   2.912   0.806  0.0431 -0.9906  0.3526
 8224SOL     OW36130   4.193   0.338  17.260 -0.1061  0.4569 -0.1318
 8224SOL    HW136131   4.178   0.322  17.167 -2.0795 -1.8474  0.5763
 8224SOL    HW236132   4.120   0.290  17.299  0.1433  1.1486  1.2013
 8225SOL     OW36133   1.061   0.169  11.796  0.3770  0.4230 -0.5658
 8225SOL    HW136134   1.091   0.103  11.860  0.6576  1.5191  0.4256
 8225SOL    HW236135   1.044   0.247  11.848 -0.7020 -0.8256  0.9818
 8226SOL     OW36136   4.013   2.848   2.481  0.8936 -0.2956 -0.1797
 8226SOL    HW136137   3.935   2.795   2.495 -0.3653  1.3328 -1.0966
 8226SOL    HW236138   4.039   2.822   2.392  2.1064 -0.9976  0.3741
 8227SOL     OW36139   4.553   1.329   7.553  0.0017  0.1955  0.5765
 8227SOL    HW136140   4.602   1.378   7.619  1.5284  1.4986 -1.5329
 8227SOL    HW236141   4.497   1.279   7.613  0.0890  0.3041  0.7445
 8228SOL     OW36142   1.321   0.895   5.469 -0.1455 -0.0416  0.2567
 8228SOL    HW136143   1.270   0.838   5.412 -0.0305  0.9353 -0.8068
 8228SOL    HW236144   1.405   0.851   5.483 -0.7758 -0.5561  2.4643
 8229SOL     OW36145   4.639   0.834   8.053 -0.1939  0.6188 -0.0673
 8229SOL    HW136146   4.716   0.883   8.080  0.5220 -0.7249  0.3494
 8229SOL    HW236147   4.683   0.762   8.008  2.6093  2.0913  0.3187
 8230SOL     OW36148   3.170   2.784   7.064  0.6211 -0.0798 -0.3163
 8230SOL    HW136149   3.120   2.856   7.026 -1.9092 -2.0741 -0.7719
 8230SOL    HW236150   3.105   2.734   7.113 -0.5650  0.8383 -0.9645
 8231SOL     OW36151   2.008   1.567   3.743  0.7601  0.7788 -0.0434
 8231SOL    HW136152   1.976   1.605   3.662 -0.9975 -1.7523 -0.5361
 8231SOL    HW236153   2.047   1.637   3.795  1.3560 -0.2504  0.8986
 8232SOL     OW36154   3.762   4.541   1.654 -0.3169 -0.4702 -0.2287
 8232SOL    HW136155   3.714   4.483   1.595 -0.1509  0.0658 -0.8941
 8232SOL    HW236156   3.778   4.485   1.730  1.1413 -0.0043 -0.1875
 8233SOL     OW36157   3.381   0.574  12.240 -0.0653 -0.0980 -0.1156
 8233SOL    HW136158   3.378   0.619  12.155 -1.1186 -2.6526 -1.4207
 8233SOL    HW236159   3.292   0.539  12.244  0.3235 -0.8663  1.8552
 8234SOL     OW36160   1.045   0.690   4.527 -0.5222 -0.7973 -0.2989
 8234SOL    HW136161   1.017   0.619   4.470  1.0572 -1.5286 -0.1533
 8234SOL    HW236162   1.114   0.727   4.472 -0.0202 -0.2713  0.6890
 8235SOL     OW36163   3.332   3.722   8.092  0.4441  0.1421  0.5602
 8235SOL    HW136164   3.346   3.703   8.185 -0.5628  1.1020  0.9002
 8235SOL    HW236165   3.237   3.713   8.085  0.5505  0.4003 -1.2428
 8236SOL     OW36166   4.206   4.367   2.416 -0.2001  0.7426 -0.4458
 8236SOL    HW136167   4.121   4.326   2.433 -0.6904  2.4280  1.2595
 8236SOL    HW236168   4.261   4.291   2.400 -0.1437  0.4849  0.9433
 8237SOL     OW36169   0.607   0.073   7.031 -0.0874 -0.3613 -0.3082
 8237SOL    HW136170   0.562   0.155   7.014 -2.4961 -1.4527  0.8559
 8237SOL    HW236171   0.694   0.093   7.066 -0.1124 -0.7785 -0.0052
 8238SOL     OW36172   0.395   2.015   4.871 -0.1605 -0.1281  0.2724
 8238SOL    HW136173   0.425   2.104   4.856 -1.3949  0.4269  1.0537
 8238SOL    HW236174   0.427   1.984   4.787  0.0988  0.3766  0.1862
 8239SOL     OW36175   4.465   3.853   4.685 -0.3658  0.3994 -0.3434
 8239SOL    HW136176   4.371   3.843   4.668 -0.2192  0.0304 -0.9366
 8239SOL    HW236177   4.469   3.941   4.649  0.0760  0.0927 -1.0430
 8240SOL     OW36178   4.468   4.478   6.231  0.2835 -1.0656 -0.2780
 8240SOL    HW136179   4.487   4.484   6.325  1.1904 -1.8798 -0.4213
 8240SOL    HW236180   4.547   4.428   6.213  1.0189  0.0360 -0.1538
 8241SOL     OW36181   4.164   1.643   2.820 -0.3297  0.7023 -1.0627
 8241SOL    HW136182   4.130   1.566   2.774 -0.2341  0.4364 -0.6858
 8241SOL    HW236183   4.124   1.719   2.778 -1.5554  0.7265  0.1217
 8242SOL     OW36184   0.409   1.748  17.314 -0.1598 -0.3952 -0.1012
 8242SOL    HW136185   0.459   1.801  17.376 -0.5186 -0.7156  0.4565
 8242SOL    HW236186   0.490   1.719  17.271  0.5647  0.5217  0.6531
 8243SOL     OW36187   1.561   1.914   7.498  0.3433 -0.1951 -0.2519
 8243SOL    HW136188   1.637   1.939   7.447 -0.4723  2.9937  0.0824
 8243SOL    HW236189   1.554   1.823   7.470  1.1128 -0.7355  1.2710
 8244SOL     OW36190   4.185   0.773  13.671 -0.5123 -0.1354  0.3131
 8244SOL    HW136191   4.268   0.788  13.717 -0.6732 -2.3218  1.3061
 8244SOL    HW236192   4.204   0.739  13.583 -1.7181  0.1836 -0.0714
 8245SOL     OW36193   2.138   0.670   6.072 -0.5091 -0.1811 -0.8208
 8245SOL    HW136194   2.165   0.610   6.142  1.9579  1.2829 -0.5141
 8245SOL    HW236195   2.185   0.630   5.999  1.1891  2.8518 -1.3906
 8246SOL     OW36196   1.487   1.147   7.850  0.6683  0.0795  0.2475
 8246SOL    HW136197   1.428   1.134   7.924  2.0278  0.0338  1.3337
 8246SOL    HW236198   1.573   1.124   7.886  1.1505  0.9504 -0.3535
 8247SOL     OW36199   4.413   0.519   6.619 -0.3658 -0.0881 -0.3593
 8247SOL    HW136200   4.500   0.551   6.595 -0.2383  0.3500  0.7125
 8247SOL    HW236201   4.371   0.603   6.641  0.0460  0.4195 -1.4704
 8248SOL     OW36202   1.892   1.921   6.705  0.1094 -0.2843 -0.5015
 8248SOL    HW136203   1.974   1.959   6.738 -0.1217  1.6485 -2.1245
 8248SOL    HW236204   1.833   1.996   6.715  2.3511  1.2917  0.9508
 8249SOL     OW36205   0.683   4.404   1.357 -0.6610 -0.3222 -0.1174
 8249SOL    HW136206   0.701   4.491   1.393 -0.1435 -0.6291  0.3599
 8249SOL    HW236207   0.774   4.380   1.343 -0.4908  0.9603 -1.2318
 8250SOL     OW36208   0.057   4.168   6.497 -0.6460  0.2097  0.2998
 8250SOL    HW136209   0.002   4.095   6.526 -0.3794  0.7630  2.2169
 8250SOL    HW236210   0.082   4.208   6.580 -1.3386  2.3394 -0.5431
 8251SOL     OW36211   1.336   0.008   5.750  0.2882 -0.1148 -0.2576
 8251SOL    HW136212   1.395   0.081   5.726  0.8465 -0.2554  0.6754
 8251SOL    HW236213   1.401   4.660   5.734  0.1705 -0.2140 -0.3021
 8252SOL     OW36214   3.854   1.224   9.611  0.3126  0.6524  0.2558
 8252SOL    HW136215   3.906   1.240   9.690 -0.0921 -1.5803  0.9645
 8252SOL    HW236216   3.877   1.307   9.568  2.1767  1.1749  2.2175
 8253SOL     OW36217   2.617   3.323   4.781  0.2321  0.4553 -0.2202
 8253SOL    HW136218   2.640   3.413   4.759  2.2054  0.1134  0.3940
 8253SOL    HW236219   2.699   3.283   4.752  0.9349  1.9489 -0.2536
 8254SOL     OW36220   3.159   3.713   2.169  0.5060  0.3300  0.0532
 8254SOL    HW136221   3.222   3.650   2.204 -2.4624 -2.4090  0.3422
 8254SOL    HW236222   3.209   3.758   2.101 -1.1769  1.1531 -0.6380
 8255SOL     OW36223   4.337   0.353   6.802  0.2252 -0.2866 -0.2953
 8255SOL    HW136224   4.260   0.405   6.825  0.0721  0.0182 -1.4696
 8255SOL    HW236225   4.361   0.407   6.727  0.8378 -0.1420  0.0049
 8256SOL     OW36226   2.218   3.782  12.770  0.3816  0.2694  0.0280
 8256SOL    HW136227   2.227   3.801  12.676  0.4257  0.3186  0.0420
 8256SOL    HW236228   2.269   3.702  12.780  1.1626  0.7142 -0.3826
 8257SOL     OW36229   1.436   4.547  10.937 -0.5346  0.1422 -0.3540
 8257SOL    HW136230   1.433   4.452  10.944  2.4234  0.0494 -0.4067
 8257SOL    HW236231   1.520   4.562  10.981  0.2938 -0.9867 -1.5685
 8258SOL     OW36232   0.892   1.851   4.332  0.2930 -0.1495 -0.8386
 8258SOL    HW136233   0.873   1.890   4.417 -0.6446 -2.3500 -0.0383
 8258SOL    HW236234   0.987   1.847   4.319  0.4979  1.7469 -0.0140
 8259SOL     OW36235   2.501   1.212   8.470 -0.3426  0.1119 -0.2893
 8259SOL    HW136236   2.530   1.302   8.457 -1.5680  0.3271 -1.5647
 8259SOL    HW236237   2.569   1.181   8.529  1.0216  0.5520 -1.6360
 8260SOL     OW36238   4.593   2.658   6.515  0.1514 -0.0712 -0.1295
 8260SOL    HW136239   4.627   2.569   6.512 -1.3941 -0.6658  0.6926
 8260SOL    HW236240   4.673   2.711   6.509  1.9233 -2.5681  1.7825
 8261SOL     OW36241   3.271   2.420  10.052  0.5232 -0.0609 -0.2906
 8261SOL    HW136242   3.299   2.505  10.017  0.7086  1.0746  2.6309
 8261SOL    HW236243   3.275   2.438  10.146 -0.3652 -0.6417 -0.1390
 8262SOL     OW36244   4.643   1.557   9.552 -0.6195  0.0348 -0.3958
 8262SOL    HW136245   4.634   1.584   9.643  1.3601  0.5449 -0.3510
 8262SOL    HW236246   0.006   1.602   9.540  1.1351 -2.9976  0.4025
 8263SOL     OW36247   0.953   4.115  12.564 -0.9146  0.1207 -0.1046
 8263SOL    HW136248   0.948   4.023  12.587  0.9341  0.0149 -0.1101
 8263SOL    HW236249   0.960   4.111  12.468 -0.7395  1.2687 -0.1439
 8264SOL     OW36250   0.374   1.937   2.142 -0.0781 -0.0471  0.1242
 8264SOL    HW136251   0.455   1.927   2.091  0.5817  1.4663  0.8764
 8264SOL    HW236252   0.365   2.032   2.148 -0.9952 -0.1716  0.7022
 8265SOL     OW36253   4.540   2.986   4.613  0.4157 -0.0479 -0.0663
 8265SOL    HW136254   4.464   3.021   4.660 -0.6050  0.5141 -2.0968
 8265SOL    HW236255   4.559   3.057   4.551  0.5060 -1.0614 -1.2133
 8266SOL     OW36256   3.618   0.457   4.031  0.2066  0.0239 -0.5292
 8266SOL    HW136257   3.689   0.432   4.090 -0.2018  0.7720  0.2614
 8266SOL    HW236258   3.568   0.379   4.006  1.1583 -0.6912 -0.2157
 8267SOL     OW36259   1.080   1.413  10.377 -0.3739 -0.6287 -0.1463
 8267SOL    HW136260   1.103   1.479  10.312  3.3965 -1.8488 -0.0819
 8267SOL    HW236261   1.143   1.349  10.343  0.1900  0.4564 -1.1450
 8268SOL     OW36262   1.292   0.349  14.934  0.2816 -0.3428 -0.2804
 8268SOL    HW136263   1.308   0.408  15.007 -2.9028 -1.2639  1.1829
 8268SOL    HW236264   1.301   0.415  14.865 -1.0043  0.1641  0.0321
 8269SOL     OW36265   2.097   1.725   0.249 -0.0192 -0.3543  0.0238
 8269SOL    HW136266   2.101   1.726   0.345  0.6286 -0.5199 -0.0017
 8269SOL    HW236267   2.026   1.789   0.238 -1.2479 -1.7813 -0.2683
 8270SOL     OW36268   2.919   1.523   3.221 -0.2514  0.3471 -0.0560
 8270SOL    HW136269   2.927   1.589   3.151 -0.1172 -0.0685 -0.4325
 8270SOL    HW236270   2.836   1.483   3.196 -0.6376  1.3548 -0.3674
 8271SOL     OW36271   2.300   0.823   1.796  0.3762 -0.4329 -0.2939
 8271SOL    HW136272   2.262   0.905   1.765 -0.1992 -0.4170  0.4646
 8271SOL    HW236273   2.391   0.841   1.770 -0.1040  0.1559 -1.5493
 8272SOL     OW36274   0.673   1.842   3.749 -0.0936  0.4468 -0.4145
 8272SOL    HW136275   0.611   1.772   3.730  1.4343 -0.0692 -3.4973
 8272SOL    HW236276   0.707   1.852   3.660 -0.5104 -2.2231 -0.8717
 8273SOL     OW36277   1.096   4.592  15.773 -0.0174  0.2444  0.1977
 8273SOL    HW136278   1.085   4.516  15.831 -2.1641  0.7435  0.4432
 8273SOL    HW236279   1.012   4.598  15.728  0.0602 -1.0718 -0.1229
 8274SOL     OW36280   2.019   0.527   2.889 -0.0246  0.0478 -0.0608
 8274SOL    HW136281   1.980   0.440   2.884  0.1958 -0.1088  1.0137
 8274SOL    HW236282   2.041   0.537   2.981  2.1658 -1.4804 -0.4112
 8275SOL     OW36283   4.682   0.689   5.517  0.4421 -0.1951 -0.3131
 8275SOL    HW136284   4.633   0.696   5.598 -0.5575  0.0634 -0.9453
 8275SOL    HW236285   0.017   0.612   5.529 -0.1875 -0.8389 -1.5126
 8276SOL     OW36286   0.670   4.138   4.495  0.0484  0.1026  0.4291
 8276SOL    HW136287   0.646   4.228   4.516 -0.1320  0.0614  0.3986
 8276SOL    HW236288   0.618   4.114   4.418 -0.1025  1.7123  0.0450
 8277SOL     OW36289   3.640   2.594   9.116 -0.2351 -0.0600 -0.2093
 8277SOL    HW136290   3.648   2.674   9.064 -1.8272  1.4556  1.8652
 8277SOL    HW236291   3.562   2.614   9.167 -0.9062 -1.0739 -0.8363
 8278SOL     OW36292   1.635   0.908   1.815  0.4293  0.3992  0.3635
 8278SOL    HW136293   1.629   0.819   1.849  4.6640  0.1242  0.3091
 8278SOL    HW236294   1.541   0.919   1.799  0.1613  0.0707  1.7427
 8279SOL     OW36295   0.198   2.748   5.221 -0.0297 -0.3382 -0.4842
 8279SOL    HW136296   0.199   2.830   5.271 -3.4761  0.3916 -1.5993
 8279SOL    HW236297   0.187   2.778   5.131  1.6772  0.1431 -0.5158
 8280SOL     OW36298   4.129   1.599   8.572  0.1075 -0.2417 -0.3431
 8280SOL    HW136299   4.087   1.652   8.640  1.5255  0.4074  0.0346
 8280SOL    HW236300   4.187   1.544   8.625 -0.5364  1.4014  2.0483
 8281SOL     OW36301   2.381   3.216   4.775 -0.4402 -0.1621  0.1786
 8281SOL    HW136302   2.331   3.293   4.801 -0.2142 -0.3109  1.0918
 8281SOL    HW236303   2.468   3.255   4.790 -0.4366 -0.5098  1.0981
 8282SOL     OW36304   4.421   0.792   3.309  0.5653  0.1095  0.0706
 8282SOL    HW136305   4.441   0.727   3.376  0.8250 -0.7825 -0.8733
 8282SOL    HW236306   4.498   0.849   3.303 -0.6121  1.5233 -1.7931
 8283SOL     OW36307   3.222   2.480   8.822  0.0102 -0.1170  0.3471
 8283SOL    HW136308   3.314   2.470   8.848 -0.1187  0.9603  1.2053
 8283SOL    HW236309   3.180   2.511   8.902  2.1844 -1.1828  1.9209
 8284SOL     OW36310   3.537   3.434   0.242  0.0617 -0.1390  0.2391
 8284SOL    HW136311   3.559   3.354   0.195  0.9851 -0.7437  1.6804
 8284SOL    HW236312   3.499   3.404   0.325  0.7372 -0.1899  0.5354
 8285SOL     OW36313   4.393   4.398  12.050  0.2834  0.2688  0.2456
 8285SOL    HW136314   4.450   4.353  11.987 -1.0383 -0.3768 -0.4703
 8285SOL    HW236315   4.447   4.380  12.127  4.0186  1.9016 -1.9915
 8286SOL     OW36316   0.811   4.324   3.654 -0.6222  0.0118  0.0490
 8286SOL    HW136317   0.846   4.372   3.729  0.5235 -0.5783 -0.1021
 8286SOL    HW236318   0.808   4.234   3.688  1.5393  0.1011  0.4874
 8287SOL     OW36319   2.921   3.458  15.103 -0.3756  0.3127 -0.1348
 8287SOL    HW136320   2.924   3.370  15.142  1.3391 -0.1748 -1.3604
 8287SOL    HW236321   2.855   3.449  15.034 -0.2131 -0.9130 -0.1364
 8288SOL     OW36322   1.356   4.624   9.140 -0.4063  0.0729 -0.1285
 8288SOL    HW136323   1.370   4.595   9.230  1.0378  2.8263  0.5222
 8288SOL    HW236324   1.439   4.596   9.102 -1.1412  1.0045 -2.4750
 8289SOL     OW36325   2.402   3.526   4.094  0.4560  0.1475 -0.2022
 8289SOL    HW136326   2.465   3.567   4.153  0.3927  1.0999 -0.7894
 8289SOL    HW236327   2.426   3.562   4.009  1.2724  1.1675  0.4534
 8290SOL     OW36328   0.560   0.677   6.958 -0.0246  0.6594 -0.3224
 8290SOL    HW136329   0.643   0.672   7.007 -1.1516  0.0353  1.5187
 8290SOL    HW236330   0.539   0.770   6.968 -0.2295  0.4600  1.0645
 8291SOL     OW36331   0.628   0.165   2.992  0.2853 -0.5346 -0.4948
 8291SOL    HW136332   0.693   0.183   3.060 -2.7494 -0.2542  2.2884
 8291SOL    HW236333   0.657   0.241   2.942 -1.9370 -0.4505 -1.6525
 8292SOL     OW36334   0.716   3.725   6.108  0.2979  0.4941 -0.1947
 8292SOL    HW136335   0.758   3.777   6.176  1.4972  0.8344 -1.1869
 8292SOL    HW236336   0.687   3.800   6.055  0.6752 -0.3041 -1.5453
 8293SOL     OW36337   2.887   2.780   7.720 -0.0158  0.5883 -0.5177
 8293SOL    HW136338   2.971   2.735   7.709  0.5963  1.4016  0.7713
 8293SOL    HW236339   2.861   2.727   7.796  1.7285  0.7632  0.1934
 8294SOL     OW36340   1.883   3.605   3.297 -0.5062 -0.2558  0.0655
 8294SOL    HW136341   1.796   3.573   3.322 -1.0062  1.6040  0.6526
 8294SOL    HW236342   1.878   3.692   3.337  1.9298 -0.7028  1.3805
 8295SOL     OW36343   0.736   1.124   4.374  0.2290 -0.3294 -0.0886
 8295SOL    HW136344   0.667   1.058   4.369  1.1815 -1.0320 -3.8348
 8295SOL    HW236345   0.732   1.151   4.466 -1.3614 -0.9789  0.0444
 8296SOL     OW36346   0.642   1.698   4.997 -0.0927  0.1919 -0.0708
 8296SOL    HW136347   0.626   1.788   5.027 -2.6781 -0.3230  0.1012
 8296SOL    HW236348   0.723   1.677   5.044 -0.4176  2.9305  1.7499
 8297SOL     OW36349   2.652   0.016   5.600  0.7886 -0.0007 -0.4994
 8297SOL    HW136350   2.745   0.033   5.583  1.1372 -2.9023 -1.6336
 8297SOL    HW236351   2.617   0.008   5.511  0.4263 -0.5071 -0.3129
 8298SOL     OW36352   2.280   2.652   1.549  0.4220 -0.3378 -0.4695
 8298SOL    HW136353   2.247   2.564   1.566  1.3302 -0.3166  1.3644
 8298SOL    HW236354   2.235   2.659   1.464 -2.0124  2.8989  1.0814
 8299SOL     OW36355   4.466   1.425   4.320  0.7503 -0.6554 -0.4802
 8299SOL    HW136356   4.483   1.446   4.412  0.6652 -3.1325  0.1236
 8299SOL    HW236357   4.525   1.355   4.292 -1.5169 -2.8779  0.2813
 8300SOL     OW36358   1.813   0.569   6.091  0.6255  0.3158 -0.1539
 8300SOL    HW136359   1.870   0.502   6.129 -0.5556 -1.8376 -2.1708
 8300SOL    HW236360   1.839   0.559   5.999  0.7338  0.7426 -0.1698
 8301SOL     OW36361   4.408   0.199  12.536 -0.8930 -0.2122  0.3949
 8301SOL    HW136362   4.383   0.277  12.584 -0.1554  0.2331  0.0547
 8301SOL    HW236363   4.497   0.220  12.508 -1.9611  2.5052 -0.9292
 8302SOL     OW36364   1.891   2.220   0.596 -0.2872 -0.3325  0.1180
 8302SOL    HW136365   1.980   2.190   0.617 -0.4928  0.5246  2.2718
 8302SOL    HW236366   1.912   2.292   0.536  0.2536  0.4621  1.2568
 8303SOL     OW36367   2.334   1.687  14.522 -0.3540 -0.2780 -0.5618
 8303SOL    HW136368   2.325   1.749  14.594  0.8276 -2.5916  1.5600
 8303SOL    HW236369   2.427   1.664  14.517 -0.3841 -0.8018  1.3661
 8304SOL     OW36370   1.580   1.734   5.441 -0.1543  0.1053 -0.5655
 8304SOL    HW136371   1.486   1.725   5.454 -0.6867  0.7528 -3.9171
 8304SOL    HW236372   1.600   1.725   5.347 -0.2462  1.7171 -0.7389
 8305SOL     OW36373   1.711   3.436   2.915  0.1887  0.2676  0.1028
 8305SOL    HW136374   1.646   3.425   2.984 -1.9762 -1.5437 -2.2313
 8305SOL    HW236375   1.645   3.422   2.847  3.3916 -0.1452 -2.9196
 8306SOL     OW36376   0.316   0.050   3.379  0.2840  0.1787  0.0268
 8306SOL    HW136377   0.339   0.103   3.302  2.0782 -1.0488 -0.2933
 8306SOL    HW236378   0.301   4.687   3.335 -0.4246  1.2780 -1.8094
 8307SOL     OW36379   1.397   2.224   4.171 -0.5434 -0.5599  0.2581
 8307SOL    HW136380   1.460   2.224   4.099 -1.1107  1.2465 -0.2444
 8307SOL    HW236381   1.315   2.227   4.121 -2.0321  1.3049  2.8016
 8308SOL     OW36382   4.315   0.038   3.303 -0.1405  0.5767 -0.3369
 8308SOL    HW136383   4.307   0.116   3.249 -2.1901 -0.1505 -1.1000
 8308SOL    HW236384   4.263   4.688   3.263 -0.2853  0.2628  0.4029
 8309SOL     OW36385   0.070   0.494  10.262  0.2160  0.1604  0.6535
 8309SOL    HW136386   4.699   0.521  10.252  0.0028 -0.5816  0.5940
 8309SOL    HW236387   0.053   0.403  10.239 -0.2582  0.1431  1.0708
 8310SOL     OW36388   1.848   1.956   8.323  0.1296  0.2996  0.1615
 8310SOL    HW136389   1.908   2.021   8.287 -0.8624  0.9594 -0.2986
 8310SOL    HW236390   1.827   1.911   8.241  1.3088 -0.1630  0.1123
 8311SOL     OW36391   2.945   2.587  12.004  0.1560 -0.1582 -0.3093
 8311SOL    HW136392   2.950   2.653  11.935 -1.9979  1.3974  0.9991
 8311SOL    HW236393   2.857   2.609  12.035  1.0380  3.1494 -0.0999
 8312SOL     OW36394   0.842   4.645   7.555  0.2072  0.0810 -0.3481
 8312SOL    HW136395   0.904   4.679   7.619  0.0500 -1.6369  0.7204
 8312SOL    HW236396   0.896   4.573   7.519 -0.7509  0.7771 -3.2300
 8313SOL     OW36397   1.985   2.679   5.459 -0.2836 -0.4736  0.2335
 8313SOL    HW136398   1.972   2.772   5.477  2.1933  0.0222 -0.5301
 8313SOL    HW236399   1.911   2.642   5.506 -1.1227  1.6231  0.5624
 8314SOL     OW36400   2.592   3.962  11.720 -0.2714 -0.3811 -0.2442
 8314SOL    HW136401   2.560   3.878  11.752 -1.0854 -0.4658 -1.2875
 8314SOL    HW236402   2.646   3.989  11.795  0.5762 -2.2008 -0.1995
 8315SOL     OW36403   2.701   1.238   2.528 -0.4467  0.1715  0.1380
 8315SOL    HW136404   2.746   1.262   2.448 -0.4778 -1.6378 -0.4244
 8315SOL    HW236405   2.652   1.316   2.557  1.0822  1.1734 -0.0125
 8316SOL     OW36406   4.066   0.919   4.434  0.1386 -0.7433 -0.3319
 8316SOL    HW136407   4.059   0.960   4.520 -2.0213 -0.1143 -0.8034
 8316SOL    HW236408   4.162   0.919   4.427  0.2081  1.9028  0.5952
 8317SOL     OW36409   0.184   3.832   8.178 -0.4248  0.1047 -0.1920
 8317SOL    HW136410   0.120   3.762   8.164  1.6635 -2.0766  0.9872
 8317SOL    HW236411   0.137   3.907   8.144  1.6611  1.9025  0.8798
 8318SOL     OW36412   0.858   4.481  14.538  0.0638 -0.1194 -0.2602
 8318SOL    HW136413   0.839   4.407  14.480 -0.5664 -0.7745  0.7841
 8318SOL    HW236414   0.836   4.439  14.622  1.7320 -1.4213 -0.4823
 8319SOL     OW36415   4.222   4.644   4.889  0.0920  0.2967 -0.3202
 8319SOL    HW136416   4.233   0.012   4.922  0.1639  1.1551 -2.7131
 8319SOL    HW236417   4.314   4.621   4.878  0.1248 -0.7753  2.1824
 8320SOL     OW36418   3.905   3.351   7.870  0.8655  0.4450 -0.0555
 8320SOL    HW136419   3.962   3.355   7.792 -0.8425  0.4629 -1.2987
 8320SOL    HW236420   3.926   3.264   7.904  2.3650  0.8415  0.0568
 8321SOL     OW36421   0.611   2.183   0.127 -0.5225 -0.5855  0.4115
 8321SOL    HW136422   0.665   2.218   0.198 -1.0665 -0.5645  0.8120
 8321SOL    HW236423   0.666   2.158   0.053 -0.5426  0.8500 -0.0925
 8322SOL     OW36424   1.769   1.206   5.996  0.3587 -0.1741  0.2896
 8322SOL    HW136425   1.755   1.202   5.901  1.0211  0.4071  0.1691
 8322SOL    HW236426   1.861   1.233   5.995  0.3547 -0.0663  3.2836
 8323SOL     OW36427   1.339   4.210   5.245 -0.0175 -0.7081 -0.1476
 8323SOL    HW136428   1.333   4.119   5.274 -0.1984 -0.4977  0.4886
 8323SOL    HW236429   1.248   4.241   5.249  0.6040  1.2851 -1.6083
 8324SOL     OW36430   1.810   3.876   7.121 -0.0032 -0.2435 -0.3680
 8324SOL    HW136431   1.728   3.922   7.102 -1.0322 -1.6413  0.7348
 8324SOL    HW236432   1.811   3.882   7.216  3.9251 -0.3954 -0.3964
 8325SOL     OW36433   2.134   4.635   0.205 -0.4170 -0.0257 -0.4344
 8325SOL    HW136434   2.098   4.713   0.162  1.2122  0.8562 -0.1898
 8325SOL    HW236435   2.175   4.595   0.128 -0.2331 -3.5814  1.5254
 8326SOL     OW36436   1.211   1.332   2.881 -0.4277  0.4142 -0.0832
 8326SOL    HW136437   1.287   1.372   2.838 -0.7331 -1.3352 -2.2961
 8326SOL    HW236438   1.176   1.280   2.808 -0.0619  1.6771 -1.1619
 8327SOL     OW36439   0.342   3.017   2.299  0.0229  0.1514  0.3260
 8327SOL    HW136440   0.260   3.056   2.269 -1.2750 -0.1743  3.4888
 8327SOL    HW236441   0.369   3.077   2.368 -0.8664 -1.2405  1.8861
 8328SOL     OW36442   1.789   0.077   2.115 -0.5502 -0.4589 -0.0401
 8328SOL    HW136443   1.725   0.016   2.151 -0.9114  0.1544  0.3671
 8328SOL    HW236444   1.763   0.160   2.155 -2.6899 -1.0789 -0.1643
 8329SOL     OW36445   1.901   1.124   0.753 -0.3120  0.5223 -0.4383
 8329SOL    HW136446   1.923   1.078   0.834 -1.2061  0.0847 -0.4522
 8329SOL    HW236447   1.964   1.081   0.695  2.0012  1.5907  1.2859
 8330SOL     OW36448   4.114   0.219   5.316 -0.6974 -0.0148  0.5739
 8330SOL    HW136449   4.195   0.189   5.357 -1.7762 -0.8132  2.1254
 8330SOL    HW236450   4.058   0.224   5.393  1.3552 -1.6903  2.1721
 8331SOL     OW36451   3.918   1.736   8.697  0.1934  0.6718 -0.0256
 8331SOL    HW136452   3.929   1.826   8.665 -0.6251 -0.1657 -2.6335
 8331SOL    HW236453   3.909   1.769   8.787  1.4124 -1.7701  0.9993
 8332SOL     OW36454   3.726   2.853   4.974  0.6651 -0.3588 -0.4189
 8332SOL    HW136455   3.666   2.826   4.906  1.0130 -3.5403  0.5617
 8332SOL    HW236456   3.691   2.823   5.058 -1.4347  0.0486 -1.1634
 8333SOL     OW36457   1.434   0.601  15.887 -0.3531 -0.2055 -0.3353
 8333SOL    HW136458   1.423   0.544  15.963 -2.5146  2.4652  1.3491
 8333SOL    HW236459   1.462   0.683  15.927  1.2441 -1.3590  0.9728
 8334SOL     OW36460   0.553   2.068   3.149 -0.3555  0.2990  0.1799
 8334SOL    HW136461   0.509   2.130   3.090 -2.1466  0.8094  2.0513
 8334SOL    HW236462   0.633   2.042   3.103 -0.0809 -0.2199  0.9579
 8335SOL     OW36463   0.281   1.003  13.507 -0.0496 -0.2967  0.2618
 8335SOL    HW136464   0.215   0.953  13.557 -0.8624 -0.8449 -1.3485
 8335SOL    HW236465   0.334   1.038  13.579 -0.0836 -1.3467  0.8077
 8336SOL     OW36466   2.988   1.262   7.658  0.8526  0.0954 -0.0355
 8336SOL    HW136467   3.061   1.229   7.710  1.6453  0.0668 -1.1788
 8336SOL    HW236468   2.917   1.200   7.676 -0.3032  0.3860 -3.7063
 8337SOL     OW36469   3.819   1.573   2.099  0.1556 -0.1653  0.3070
 8337SOL    HW136470   3.821   1.493   2.152 -1.8538  0.6527  1.6339
 8337SOL    HW236471   3.906   1.612   2.104 -0.4745  0.9961  2.4126
 8338SOL     OW36472   2.446   3.329   8.722  0.3279  1.0526 -0.4118
 8338SOL    HW136473   2.463   3.250   8.670  1.1783  0.7280  0.3512
 8338SOL    HW236474   2.352   3.325   8.736  0.2383  2.0797 -0.7183
 8339SOL     OW36475   3.331   4.466   7.271 -0.6099 -0.4075 -0.1562
 8339SOL    HW136476   3.250   4.509   7.244 -1.6953 -1.1951  1.8390
 8339SOL    HW236477   3.341   4.504   7.358  3.5823 -0.1259 -0.7872
 8340SOL     OW36478   4.076   0.215   3.559 -0.3334 -0.6120 -0.6721
 8340SOL    HW136479   4.116   0.295   3.593  0.2759 -0.7077 -1.1566
 8340SOL    HW236480   4.012   0.188   3.625  0.5447  0.3984  0.5959
 8341SOL     OW36481   2.821   4.420  11.608 -0.3108 -0.1774 -0.5360
 8341SOL    HW136482   2.834   4.497  11.553 -1.5578  0.5879  0.2504
 8341SOL    HW236483   2.899   4.365  11.601  0.4027  1.0752 -2.5579
 8342SOL     OW36484   0.017   4.169   5.802 -0.4222 -0.0468 -0.0309
 8342SOL    HW136485   4.650   4.139   5.778  0.3437 -1.7895 -0.7265
 8342SOL    HW236486   0.025   4.242   5.742  2.3910 -0.6259 -0.3548
 8343SOL     OW36487   3.964   1.801  16.770  0.3816  0.0953  0.0103
 8343SOL    HW136488   4.028   1.765  16.831 -0.9868 -1.0314  0.7829
 8343SOL    HW236489   4.016   1.798  16.690 -0.7294 -1.2095 -0.6743
 8344SOL     OW36490   4.619   0.539  16.668 -0.3656  0.0462  0.1447
 8344SOL    HW136491   4.641   0.545  16.761 -2.3607  1.5285  0.5353
 8344SOL    HW236492   4.613   0.445  16.652  2.7321 -0.2001  0.4482
 8345SOL     OW36493   0.955   0.245   3.768 -0.6941  0.4097  0.0177
 8345SOL    HW136494   0.902   0.254   3.847  1.7408  0.5636  1.6593
 8345SOL    HW236495   0.899   0.300   3.714  0.9418 -1.9899 -4.1137
 8346SOL     OW36496   4.055   0.711   6.140 -0.1025 -0.0811  0.2836
 8346SOL    HW136497   3.965   0.677   6.135  0.0783 -0.1095 -2.8366
 8346SOL    HW236498   4.045   0.788   6.084 -0.4690  0.6555  1.3740
 8347SOL     OW36499   2.943   2.181  10.149 -0.7268 -0.2367 -0.1557
 8347SOL    HW136500   2.876   2.155  10.212  0.3529 -1.1815  0.6094
 8347SOL    HW236501   2.982   2.096  10.132 -1.1793 -0.0056 -2.3363
 8348SOL     OW36502   0.953   2.313   7.287 -0.1264 -0.3790  0.0993
 8348SOL    HW136503   0.982   2.225   7.260  0.1115 -0.2161 -0.1733
 8348SOL    HW236504   0.942   2.295   7.380 -4.8833  0.2911 -0.2995
 8349SOL     OW36505   1.039   0.609   9.386  0.1919 -0.1116 -0.0593
 8349SOL    HW136506   1.069   0.688   9.431 -0.6936  1.6615 -2.5750
 8349SOL    HW236507   1.055   0.540   9.450 -0.2677 -1.7839 -1.7699
 8350SOL     OW36508   3.991   4.192  12.986 -0.3677  0.1187 -0.6725
 8350SOL    HW136509   3.933   4.182  12.911 -1.1301  0.3403 -0.1117
 8350SOL    HW236510   3.969   4.103  13.014  0.5909  0.4753  1.2118
 8351SOL     OW36511   3.696   2.395   4.629  0.6880 -0.3595 -0.2126
 8351SOL    HW136512   3.715   2.399   4.722 -0.3916  1.2239 -0.0620
 8351SOL    HW236513   3.734   2.479   4.603  0.6249  0.3152  1.9006
 8352SOL     OW36514   2.597   0.367   1.556 -0.1602  0.0755  0.3626
 8352SOL    HW136515   2.639   0.342   1.638 -1.1004 -2.2537  0.1330
 8352SOL    HW236516   2.511   0.394   1.587 -0.2250 -1.5450  1.5566
 8353SOL     OW36517   3.191   2.141  15.604  0.2047  0.2831  0.0585
 8353SOL    HW136518   3.098   2.122  15.616  0.4273 -0.1408  1.1302
 8353SOL    HW236519   3.190   2.237  15.609 -0.5362  0.4725 -4.0166
 8354SOL     OW36520   4.068   2.810   3.064 -0.3293 -0.3199 -0.6292
 8354SOL    HW136521   4.110   2.752   3.001 -0.3548 -1.6007  0.5206
 8354SOL    HW236522   4.127   2.808   3.139 -2.3766 -3.5734  0.9215
 8355SOL     OW36523   3.398   4.479  17.190  0.3246  0.6016 -0.2756
 8355SOL    HW136524   3.337   4.470  17.117  0.0412  1.0626 -0.0882
 8355SOL    HW236525   3.388   4.573  17.203  2.3273  0.5940  1.3246
 8356SOL     OW36526   0.827   4.359   5.233 -0.0230 -0.7988 -0.5145
 8356SOL    HW136527   0.759   4.311   5.280  0.5131 -0.4619  0.6039
 8356SOL    HW236528   0.822   4.447   5.270  1.2378 -0.1588 -1.8376
 8357SOL     OW36529   2.515   3.975  10.550  0.3362  0.2895  0.1088
 8357SOL    HW136530   2.531   3.898  10.604  0.1124  0.2043  0.0560
 8357SOL    HW236531   2.518   4.048  10.611 -1.1893  1.0210 -0.6902
 8358SOL     OW36532   3.292   3.706   3.790 -0.3632  0.1597  0.1813
 8358SOL    HW136533   3.332   3.660   3.716  1.1975 -0.8763  1.6650
 8358SOL    HW236534   3.373   3.707   3.840  1.3801 -0.9354 -2.6160
 8359SOL     OW36535   0.915   3.509   6.553 -0.1524  0.5543  0.1710
 8359SOL    HW136536   0.992   3.469   6.594  1.3298  0.2240 -2.9664
 8359SOL    HW236537   0.858   3.503   6.630 -1.8716  2.5319 -0.9480
 8360SOL     OW36538   0.972   0.910   6.138 -0.0255  0.3704 -0.7336
 8360SOL    HW136539   0.955   0.886   6.047  3.4676 -2.5736 -0.6335
 8360SOL    HW236540   0.893   0.960   6.159 -0.0173  0.7318 -1.5569
 8361SOL     OW36541   2.322   3.538   5.406 -0.3484  0.6612  0.4332
 8361SOL    HW136542   2.386   3.536   5.478  0.6731 -1.4952 -0.5361
 8361SOL    HW236543   2.238   3.517   5.446  0.2086 -1.1607  0.6808
 8362SOL     OW36544   3.754   4.379   6.358 -0.2001  0.0072 -0.6862
 8362SOL    HW136545   3.779   4.431   6.282  2.2084 -1.3494 -0.8057
 8362SOL    HW236546   3.661   4.375   6.335 -0.6182  0.4645  0.8896
 8363SOL     OW36547   3.570   1.216   0.232 -0.3438  0.2979 -0.2819
 8363SOL    HW136548   3.660   1.192   0.212  1.1157  2.7202  3.3613
 8363SOL    HW236549   3.557   1.284   0.166  0.5150 -1.5424 -2.3482
 8364SOL     OW36550   0.415   3.182  11.460 -0.0363  0.8531 -0.1722
 8364SOL    HW136551   0.479   3.212  11.525  0.4005 -1.8363  0.6521
 8364SOL    HW236552   0.443   3.091  11.452  1.0130  1.2000 -0.4523
 8365SOL     OW36553   3.737   0.638   6.145  0.0006 -0.2494  0.5252
 8365SOL    HW136554   3.731   0.625   6.240  0.9596 -0.2769  0.5900
 8365SOL    HW236555   3.739   0.729   6.116 -0.2584 -0.6145 -0.6045
 8366SOL     OW36556   4.055   2.025   9.480  0.5327 -0.1084  0.1291
 8366SOL    HW136557   4.008   2.005   9.561 -0.7431 -2.3303 -1.1800
 8366SOL    HW236558   4.001   1.980   9.416  2.0400 -2.5689  0.5988
 8367SOL     OW36559   3.797   2.156   3.121 -0.2814  0.0697 -0.7479
 8367SOL    HW136560   3.799   2.246   3.087  0.0818  0.2507 -0.2426
 8367SOL    HW236561   3.708   2.124   3.108 -0.1052  0.5032 -3.0647
 8368SOL     OW36562   3.660   3.206  10.447 -0.3436 -0.0932  0.3832
 8368SOL    HW136563   3.704   3.247  10.522  1.1800 -0.7790 -0.1542
 8368SOL    HW236564   3.663   3.115  10.475  1.1487 -0.4867 -1.0791
 8369SOL     OW36565   4.023   2.606   6.818 -0.0549  0.1423  0.3418
 8369SOL    HW136566   4.089   2.635   6.882  0.8519 -2.1555  0.4369
 8369SOL    HW236567   4.019   2.512   6.833  0.1549  0.2182  0.8730
 8370SOL     OW36568   4.138   4.525   8.449  0.0108 -0.0928  0.1558
 8370SOL    HW136569   4.056   4.484   8.476 -0.8266  0.6956 -1.1960
 8370SOL    HW236570   4.168   4.467   8.379 -3.5187 -1.6477 -0.0330
 8371SOL     OW36571   4.446   2.702   2.547  0.4393  0.8179  0.9877
 8371SOL    HW136572   4.356   2.711   2.580 -0.1836 -3.3060  0.3287
 8371SOL    HW236573   4.483   2.663   2.625 -0.3613  0.9757  1.4504
 8372SOL     OW36574   0.444   0.727   8.849  0.2472 -0.1424 -0.4231
 8372SOL    HW136575   0.535   0.736   8.880 -0.0518 -0.6777  0.6104
 8372SOL    HW236576   0.436   0.781   8.771  0.5646 -0.8789 -0.9626
 8373SOL     OW36577   1.195   3.690   9.304 -0.4359 -0.1252 -0.2406
 8373SOL    HW136578   1.178   3.721   9.215 -1.5720  0.4679  0.1913
 8373SOL    HW236579   1.193   3.779   9.338  1.2308  0.1186 -0.8094
 8374SOL     OW36580   0.004   3.878   6.248 -0.2420 -0.1876 -0.0223
 8374SOL    HW136581   0.050   3.942   6.194  0.7084 -0.7494  0.1249
 8374SOL    HW236582   0.070   3.829   6.296 -1.2816 -0.5810  0.9969
 8375SOL     OW36583   1.862   3.885   4.442 -0.3369 -0.4919 -0.2963
 8375SOL    HW136584   1.931   3.917   4.383  0.2081 -0.4159  0.3804
 8375SOL    HW236585   1.905   3.803   4.468 -0.9972 -0.9699 -0.7177
 8376SOL     OW36586   0.302   1.510   7.465  0.2837 -0.3672  0.2253
 8376SOL    HW136587   0.257   1.441   7.416  0.3638  0.2487 -0.7399
 8376SOL    HW236588   0.322   1.461   7.544  0.8525  1.5951  1.3151
 8377SOL     OW36589   0.720   3.449   8.730  0.1865 -0.0288  0.2447
 8377SOL    HW136590   0.696   3.540   8.750 -0.0010  0.0978 -0.5547
 8377SOL    HW236591   0.650   3.399   8.771 -0.7693  0.7616 -0.4015
 8378SOL     OW36592   0.355   0.938  14.012  0.2313 -0.1124  0.2818
 8378SOL    HW136593   0.336   0.882  13.936 -0.2047 -0.1187  0.3925
 8378SOL    HW236594   0.446   0.965  14.001 -0.0916  1.1059  0.6254
 8379SOL     OW36595   4.456   4.666  13.313 -0.7882 -0.1120  0.0058
 8379SOL    HW136596   4.396   0.004  13.357  1.1322  0.9926  1.1340
 8379SOL    HW236597   4.404   4.585  13.318 -0.8902 -0.0457  0.0138
 8380SOL     OW36598   3.528   0.535   1.636 -0.4113  0.0852 -0.4520
 8380SOL    HW136599   3.562   0.458   1.591 -2.1766 -0.3041 -1.1408
 8380SOL    HW236600   3.489   0.580   1.561 -1.7903  0.9087  0.7547
 8381SOL     OW36601   0.082   0.655   2.551 -0.5366  0.0438 -0.3313
 8381SOL    HW136602   0.082   0.731   2.608  1.0348 -1.7995  2.1113
 8381SOL    HW236603   0.057   0.690   2.465  0.1713  1.5608  0.0771
 8382SOL     OW36604   4.141   2.202   5.499  0.6649  0.5604 -1.2622
 8382SOL    HW136605   4.101   2.190   5.585  1.3404  0.5587 -0.9521
 8382SOL    HW236606   4.219   2.148   5.491 -0.6729 -1.7717  1.5418
 8383SOL     OW36607   4.025   4.215   2.046  0.0339 -0.0590  0.1697
 8383SOL    HW136608   3.977   4.274   2.105  1.4186  1.0447  0.1971
 8383SOL    HW236609   3.951   4.185   1.993 -1.0728  0.3333  1.4990
 8384SOL     OW36610   4.261   1.618   7.982 -0.3926 -0.3284 -0.2429
 8384SOL    HW136611   4.249   1.523   7.975  0.7900 -0.4369 -0.8615
 8384SOL    HW236612   4.197   1.642   8.048  0.2887  3.7325 -1.0783
 8385SOL     OW36613   2.385   2.998   2.130  0.3554  0.4058  0.0331
 8385SOL    HW136614   2.394   3.069   2.066 -1.3457 -0.3330 -1.0269
 8385SOL    HW236615   2.309   2.955   2.092  1.3959  0.9084 -2.6395
 8386SOL     OW36616   2.146   2.445   5.712  0.1228 -0.3045 -0.0132
 8386SOL    HW136617   2.138   2.524   5.765 -1.2647 -0.6432  0.2758
 8386SOL    HW236618   2.067   2.394   5.732 -0.5911  0.4682 -0.8428
 8387SOL     OW36619   2.178   3.991  10.724 -0.1735 -0.8663 -0.5168
 8387SOL    HW136620   2.188   4.039  10.641  0.5810 -1.0799 -0.5454
 8387SOL    HW236621   2.195   4.067  10.780 -1.2793  0.0022 -1.3486
 8388SOL     OW36622   2.812   0.819   6.751 -0.3954  0.1488  0.2528
 8388SOL    HW136623   2.903   0.825   6.781 -0.8685  1.2398  1.4696
 8388SOL    HW236624   2.835   0.765   6.675  0.1864  0.7239  0.0180
 8389SOL     OW36625   1.077   4.297   1.067 -0.4332 -0.1190 -0.1893
 8389SOL    HW136626   1.030   4.232   1.014  0.6448 -1.1834  0.1692
 8389SOL    HW236627   1.162   4.254   1.068 -0.8366 -0.9305 -0.5792
 8390SOL     OW36628   0.007   3.028   2.919 -0.9097 -0.2884 -0.0018
 8390SOL    HW136629   0.072   2.958   2.921 -0.1803  0.3331 -2.1701
 8390SOL    HW236630   0.071   3.094   2.946 -3.0819  2.4517 -1.4405
 8391SOL     OW36631   4.198   2.485   8.375  0.2489 -0.8590 -0.6008
 8391SOL    HW136632   4.287   2.480   8.340  0.3715 -1.0646 -0.2592
 8391SOL    HW236633   4.164   2.562   8.329 -2.9819 -0.9194  1.6798
 8392SOL     OW36634   2.791   0.310  15.264 -0.0851  0.1794 -1.2266
 8392SOL    HW136635   2.852   0.284  15.195  0.5444 -2.9818  0.5400
 8392SOL    HW236636   2.834   0.390  15.295 -0.5547 -0.4674  1.0443
 8393SOL     OW36637   0.713   1.376   2.288 -0.0001 -0.5804  0.1777
 8393SOL    HW136638   0.678   1.342   2.205 -2.2729  0.6095  0.6428
 8393SOL    HW236639   0.703   1.295   2.338 -3.0768 -0.8612 -0.8671
 8394SOL     OW36640   4.641   1.543   3.609  0.2709 -0.2633  0.2581
 8394SOL    HW136641   4.705   1.555   3.679 -1.1007  1.3549  1.2325
 8394SOL    HW236642   4.699   1.526   3.534 -1.1363  1.4351 -1.1963
 8395SOL     OW36643   1.484   2.119   0.182 -0.4977 -0.4345 -0.2760
 8395SOL    HW136644   1.553   2.147   0.242  0.1907 -0.8038 -0.8978
 8395SOL    HW236645   1.533   2.112   0.100 -1.8303 -2.4121 -0.9142
 8396SOL     OW36646   3.702   2.484  12.639  0.0353  0.5178  0.3245
 8396SOL    HW136647   3.782   2.519  12.679 -1.8743  1.6009  3.2575
 8396SOL    HW236648   3.713   2.392  12.662  0.4222 -0.1973 -2.7192
 8397SOL     OW36649   2.006   0.115  17.665 -0.1629  0.0079  0.2935
 8397SOL    HW136650   1.995   0.191   0.037 -1.3142  2.9146 -3.7304
 8397SOL    HW236651   1.933   0.135  17.606 -2.1725 -2.0227  2.0807
 8398SOL     OW36652   0.205   3.865   2.692  0.4317 -0.4520 -0.0554
 8398SOL    HW136653   0.189   3.772   2.678  1.0669 -0.9986  2.9570
 8398SOL    HW236654   0.229   3.891   2.602  0.1924 -2.4870 -0.7109
 8399SOL     OW36655   2.500   3.697   5.018 -0.1648 -0.7830 -0.1163
 8399SOL    HW136656   2.426   3.756   5.003  0.8180  0.5453  0.2738
 8399SOL    HW236657   2.458   3.618   5.052  1.3870 -1.3179  0.5513
 8400SOL     OW36658   2.484   0.528   1.304  0.0031  0.4009 -0.1323
 8400SOL    HW136659   2.404   0.578   1.289  0.9049  0.9808 -3.1377
 8400SOL    HW236660   2.472   0.504   1.395 -0.1599 -0.4094 -0.3749
 8401SOL     OW36661   1.714   3.786   1.775  0.0075 -0.1435 -0.5384
 8401SOL    HW136662   1.689   3.878   1.775 -0.7077 -0.3358  2.0068
 8401SOL    HW236663   1.704   3.762   1.867  0.1329  3.1380  0.3290
 8402SOL     OW36664   3.240   1.702   3.079 -0.3388  0.8597  0.3163
 8402SOL    HW136665   3.318   1.755   3.093  1.0614 -0.9344 -0.7043
 8402SOL    HW236666   3.273   1.612   3.083  2.5516  1.8523 -1.1957
 8403SOL     OW36667   0.803   3.661   2.916 -0.0161 -0.2552  0.1418
 8403SOL    HW136668   0.847   3.579   2.895  0.0957 -0.2848  0.4945
 8403SOL    HW236669   0.855   3.727   2.870  0.4448 -0.5817  0.1959
 8404SOL     OW36670   0.013   1.539   4.134 -0.3276  0.4709 -0.1906
 8404SOL    HW136671   4.654   1.559   4.085 -1.0525  1.7790  1.5470
 8404SOL    HW236672   0.007   1.443   4.130  0.1693  0.3847  1.3183
 8405SOL     OW36673   0.304   0.392  16.374 -0.9901  0.3648 -0.2584
 8405SOL    HW136674   0.246   0.425  16.442  1.2852  1.3231  1.2123
 8405SOL    HW236675   0.241   0.375  16.304 -0.6503 -0.4381 -0.3689
 8406SOL     OW36676   3.627   1.593   3.795  0.2603  0.0811  0.1833
 8406SOL    HW136677   3.703   1.639   3.833  0.1659 -1.2041  1.9090
 8406SOL    HW236678   3.623   1.646   3.715 -0.3265  0.9204  0.7651
 8407SOL     OW36679   4.275   4.444  10.689  0.1294  0.2338  0.6143
 8407SOL    HW136680   4.317   4.520  10.729  1.1058  0.5807 -1.0987
 8407SOL    HW236681   4.260   4.387  10.764  0.6459 -0.6313  0.0477
 8408SOL     OW36682   2.124   1.866  16.529 -0.3901  0.0013 -0.1171
 8408SOL    HW136683   2.034   1.899  16.531  0.0627  1.1397  1.5420
 8408SOL    HW236684   2.121   1.773  16.553  1.5050 -0.4589 -1.6422
 8409SOL     OW36685   0.180   0.574   1.181  0.3266  0.0250 -0.0167
 8409SOL    HW136686   0.204   0.658   1.219 -2.3281  0.7174  0.1887
 8409SOL    HW236687   0.129   0.536   1.253  1.8171 -2.5079 -0.3204
 8410SOL     OW36688   1.983   2.723   7.315  0.0533  0.6569  0.1863
 8410SOL    HW136689   2.065   2.698   7.273 -0.7515  0.4505 -1.2567
 8410SOL    HW236690   1.937   2.764   7.241 -1.2658 -1.3405 -0.0842
 8411SOL     OW36691   0.741   0.915   7.303  0.1323 -0.2030  0.2393
 8411SOL    HW136692   0.750   0.821   7.292  0.3087 -0.2664  0.9504
 8411SOL    HW236693   0.718   0.915   7.396  2.4249 -1.7837  0.8119
 8412SOL     OW36694   2.746   1.027  17.212  0.4521  0.3981  0.0590
 8412SOL    HW136695   2.709   0.943  17.183 -0.8968  0.2579  2.2214
 8412SOL    HW236696   2.666   1.078  17.198 -0.9141 -1.2074  2.0934
 8413SOL     OW36697   2.787   0.956   5.479  0.3794 -0.4243 -0.1882
 8413SOL    HW136698   2.775   0.935   5.386  1.7881  0.1340 -0.5002
 8413SOL    HW236699   2.850   0.888   5.504  2.0248  1.9231  2.0262
 8414SOL     OW36700   2.217   3.350   3.798  1.0152 -0.5566 -0.2289
 8414SOL    HW136701   2.281   3.375   3.732  1.2459  1.2092  0.6831
 8414SOL    HW236702   2.152   3.418   3.786  0.8551 -0.2653  2.2361
 8415SOL     OW36703   3.151   0.719  14.642 -0.5711 -0.7140  0.0700
 8415SOL    HW136704   3.209   0.722  14.718  1.0278  0.1498 -1.1791
 8415SOL    HW236705   3.214   0.693  14.574  1.2167  1.7761  0.7788
 8416SOL     OW36706   4.145   4.640  13.279 -0.3977  0.2466 -0.2615
 8416SOL    HW136707   4.180   4.559  13.316  4.0473  1.5420 -1.7331
 8416SOL    HW236708   4.175   4.711  13.335  2.2492  0.6475 -2.2282
 8417SOL     OW36709   1.486   3.390   5.529  0.5812  0.3977 -0.0053
 8417SOL    HW136710   1.550   3.404   5.459 -0.2297 -0.8828 -0.9940
 8417SOL    HW236711   1.474   3.295   5.535  1.7703  0.2072 -0.5069
 8418SOL     OW36712   2.685   0.982   1.061 -0.5124 -0.0592  0.0023
 8418SOL    HW136713   2.662   0.901   1.014  0.5621 -0.6470  0.4898
 8418SOL    HW236714   2.666   0.947   1.148  0.8609  1.6508  0.9816
 8419SOL     OW36715   0.446   3.737   7.610 -0.1468  0.2940 -0.1751
 8419SOL    HW136716   0.406   3.666   7.660  0.7871  1.1602  1.7828
 8419SOL    HW236717   0.507   3.696   7.548 -1.1815  1.7423 -2.1467
 8420SOL     OW36718   3.646   1.636   4.905  0.6072  0.1180 -0.7743
 8420SOL    HW136719   3.582   1.605   4.968  1.3505  0.7283  0.2882
 8420SOL    HW236720   3.718   1.580   4.933  0.1386 -0.2531 -0.3224
 8421SOL     OW36721   1.851   2.902  16.036 -0.3462 -0.3871  0.3691
 8421SOL    HW136722   1.876   2.960  15.964  1.4170 -0.0537  1.2700
 8421SOL    HW236723   1.937   2.871  16.062 -0.8088 -1.8758  0.1392
 8422SOL     OW36724   1.099   4.184   5.551 -0.2011 -0.0357 -0.9491
 8422SOL    HW136725   1.035   4.113   5.547 -2.2944  1.7328  1.1159
 8422SOL    HW236726   1.182   4.136   5.557 -0.5045 -0.4671 -0.1460
 8423SOL     OW36727   2.194   2.423   1.639  0.5158  0.4541  0.4988
 8423SOL    HW136728   2.106   2.390   1.618  0.6848  1.2159 -1.3994
 8423SOL    HW236729   2.219   2.366   1.712 -1.2017  0.3393  0.9893
 8424SOL     OW36730   1.463   2.470   2.888 -0.6489  0.1876 -0.1349
 8424SOL    HW136731   1.558   2.484   2.880 -0.4657 -0.9711 -0.0776
 8424SOL    HW236732   1.462   2.397   2.950 -2.7833  0.0537 -0.3487
 8425SOL     OW36733   3.890   1.355   2.647  0.1169 -0.2981 -0.3544
 8425SOL    HW136734   3.817   1.408   2.679  0.2974  1.7940 -3.4452
 8425SOL    HW236735   3.853   1.267   2.651  0.9226 -0.6306 -0.1912
 8426SOL     OW36736   1.830   2.282   5.408  0.5072  0.5270  0.5083
 8426SOL    HW136737   1.910   2.318   5.368  1.3391  1.5728  3.1479
 8426SOL    HW236738   1.849   2.276   5.501  1.3505  3.1757  0.5111
 8427SOL     OW36739   3.959   0.711   9.559 -1.0454  0.0631 -0.3818
 8427SOL    HW136740   4.005   0.774   9.613 -1.2604 -1.2867  1.3627
 8427SOL    HW236741   3.987   0.740   9.472  3.7102 -1.0284  0.7526
 8428SOL     OW36742   1.666   4.715   7.386 -0.4490  0.6969 -0.2001
 8428SOL    HW136743   1.589   0.047   7.406 -0.4835  0.6218 -0.1346
 8428SOL    HW236744   1.729   0.047   7.436  0.3586  1.1692 -1.6943
 8429SOL     OW36745   0.519   3.868  16.380 -0.0799  0.3257  0.0386
 8429SOL    HW136746   0.479   3.804  16.321  1.8777 -1.0781  0.2548
 8429SOL    HW236747   0.442   3.894  16.431 -0.2197 -0.3862  0.1906
 8430SOL     OW36748   1.909   2.305   3.160 -0.6925 -0.3033  0.6317
 8430SOL    HW136749   1.897   2.259   3.243 -0.3012  1.3850  1.6251
 8430SOL    HW236750   1.867   2.390   3.174  2.5667  1.5874 -1.0092
 8431SOL     OW36751   0.740   1.172   1.538 -0.0353  0.1075  0.3008
 8431SOL    HW136752   0.827   1.207   1.556 -1.0105  1.9980  1.2859
 8431SOL    HW236753   0.749   1.079   1.559 -2.1606  0.1680  1.4978
 8432SOL     OW36754   0.617   3.087   4.493  0.1642 -0.3735 -0.4772
 8432SOL    HW136755   0.695   3.078   4.437  1.3191 -0.2950  1.1051
 8432SOL    HW236756   0.586   2.997   4.491 -0.2400 -0.3089  2.7935
 8433SOL     OW36757   0.022   0.215  14.999 -0.0598 -0.2521  0.0378
 8433SOL    HW136758   4.717   0.306  14.990 -0.8806 -0.4619  0.2921
 8433SOL    HW236759   4.662   0.189  15.042  0.6485 -1.5819  0.5820
 8434SOL     OW36760   3.825   1.079   1.866  0.1736 -0.1717  0.1395
 8434SOL    HW136761   3.848   1.055   1.776  1.6291 -2.5078  1.1391
 8434SOL    HW236762   3.732   1.091   1.851 -0.2218  0.2400  3.0233
 8435SOL     OW36763   0.734   4.405  14.002  0.5355  0.0837  0.3617
 8435SOL    HW136764   0.694   4.385  13.917  1.1300 -3.2506  0.8558
 8435SOL    HW236765   0.790   4.481  13.984 -1.7881  1.3796 -1.3177
 8436SOL     OW36766   3.636   2.097   4.345  0.1253  0.1222  0.0855
 8436SOL    HW136767   3.721   2.068   4.314  0.4370  2.5488 -1.3188
 8436SOL    HW236768   3.582   2.021   4.323  1.4373 -0.6584 -0.4232
 8437SOL     OW36769   0.297   1.750  11.921  0.2026 -0.0446  0.2699
 8437SOL    HW136770   0.316   1.660  11.946  0.0656 -0.5288 -1.3946
 8437SOL    HW236771   0.378   1.773  11.875 -0.2157 -0.9248 -0.8844
 8438SOL     OW36772   4.521   0.782   5.242 -0.4617 -0.0691 -0.0294
 8438SOL    HW136773   4.503   0.763   5.334  1.5634  0.0424  0.3826
 8438SOL    HW236774   4.536   0.697   5.201  0.7846 -0.7149  1.8147
 8439SOL     OW36775   0.433   1.894   6.107 -0.0119  0.1902  0.3650
 8439SOL    HW136776   0.354   1.943   6.132  0.1591  0.3873  0.5231
 8439SOL    HW236777   0.410   1.860   6.021  0.5695  0.5344  0.0753
 8440SOL     OW36778   2.262   1.292   0.862  0.6066  0.2915 -0.3149
 8440SOL    HW136779   2.223   1.253   0.940  1.4687  1.6327  0.7779
 8440SOL    HW236780   2.179   1.321   0.823  0.2752 -0.9071 -0.5024
 8441SOL     OW36781   2.686   0.928   7.043  0.8113 -0.1174 -0.1813
 8441SOL    HW136782   2.723   0.861   7.100  0.1379  1.4619  2.1146
 8441SOL    HW236783   2.684   0.887   6.957  0.1575  1.3104 -0.8473
 8442SOL     OW36784   0.452   0.086   0.711 -0.5106 -0.0252  0.2577
 8442SOL    HW136785   0.398   0.008   0.720 -0.6995  0.3959  2.7301
 8442SOL    HW236786   0.505   0.071   0.633 -0.1192 -1.3125  0.7777
 8443SOL     OW36787   1.936   3.374   8.814  0.1698  0.1772  0.1379
 8443SOL    HW136788   1.880   3.443   8.778 -0.4577  0.7011  2.1709
 8443SOL    HW236789   1.886   3.336   8.886 -1.9695 -1.0339 -1.9746
 8444SOL     OW36790   1.567   2.886  11.913 -0.4277  0.2486  0.6251
 8444SOL    HW136791   1.644   2.839  11.883 -0.4828  1.4951 -1.4480
 8444SOL    HW236792   1.568   2.887  12.009  1.2891  0.7597  0.6024
 8445SOL     OW36793   0.907   1.074   2.144 -0.1434 -0.7273  0.3056
 8445SOL    HW136794   0.836   1.063   2.080  1.1523 -1.3916 -1.0057
 8445SOL    HW236795   0.977   1.021   2.108 -0.3718 -1.2496  0.6211
 8446SOL     OW36796   4.497   4.082   4.555  0.2556 -0.0199  0.0708
 8446SOL    HW136797   4.519   4.175   4.555 -0.5274  0.1660  0.5131
 8446SOL    HW236798   4.543   4.044   4.480 -1.2527  0.8233 -1.2949
 8447SOL     OW36799   0.081   0.381   2.794 -0.4864 -0.7989  0.1010
 8447SOL    HW136800   0.135   0.304   2.816 -1.9223 -1.4638  1.3330
 8447SOL    HW236801   0.124   0.412   2.715 -1.6588 -1.2446 -0.7203
 8448SOL     OW36802   3.916   2.777  12.323 -0.2104 -0.5978  0.2128
 8448SOL    HW136803   3.925   2.778  12.419  0.6386 -0.4602  0.1303
 8448SOL    HW236804   3.994   2.827  12.299 -0.8499 -0.7352 -2.1034
 8449SOL     OW36805   4.342   2.149   4.145 -0.1319  0.1671 -0.1149
 8449SOL    HW136806   4.266   2.162   4.203 -0.6492 -3.3392 -0.0232
 8449SOL    HW236807   4.400   2.223   4.164 -0.4757  0.3037  0.4191
 8450SOL     OW36808   1.262   0.828   8.293 -0.1960 -0.0397 -0.4750
 8450SOL    HW136809   1.271   0.825   8.388  0.9485 -0.8241 -0.6120
 8450SOL    HW236810   1.335   0.885   8.270  0.0264 -0.1781 -0.1133
 8451SOL     OW36811   4.275   1.038   8.920  0.3021 -0.1658  0.3338
 8451SOL    HW136812   4.263   1.118   8.869  0.3810  0.8504  1.9056
 8451SOL    HW236813   4.324   0.984   8.859  2.8426  1.6795  0.7508
 8452SOL     OW36814   0.952   0.405   5.479  0.1126  0.2151 -0.1045
 8452SOL    HW136815   0.916   0.422   5.392 -0.9702 -0.8066  0.1340
 8452SOL    HW236816   0.901   0.474   5.521 -0.1713  0.7851 -1.3819
 8453SOL     OW36817   0.879   3.485   4.731  0.0981  0.2523  0.3071
 8453SOL    HW136818   0.912   3.491   4.641  2.0217 -2.3343  0.8536
 8453SOL    HW236819   0.797   3.534   4.725 -0.5442 -0.8919 -0.1741
 8454SOL     OW36820   4.281   2.922   8.930 -0.1079  0.6158 -0.1369
 8454SOL    HW136821   4.273   3.010   8.894 -0.5706 -0.3346 -2.3435
 8454SOL    HW236822   4.189   2.897   8.940  0.2130 -0.9958 -1.2875
 8455SOL     OW36823   4.378   0.660   1.713  0.1927 -0.1864 -0.2811
 8455SOL    HW136824   4.297   0.641   1.666 -0.6202  1.4508  0.4503
 8455SOL    HW236825   4.426   0.689   1.636  0.9624 -0.8678 -0.0603
 8456SOL     OW36826   4.334   1.948   6.389  0.0296 -0.8013 -0.4282
 8456SOL    HW136827   4.333   1.859   6.354 -1.0348 -1.2356  0.7257
 8456SOL    HW236828   4.242   1.972   6.375 -0.2361 -2.4516 -1.5751
 8457SOL     OW36829   2.905   3.442   2.456 -0.5734 -0.0640 -0.4921
 8457SOL    HW136830   2.862   3.358   2.440  0.1521 -0.6800  0.7895
 8457SOL    HW236831   2.968   3.442   2.384 -0.4568 -1.2723 -0.3896
 8458SOL     OW36832   2.448   1.107  15.602  0.3419 -0.0837 -0.0554
 8458SOL    HW136833   2.426   1.142  15.688 -1.7818  0.0413 -0.6402
 8458SOL    HW236834   2.424   1.183  15.547  1.4662 -0.9814 -1.7839
 8459SOL     OW36835   4.309   2.328   3.463 -0.6032  0.3719 -0.1411
 8459SOL    HW136836   4.280   2.240   3.485  1.5023  0.2952  2.3589
 8459SOL    HW236837   4.330   2.362   3.551  2.9471  2.1353 -1.6823
 8460SOL     OW36838   2.046   3.253  14.114  0.5156  0.1172 -0.0131
 8460SOL    HW136839   2.014   3.321  14.054  3.0304  2.8407  1.7539
 8460SOL    HW236840   2.058   3.310  14.190 -1.1204 -0.0171  0.3456
 8461SOL     OW36841   2.058   0.385   2.613  0.2101  0.1389  0.3866
 8461SOL    HW136842   1.982   0.328   2.610  0.4245 -0.1791  1.0232
 8461SOL    HW236843   2.099   0.352   2.693 -0.9567  1.5724  1.5723
 8462SOL     OW36844   1.423   3.017   5.988  0.5355  0.0883 -0.4530
 8462SOL    HW136845   1.495   2.964   6.023 -0.8873 -0.9235  0.9209
 8462SOL    HW236846   1.472   3.098   5.973  2.9807 -1.1465  0.9113
 8463SOL     OW36847   3.239   4.294  16.489 -0.3123  0.1030 -0.4192
 8463SOL    HW136848   3.213   4.334  16.572 -1.1021 -1.0396 -0.1135
 8463SOL    HW236849   3.177   4.222  16.474 -0.1441 -0.8185  3.2340
 8464SOL     OW36850   3.218   4.673   8.734  1.1169 -0.0124 -0.5387
 8464SOL    HW136851   3.203   4.584   8.765  0.1271 -0.4136 -2.1836
 8464SOL    HW236852   3.252   4.658   8.646  0.1941 -3.1762 -0.3592
 8465SOL     OW36853   3.290   3.121   5.811 -0.1590 -0.2987  0.4915
 8465SOL    HW136854   3.207   3.094   5.849 -1.5715  2.7625 -0.3567
 8465SOL    HW236855   3.293   3.052   5.745  0.2144 -0.7683  1.0062
 8466SOL     OW36856   4.630   2.101   0.475  0.2117  0.0094  0.6274
 8466SOL    HW136857   4.689   2.025   0.464  0.7103  0.6774 -1.2556
 8466SOL    HW236858   4.691   2.172   0.455  1.7044 -0.8253  2.2529
 8467SOL     OW36859   2.602   2.316   7.234  0.1387  0.6881 -0.2030
 8467SOL    HW136860   2.528   2.351   7.184  0.0920 -0.1156 -0.6861
 8467SOL    HW236861   2.679   2.360   7.197 -0.5588  1.8675 -0.2635
 8468SOL     OW36862   0.663   2.197   3.401  0.0978 -0.2671 -0.0017
 8468SOL    HW136863   0.594   2.154   3.350  0.1482  1.4208 -1.5145
 8468SOL    HW236864   0.740   2.148   3.373 -0.4986 -0.6225 -1.0473
 8469SOL     OW36865   2.957   1.386   8.279 -0.5205 -0.2404 -1.0210
 8469SOL    HW136866   2.898   1.442   8.328  1.1158  0.4418  0.1824
 8469SOL    HW236867   2.928   1.414   8.192  1.0373  0.5564 -1.2789
 8470SOL     OW36868   1.217   0.459  17.589  0.3551 -0.3822  0.6277
 8470SOL    HW136869   1.259   0.387  17.542  0.7078 -1.1151  2.0539
 8470SOL    HW236870   1.257   0.534  17.544  0.7590  0.0982  1.7776
 8471SOL     OW36871   1.736   1.536   2.401 -0.3297 -0.4384  0.2906
 8471SOL    HW136872   1.656   1.580   2.376 -1.0428  0.3257  3.9140
 8471SOL    HW236873   1.747   1.474   2.329  1.5110  1.1746 -0.8132
 8472SOL     OW36874   0.891   4.395   2.459 -0.4028 -0.3025  0.2303
 8472SOL    HW136875   0.894   4.311   2.413  2.8649 -0.1863  0.2133
 8472SOL    HW236876   0.953   4.387   2.532 -1.3935 -1.8392  0.8774
 8473SOL     OW36877   0.109   3.061   9.432 -0.4808 -0.1152 -0.0348
 8473SOL    HW136878   0.069   3.063   9.345  0.9969 -0.0404 -0.7166
 8473SOL    HW236879   0.033   3.057   9.490  0.4259 -2.0909  0.9953
 8474SOL     OW36880   4.205   1.275   4.824 -0.1143 -0.1660 -0.0559
 8474SOL    HW136881   4.279   1.238   4.872 -0.1724 -0.6614 -0.3492
 8474SOL    HW236882   4.225   1.365   4.796 -0.0202 -0.4667 -0.9623
 8475SOL     OW36883   0.483   3.823   4.852  0.3682 -0.3598 -1.0019
 8475SOL    HW136884   0.563   3.783   4.885 -2.0894 -2.8947  1.8612
 8475SOL    HW236885   0.520   3.907   4.825  0.0014  0.2791  0.5178
 8476SOL     OW36886   1.329   4.489   4.210 -0.3682  0.0650  0.0343
 8476SOL    HW136887   1.247   4.520   4.173 -0.1159 -2.1387 -2.3649
 8476SOL    HW236888   1.352   4.563   4.266 -1.6254 -0.2319  0.9535
 8477SOL     OW36889   2.944   3.700  11.033 -0.5954  0.3673 -0.2923
 8477SOL    HW136890   2.903   3.707  11.120 -0.0899  0.8586 -0.0926
 8477SOL    HW236891   2.889   3.756  10.978 -0.7676  2.0364  1.5545
 8478SOL     OW36892   4.252   1.231   3.438  0.5831  0.3801 -0.1308
 8478SOL    HW136893   4.330   1.284   3.419  2.2226 -1.5834  1.1992
 8478SOL    HW236894   4.237   1.174   3.363 -0.5804 -0.0618  0.4497
 8479SOL     OW36895   0.855   0.726   1.472  0.1073 -0.0179  0.6148
 8479SOL    HW136896   0.844   0.631   1.481 -1.1326  0.0007 -0.6698
 8479SOL    HW236897   0.950   0.728   1.457  0.4755 -0.0185  3.0329
 8480SOL     OW36898   2.017   0.382   6.162 -0.1831 -0.2868  0.4233
 8480SOL    HW136899   2.104   0.378   6.122 -0.5388  0.4935 -0.4163
 8480SOL    HW236900   2.048   0.389   6.252 -0.5829  2.7828  0.3160
 8481SOL     OW36901   2.035   2.340   9.233 -0.0207 -0.3421  0.2391
 8481SOL    HW136902   2.016   2.416   9.288 -0.3133 -2.9411  3.7664
 8481SOL    HW236903   1.956   2.336   9.179 -0.1674 -0.7123  0.4788
 8482SOL     OW36904   0.081   0.172   3.016  0.4304 -0.0074 -0.3145
 8482SOL    HW136905   0.007   0.137   3.067 -0.9184  1.2331 -1.4164
 8482SOL    HW236906   0.160   0.156   3.067 -0.9695  0.2464  1.9736
 8483SOL     OW36907   2.298   0.905   6.899 -0.5050  0.0846 -0.0745
 8483SOL    HW136908   2.293   0.995   6.865 -1.3754  0.3075  0.6343
 8483SOL    HW236909   2.385   0.886   6.865 -1.4780 -0.5485 -2.2392
 8484SOL     OW36910   3.133   0.010  14.295 -0.4408  0.4323  0.1130
 8484SOL    HW136911   3.155   0.085  14.351 -0.3564  0.2530  0.3211
 8484SOL    HW236912   3.121   4.659  14.357  0.0969 -2.7387 -3.4665
 8485SOL     OW36913   3.654   0.061   7.787  0.3105  0.6378 -0.3514
 8485SOL    HW136914   3.711   4.719   7.831 -0.7572 -0.7012 -0.9064
 8485SOL    HW236915   3.659   0.138   7.844 -0.5644  0.7211 -0.3921
 8486SOL     OW36916   3.006   1.132  17.649  0.1343  0.5441  0.3118
 8486SOL    HW136917   2.974   1.056  17.600  0.8394  0.3926  0.0897
 8486SOL    HW236918   3.094   1.141  17.612 -0.0287  0.8094 -0.0098
 8487SOL     OW36919   0.537   1.778   4.379  0.2720 -0.3281  0.0042
 8487SOL    HW136920   0.462   1.801   4.324  0.9073  1.1669 -0.2214
 8487SOL    HW236921   0.554   1.688   4.352  1.9806 -0.4250  1.4173
 8488SOL     OW36922   1.117   1.723   7.193  0.4130  0.2737 -0.1736
 8488SOL    HW136923   1.026   1.728   7.164  0.3218  0.2998  0.1101
 8488SOL    HW236924   1.117   1.637   7.235  1.2062  0.0975 -0.5281
 8489SOL     OW36925   3.866   1.850   4.269 -0.1210 -0.0881 -0.0837
 8489SOL    HW136926   3.834   1.812   4.350 -0.4534  0.7564  0.1881
 8489SOL    HW236927   3.953   1.872   4.304  0.8682 -1.9235 -1.4036
 8490SOL     OW36928   4.142   2.259   6.101 -0.5129 -0.3915  0.3414
 8490SOL    HW136929   4.220   2.306   6.130 -0.8051  0.5809 -0.4535
 8490SOL    HW236930   4.148   2.184   6.160  0.1523  1.3069  2.4562
 8491SOL     OW36931   0.628   2.581   7.182 -0.1031  0.4908 -0.1806
 8491SOL    HW136932   0.543   2.623   7.195  1.2368  2.5645  1.9215
 8491SOL    HW236933   0.674   2.610   7.261 -0.9261 -1.0294  0.8496
 8492SOL     OW36934   4.499   4.280   1.200 -0.1633 -0.3628  0.1358
 8492SOL    HW136935   4.580   4.316   1.235 -0.6467 -0.2805  1.1562
 8492SOL    HW236936   4.436   4.303   1.268 -0.0162  1.9002 -0.5051
 8493SOL     OW36937   0.308   0.106   6.550 -0.1074  0.4637 -0.3684
 8493SOL    HW136938   0.322   0.091   6.644 -4.4112  0.4261  0.2878
 8493SOL    HW236939   0.363   0.184   6.547  1.6375 -0.8042 -0.7142
 8494SOL     OW36940   1.265   1.543   3.481  0.1249  0.5749 -0.7663
 8494SOL    HW136941   1.305   1.463   3.449  1.5020  1.3506 -0.9839
 8494SOL    HW236942   1.332   1.583   3.537 -1.2113  1.6459  0.0656
 8495SOL     OW36943   1.996   1.877   4.327  0.9762  0.1504  0.8900
 8495SOL    HW136944   2.015   1.799   4.380 -0.3942 -0.0648  1.0552
 8495SOL    HW236945   1.904   1.895   4.344  0.6069 -0.9140  0.0495
 8496SOL     OW36946   1.161   2.588  11.621  0.0183 -0.3487 -0.3533
 8496SOL    HW136947   1.177   2.494  11.629  1.1534 -0.3178 -2.3048
 8496SOL    HW236948   1.075   2.589  11.663  2.3295 -0.5624  4.3227
 8497SOL     OW36949   4.526   0.723   5.737 -0.7822 -0.4188  0.0608
 8497SOL    HW136950   4.565   0.780   5.803  0.5115 -0.9900 -0.2049
 8497SOL    HW236951   4.500   0.653   5.797 -0.3414  0.7381  1.6048
 8498SOL     OW36952   1.117   1.843   0.105  0.0887  0.0978 -0.1524
 8498SOL    HW136953   1.079   1.919   0.150 -0.4580  0.6592 -1.5747
 8498SOL    HW236954   1.203   1.879   0.084  0.0754  1.6772  2.5193
 8499SOL     OW36955   1.553   0.147   5.669  0.0960  0.4222  0.0304
 8499SOL    HW136956   1.624   0.210   5.658 -1.4731  2.0859 -0.4525
 8499SOL    HW236957   1.527   0.124   5.580  0.5715 -0.1816  0.0459
 8500SOL     OW36958   2.337   3.283   6.909 -0.4218 -0.2279 -0.0346
 8500SOL    HW136959   2.359   3.345   6.979 -0.5861 -0.1219 -0.0761
 8500SOL    HW236960   2.284   3.338   6.851 -0.8117 -0.8543 -0.2661
 8501SOL     OW36961   2.865   0.934   2.545  0.8730 -0.1655  0.8933
 8501SOL    HW136962   2.932   0.933   2.613 -1.0292  1.0599  2.7759
 8501SOL    HW236963   2.890   0.851   2.504  0.2461  0.2990 -0.4083
 8502SOL     OW36964   0.656   2.335   1.936  0.3307  0.0817 -0.2613
 8502SOL    HW136965   0.614   2.255   1.905 -1.4292  0.8338  0.1323
 8502SOL    HW236966   0.600   2.400   1.892  0.3476 -0.1711 -0.6482
 8503SOL     OW36967   2.359   3.064  14.593 -0.4726 -0.1010 -0.1572
 8503SOL    HW136968   2.423   3.079  14.663  1.3358  1.3379 -2.1096
 8503SOL    HW236969   2.328   3.154  14.579  0.9933  0.5806  0.9588
 8504SOL     OW36970   0.832   4.111   6.455  0.2961  0.2805 -0.0388
 8504SOL    HW136971   0.766   4.173   6.487  1.1662  0.2795  1.7819
 8504SOL    HW236972   0.895   4.128   6.525  1.3876 -0.0814 -0.9362
 8505SOL     OW36973   1.467   2.308  11.286 -0.5669 -0.3927 -0.5790
 8505SOL    HW136974   1.557   2.277  11.282 -0.0868  0.7361  1.4750
 8505SOL    HW236975   1.491   2.400  11.274 -0.6866 -0.3903 -0.7995
 8506SOL     OW36976   3.871   2.834  17.613  0.3353  0.4113  0.1234
 8506SOL    HW136977   3.836   2.893  17.680 -2.6603 -2.1695  0.7913
 8506SOL    HW236978   3.956   2.878  17.607  0.8914 -0.4884  1.3897
 8507SOL     OW36979   1.028   4.199   4.044  0.0907 -0.4399  0.0773
 8507SOL    HW136980   1.049   4.124   3.989  0.9837  0.7166 -1.1554
 8507SOL    HW236981   0.945   4.176   4.086 -1.3215  2.7262 -0.9709
 8508SOL     OW36982   4.314   3.602   5.371 -0.4898 -0.1370 -0.7721
 8508SOL    HW136983   4.399   3.608   5.329  0.6022  0.5891  1.5325
 8508SOL    HW236984   4.266   3.657   5.309  0.1827  0.6865 -0.5603
 8509SOL     OW36985   3.387   3.078   8.175 -0.1311 -0.0869 -0.3171
 8509SOL    HW136986   3.481   3.071   8.192 -0.2256  0.0176  0.2394
 8509SOL    HW236987   3.339   3.040   8.249 -0.2782 -0.3471 -0.5440
 8510SOL     OW36988   4.064   0.106  13.077  0.3842  0.8739 -0.6522
 8510SOL    HW136989   4.121   0.143  13.144 -1.1888 -0.4054  1.4247
 8510SOL    HW236990   4.058   0.013  13.099 -0.2711  1.5628  2.1579
 8511SOL     OW36991   0.078   3.636   6.721 -0.2538  0.0731 -0.7219
 8511SOL    HW136992   4.705   3.637   6.741 -0.2349 -0.7838 -0.5987
 8511SOL    HW236993   0.129   3.624   6.801  1.6020  1.2195 -1.7359
 8512SOL     OW36994   0.421   0.619   8.452 -0.3900  0.0222 -0.1259
 8512SOL    HW136995   0.399   0.554   8.519 -1.7045 -0.3756 -0.9543
 8512SOL    HW236996   0.513   0.592   8.446 -0.3800 -0.3236  1.5727
 8513SOL     OW36997   0.906   3.953   5.508 -0.2926  0.0717 -0.1728
 8513SOL    HW136998   0.993   3.913   5.515  0.7143  1.9197 -2.2092
 8513SOL    HW236999   0.860   3.887   5.560 -0.9163  1.0502  0.5141
 8514SOL     OW37000   1.003   2.172   5.322 -0.1821 -0.1262  0.3356
 8514SOL    HW137001   1.019   2.167   5.416 -0.0698 -1.5939  0.2350
 8514SOL    HW237002   0.911   2.199   5.323  0.3562  1.6841  0.4431
 8515SOL     OW37003   0.413   2.054  13.142 -0.2417  0.4821  0.2618
 8515SOL    HW137004   0.388   1.982  13.199 -2.2019  1.3091  0.4319
 8515SOL    HW237005   0.413   2.009  13.057  3.3130  0.6169  0.1583
 8516SOL     OW37006   1.176   3.248   2.996 -0.5438 -0.4566 -0.3622
 8516SOL    HW137007   1.086   3.280   2.994  0.4988  2.4169 -0.3316
 8516SOL    HW237008   1.202   3.285   2.912  0.2687  3.2504  1.5523
 8517SOL     OW37009   1.199   0.220   3.934  0.1628 -0.6488 -0.0753
 8517SOL    HW137010   1.147   0.272   3.994 -3.0660 -2.2534 -1.4849
 8517SOL    HW237011   1.127   0.213   3.871  1.1553 -0.7325 -1.1992
 8518SOL     OW37012   3.894   4.138   4.511  0.3001  0.6554  0.4167
 8518SOL    HW137013   3.913   4.142   4.605  0.1800  3.6432  0.3214
 8518SOL    HW237014   3.825   4.205   4.510  0.0754  0.4533  2.9148
 8519SOL     OW37015   1.270   3.701   6.347  0.5609 -0.0394 -0.2349
 8519SOL    HW137016   1.365   3.710   6.338  0.6643 -1.0727 -0.1444
 8519SOL    HW237017   1.255   3.748   6.429  2.2036  1.2313 -0.6540
 8520SOL     OW37018   0.395   1.499   4.045  0.1354  0.4474 -0.6347
 8520SOL    HW137019   0.442   1.441   3.985  0.5938  1.3089 -1.1077
 8520SOL    HW237020   0.467   1.537   4.096  0.4720  0.9819 -1.5015
 8521SOL     OW37021   2.176   1.548   5.780 -0.1924 -0.2485 -0.2458
 8521SOL    HW137022   2.253   1.568   5.727  0.2515  1.3308  0.9707
 8521SOL    HW237023   2.142   1.636   5.795  0.4490  0.0871 -0.7418
 8522SOL     OW37024   4.164   1.380   6.144  0.0142 -0.8914 -0.3289
 8522SOL    HW137025   4.101   1.453   6.148  2.3158  1.2427 -2.5579
 8522SOL    HW237026   4.238   1.422   6.188 -0.2568  0.7783 -1.4403
 8523SOL     OW37027   1.170   2.554   5.675 -0.4363  0.0134 -0.2061
 8523SOL    HW137028   1.222   2.477   5.697 -0.1520  0.4808  0.7329
 8523SOL    HW237029   1.193   2.599   5.757  1.6740 -1.3495 -0.0472
 8524SOL     OW37030   3.216   4.559  14.505  0.1596 -0.0197 -0.5696
 8524SOL    HW137031   3.173   4.474  14.512  1.9669 -0.8745  0.1365
 8524SOL    HW237032   3.228   4.577  14.598 -1.3605 -0.1632 -0.3372
 8525SOL     OW37033   2.847   4.555  13.176 -0.3887  0.3728 -0.2089
 8525SOL    HW137034   2.844   4.470  13.133 -0.7461  0.2075  0.1362
 8525SOL    HW237035   2.808   4.535  13.261  1.9781  1.1796  1.0573
 8526SOL     OW37036   4.446   1.532  10.941 -0.6405 -0.6559  0.6219
 8526SOL    HW137037   4.366   1.480  10.947 -0.0639 -1.7031 -0.5671
 8526SOL    HW237038   4.447   1.590  11.017  0.6407  2.3982 -1.7301
 8527SOL     OW37039   2.357   1.464   2.583  0.0114  0.0510  0.3251
 8527SOL    HW137040   2.414   1.503   2.517 -1.6740  2.5497  0.3355
 8527SOL    HW237041   2.296   1.411   2.531 -0.6363 -0.4747  1.6315
 8528SOL     OW37042   2.662   4.185  11.295  0.2958  0.4234 -0.2119
 8528SOL    HW137043   2.741   4.165  11.245 -0.2546 -0.9852 -0.5287
 8528SOL    HW237044   2.686   4.270  11.333  0.4720 -0.9398  2.6774
 8529SOL     OW37045   1.189   0.829   3.069  0.9067  0.2418 -0.3953
 8529SOL    HW137046   1.162   0.738   3.059 -0.1130  0.4247  0.6786
 8529SOL    HW237047   1.163   0.862   2.984 -0.2143 -0.4827 -0.3289
 8530SOL     OW37048   0.768   4.197  10.286  0.1373  0.0869  0.3480
 8530SOL    HW137049   0.739   4.287  10.300 -0.3185  0.5353 -3.6239
 8530SOL    HW237050   0.850   4.214  10.241  0.7784 -0.0514  1.4584
 8531SOL     OW37051   3.921   4.159   6.349  0.4217  0.3662 -0.1200
 8531SOL    HW137052   3.965   4.146   6.433  2.3842  1.4973 -0.9413
 8531SOL    HW237053   3.870   4.240   6.358  0.4497  0.7100 -3.1336
 8532SOL     OW37054   1.511   4.354   4.363 -0.2444 -0.0804 -0.0187
 8532SOL    HW137055   1.500   4.268   4.322 -1.2826 -0.3010  0.7213
 8532SOL    HW237056   1.446   4.408   4.317 -0.3779 -0.5493 -0.3806
 8533SOL     OW37057   0.316   2.178   8.314  0.1733 -0.1798 -0.1873
 8533SOL    HW137058   0.325   2.135   8.228 -0.7356 -1.8986  0.5655
 8533SOL    HW237059   0.305   2.102   8.372  0.5907 -0.6077 -0.6715
 8534SOL     OW37060   0.805   2.626   3.848 -0.1453 -0.1220 -0.4579
 8534SOL    HW137061   0.757   2.546   3.825  2.4749 -1.4330 -1.4087
 8534SOL    HW237062   0.795   2.670   3.763 -0.2953  0.6579 -0.0289
 8535SOL     OW37063   1.883   4.199   2.908 -0.0886  0.1326  0.0616
 8535SOL    HW137064   1.919   4.203   2.819 -0.0776  0.7592  0.0958
 8535SOL    HW237065   1.960   4.205   2.965 -0.7029  0.2165  0.8752
 8536SOL     OW37066   0.633   4.286   6.567  0.0704  0.3433  0.5269
 8536SOL    HW137067   0.630   4.338   6.487 -1.6664 -0.0761  0.3088
 8536SOL    HW237068   0.544   4.249   6.567  0.1870  0.0534  0.1142
 8537SOL     OW37069   1.440   0.621   5.579  0.3793 -0.0090  0.4263
 8537SOL    HW137070   1.414   0.614   5.670 -1.3199  0.9592  0.0030
 8537SOL    HW237071   1.361   0.582   5.542  0.6992 -0.3331  0.0798
 8538SOL     OW37072   0.459   4.424  17.309  0.8595  0.1670 -0.3894
 8538SOL    HW137073   0.519   4.492  17.280  0.1016  1.1965  0.4659
 8538SOL    HW237074   0.496   4.348  17.264  0.4031  0.2268 -0.8697
 8539SOL     OW37075   2.706   3.909   2.884 -0.4151 -0.2464 -0.4052
 8539SOL    HW137076   2.652   3.832   2.901  0.3266 -0.6428  0.1507
 8539SOL    HW237077   2.727   3.893   2.792 -0.7866  2.2234 -0.9200
 8540SOL     OW37078   0.665   2.076   9.770 -0.6224  0.4335 -0.1332
 8540SOL    HW137079   0.629   2.156   9.808 -2.8607 -0.2925 -0.7070
 8540SOL    HW237080   0.609   2.056   9.695  0.5580 -0.6252 -0.7306
 8541SOL     OW37081   2.733   0.843   2.268  0.0561 -0.4466 -0.1891
 8541SOL    HW137082   2.700   0.911   2.326  0.7013 -1.0408  0.8764
 8541SOL    HW237083   2.757   0.770   2.325  0.4102  0.1905  0.4746
 8542SOL     OW37084   2.818   1.607   0.334 -0.4256 -0.8381  0.6787
 8542SOL    HW137085   2.852   1.582   0.248  3.1308  0.2563  1.7824
 8542SOL    HW237086   2.726   1.583   0.324 -0.9099  2.2178 -2.6129
 8543SOL     OW37087   3.567   4.046  17.295  0.1039  0.0430  0.0208
 8543SOL    HW137088   3.542   4.136  17.317 -0.4247 -0.3884  1.1766
 8543SOL    HW237089   3.661   4.062  17.285  0.1182 -0.0285  0.0471
 8544SOL     OW37090   0.733   3.698  14.258 -0.2999 -0.1541 -0.7153
 8544SOL    HW137091   0.649   3.719  14.219 -1.0513 -1.3938  0.2434
 8544SOL    HW237092   0.750   3.781  14.304 -0.6271 -0.8371  0.6394
 8545SOL     OW37093   1.753   4.608   3.687  0.2645 -0.2237  0.0419
 8545SOL    HW137094   1.707   4.672   3.632 -1.1037 -2.7330 -1.7481
 8545SOL    HW237095   1.814   4.564   3.628  2.1870  4.0577 -1.1640
 8546SOL     OW37096   3.910   1.569   7.645 -0.4339  0.2091  0.0255
 8546SOL    HW137097   3.946   1.544   7.729 -2.9388 -0.4757  0.9000
 8546SOL    HW237098   3.966   1.521   7.584  1.7211  0.9333  1.4610
 8547SOL     OW37099   0.766   0.653   6.672  0.2468  0.2493  0.0673
 8547SOL    HW137100   0.808   0.710   6.608 -1.9729  2.4884  0.6124
 8547SOL    HW237101   0.805   0.675   6.756  1.4785  0.9405 -0.6767
 8548SOL     OW37102   3.505   4.675   3.041  0.5717  0.2265  0.0402
 8548SOL    HW137103   3.435   4.633   3.093  0.8021 -1.4220 -0.9712
 8548SOL    HW237104   3.502   4.638   2.953  0.7172 -0.5543  0.3533
 8549SOL     OW37105   3.495   4.328   8.571  0.0978  0.0084  0.2711
 8549SOL    HW137106   3.423   4.353   8.513  1.0347 -2.6458 -2.0574
 8549SOL    HW237107   3.574   4.340   8.517  0.0589  0.9661  0.4216
 8550SOL     OW37108   4.551   2.469  12.411 -0.5956  0.1201  0.2355
 8550SOL    HW137109   4.552   2.374  12.415 -0.5559  0.0875 -0.5102
 8550SOL    HW237110   4.459   2.493  12.424 -0.7905 -1.3497  1.5293
 8551SOL     OW37111   0.728   0.490   8.642  0.3577 -0.7304  0.2507
 8551SOL    HW137112   0.691   0.524   8.560  0.2691 -0.7143  0.2982
 8551SOL    HW237113   0.766   0.410   8.606 -2.2242 -1.1285 -1.6254
 8552SOL     OW37114   3.396   1.857  15.378  0.1736 -0.8738  0.3247
 8552SOL    HW137115   3.476   1.836  15.330  1.5221  1.9198  1.3738
 8552SOL    HW237116   3.325   1.816  15.328 -0.9713 -0.7861  1.8666
 8553SOL     OW37117   1.628   2.970  13.118 -0.0538  0.3120  0.1497
 8553SOL    HW137118   1.680   2.944  13.194  2.2659  3.3109 -0.3736
 8553SOL    HW237119   1.646   3.064  13.122  0.4230  0.2846 -1.3657
 8554SOL     OW37120   4.546   1.862   5.176  0.3120  0.2550 -0.2800
 8554SOL    HW137121   4.615   1.922   5.148  0.0650  1.3073  1.3792
 8554SOL    HW237122   4.471   1.908   5.138 -0.3469  1.9000  3.0219
 8555SOL     OW37123   3.909   2.922   5.537 -0.6681 -0.0843  0.4381
 8555SOL    HW137124   3.977   2.988   5.538  0.8637 -1.6708  1.1284
 8555SOL    HW237125   3.956   2.859   5.483 -2.2254 -0.0091 -0.9986
 8556SOL     OW37126   3.803   0.037   8.528  0.6369  0.6698  0.1128
 8556SOL    HW137127   3.745   4.698   8.575 -1.7968  0.1605 -3.6120
 8556SOL    HW237128   3.876   0.049   8.589 -0.1742  0.6817  1.0931
 8557SOL     OW37129   2.606   0.941   2.487 -0.2979 -0.1463  0.7676
 8557SOL    HW137130   2.555   0.951   2.567 -0.6546  0.9404  0.3892
 8557SOL    HW237131   2.691   0.962   2.526 -1.1053  1.0613  1.8674
 8558SOL     OW37132   1.911   0.967   4.514 -0.1125 -0.3418 -0.2085
 8558SOL    HW137133   1.888   0.917   4.592  0.7557  0.8233  0.7966
 8558SOL    HW237134   1.832   1.018   4.502  0.6052  0.8673  0.2656
 8559SOL     OW37135   2.381   2.603   2.784 -0.0950 -0.0443  0.2599
 8559SOL    HW137136   2.343   2.534   2.731 -1.3217  0.0506  1.0211
 8559SOL    HW237137   2.316   2.629   2.849 -1.7839  0.1256 -1.5382
 8560SOL     OW37138   4.270   3.369   6.891  0.3403  0.0919 -0.2208
 8560SOL    HW137139   4.263   3.304   6.960  3.6984  0.2092  0.1939
 8560SOL    HW237140   4.185   3.409   6.912  1.0143  0.4584  1.7534
 8561SOL     OW37141   3.035   4.134   8.262  0.2830 -0.0295  0.7914
 8561SOL    HW137142   2.949   4.091   8.266 -0.3740  1.2673  0.6362
 8561SOL    HW237143   3.086   4.084   8.326  0.0020 -0.2549  0.8378
 8562SOL     OW37144   2.191   3.025  11.345  0.5993 -0.5048  0.4015
 8562SOL    HW137145   2.254   2.998  11.412  0.2920  0.5379  1.1082
 8562SOL    HW237146   2.125   3.062  11.405 -1.4385 -2.9954 -0.3185
 8563SOL     OW37147   2.338   4.231   7.635 -0.1982  0.1074 -0.3566
 8563SOL    HW137148   2.365   4.319   7.659  0.7574 -0.5614  1.0647
 8563SOL    HW237149   2.318   4.199   7.723 -1.1036 -0.6478 -0.8378
 8564SOL     OW37150   1.096   2.401   8.205 -0.2584  0.4322 -0.0152
 8564SOL    HW137151   1.072   2.310   8.222  1.5511 -0.0394  0.0425
 8564SOL    HW237152   1.019   2.440   8.246  0.3940 -0.7489  2.2839
 8565SOL     OW37153   4.321   2.847   7.429 -0.1824  0.3069  0.1538
 8565SOL    HW137154   4.416   2.861   7.423  0.1049 -1.4783  0.7048
 8565SOL    HW237155   4.316   2.753   7.442  1.6408 -0.0449 -1.6884
 8566SOL     OW37156   3.815   4.624   3.001  0.2951  0.3008 -0.4007
 8566SOL    HW137157   3.778   4.662   2.921 -1.1378 -1.9219 -0.8034
 8566SOL    HW237158   3.897   4.670   3.017  0.1834  0.5795 -0.6405
 8567SOL     OW37159   3.833   0.949  14.839 -0.7536 -0.1078 -0.2217
 8567SOL    HW137160   3.848   1.028  14.891 -1.6955 -0.3000  0.3529
 8567SOL    HW237161   3.896   0.889  14.879 -2.1773  0.0815  2.3488
 8568SOL     OW37162   0.722   0.364  13.709 -0.8831 -0.2486  0.4938
 8568SOL    HW137163   0.666   0.380  13.633  1.0400  0.9839 -0.6536
 8568SOL    HW237164   0.705   0.439  13.765 -1.0362 -0.7156  1.0666
 8569SOL     OW37165   3.905   4.659   2.084  0.0928  0.4682  0.0049
 8569SOL    HW137166   3.860   4.578   2.060  1.6841 -0.0841 -1.1169
 8569SOL    HW237167   3.980   4.620   2.129  0.0783 -0.3559 -0.6886
 8570SOL     OW37168   2.147   0.450   2.152 -1.0802  0.3920  0.0707
 8570SOL    HW137169   2.164   0.508   2.227 -0.9179 -0.2652  0.5444
 8570SOL    HW237170   2.056   0.428   2.169 -1.1683 -1.8412 -3.4219
 8571SOL     OW37171   1.886   3.470   9.321  0.1752 -0.9244  0.2611
 8571SOL    HW137172   1.958   3.412   9.346 -0.7232 -2.0076  0.3209
 8571SOL    HW237173   1.811   3.411   9.319 -1.5991  1.2629  3.6556
 8572SOL     OW37174   1.026   0.295  13.232 -0.0538  0.1288  0.3528
 8572SOL    HW137175   1.119   0.280  13.249 -0.6379 -2.3629  1.2970
 8572SOL    HW237176   0.999   0.205  13.211  0.2277  0.2578 -0.5796
 8573SOL     OW37177   0.917   3.342  15.619 -0.1288 -0.3154 -0.0782
 8573SOL    HW137178   0.955   3.430  15.628 -0.4351 -0.0440 -1.3664
 8573SOL    HW237179   0.836   3.357  15.668  1.1030 -0.0419  1.8396
 8574SOL     OW37180   1.805   2.988   9.878 -0.4871  0.0487 -0.0075
 8574SOL    HW137181   1.818   2.946   9.793  2.2569 -0.1936  0.5337
 8574SOL    HW237182   1.815   2.911   9.934 -0.4823  1.2978  1.6981
 8575SOL     OW37183   2.842   1.998   3.357  0.3199 -0.0698 -0.5757
 8575SOL    HW137184   2.922   1.953   3.383  0.4946 -0.1132 -1.1922
 8575SOL    HW237185   2.783   1.961   3.422  0.4944 -1.2745 -1.1068
 8576SOL     OW37186   0.085   0.191   2.488  0.0244  0.7074 -0.0223
 8576SOL    HW137187   0.039   0.111   2.513  0.0416 -0.2173 -2.8871
 8576SOL    HW237188   0.134   0.171   2.408  0.9791 -0.5172  0.8781
 8577SOL     OW37189   0.406   4.092   3.894 -0.6264 -1.0224 -0.1416
 8577SOL    HW137190   0.349   4.126   3.825 -1.8931 -0.0287  1.4040
 8577SOL    HW237191   0.490   4.123   3.860 -0.9997 -0.0486 -0.1808
 8578SOL     OW37192   2.183   4.671  14.558  0.3227 -0.1085 -0.0684
 8578SOL    HW137193   2.159   0.008  14.630  2.5488  2.7048 -1.5593
 8578SOL    HW237194   2.102   4.622  14.549  0.1976 -0.1021  1.0289
 8579SOL     OW37195   0.721   2.674   1.826  0.0472 -0.3616 -0.1252
 8579SOL    HW137196   0.674   2.594   1.804 -0.2398 -0.1682 -0.2216
 8579SOL    HW237197   0.651   2.716   1.876  1.5716  1.6151  0.3757
 8580SOL     OW37198   0.423   2.905   3.755  0.5853 -0.1976  0.0257
 8580SOL    HW137199   0.485   2.959   3.708  0.4524 -0.8877 -0.9548
 8580SOL    HW237200   0.376   2.855   3.688  1.3175  0.6644 -1.1142
 8581SOL     OW37201   1.573   3.147   8.849 -0.3029 -0.2218 -0.3186
 8581SOL    HW137202   1.558   3.231   8.892 -1.1698  0.2658 -1.5607
 8581SOL    HW237203   1.512   3.094   8.901 -0.2015  2.6577  2.7460
 8582SOL     OW37204   4.285   1.103   0.153 -0.3885  0.2202  0.0216
 8582SOL    HW137205   4.261   1.031   0.211  0.1865  0.3705  0.4480
 8582SOL    HW237206   4.370   1.070   0.126 -1.0356 -2.8262  1.6653
 8583SOL     OW37207   1.611   2.478   8.895  0.0865 -0.5219 -0.0138
 8583SOL    HW137208   1.540   2.460   8.834 -0.2838 -1.8464  0.8104
 8583SOL    HW237209   1.653   2.559   8.863  0.3749 -0.5307  0.3360
 8584SOL     OW37210   3.460   1.214  16.904 -0.5456 -0.1138  0.6712
 8584SOL    HW137211   3.517   1.289  16.920 -0.6488 -0.3326  2.0750
 8584SOL    HW237212   3.483   1.147  16.968 -0.9534 -0.5392  0.3771
 8585SOL     OW37213   3.993   2.552  14.396  0.5589 -0.3427  0.1433
 8585SOL    HW137214   4.062   2.607  14.359  1.0818  0.1117  1.8081
 8585SOL    HW237215   4.039   2.482  14.442 -0.2383 -1.3622 -0.6139
 8586SOL     OW37216   3.333   1.948   5.410  0.1377  0.2200 -0.1133
 8586SOL    HW137217   3.274   1.915   5.342  1.1728 -0.6168 -0.6004
 8586SOL    HW237218   3.272   1.971   5.480 -0.1795  2.5093 -1.1440
 8587SOL     OW37219   4.720   4.444  16.980  0.2344 -0.4813  0.2259
 8587SOL    HW137220   0.070   4.380  16.972 -0.1033 -0.7074 -1.0203
 8587SOL    HW237221   0.001   4.454  17.075 -1.0806  1.2539  0.0579
 8588SOL     OW37222   3.188   1.145   4.767 -0.6724  0.6424 -0.0162
 8588SOL    HW137223   3.253   1.212   4.745  0.4531 -0.2153  0.7084
 8588SOL    HW237224   3.105   1.179   4.733 -0.2594  0.3664 -1.3055
 8589SOL     OW37225   1.379   4.264   9.156  0.3719 -0.1156 -0.2123
 8589SOL    HW137226   1.385   4.354   9.124 -1.0645 -0.4933 -1.5278
 8589SOL    HW237227   1.304   4.268   9.215 -0.6514 -2.4158 -1.3641
 8590SOL     OW37228   0.026   1.481   1.125  0.7347 -0.7992 -0.4075
 8590SOL    HW137229   4.703   1.396   1.122 -0.1108 -0.4056  0.9184
 8590SOL    HW237230   0.116   1.453   1.105  1.5892  0.0922  2.2545
 8591SOL     OW37231   4.710   4.579  10.006  0.2253 -0.2564 -0.0845
 8591SOL    HW137232   4.685   4.666   9.973  1.1433  1.0389  2.5563
 8591SOL    HW237233   0.078   4.606  10.030 -0.1845  0.8236  0.2335
 8592SOL     OW37234   2.970   1.287  15.551  0.1978  0.9035 -0.0512
 8592SOL    HW137235   2.949   1.378  15.574 -0.2236  0.4616  1.2655
 8592SOL    HW237236   2.944   1.285  15.459 -0.9158  2.9711  0.2132
 8593SOL     OW37237   2.268   4.705   4.494 -0.0213 -0.0794  0.0857
 8593SOL    HW137238   2.316   0.051   4.542  0.3274  0.7337 -1.3987
 8593SOL    HW237239   2.286   0.019   4.407  0.7955 -0.1070  0.2493
 8594SOL     OW37240   2.593   0.622   5.522 -0.2522 -0.8862 -0.5136
 8594SOL    HW137241   2.668   0.589   5.474  1.4408  0.8996  0.9095
 8594SOL    HW237242   2.561   0.700   5.477 -1.2227  0.2114  2.0838
 8595SOL     OW37243   2.456   3.172   2.348 -0.1077  0.3474 -0.0707
 8595SOL    HW137244   2.451   3.093   2.294 -1.1410  0.4333 -0.1002
 8595SOL    HW237245   2.473   3.131   2.432 -1.7467 -0.6389 -0.2242
 8596SOL     OW37246   0.515   3.500   2.809  0.0315  0.2949  0.3450
 8596SOL    HW137247   0.590   3.556   2.829 -0.0241  0.9086 -1.1791
 8596SOL    HW237248   0.484   3.485   2.898  0.5025 -0.5990  0.3629
 8597SOL     OW37249   0.077   0.532   7.412  0.0598 -0.4389 -0.0671
 8597SOL    HW137250   0.047   0.457   7.360 -0.6661  0.6987 -1.2922
 8597SOL    HW237251   0.029   0.505   7.491  2.1256  1.3724  1.7961
 8598SOL     OW37252   0.896   2.225  15.304  0.5726  0.1345 -0.9504
 8598SOL    HW137253   0.884   2.305  15.252 -1.3038  0.4092 -0.0899
 8598SOL    HW237254   0.846   2.159  15.256  1.8057  1.7134 -4.4599
 8599SOL     OW37255   4.615   1.991   9.955  0.4426 -0.2503 -0.4508
 8599SOL    HW137256   4.581   1.991  10.045 -1.6074  0.0907 -1.2321
 8599SOL    HW237257   4.558   2.056   9.915  2.5692  0.3266 -2.5704
 8600SOL     OW37258   0.102   1.421  15.296 -0.3822 -0.2812 -0.1355
 8600SOL    HW137259   0.050   1.498  15.317 -0.7380 -0.5949  0.1447
 8600SOL    HW237260   0.049   1.376  15.231 -1.5042  0.1481  0.4898
 8601SOL     OW37261   0.166   2.751   3.158 -0.0576 -0.4704  0.4324
 8601SOL    HW137262   0.216   2.772   3.079  0.1982 -1.6614  0.2765
 8601SOL    HW237263   0.221   2.790   3.226 -0.5661 -1.4492  1.4086
 8602SOL     OW37264   1.115   3.118   9.827 -0.0910  0.1907 -0.1759
 8602SOL    HW137265   1.079   3.035   9.796  1.5929  0.3600 -2.6075
 8602SOL    HW237266   1.067   3.151   9.903  0.8869 -0.3732  0.6916
 8603SOL     OW37267   3.760   1.683   4.463  0.0141 -0.5081  0.7820
 8603SOL    HW137268   3.697   1.706   4.532  0.0728 -0.3329  0.7754
 8603SOL    HW237269   3.811   1.611   4.501  2.1877  0.2921 -0.6468
 8604SOL     OW37270   0.846   0.839   5.915  0.6534 -0.0387  0.3565
 8604SOL    HW137271   0.751   0.829   5.922  1.0148 -2.9634  1.1488
 8604SOL    HW237272   0.840   0.911   5.852  0.9318 -2.1855 -2.1476
 8605SOL     OW37273   2.391   4.207   5.046 -0.4021 -0.2257 -0.2562
 8605SOL    HW137274   2.298   4.186   5.037 -0.6193 -0.1691  1.9217
 8605SOL    HW237275   2.425   4.179   4.961  0.8943 -1.1606  0.5694
 8606SOL     OW37276   1.222   1.269  16.773  0.1433  0.6077 -0.3744
 8606SOL    HW137277   1.168   1.299  16.700  1.4710  1.1562 -1.1201
 8606SOL    HW237278   1.205   1.175  16.768 -1.9414  1.0162 -0.8789
 8607SOL     OW37279   0.260   1.688   3.764 -0.3791  0.1518 -0.3188
 8607SOL    HW137280   0.222   1.673   3.850  0.6667 -0.5837  0.0194
 8607SOL    HW237281   0.229   1.605   3.726 -1.5331 -0.4679  1.9747
 8608SOL     OW37282   0.016   2.577  16.129 -0.3645  0.5713  0.6680
 8608SOL    HW137283   0.047   2.488  16.146  2.2481  1.4915  0.6411
 8608SOL    HW237284   4.651   2.575  16.172  0.4138  0.6590  2.2138
 8609SOL     OW37285   2.114   1.009   3.910 -0.2709  0.3388  0.3185
 8609SOL    HW137286   2.149   1.098   3.918 -0.1969  0.2479  0.9915
 8609SOL    HW237287   2.071   1.022   3.825  1.5063  2.5078 -0.2733
 8610SOL     OW37288   2.475   2.619   4.694  0.2183 -0.4236 -0.1253
 8610SOL    HW137289   2.492   2.710   4.715  0.0460 -0.5269  0.4798
 8610SOL    HW237290   2.413   2.595   4.763  0.8595  0.2800  0.6991
 8611SOL     OW37291   2.789   3.332   6.456 -0.3154  0.4391 -0.3763
 8611SOL    HW137292   2.783   3.408   6.398 -0.1337 -0.1353 -1.1492
 8611SOL    HW237293   2.706   3.285   6.447  0.5079 -0.8552 -1.2426
 8612SOL     OW37294   2.261   2.916   3.767 -0.2956 -0.1637  0.4013
 8612SOL    HW137295   2.223   2.963   3.693 -1.7721 -0.3768  1.0114
 8612SOL    HW237296   2.197   2.945   3.832 -0.3552  0.5953 -0.0059
 8613SOL     OW37297   3.488   0.063   9.404  0.3226 -0.3031 -0.4139
 8613SOL    HW137298   3.582   0.073   9.392  0.5143 -0.9582  0.5682
 8613SOL    HW237299   3.481   4.693   9.431 -2.8674 -0.3478 -1.3921
 8614SOL     OW37300   4.114   3.707   4.072  0.0908 -0.2028 -0.2836
 8614SOL    HW137301   4.187   3.760   4.040  0.0826  1.1959  2.0288
 8614SOL    HW237302   4.163   3.646   4.128 -0.5713 -0.1433  0.3585
 8615SOL     OW37303   1.717   3.215   2.565 -0.0121 -0.2429 -0.6483
 8615SOL    HW137304   1.740   3.142   2.507  1.5334  1.0917 -1.7283
 8615SOL    HW237305   1.785   3.282   2.556 -0.7472  0.9503  2.9992
 8616SOL     OW37306   1.602   3.337   0.547  0.0171 -0.0192  0.3198
 8616SOL    HW137307   1.589   3.328   0.452 -1.2746  1.3111  0.3648
 8616SOL    HW237308   1.684   3.385   0.551  0.3158 -0.5496  0.5792
 8617SOL     OW37309   3.997   1.681   5.327  0.1222 -0.0324  0.3216
 8617SOL    HW137310   3.915   1.728   5.337  0.1126 -0.1780  0.9345
 8617SOL    HW237311   4.026   1.680   5.418 -1.4287  1.7898  0.8290
 8618SOL     OW37312   1.196   0.200   2.089  0.0326  0.2907 -0.0962
 8618SOL    HW137313   1.195   0.187   1.994  0.1542  2.3597 -0.3983
 8618SOL    HW237314   1.283   0.232   2.114  0.5451 -1.5549  0.4076
 8619SOL     OW37315   4.053   1.781  15.017 -0.2738  0.1140 -0.3784
 8619SOL    HW137316   4.070   1.714  14.950  0.5265 -0.5560  0.4976
 8619SOL    HW237317   4.115   1.849  14.991  0.2280  0.6180  2.1677
 8620SOL     OW37318   3.330   1.936   6.127 -0.4588  0.0085  0.0372
 8620SOL    HW137319   3.359   2.023   6.099 -1.2867  0.4515  0.5547
 8620SOL    HW237320   3.320   1.956   6.221 -4.1124  0.7075 -0.4873
 8621SOL     OW37321   3.159   4.567   2.419 -0.2647 -0.0664  0.4112
 8621SOL    HW137322   3.191   4.594   2.506  0.2202 -2.8479  1.0989
 8621SOL    HW237323   3.186   4.643   2.368 -1.1477 -1.3686 -1.9520
 8622SOL     OW37324   0.255   3.978  10.606 -0.3984 -0.7193 -0.4029
 8622SOL    HW137325   0.215   3.892  10.599  1.5559 -1.7631  1.4163
 8622SOL    HW237326   0.205   4.031  10.543  1.1034  1.2891  0.0768
 8623SOL     OW37327   0.569   4.215   5.948 -0.1804 -0.4944 -0.2160
 8623SOL    HW137328   0.616   4.200   5.867  0.2178  0.2421 -0.1123
 8623SOL    HW237329   0.489   4.253   5.912 -0.7272  0.2485  1.7416
 8624SOL     OW37330   1.049   3.800   6.738 -0.1239 -0.0709 -0.1823
 8624SOL    HW137331   1.008   3.858   6.802  1.6400  0.3318  0.5869
 8624SOL    HW237332   1.044   3.719   6.789  2.1358  0.2401  0.5502
 8625SOL     OW37333   4.332   3.260   2.601 -0.5119  0.0604  0.3306
 8625SOL    HW137334   4.286   3.343   2.591 -1.1407 -0.5494 -1.9166
 8625SOL    HW237335   4.396   3.261   2.529  1.8602 -0.5249  2.4517
 8626SOL     OW37336   3.714   0.424   8.404  0.1353 -0.0226  0.0209
 8626SOL    HW137337   3.678   0.465   8.482 -2.0056  0.7898 -1.3904
 8626SOL    HW237338   3.808   0.442   8.407 -0.0437  1.1855 -1.7771
 8627SOL     OW37339   1.214   2.172   7.731  0.3650 -0.2514  0.2277
 8627SOL    HW137340   1.263   2.245   7.769  0.6222 -0.5767  0.5225
 8627SOL    HW237341   1.249   2.174   7.641 -0.2005  2.7051  0.0919
 8628SOL     OW37342   3.733   1.402   1.553 -0.1862  0.2971 -0.1175
 8628SOL    HW137343   3.812   1.392   1.607 -0.7459  0.6649  0.7824
 8628SOL    HW237344   3.668   1.429   1.618  0.8279  0.4803  0.8316
 8629SOL     OW37345   2.881   3.641   2.160  0.5741  0.2076  0.2915
 8629SOL    HW137346   2.875   3.719   2.105  2.3628 -0.1225 -0.3846
 8629SOL    HW237347   2.973   3.637   2.187  0.1464 -0.4367  1.6829
 8630SOL     OW37348   3.325   3.106   3.457 -0.0480 -0.2279 -0.1188
 8630SOL    HW137349   3.315   3.011   3.452 -0.9450 -0.1846  0.8327
 8630SOL    HW237350   3.240   3.145   3.434  0.2032  0.8484  0.7351
 8631SOL     OW37351   4.347   0.538   8.478  0.4852 -0.5015 -0.3064
 8631SOL    HW137352   4.407   0.498   8.541  0.8901 -1.1572 -1.1210
 8631SOL    HW237353   4.306   0.456   8.451  0.7181 -0.5335 -0.5632
 8632SOL     OW37354   3.685   2.318  15.578 -0.1494 -0.1224  0.4088
 8632SOL    HW137355   3.621   2.250  15.561 -1.5884  1.0183  1.2750
 8632SOL    HW237356   3.729   2.278  15.653  0.5085 -1.0379 -0.4693
 8633SOL     OW37357   2.382   1.118   3.492  0.5526  0.1740 -0.2018
 8633SOL    HW137358   2.440   1.049   3.459 -0.0572 -0.7177  0.6116
 8633SOL    HW237359   2.394   1.103   3.586 -2.4811 -2.8353 -0.2927
 8634SOL     OW37360   3.001   1.887  10.780 -0.1831  0.6781  0.0649
 8634SOL    HW137361   3.078   1.939  10.756 -0.5638  0.5262 -1.5015
 8634SOL    HW237362   3.025   1.812  10.725 -0.6344  0.4388  0.1975
 8635SOL     OW37363   0.539   2.489   8.115 -0.7072 -0.0599 -0.0763
 8635SOL    HW137364   0.584   2.443   8.185 -2.1100 -0.7313  0.3676
 8635SOL    HW237365   0.486   2.557   8.157  0.8651  0.9100  0.3214
 8636SOL     OW37366   0.521   4.193   6.239 -0.7324 -0.2510 -0.7787
 8636SOL    HW137367   0.537   4.189   6.145  3.9382 -4.1358  0.1903
 8636SOL    HW237368   0.426   4.188   6.247 -0.9189 -0.8778 -3.2146
 8637SOL     OW37369   3.281   4.106   8.630  0.3301  0.0908  0.3344
 8637SOL    HW137370   3.354   4.168   8.630  1.8072 -1.6732  1.5724
 8637SOL    HW237371   3.206   4.165   8.617  0.5394  0.1559 -0.5955
 8638SOL     OW37372   3.987   1.781   6.734  0.1381  0.1917 -0.0441
 8638SOL    HW137373   4.034   1.850   6.686  1.1718  0.0741  0.7981
 8638SOL    HW237374   3.961   1.820   6.817  1.7798  1.2464 -0.0189
 8639SOL     OW37375   3.053   0.607   2.176  0.0163 -0.6282 -0.5951
 8639SOL    HW137376   3.122   0.575   2.118  1.5180  1.1107  0.2288
 8639SOL    HW237377   3.086   0.694   2.197 -1.0506 -0.8992  2.2046
 8640SOL     OW37378   0.912   4.691   6.571 -0.3120  0.0738  0.3107
 8640SOL    HW137379   0.860   4.618   6.537  0.7608 -0.9011  0.7521
 8640SOL    HW237380   0.974   4.645   6.628  0.1862 -1.6811 -1.6533
 8641SOL     OW37381   0.808   2.336   3.137  0.0797 -0.0599 -0.1399
 8641SOL    HW137382   0.769   2.392   3.203  0.9848  1.4609 -0.9072
 8641SOL    HW237383   0.900   2.342   3.161 -0.3395  1.8192  0.9708
 8642SOL     OW37384   3.379   2.172   8.689  0.5926 -0.0355  0.5288
 8642SOL    HW137385   3.374   2.153   8.783  2.8622  2.1008  1.0843
 8642SOL    HW237386   3.285   2.184   8.675  1.2044  3.3023 -0.7680
 8643SOL     OW37387   2.650   4.253   8.138  0.0831  0.0158  0.1097
 8643SOL    HW137388   2.697   4.319   8.087 -1.5453  1.1908  0.1383
 8643SOL    HW237389   2.560   4.283   8.149  0.2613  0.2762  0.8798
 8644SOL     OW37390   4.547   4.405   8.436  0.2656 -0.7638  0.2937
 8644SOL    HW137391   4.566   4.312   8.420  1.9139 -0.7196  2.0355
 8644SOL    HW237392   4.475   4.392   8.499 -0.9973 -0.4015 -1.0895
 8645SOL     OW37393   2.422   1.156   3.812 -0.1981  0.4666  0.2477
 8645SOL    HW137394   2.372   1.187   3.888 -1.3748 -1.4993  0.2855
 8645SOL    HW237395   2.451   1.068   3.838 -0.5898 -0.4103 -2.2987
 8646SOL     OW37396   0.886   2.118  13.673  0.0034  0.0438  0.6421
 8646SOL    HW137397   0.888   2.185  13.741 -0.2118  1.2314 -0.5236
 8646SOL    HW237398   0.957   2.144  13.614 -0.3493  1.1311  0.6919
 8647SOL     OW37399   0.301   3.264   5.812  0.0177  0.2873 -0.2252
 8647SOL    HW137400   0.220   3.271   5.760 -0.7932 -1.5608  0.7843
 8647SOL    HW237401   0.268   3.293   5.897  0.3674  2.3161 -0.7759
 8648SOL     OW37402   1.218   3.134   8.083  0.6935  0.0856 -0.3283
 8648SOL    HW137403   1.260   3.164   8.002  1.1420 -0.5418 -0.3263
 8648SOL    HW237404   1.296   3.115   8.135  0.0942  2.0699  1.3131
 8649SOL     OW37405   1.605   1.209   7.580  0.2024  0.3959 -0.8289
 8649SOL    HW137406   1.700   1.199   7.582  0.1990  0.1823 -2.1833
 8649SOL    HW237407   1.570   1.123   7.601  0.8307 -0.2798 -2.5755
 8650SOL     OW37408   4.570   1.071   2.917  0.0761  0.3167 -0.1901
 8650SOL    HW137409   4.634   1.076   2.989  0.8151 -1.8326 -0.7104
 8650SOL    HW237410   4.555   1.165   2.901  0.5296 -0.0671 -2.9069
 8651SOL     OW37411   2.029   4.188   4.132  0.2181 -0.0764  0.0333
 8651SOL    HW137412   2.040   4.093   4.132 -0.1433 -0.1199  0.7212
 8651SOL    HW237413   2.027   4.203   4.227 -0.4089  1.1203 -0.1719
 8652SOL     OW37414   2.788   1.136   2.752 -0.0226  0.5096 -0.0574
 8652SOL    HW137415   2.777   1.188   2.672 -0.2887  3.9665  2.2267
 8652SOL    HW237416   2.858   1.082   2.714 -1.1350 -0.9089 -0.0533
 8653SOL     OW37417   2.968   4.492   7.739  0.4204 -0.0964 -0.1038
 8653SOL    HW137418   2.917   4.481   7.659  2.1382  0.2844 -1.2373
 8653SOL    HW237419   2.942   4.416   7.791  0.9682  0.5375  1.0865
 8654SOL     OW37420   2.532   1.947   6.549  0.0517 -0.2083 -0.0881
 8654SOL    HW137421   2.527   1.854   6.569  0.9936 -0.4586 -1.0052
 8654SOL    HW237422   2.442   1.977   6.538  0.7263  2.0215  0.5176
 8655SOL     OW37423   3.235   1.914   1.974 -0.0875 -0.0780  0.3164
 8655SOL    HW137424   3.233   2.008   1.960  0.4546 -0.2245 -0.7618
 8655SOL    HW237425   3.324   1.899   1.940  0.8342 -1.3292  3.2397
 8656SOL     OW37426   1.258   1.647   2.206  0.1645 -0.0181 -0.1274
 8656SOL    HW137427   1.257   1.738   2.236  2.2445  0.2131 -0.7802
 8656SOL    HW237428   1.168   1.629   2.181 -0.0812 -1.7298  1.9258
 8657SOL     OW37429   2.068   0.506   0.819 -0.4503 -0.9497  0.0395
 8657SOL    HW137430   2.059   0.473   0.730  1.0388 -0.2999 -0.3470
 8657SOL    HW237431   1.984   0.472   0.851 -1.6818  1.7371 -0.3166
 8658SOL     OW37432   0.100   4.591   4.211 -0.2298  0.0900 -0.2631
 8658SOL    HW137433   0.180   4.630   4.177 -0.2023 -0.7144 -1.1404
 8658SOL    HW237434   0.038   4.663   4.221  0.8848  0.9944  0.1651
 8659SOL     OW37435   2.440   3.727  14.277  0.1806  0.2361  0.1498
 8659SOL    HW137436   2.522   3.694  14.241 -0.4727 -0.9875 -0.1917
 8659SOL    HW237437   2.388   3.650  14.301  2.4021 -1.3641 -0.1622
 8660SOL     OW37438   1.893   2.688   0.711  0.1725 -0.3065  0.3471
 8660SOL    HW137439   1.904   2.594   0.727 -1.0453 -0.5195 -0.1074
 8660SOL    HW237440   1.976   2.725   0.741 -0.4749  0.2509  1.4289
 8661SOL     OW37441   1.514   0.029   6.062 -0.3892  0.2607 -0.3797
 8661SOL    HW137442   1.453   0.039   5.989 -1.1778 -1.6693  0.0249
 8661SOL    HW237443   1.598   0.044   6.016 -0.9783 -0.2596 -1.6396
 8662SOL     OW37444   1.425   1.254  15.724 -0.5051 -0.4520 -0.1198
 8662SOL    HW137445   1.404   1.166  15.693 -2.3483  0.6990 -2.1310
 8662SOL    HW237446   1.378   1.318  15.671 -2.1751 -2.4258 -1.0335
 8663SOL     OW37447   0.831   0.322   0.369 -0.2096 -1.1970  0.0953
 8663SOL    HW137448   0.882   0.403   0.361 -0.2596 -1.2494 -0.7827
 8663SOL    HW237449   0.900   0.256   0.364  1.2195  0.3819 -1.1828
 8664SOL     OW37450   4.466   0.908   6.256  0.5063 -0.4789 -0.4123
 8664SOL    HW137451   4.546   0.925   6.306 -0.2816  0.7186  0.4500
 8664SOL    HW237452   4.435   0.990   6.216  1.6804 -0.4072 -1.1919
 8665SOL     OW37453   1.499   3.818   9.116  0.5361 -0.1349  0.4002
 8665SOL    HW137454   1.523   3.910   9.122  0.2343 -0.0156 -0.2247
 8665SOL    HW237455   1.552   3.772   9.181 -0.2417 -2.4411 -0.5885
 8666SOL     OW37456   2.185   0.651   6.955 -0.6406  0.4444 -0.6690
 8666SOL    HW137457   2.233   0.732   6.940  0.0231  0.4960  1.8233
 8666SOL    HW237458   2.172   0.671   7.047  0.0570 -1.2050 -0.2188
 8667SOL     OW37459   3.137   4.172   4.301  0.2477 -0.0560 -0.0442
 8667SOL    HW137460   3.231   4.152   4.297  0.6403  1.3307  2.2750
 8667SOL    HW237461   3.117   4.181   4.208 -0.6896  0.1497  0.1816
 8668SOL     OW37462   4.709   2.502   7.251  0.3428 -0.0128  0.1280
 8668SOL    HW137463   0.015   2.422   7.207  1.2885  1.0044 -1.1780
 8668SOL    HW237464   0.068   2.555   7.257  0.3998 -0.1216  0.3050
 8669SOL     OW37465   2.682   0.656   5.926 -0.9999  0.2676 -0.4458
 8669SOL    HW137466   2.775   0.635   5.931 -0.5309  2.1491 -1.5063
 8669SOL    HW237467   2.648   0.583   5.873  0.4766 -0.4857 -0.3495
 8670SOL     OW37468   3.691   3.491   9.260  0.1887 -0.2789 -0.5527
 8670SOL    HW137469   3.762   3.431   9.284  0.9770  0.5197 -0.8748
 8670SOL    HW237470   3.701   3.554   9.331  0.3775  0.3677 -1.1545
 8671SOL     OW37471   0.544   1.277   5.619  0.3481 -0.0330 -0.1163
 8671SOL    HW137472   0.543   1.245   5.529  0.4375  2.6763 -1.0903
 8671SOL    HW237473   0.632   1.251   5.646 -0.2408  0.0911  1.9297
 8672SOL     OW37474   2.510   4.442   6.968 -0.6268  0.0211  0.6596
 8672SOL    HW137475   2.517   4.521   7.022  1.1601 -0.1757  0.7336
 8672SOL    HW237476   2.575   4.382   7.004 -1.3874 -1.4705 -0.4479
 8673SOL     OW37477   4.516   3.584   7.920  0.0911 -0.9972 -0.0205
 8673SOL    HW137478   4.471   3.556   7.841 -1.0333 -0.8116  0.5380
 8673SOL    HW237479   4.603   3.573   7.882 -0.5722  2.1409 -2.4988
 8674SOL     OW37480   1.494   4.204   7.157  0.4419 -0.3769 -0.2482
 8674SOL    HW137481   1.532   4.288   7.181 -1.0297  1.1326 -3.2690
 8674SOL    HW237482   1.488   4.223   7.063  0.9823 -4.5945 -1.1529
 8675SOL     OW37483   4.353   1.242   2.625 -0.2304  0.5458  0.5445
 8675SOL    HW137484   4.378   1.275   2.711  0.2127  0.4390  0.4574
 8675SOL    HW237485   4.432   1.267   2.577  0.5907 -0.9458  1.1199
 8676SOL     OW37486   1.436   1.106   9.080  0.2828  0.1106  0.1731
 8676SOL    HW137487   1.498   1.036   9.061 -0.5654 -0.3246 -0.9792
 8676SOL    HW237488   1.369   1.064   9.134 -2.3027  0.9555 -2.3912
 8677SOL     OW37489   1.272   3.572   5.563 -0.0086  0.1639  0.3708
 8677SOL    HW137490   1.355   3.526   5.551 -0.0193  0.1246  0.4437
 8677SOL    HW237491   1.229   3.558   5.479  1.0267 -2.7348  0.3138
 8678SOL     OW37492   2.947   0.837   3.442 -0.8134  0.3811 -0.0130
 8678SOL    HW137493   2.920   0.826   3.351  1.4198  1.6697 -0.8162
 8678SOL    HW237494   3.041   0.850   3.429 -0.7755 -0.8124 -1.0090
 8679SOL     OW37495   0.488   1.024   5.108 -0.0094 -0.1124  0.5926
 8679SOL    HW137496   0.393   1.021   5.119 -0.0925  2.6436  0.6763
 8679SOL    HW237497   0.502   0.929   5.106 -0.3787 -0.1649  0.4681
 8680SOL     OW37498   2.677   3.101   9.089 -0.3111 -0.1521 -0.2077
 8680SOL    HW137499   2.592   3.057   9.087 -0.3849 -0.3046  4.2067
 8680SOL    HW237500   2.658   3.169   9.155 -1.0352 -1.6063  1.0753
 8681SOL     OW37501   2.624   0.775   2.045  0.0432  0.1934  0.7518
 8681SOL    HW137502   2.651   0.794   2.135 -0.7377  1.1884  0.7713
 8681SOL    HW237503   2.616   0.679   2.051  1.3077 -0.0924 -2.0971
 8682SOL     OW37504   1.921   1.101   8.275  0.3488 -0.2713  0.4726
 8682SOL    HW137505   1.954   1.018   8.241  0.5914  0.0295 -0.0344
 8682SOL    HW237506   1.962   1.162   8.214 -0.7464 -1.7988 -1.7734
 8683SOL     OW37507   2.897   0.178   6.105  0.4570 -0.1326 -0.0940
 8683SOL    HW137508   2.811   0.220   6.100  0.4157 -0.3129 -0.9725
 8683SOL    HW237509   2.949   0.196   6.026 -0.7899 -1.3510 -1.1832
 8684SOL     OW37510   0.145   1.048   4.694 -0.8749  0.5389  0.4219
 8684SOL    HW137511   0.060   1.078   4.727 -0.8914 -1.1873  1.9884
 8684SOL    HW237512   0.144   0.965   4.743 -0.3646  1.1772  1.5175
 8685SOL     OW37513   0.557   2.536   6.342 -0.0186 -0.4783 -0.6811
 8685SOL    HW137514   0.522   2.451   6.316  0.0274 -0.4878 -0.7101
 8685SOL    HW237515   0.576   2.572   6.255 -0.8310  0.1850 -0.5901
 8686SOL     OW37516   1.257   4.443  11.220  0.2129 -0.2393  0.1122
 8686SOL    HW137517   1.208   4.389  11.282 -0.0377  1.7987  1.6859
 8686SOL    HW237518   1.188   4.496  11.181  0.8588  0.3058 -0.2991
 8687SOL     OW37519   4.041   2.000   8.695 -0.6109 -0.6492  0.5304
 8687SOL    HW137520   4.120   1.993   8.642 -1.3926  1.8336 -0.9457
 8687SOL    HW237521   4.033   2.093   8.714 -0.0148  0.0489 -2.6589
 8688SOL     OW37522   3.308   4.142   2.459  0.5446 -0.3473  0.3978
 8688SOL    HW137523   3.220   4.180   2.457  0.4479 -0.6631 -1.1342
 8688SOL    HW237524   3.332   4.143   2.552 -0.6688  1.0220  0.7045
 8689SOL     OW37525   3.523   3.477   5.575  0.0083 -0.2517 -0.6053
 8689SOL    HW137526   3.465   3.446   5.645  1.1596  0.5790  0.7065
 8689SOL    HW237527   3.609   3.472   5.615 -0.8510 -3.2402  0.8979
 8690SOL     OW37528   2.464   2.675   2.127 -0.9660 -0.3832  0.4213
 8690SOL    HW137529   2.555   2.703   2.114 -0.2290 -3.0887 -0.1230
 8690SOL    HW237530   2.428   2.710   2.045  1.2089  1.3122  0.1736
 8691SOL     OW37531   3.477   4.151   7.707 -0.2724  0.1932 -0.2617
 8691SOL    HW137532   3.460   4.234   7.753  1.2602  0.4162 -0.1087
 8691SOL    HW237533   3.430   4.170   7.625 -0.1735  1.1509 -0.0975
 8692SOL     OW37534   2.244   2.088   5.656  0.4149  0.0405 -0.9465
 8692SOL    HW137535   2.150   2.075   5.648  0.5970 -0.6110 -2.1254
 8692SOL    HW237536   2.255   2.141   5.577 -0.7299 -0.1385 -1.2233
 8693SOL     OW37537   3.854   1.751   5.590 -0.4469 -0.4957  0.0560
 8693SOL    HW137538   3.788   1.765   5.657  0.9202 -1.2021  1.5522
 8693SOL    HW237539   3.802   1.724   5.515  1.5875 -0.3263 -1.4127
 8694SOL     OW37540   2.941   2.136  15.700  0.2709 -0.3146  0.7522
 8694SOL    HW137541   2.856   2.179  15.692 -0.4421 -1.3415  2.5180
 8694SOL    HW237542   2.967   2.150  15.791  3.6439  1.9980 -0.5846
 8695SOL     OW37543   0.160   3.963   0.425 -0.0100  0.7638 -0.1721
 8695SOL    HW137544   0.232   3.987   0.483  1.4319 -0.0906 -1.6176
 8695SOL    HW237545   0.099   3.928   0.490 -0.1746 -0.8408 -1.1752
 8696SOL     OW37546   2.597   4.642   7.176 -0.1476  0.1477 -0.5898
 8696SOL    HW137547   2.578   4.579   7.246 -0.2316  1.2292  0.3579
 8696SOL    HW237548   2.685   4.664   7.205 -0.0744  0.0051 -0.7020
 8697SOL     OW37549   3.394   0.236  13.293 -0.0969 -0.4250 -0.1662
 8697SOL    HW137550   3.401   0.281  13.377  0.8012  1.8793 -1.4809
 8697SOL    HW237551   3.303   0.214  13.309 -0.2362  0.2645  0.0050
 8698SOL     OW37552   4.555   1.125   1.543  0.4700  0.3802  0.0353
 8698SOL    HW137553   4.511   1.145   1.460  3.9072 -0.1994 -1.9406
 8698SOL    HW237554   4.494   1.057   1.573  0.9437  0.4141  1.0405
 8699SOL     OW37555   2.678   2.751   5.886  0.1616  0.0491 -0.1082
 8699SOL    HW137556   2.739   2.824   5.891 -0.1357  0.4065 -1.7290
 8699SOL    HW237557   2.717   2.693   5.822 -1.5581 -1.2047 -0.0267
 8700SOL     OW37558   3.555   3.556   2.005  0.1063  0.4943  0.4184
 8700SOL    HW137559   3.548   3.629   1.944  2.1722  1.3352  1.1943
 8700SOL    HW237560   3.628   3.589   2.058  0.1223  0.4938  0.3968
 8701SOL     OW37561   3.659   2.312   7.781 -0.1673 -0.1617  0.2977
 8701SOL    HW137562   3.607   2.347   7.854  0.4241  0.5511  0.3776
 8701SOL    HW237563   3.737   2.281   7.827  0.2855  1.0513  0.3383
 8702SOL     OW37564   0.976   3.900   2.848  0.1038 -0.0774  0.1433
 8702SOL    HW137565   1.029   3.895   2.928  0.4289 -0.4637 -0.0978
 8702SOL    HW237566   1.021   3.968   2.799 -1.5163  0.9116  0.0062
 8703SOL     OW37567   2.293   1.327  13.290  0.6742  0.5443  0.3520
 8703SOL    HW137568   2.308   1.256  13.228 -1.8580  0.6425 -0.3563
 8703SOL    HW237569   2.245   1.277  13.357  0.2066 -1.1234 -1.2410
 8704SOL     OW37570   3.743   1.842   3.045  0.0145  0.0489  0.2382
 8704SOL    HW137571   3.794   1.774   3.001 -1.8125  0.2916 -2.2850
 8704SOL    HW237572   3.817   1.899   3.066 -0.6864  0.4029  1.7738
 8705SOL     OW37573   1.420   1.122   7.063  0.1801 -0.7126 -0.6929
 8705SOL    HW137574   1.508   1.116   7.101 -0.3089  0.4784  0.6475
 8705SOL    HW237575   1.389   1.045   7.111  0.9653 -1.3974 -1.3008
 8706SOL     OW37576   2.630   2.957   4.487 -0.0987  0.2702 -0.6229
 8706SOL    HW137577   2.577   3.036   4.471  0.3405  0.8560  0.8489
 8706SOL    HW237578   2.717   2.989   4.466  1.0211 -1.3517  1.6411
 8707SOL     OW37579   1.294   1.089   3.861 -0.0079  0.2874  0.1229
 8707SOL    HW137580   1.337   1.153   3.804  1.7372 -0.6711  0.3415
 8707SOL    HW237581   1.314   1.001   3.831 -1.1760  0.3705 -0.9091
 8708SOL     OW37582   0.681   1.945  13.705 -0.2093 -0.4566  0.0658
 8708SOL    HW137583   0.748   2.010  13.685  0.0384 -0.6545  0.2501
 8708SOL    HW237584   0.638   1.961  13.621 -2.8609  1.7448  1.8272
 8709SOL     OW37585   4.581   2.053   4.407  0.2190 -0.1001 -0.3986
 8709SOL    HW137586   4.545   1.991   4.471 -2.1427  2.7710  1.0545
 8709SOL    HW237587   4.622   2.007   4.334  0.7798  0.2471 -0.3001
 8710SOL     OW37588   0.264   4.239  16.519  0.1782 -0.0314  0.0960
 8710SOL    HW137589   0.248   4.246  16.613 -0.1670  0.3895  0.0060
 8710SOL    HW237590   0.280   4.332  16.506  0.2749 -0.0514  0.0659
 8711SOL     OW37591   0.656   3.791   6.827 -0.0511  0.0824 -0.1684
 8711SOL    HW137592   0.727   3.738   6.792 -0.3697 -0.4210 -0.0464
 8711SOL    HW237593   0.594   3.788   6.755 -0.1442 -0.0202 -0.0844
 8712SOL     OW37594   0.458   2.138   7.006  0.2725 -0.1076 -0.0817
 8712SOL    HW137595   0.423   2.061   6.961  0.3538 -0.5061  0.5406
 8712SOL    HW237596   0.543   2.101   7.030 -0.3849 -2.7809 -1.8415
 8713SOL     OW37597   1.133   3.342  15.438  0.0515  0.0290 -0.1383
 8713SOL    HW137598   1.168   3.425  15.471 -1.3263  1.5674 -2.5851
 8713SOL    HW237599   1.055   3.322  15.490  1.1218 -0.8263  1.1448
 8714SOL     OW37600   3.671   0.850   4.220  0.5049  0.0473  0.1062
 8714SOL    HW137601   3.744   0.789   4.209 -0.3993 -0.8757 -0.8072
 8714SOL    HW237602   3.607   0.803   4.167 -0.8590  0.8471  1.0458
 8715SOL     OW37603   0.327   4.569   0.666  0.6112  0.2723  0.3516
 8715SOL    HW137604   0.263   4.557   0.596 -1.5464 -0.6786  2.4845
 8715SOL    HW237605   0.397   4.520   0.623  0.6762  0.0106  0.7523
 8716SOL     OW37606   2.847   3.249  17.448 -0.2041  0.5549  0.7126
 8716SOL    HW137607   2.920   3.247  17.387 -0.0834 -0.3343  0.8764
 8716SOL    HW237608   2.797   3.178  17.408 -0.3616  0.7208  0.6147
 8717SOL     OW37609   1.859   1.907  12.523  0.3722  0.2988  0.1245
 8717SOL    HW137610   1.806   1.893  12.445  1.0037 -0.0300 -0.2428
 8717SOL    HW237611   1.789   1.942  12.579 -0.4655  0.3236 -0.9510
 8718SOL     OW37612   0.277   0.803   1.315  0.6421 -0.0569  0.1034
 8718SOL    HW137613   0.210   0.825   1.381 -0.3738  0.1105 -0.9757
 8718SOL    HW237614   0.349   0.777   1.371 -0.0987  1.2642  1.6808
 8719SOL     OW37615   3.639   0.970  16.383  0.1351 -0.3224 -0.0441
 8719SOL    HW137616   3.559   0.991  16.333  0.3948  1.6013  0.3482
 8719SOL    HW237617   3.645   1.044  16.443  0.4669  0.5327 -1.1360
 8720SOL     OW37618   2.172   3.976  11.284  0.3831  0.3901  0.0049
 8720SOL    HW137619   2.223   4.057  11.274  0.0267  0.7016  0.6777
 8720SOL    HW237620   2.132   3.990  11.370 -1.1210  2.0093 -0.9556
 8721SOL     OW37621   0.323   2.952   3.005 -0.0240 -0.0944  0.0423
 8721SOL    HW137622   0.332   2.983   3.096 -1.2514 -0.7621  0.3873
 8721SOL    HW237623   0.416   2.947   2.982 -0.0217  0.9884 -0.1569
 8722SOL     OW37624   4.326   4.060   3.483 -0.1402 -0.0977  0.5234
 8722SOL    HW137625   4.260   4.036   3.418  1.7642 -0.8694 -1.1589
 8722SOL    HW237626   4.262   4.092   3.546  0.0186  0.0272  0.6229
 8723SOL     OW37627   1.000   1.434   8.796 -0.1543 -0.1670 -0.0365
 8723SOL    HW137628   1.031   1.523   8.776  2.5605 -0.8886  0.9047
 8723SOL    HW237629   0.906   1.443   8.806 -0.0020  1.0690  0.3219
 8724SOL     OW37630   4.039   2.236  10.902  0.5365  0.1321  0.1485
 8724SOL    HW137631   3.979   2.232  10.827  0.2402 -1.2221  0.4600
 8724SOL    HW237632   4.120   2.274  10.868  1.6534 -1.0585  1.4914
 8725SOL     OW37633   0.451   4.513   1.594  0.1236  0.1620  0.1873
 8725SOL    HW137634   0.547   4.517   1.589  0.1847 -1.3807  0.2566
 8725SOL    HW237635   0.431   4.458   1.670 -2.1771 -0.5362 -0.9218
 8726SOL     OW37636   2.755   3.575   8.154  0.2504  0.4824 -0.2406
 8726SOL    HW137637   2.748   3.531   8.238 -0.0103  1.4191  0.2318
 8726SOL    HW237638   2.825   3.521   8.119 -0.1087  0.0394 -0.2759
 8727SOL     OW37639   0.143   0.441   3.365  0.1987  0.0763 -0.1098
 8727SOL    HW137640   0.236   0.423   3.361  0.4683  1.4273  0.0266
 8727SOL    HW237641   0.120   0.426   3.273  1.5994 -1.1069 -0.2513
 8728SOL     OW37642   1.728   0.738   9.934  0.3200 -0.2003  0.3966
 8728SOL    HW137643   1.780   0.712  10.010  0.6738 -1.4456 -0.2611
 8728SOL    HW237644   1.742   0.832   9.940 -0.5816 -0.0201 -0.3471
 8729SOL     OW37645   1.706   2.149   4.633  0.0121  0.2344 -0.1085
 8729SOL    HW137646   1.620   2.172   4.598 -0.2205 -0.8849 -0.2870
 8729SOL    HW237647   1.748   2.123   4.552  0.3724  0.2113  0.0863
 8730SOL     OW37648   0.098   3.400   7.061 -0.3909  0.0027 -0.5031
 8730SOL    HW137649   0.132   3.460   6.994  1.0689 -0.3255 -0.0631
 8730SOL    HW237650   0.093   3.313   7.020 -0.2424 -0.0715 -0.3648
 8731SOL     OW37651   1.261   3.343  12.635 -0.0122  0.1615 -0.0033
 8731SOL    HW137652   1.331   3.307  12.690  0.6258 -0.4787 -1.2387
 8731SOL    HW237653   1.217   3.404  12.695 -0.3725  0.4720 -0.5841
 8732SOL     OW37654   2.876   3.247   4.745 -0.4265 -0.2435  0.2772
 8732SOL    HW137655   2.959   3.237   4.700 -0.8434  2.4170 -1.0904
 8732SOL    HW237656   2.884   3.329   4.794 -3.0675 -0.4986  1.1665
 8733SOL     OW37657   1.770   3.186   3.885 -0.1927 -0.8037 -1.1778
 8733SOL    HW137658   1.800   3.243   3.956 -2.1160 -2.9616  1.3815
 8733SOL    HW237659   1.772   3.248   3.813 -1.4605  0.3359 -0.2310
 8734SOL     OW37660   1.857   3.623   2.579 -0.0574  0.6707  0.0497
 8734SOL    HW137661   1.764   3.607   2.561 -0.0564 -1.0917  1.6811
 8734SOL    HW237662   1.880   3.707   2.538  2.0217  0.1561  0.1766
 8735SOL     OW37663   1.229   2.648   6.738 -0.0582  0.4083 -0.0080
 8735SOL    HW137664   1.192   2.728   6.700  2.6057  1.4184 -0.4964
 8735SOL    HW237665   1.314   2.682   6.768  0.1779 -0.9009  0.7878
 8736SOL     OW37666   4.646   1.135   6.741 -0.8067 -0.0585 -0.8140
 8736SOL    HW137667   4.665   1.046   6.769 -0.0949  0.3743  0.1020
 8736SOL    HW237668   4.670   1.200   6.807  0.3371  0.4074 -1.6830
 8737SOL     OW37669   2.321   3.637   6.868 -0.3322  0.7095 -0.1838
 8737SOL    HW137670   2.352   3.611   6.955 -1.0693  1.2111  0.2247
 8737SOL    HW237671   2.382   3.601   6.804  0.5140  1.1790  0.3567
 8738SOL     OW37672   1.106   0.507   6.128 -0.0475 -0.2670  0.6415
 8738SOL    HW137673   1.060   0.517   6.044  1.1415  0.4326  0.0813
 8738SOL    HW237674   1.175   0.573   6.117 -0.8164  0.7592  1.9251
 8739SOL     OW37675   3.059   2.088   3.118  0.0047  0.1693  0.3158
 8739SOL    HW137676   3.040   2.024   3.187  0.2719  1.3540  1.4801
 8739SOL    HW237677   3.137   2.062   3.067  0.3672  0.9483  0.4735
 8740SOL     OW37678   3.189   3.658   4.202 -0.4213  0.3932 -0.1438
 8740SOL    HW137679   3.105   3.703   4.196 -0.0428  0.9652 -1.2177
 8740SOL    HW237680   3.248   3.732   4.187  0.8158 -0.3778  0.9142
 8741SOL     OW37681   2.918   2.955  13.982 -0.6448 -0.2632  0.4427
 8741SOL    HW137682   2.922   3.048  14.006 -0.3046  0.2388 -1.5333
 8741SOL    HW237683   2.981   2.958  13.910 -2.1154  2.3651 -0.7414
 8742SOL     OW37684   0.716   1.374   8.631 -0.2896 -0.2385  0.7267
 8742SOL    HW137685   0.744   1.440   8.695 -1.6761 -0.6269  1.7309
 8742SOL    HW237686   0.706   1.300   8.692 -1.0441  1.1594  2.3205
 8743SOL     OW37687   0.925   3.199   1.818 -0.2732  0.1897 -0.2653
 8743SOL    HW137688   0.841   3.176   1.856  0.7368  1.9587  3.0762
 8743SOL    HW237689   0.905   3.291   1.801  1.0708  0.5877  0.3131
 8744SOL     OW37690   4.464   4.488   0.905 -0.2946 -0.1667  0.0577
 8744SOL    HW137691   4.387   4.432   0.897  0.0522 -0.4461 -1.3414
 8744SOL    HW237692   4.438   4.548   0.976 -1.3777 -0.3914 -0.1469
 8745SOL     OW37693   1.351   2.265  13.052  0.4324 -0.2399  0.9884
 8745SOL    HW137694   1.420   2.210  13.014 -0.4510 -2.1413  2.1402
 8745SOL    HW237695   1.271   2.220  13.025 -1.3505  2.5288  1.6552
 8746SOL     OW37696   0.017   0.385   6.599  1.1257  0.1113  0.1149
 8746SOL    HW137697   4.701   0.460   6.645 -0.8060  0.0812 -1.3592
 8746SOL    HW237698   0.022   0.319   6.669 -3.2619  0.2938  0.5884
 8747SOL     OW37699   1.806   1.283  16.223  0.5124 -0.5150  0.2775
 8747SOL    HW137700   1.846   1.334  16.293  1.2530 -0.2887 -0.3083
 8747SOL    HW237701   1.714   1.306  16.233  0.7357  0.4736  0.0182
 8748SOL     OW37702   3.996   0.798  15.000  0.4508 -0.1688 -0.1184
 8748SOL    HW137703   3.960   0.709  14.993  1.9020 -0.9146  1.8033
 8748SOL    HW237704   4.086   0.784  14.970  0.3348 -2.2180  0.4729
 8749SOL     OW37705   1.673   2.781   6.920  0.3956 -0.6983  0.1223
 8749SOL    HW137706   1.649   2.873   6.925  0.6985 -0.5630 -0.9148
 8749SOL    HW237707   1.685   2.771   6.826  1.1901  0.6506  0.0836
 8750SOL     OW37708   0.974   2.404   5.527  0.0242 -0.3731 -0.2106
 8750SOL    HW137709   1.027   2.479   5.555 -1.9549  1.1016 -0.3700
 8750SOL    HW237710   1.006   2.333   5.581  0.8053  1.8788  2.2763
 8751SOL     OW37711   2.906   2.441   1.908  0.4234 -0.2059 -0.0723
 8751SOL    HW137712   2.876   2.523   1.949  0.4681 -0.2652  0.0792
 8751SOL    HW237713   2.863   2.433   1.823 -2.9548  0.7572  1.5264
 8752SOL     OW37714   2.054   1.876   2.904  0.5470  0.0734 -0.1594
 8752SOL    HW137715   1.983   1.901   2.963  0.5286  0.0437 -0.1694
 8752SOL    HW237716   2.009   1.802   2.863  1.3741  1.0785 -2.9191
 8753SOL     OW37717   1.028   2.633   1.372 -0.1756 -0.1326  0.2358
 8753SOL    HW137718   1.012   2.728   1.372 -1.2899 -0.3273 -1.2934
 8753SOL    HW237719   0.970   2.606   1.301 -1.8906  1.9714  0.8386
 8754SOL     OW37720   2.685   3.833   8.733 -0.0130  0.2592 -0.2890
 8754SOL    HW137721   2.623   3.770   8.697 -1.1134  1.4514 -0.4627
 8754SOL    HW237722   2.638   3.876   8.804  1.7113  2.4080 -0.4617
 8755SOL     OW37723   3.352   3.759   4.773 -0.0761  0.0056  0.6829
 8755SOL    HW137724   3.408   3.705   4.829  0.3919 -0.7181 -0.4683
 8755SOL    HW237725   3.409   3.762   4.696 -0.2571 -0.2275  0.5386
 8756SOL     OW37726   4.518   0.991   0.743 -0.1235  0.3902 -0.4259
 8756SOL    HW137727   4.466   1.028   0.672 -3.2255 -1.1059  1.0265
 8756SOL    HW237728   4.462   0.914   0.751  2.4559 -1.4653 -0.2156
 8757SOL     OW37729   4.441   0.872   8.274 -0.1379 -0.2451  0.3856
 8757SOL    HW137730   4.428   0.798   8.333  2.3274 -3.4263 -3.1361
 8757SOL    HW237731   4.523   0.851   8.229 -0.1240  1.4807 -0.4014
 8758SOL     OW37732   0.347   4.177   2.642  0.3237 -0.1676  0.0554
 8758SOL    HW137733   0.397   4.096   2.631 -0.4113 -0.2311 -2.9024
 8758SOL    HW237734   0.431   4.223   2.640 -1.3784  2.9605  1.4574
 8759SOL     OW37735   4.071   4.458  12.900 -0.1288 -0.1993 -0.4674
 8759SOL    HW137736   4.026   4.499  12.974  1.0946  1.2660 -0.5419
 8759SOL    HW237737   4.066   4.371  12.939  1.1161  0.5994  1.4549
 8760SOL     OW37738   3.310   3.466   9.943 -0.5281  0.5722  0.2490
 8760SOL    HW137739   3.371   3.394   9.958 -1.9682 -0.3553  1.6760
 8760SOL    HW237740   3.347   3.530  10.003  4.1922 -0.9548 -1.0546
 8761SOL     OW37741   3.388   1.411   4.739 -0.2028 -0.1331 -0.1390
 8761SOL    HW137742   3.318   1.433   4.800 -0.0695  1.0186 -0.3965
 8761SOL    HW237743   3.384   1.490   4.684 -0.0623 -0.1386 -0.1574
 8762SOL     OW37744   0.577   2.911   2.992  0.4377 -0.5682  0.1036
 8762SOL    HW137745   0.646   2.904   3.057 -1.3849 -1.9036  1.8887
 8762SOL    HW237746   0.600   2.844   2.927  0.7014  0.7345 -1.1608
 8763SOL     OW37747   1.164   4.120   1.881  0.0851  0.1537  0.0512
 8763SOL    HW137748   1.153   4.215   1.870  1.2300  0.1867 -0.8313
 8763SOL    HW237749   1.247   4.106   1.836 -0.1142  2.6376 -1.1383
 8764SOL     OW37750   1.059   1.275   2.254 -0.5720 -0.0577 -0.5898
 8764SOL    HW137751   1.128   1.214   2.280  0.2130  0.0896 -2.2817
 8764SOL    HW237752   0.990   1.213   2.227  0.0412 -0.0350 -2.2500
 8765SOL     OW37753   3.731   2.373   3.752  0.2834  0.6184  0.1344
 8765SOL    HW137754   3.796   2.352   3.685 -0.7566  0.2836 -0.7571
 8765SOL    HW237755   3.744   2.315   3.827 -1.3040  0.0354 -0.0493
 8766SOL     OW37756   1.964   3.938   3.086 -0.0082  0.1430 -0.8778
 8766SOL    HW137757   1.950   3.849   3.054  0.0404 -0.8148  1.6971
 8766SOL    HW237758   2.029   3.964   3.022  1.5994 -0.9520  0.2988
 8767SOL     OW37759   4.659   0.715  17.671 -0.1298  0.2331 -0.3647
 8767SOL    HW137760   0.026   0.683   0.005 -0.8024  0.5769  3.2077
 8767SOL    HW237761   4.631   0.643  17.614 -1.4071  0.6727 -0.2843
 8768SOL     OW37762   2.934   2.474   6.404  0.2590  0.5085  0.5391
 8768SOL    HW137763   2.926   2.397   6.348  1.5288  0.6966  0.0931
 8768SOL    HW237764   2.905   2.537   6.338 -1.3394 -0.0152  0.7346
 8769SOL     OW37765   4.678   0.178   0.263 -0.4909 -0.9573  0.1353
 8769SOL    HW137766   0.027   0.119   0.233 -0.0326  0.4402 -1.5358
 8769SOL    HW237767   4.703   0.178   0.355 -1.1346 -1.4652  0.3084
 8770SOL     OW37768   3.432   3.605   2.752  0.1158 -0.1432  0.0025
 8770SOL    HW137769   3.493   3.674   2.776  0.5893 -0.7282  0.4996
 8770SOL    HW237770   3.357   3.627   2.807 -0.2877  2.7728 -1.7085
 8771SOL     OW37771   1.121   0.942   2.829  0.6050 -0.4752  0.1642
 8771SOL    HW137772   1.110   0.868   2.768  0.7919 -1.1770  0.9898
 8771SOL    HW237773   1.117   1.009   2.760  2.3205 -2.0780 -1.4851
 8772SOL     OW37774   1.470   3.671  11.934  0.0687  0.1846 -0.1498
 8772SOL    HW137775   1.538   3.724  11.975  1.0059 -2.4867  1.7317
 8772SOL    HW237776   1.397   3.724  11.967 -0.6454 -1.6818  1.3009
 8773SOL     OW37777   0.824   1.834   9.724  0.0140  0.0880 -0.1440
 8773SOL    HW137778   0.818   1.830   9.628 -0.2314  2.2845 -0.2132
 8773SOL    HW237779   0.802   1.924   9.747  1.4292  0.4399 -0.1977
 8774SOL     OW37780   1.362   3.557   2.251 -0.6588  0.6092  0.3219
 8774SOL    HW137781   1.315   3.564   2.168 -1.8707  0.6999  1.0117
 8774SOL    HW237782   1.440   3.610   2.236 -1.1825  1.8390  1.9516
 8775SOL     OW37783   3.696   3.480   4.431  0.7062  0.5668  0.0601
 8775SOL    HW137784   3.775   3.495   4.379  0.1118 -0.1228 -1.0387
 8775SOL    HW237785   3.649   3.427   4.366  0.0768  1.0036  0.1669
 8776SOL     OW37786   0.908   4.130   8.164  0.7934  0.3838 -0.0869
 8776SOL    HW137787   0.937   4.061   8.104  0.5030 -2.6701  3.2952
 8776SOL    HW237788   0.991   4.154   8.205  1.6974 -0.4697 -1.3864
 8777SOL     OW37789   2.978   4.705   4.330  0.3180 -0.5479  0.2745
 8777SOL    HW137790   2.997   4.678   4.240 -0.9250 -0.6889  0.0628
 8777SOL    HW237791   2.885   4.687   4.320  0.8690 -3.2516  0.1114
 8778SOL     OW37792   1.045   3.901  11.226  0.2199  0.0402  0.6845
 8778SOL    HW137793   0.949   3.907  11.226  0.2370  0.2941  0.2700
 8778SOL    HW237794   1.059   3.843  11.151  1.1634 -0.8517  1.5481
 8779SOL     OW37795   1.090   2.769   2.888  0.2225 -0.2164  0.0625
 8779SOL    HW137796   1.166   2.811   2.848 -0.2562  0.3515 -0.2569
 8779SOL    HW237797   1.125   2.680   2.895 -1.7636 -0.9907  0.1160
 8780SOL     OW37798   1.425   2.910   2.165 -0.1081  0.1261  0.2564
 8780SOL    HW137799   1.371   2.930   2.089  0.3559 -0.9869 -0.3700
 8780SOL    HW237800   1.415   2.815   2.157 -0.8330  0.3093 -0.9211
 8781SOL     OW37801   3.537   4.536   6.106  0.5111  0.0629 -0.2662
 8781SOL    HW137802   3.519   4.479   6.180  0.8720 -0.2438 -0.4183
 8781SOL    HW237803   3.627   4.562   6.125  0.1773 -1.2023  2.9782
 8782SOL     OW37804   3.448   0.806   4.744  0.3757 -0.1691  0.5807
 8782SOL    HW137805   3.453   0.736   4.679  0.9027  1.1611 -0.8234
 8782SOL    HW237806   3.488   0.865   4.679  0.1211  0.1220  0.6868
 8783SOL     OW37807   3.317   0.543  11.304  0.4390 -0.1291  0.1506
 8783SOL    HW137808   3.413   0.543  11.303  0.4237  0.7337 -0.6462
 8783SOL    HW237809   3.290   0.588  11.225 -0.8848  0.4755  0.9434
 8784SOL     OW37810   2.900   3.384   6.094  0.3174  0.1019  0.1201
 8784SOL    HW137811   2.960   3.356   6.025  2.2145  0.7681  1.5251
 8784SOL    HW237812   2.823   3.331   6.073 -0.8968  0.7309  2.9923
 8785SOL     OW37813   0.999   0.170   6.372  0.0946 -0.0766 -0.5202
 8785SOL    HW137814   1.061   0.124   6.315  1.2063  0.6765  0.0734
 8785SOL    HW237815   0.995   0.116   6.451  1.6830  0.5865  0.0046
 8786SOL     OW37816   1.125   2.189   8.569  0.1481  0.0971 -0.1850
 8786SOL    HW137817   1.164   2.102   8.576 -0.6333 -0.3168 -0.8334
 8786SOL    HW237818   1.130   2.210   8.475  0.9063 -1.0886 -0.4074
 8787SOL     OW37819   1.162   3.453   6.671  0.0684 -0.4720  0.1963
 8787SOL    HW137820   1.206   3.394   6.732 -2.0186 -1.3602  0.8634
 8787SOL    HW237821   1.244   3.475   6.628  0.0773 -0.0795  0.4213
 8788SOL     OW37822   4.073   4.165  11.325 -0.6431  0.5148 -1.3134
 8788SOL    HW137823   4.022   4.169  11.244 -1.7906 -1.0011 -0.6747
 8788SOL    HW237824   4.052   4.245  11.373  2.6075  1.9398 -2.2777
 8789SOL     OW37825   2.681   3.995  17.354 -0.0485  0.1334 -0.1622
 8789SOL    HW137826   2.710   3.907  17.333 -1.2017 -0.6268  1.4358
 8789SOL    HW237827   2.750   4.032  17.409 -0.2771  0.1976  0.0835
 8790SOL     OW37828   3.536   2.647   2.007  0.5697 -0.1824 -0.3962
 8790SOL    HW137829   3.529   2.581   1.938  0.8970  0.1275 -0.7222
 8790SOL    HW237830   3.631   2.649   2.009  0.5155  1.1619  0.9299
 8791SOL     OW37831   1.718   1.482   4.347  0.0534  0.4443  0.0159
 8791SOL    HW137832   1.705   1.470   4.441  0.2033 -1.8233 -0.2316
 8791SOL    HW237833   1.639   1.532   4.330 -1.2976 -1.2295  1.3771
 8792SOL     OW37834   0.111   0.702  11.100 -0.3018 -0.5506  0.9248
 8792SOL    HW137835   0.073   0.727  11.016  0.3527 -0.2242  0.7245
 8792SOL    HW237836   0.199   0.682  11.068 -0.2220 -0.7007  1.2375
 8793SOL     OW37837   0.665   0.887   4.678  0.6639  0.0378 -0.0860
 8793SOL    HW137838   0.754   0.914   4.653  1.3175 -0.7871  1.4025
 8793SOL    HW237839   0.619   0.888   4.594  0.5032 -0.9464 -0.0016
 8794SOL     OW37840   1.276   2.191   8.938  0.2725  0.1857  0.9891
 8794SOL    HW137841   1.187   2.158   8.930  0.4954  0.3032 -2.2804
 8794SOL    HW237842   1.273   2.281   8.905  1.7147 -0.5854 -1.3226
 8795SOL     OW37843   1.681   2.073  12.636  0.0974 -0.5510 -0.5826
 8795SOL    HW137844   1.595   2.033  12.627 -1.3526  2.3060  0.5182
 8795SOL    HW237845   1.659   2.158  12.597 -0.7097  0.7190  2.6428
 8796SOL     OW37846   2.009   3.813   8.702  0.4690  0.4834  0.1575
 8796SOL    HW137847   2.060   3.848   8.775 -0.1971  0.4582  0.6266
 8796SOL    HW237848   2.077   3.753   8.671  1.4288  1.8364 -0.3590
 8797SOL     OW37849   3.691   0.934   2.840  0.0523  0.6753  0.5696
 8797SOL    HW137850   3.723   0.848   2.869  2.8073  1.3575 -0.4867
 8797SOL    HW237851   3.733   0.989   2.906  2.5924 -0.5363 -0.0501
 8798SOL     OW37852   0.738   0.725  13.951  0.0173 -0.5224  0.1264
 8798SOL    HW137853   0.826   0.705  13.919  1.5653  1.3990  3.2005
 8798SOL    HW237854   0.694   0.641  13.938  1.3272 -1.3471  1.0020
 8799SOL     OW37855   3.541   0.204   5.314  0.0305 -0.0136  0.4727
 8799SOL    HW137856   3.575   0.253   5.389  1.2998 -0.9353  0.4958
 8799SOL    HW237857   3.549   0.266   5.242 -2.4358 -1.6265 -1.1778
 8800SOL     OW37858   2.123   1.473   2.222  0.2453 -0.0179 -0.2243
 8800SOL    HW137859   2.056   1.533   2.254 -2.2194 -2.7264 -0.3320
 8800SOL    HW237860   2.195   1.534   2.203 -1.0544  0.7362 -2.6012
 8801SOL     OW37861   2.115   2.032   6.848 -0.0787  0.1055 -0.4165
 8801SOL    HW137862   2.118   2.076   6.933  2.0393 -0.8761  0.0148
 8801SOL    HW237863   2.133   1.948   6.889 -0.2127  0.2943  0.0304
 8802SOL     OW37864   2.834   4.209   5.277 -0.5156  0.6246 -0.0408
 8802SOL    HW137865   2.844   4.292   5.231  1.0975 -0.3560 -1.4595
 8802SOL    HW237866   2.922   4.183   5.249 -0.6950 -0.2094  0.1788
 8803SOL     OW37867   0.611   0.055   0.486 -0.6267 -0.0094 -0.2125
 8803SOL    HW137868   0.677   4.710   0.511  0.4169  1.2124  0.2425
 8803SOL    HW237869   0.641   0.092   0.403 -2.4068 -0.3183 -0.9795
 8804SOL     OW37870   0.894   1.447   1.719  0.4754 -0.1527 -0.3209
 8804SOL    HW137871   0.954   1.479   1.786 -0.6453  0.3014  0.4666
 8804SOL    HW237872   0.940   1.373   1.679 -0.1368 -2.3223  2.9966
 8805SOL     OW37873   4.466   0.961   4.204 -0.5982 -0.1643 -0.3291
 8805SOL    HW137874   4.521   0.908   4.261 -2.0567 -1.2038  0.1167
 8805SOL    HW237875   4.397   0.978   4.269 -0.3561 -0.0986 -0.0891
 8806SOL     OW37876   2.925   0.698  16.051  0.3501 -0.0252 -0.0956
 8806SOL    HW137877   2.989   0.642  16.095 -1.6592 -1.7628  0.6155
 8806SOL    HW237878   2.928   0.770  16.114 -0.7141  0.5940 -0.7427
 8807SOL     OW37879   4.470   3.804   6.174 -0.1341 -0.5967  0.1947
 8807SOL    HW137880   4.550   3.857   6.178 -0.8572  0.3668  2.0039
 8807SOL    HW237881   4.479   3.748   6.252 -1.5857  0.7594  1.3348
 8808SOL     OW37882   1.785   1.502  10.860 -0.2289 -0.5267 -0.0927
 8808SOL    HW137883   1.796   1.535  10.771  0.1738  2.6755  1.1398
 8808SOL    HW237884   1.873   1.491  10.896 -0.5171  0.0972  0.8037
 8809SOL     OW37885   4.009   3.945  11.518 -0.3132 -0.1800 -0.5947
 8809SOL    HW137886   4.042   4.035  11.515  0.6624 -0.4529  2.5015
 8809SOL    HW237887   3.971   3.927  11.432  0.1469  1.6967 -1.1920
 8810SOL     OW37888   0.446   0.799   0.851  0.3458  0.0963  0.5461
 8810SOL    HW137889   0.418   0.846   0.929  0.1518 -1.3874  1.3775
 8810SOL    HW237890   0.466   0.872   0.793 -2.0974  0.1649 -0.2276
 8811SOL     OW37891   1.472   0.145   8.507 -0.4727 -0.3812 -0.4899
 8811SOL    HW137892   1.390   0.170   8.465 -0.0893  1.0919 -0.3781
 8811SOL    HW237893   1.456   0.195   8.587 -0.0894 -0.3658 -0.4235
 8812SOL     OW37894   4.421   1.081   7.347 -0.5133  0.3958  0.0851
 8812SOL    HW137895   4.384   1.132   7.420 -1.7202 -0.4278  0.0389
 8812SOL    HW237896   4.347   1.065   7.288  0.8731  1.6510 -2.0033
 8813SOL     OW37897   2.002   0.428   7.687  0.1320 -1.0020  0.1807
 8813SOL    HW137898   2.094   0.449   7.669 -0.5626  0.4190 -1.6858
 8813SOL    HW237899   2.008   0.446   7.781  0.7406 -1.8743  0.3128
 8814SOL     OW37900   2.919   1.504  13.229 -0.6449 -0.3180  0.5034
 8814SOL    HW137901   3.007   1.507  13.191 -0.0275  1.5116  2.0311
 8814SOL    HW237902   2.881   1.584  13.192 -1.8521 -1.4357 -0.6641
 8815SOL     OW37903   4.649   2.600   3.680  0.3894  0.1267  0.7037
 8815SOL    HW137904   4.670   2.574   3.770  3.2738  2.0279  0.5770
 8815SOL    HW237905   4.672   2.692   3.696 -0.3219  0.1448  1.6217
 8816SOL     OW37906   0.150   1.182   1.788  0.3361  0.3533 -0.3483
 8816SOL    HW137907   0.141   1.128   1.866 -2.4082  2.6389  0.8896
 8816SOL    HW237908   0.062   1.219   1.775  0.0042 -1.0691 -2.2600
 8817SOL     OW37909   4.662   3.684   7.602 -0.3158 -0.2287  0.7886
 8817SOL    HW137910   4.627   3.599   7.629 -0.0252 -0.7540 -0.4795
 8817SOL    HW237911   4.627   3.690   7.513  1.8687 -0.5628 -0.0999
 8818SOL     OW37912   2.090   3.687  14.363 -0.1496 -0.4879  0.8351
 8818SOL    HW137913   2.163   3.625  14.364  0.7371  0.5658  1.4018
 8818SOL    HW237914   2.019   3.629  14.336 -0.1066 -1.1365  2.1136
 8819SOL     OW37915   1.367   0.740   2.617  0.5519  1.3049 -0.2888
 8819SOL    HW137916   1.390   0.750   2.709  1.4209 -2.4365 -0.0963
 8819SOL    HW237917   1.450   0.700   2.590 -0.5197 -1.1432  0.1136
 8820SOL     OW37918   2.529   2.836  10.053 -0.3083 -0.0130 -0.5703
 8820SOL    HW137919   2.535   2.746  10.019 -0.3742 -0.2239 -0.0129
 8820SOL    HW237920   2.584   2.891   9.997  0.4725 -2.0640 -1.8579
 8821SOL     OW37921   0.919   2.670  11.742 -0.6459 -0.7259 -0.3133
 8821SOL    HW137922   0.907   2.592  11.796 -2.0448 -0.6221 -0.4882
 8821SOL    HW237923   0.890   2.745  11.794  1.3575 -0.1595  0.0057
 8822SOL     OW37924   3.698   2.156   6.081  0.4208 -0.0060 -0.6925
 8822SOL    HW137925   3.774   2.146   6.023  0.9719 -2.4672  0.4995
 8822SOL    HW237926   3.738   2.199   6.156 -1.1483 -1.3204  0.8772
 8823SOL     OW37927   2.738   3.230   2.445  0.3117  0.0362 -0.2443
 8823SOL    HW137928   2.686   3.213   2.366  1.7960 -0.5737 -1.0922
 8823SOL    HW237929   2.671   3.257   2.507  0.8297 -1.0276  0.7890
 8824SOL     OW37930   3.663   0.916   3.597 -0.4222  0.4193 -0.3766
 8824SOL    HW137931   3.659   1.003   3.558  0.5527 -0.5766 -2.6906
 8824SOL    HW237932   3.617   0.856   3.539  2.3148 -2.1082  0.0516
 8825SOL     OW37933   0.898   2.095   2.802 -0.4408  0.3895 -0.5384
 8825SOL    HW137934   0.920   2.180   2.763  2.0456 -1.0167 -2.1855
 8825SOL    HW237935   0.978   2.050   2.778 -0.2561  0.5631 -0.2546
 8826SOL     OW37936   1.305   0.234   6.510 -0.1404  0.3321 -0.0654
 8826SOL    HW137937   1.360   0.199   6.440  0.5563 -1.0310  1.1737
 8826SOL    HW237938   1.307   0.329   6.494 -0.6022  0.6513  1.8174
 8827SOL     OW37939   3.916   1.355   0.572  0.8772 -0.2218 -0.1715
 8827SOL    HW137940   3.908   1.426   0.636  2.4715 -1.9983  2.0047
 8827SOL    HW237941   3.852   1.388   0.509 -0.1054 -1.7513  0.0237
 8828SOL     OW37942   3.346   1.632   0.677  0.4870  0.1040  0.3873
 8828SOL    HW137943   3.289   1.587   0.738  1.6267  0.8350  1.9800
 8828SOL    HW237944   3.435   1.611   0.706  0.3012 -1.1213  0.0438
 8829SOL     OW37945   0.268   1.802  11.446 -0.6104 -0.7097  0.3453
 8829SOL    HW137946   0.357   1.822  11.474 -1.0112  1.3718  0.1432
 8829SOL    HW237947   0.258   1.757  11.530 -0.2890  3.4729  2.6475
 8830SOL     OW37948   2.476   4.490  14.099  0.3089 -0.0172  0.5197
 8830SOL    HW137949   2.542   4.429  14.066  0.6856  0.4751  0.3479
 8830SOL    HW237950   2.511   4.573  14.066 -0.8923  0.7146  1.0952
 8831SOL     OW37951   4.148   4.416   9.977 -0.7291 -0.0883  0.1500
 8831SOL    HW137952   4.216   4.470  10.018 -1.6135  0.6409  0.6385
 8831SOL    HW237953   4.116   4.471   9.905  0.3292  0.3869  0.0444
 8832SOL     OW37954   4.353   0.073   6.595 -0.5177 -0.4035  0.7142
 8832SOL    HW137955   4.388   0.084   6.683 -1.3162 -0.1065  1.0012
 8832SOL    HW237956   4.433   0.098   6.548 -0.0678 -0.8342  1.2682
 8833SOL     OW37957   3.233   1.045  17.475  0.1771 -0.1179  0.3771
 8833SOL    HW137958   3.300   0.979  17.494  0.2107 -1.0846 -3.0211
 8833SOL    HW237959   3.218   1.019  17.384 -1.9524 -1.2154  1.0472
 8834SOL     OW37960   3.819   2.191   7.066 -0.4685  0.5363  0.0512
 8834SOL    HW137961   3.829   2.108   7.111 -0.3199  1.0220  0.9174
 8834SOL    HW237962   3.861   2.241   7.136 -0.5452  1.2698 -0.4293
 8835SOL     OW37963   3.684   1.679  16.048 -0.7525 -0.5458 -0.0193
 8835SOL    HW137964   3.625   1.615  16.088  1.6611 -2.1276  0.9814
 8835SOL    HW237965   3.624   1.734  15.997  0.0061  0.2777 -0.0117
 8836SOL     OW37966   2.277   0.090   6.796 -0.6022 -0.0091  0.3647
 8836SOL    HW137967   2.371   0.087   6.776 -0.3533  1.4777  1.2811
 8836SOL    HW237968   2.281   0.071   6.890  0.8786  0.0578  0.3159
 8837SOL     OW37969   3.577   4.669   4.323  0.7744 -0.1181 -0.0753
 8837SOL    HW137970   3.649   4.614   4.291 -0.7891 -1.1863 -1.7778
 8837SOL    HW237971   3.607   0.028   4.280 -0.8506  0.1175 -0.7540
 8838SOL     OW37972   4.190   3.826   9.005 -0.0665 -0.8340 -0.5553
 8838SOL    HW137973   4.156   3.761   9.066  0.9824 -3.1388 -2.4036
 8838SOL    HW237974   4.115   3.881   8.985  0.7630  1.5937  2.9555
 8839SOL     OW37975   0.837   0.285   8.961 -0.0588  0.4803  0.2777
 8839SOL    HW137976   0.896   0.354   8.929  2.5364 -1.7440  0.2703
 8839SOL    HW237977   0.880   0.275   9.046  0.4925  1.7448  0.1523
 8840SOL     OW37978   3.838   3.052   3.137 -0.2294 -0.4533  0.6176
 8840SOL    HW137979   3.767   3.031   3.197 -1.7446  0.1729 -0.9615
 8840SOL    HW237980   3.904   3.033   3.204  3.1164 -0.9054 -2.8142
 8841SOL     OW37981   1.744   4.287   7.762  0.5021  0.0586  0.0824
 8841SOL    HW137982   1.830   4.263   7.729 -0.8235 -2.5360 -1.4755
 8841SOL    HW237983   1.695   4.279   7.680 -1.7155 -0.0451  1.4162
 8842SOL     OW37984   2.043   0.637   4.463  0.3556 -0.4384  0.0818
 8842SOL    HW137985   1.963   0.689   4.459 -0.5525 -1.8380  0.2805
 8842SOL    HW237986   2.112   0.692   4.424 -0.9739  0.6733 -0.6954
 8843SOL     OW37987   0.483   2.808  10.264 -0.4371  0.1684 -0.5442
 8843SOL    HW137988   0.484   2.782  10.356 -0.3364  2.8845  0.2086
 8843SOL    HW237989   0.570   2.777  10.238 -0.6404 -0.1013 -0.9071
 8844SOL     OW37990   2.645   0.852   5.254  0.0099  0.0743  0.2848
 8844SOL    HW137991   2.637   0.762   5.222  1.4669 -0.3850  1.2246
 8844SOL    HW237992   2.609   0.906   5.183  1.1315 -1.3609 -1.3638
 8845SOL     OW37993   1.146   2.139   5.917  0.1094  0.3608 -0.7512
 8845SOL    HW137994   1.117   2.182   5.998 -1.7503  0.0466 -1.2610
 8845SOL    HW237995   1.200   2.072   5.958  0.2120  1.4381  0.8863
 8846SOL     OW37996   2.728   2.035   3.110 -0.3306  0.0698  0.8531
 8846SOL    HW137997   2.795   2.042   3.178 -0.7096  0.7408  1.1554
 8846SOL    HW237998   2.707   1.941   3.112 -1.6807  0.3158 -2.1521
 8847SOL     OW37999   3.779   0.183   8.297  0.1834  0.1509 -0.1578
 8847SOL    HW138000   3.801   0.133   8.376 -1.3155 -1.3527 -0.6830
 8847SOL    HW238001   3.749   0.267   8.331 -1.1183 -0.3370 -0.0944
 8848SOL     OW38002   2.439   0.798   3.460 -0.2211 -0.2666  0.5156
 8848SOL    HW138003   2.411   0.722   3.511 -1.2637 -1.5001 -1.9016
 8848SOL    HW238004   2.519   0.768   3.417  0.7956  1.6536  1.0772
 8849SOL     OW38005   0.855   4.646   3.998  0.5486  0.3660  0.3322
 8849SOL    HW138006   0.785   4.711   3.996  0.1647 -0.0956 -0.9498
 8849SOL    HW238007   0.824   4.594   4.072 -1.0625 -1.1567 -1.4096
 8850SOL     OW38008   0.637   1.136   8.836 -0.0423  0.1849  0.2814
 8850SOL    HW138009   0.727   1.165   8.849  1.0015 -1.9028 -2.5023
 8850SOL    HW238010   0.642   1.070   8.767  2.3724 -0.7006  1.3101
 8851SOL     OW38011   4.707   0.855   8.443  0.7636 -0.1216  0.8211
 8851SOL    HW138012   0.001   0.872   8.536  1.3801  1.4858  0.4283
 8851SOL    HW238013   0.028   0.769   8.433 -1.9756 -1.3819  0.0878
 8852SOL     OW38014   4.406   2.200   9.871 -0.4157 -1.2664 -0.1148
 8852SOL    HW138015   4.445   2.270   9.819 -0.2274 -0.3307  1.2816
 8852SOL    HW238016   4.318   2.235   9.883  0.4285  0.5248  0.7836
 8853SOL     OW38017   1.518   3.883   3.383  0.4422  0.4444 -0.6527
 8853SOL    HW138018   1.509   3.929   3.300  0.0417 -0.0280 -0.8692
 8853SOL    HW238019   1.471   3.801   3.372  0.7793  0.2680 -0.7877
 8854SOL     OW38020   0.349   1.636   7.025  0.3096  0.3383 -0.0572
 8854SOL    HW138021   0.328   1.716   7.073 -1.5205 -0.3867  0.3568
 8854SOL    HW238022   0.436   1.657   6.991  0.2612  1.6904  0.6474
 8855SOL     OW38023   2.171   3.575   9.677  0.2650 -0.2618  0.0747
 8855SOL    HW138024   2.084   3.613   9.672  1.8086  3.4690  1.9803
 8855SOL    HW238025   2.163   3.555   9.770  1.9533  0.8646  0.4549
 8856SOL     OW38026   0.672   1.349   5.879  0.1002  0.2492  0.3387
 8856SOL    HW138027   0.598   1.403   5.907  1.0278  1.8370 -0.2712
 8856SOL    HW238028   0.707   1.422   5.828  1.1529 -2.0308 -2.1985
 8857SOL     OW38029   4.200   3.261   8.029  0.7779  0.0310 -0.0501
 8857SOL    HW138030   4.109   3.230   8.031  1.1637 -1.0603  0.5529
 8857SOL    HW238031   4.243   3.225   8.106 -0.3450  3.1331  2.0340
 8858SOL     OW38032   4.452   3.592   6.385 -0.0908 -0.7241  0.4429
 8858SOL    HW138033   4.458   3.656   6.456 -3.1144 -0.6038  0.5939
 8858SOL    HW238034   4.527   3.537   6.409  0.7721  0.0570 -0.5062
 8859SOL     OW38035   3.366   3.528   2.275 -0.0327 -0.0870 -0.1273
 8859SOL    HW138036   3.370   3.474   2.353 -1.6709  1.7864  1.2447
 8859SOL    HW238037   3.421   3.485   2.209 -1.4374 -1.8153 -0.1671
 8860SOL     OW38038   3.641   0.867   8.526  0.3623  0.7392  0.4400
 8860SOL    HW138039   3.564   0.840   8.576 -1.1788  1.2397 -1.6785
 8860SOL    HW238040   3.609   0.953   8.498  0.2840  0.0892 -1.4559
 8861SOL     OW38041   1.809   3.354   3.658  0.3372 -0.3280 -0.2499
 8861SOL    HW138042   1.745   3.400   3.603  0.1361  0.3974  0.5866
 8861SOL    HW238043   1.866   3.429   3.675  0.7582 -0.5510 -0.6692
 8862SOL     OW38044   1.523   4.494  11.298 -0.3320  0.0332  0.1082
 8862SOL    HW138045   1.430   4.488  11.275 -0.0272 -0.0654 -1.1150
 8862SOL    HW238046   1.568   4.487  11.214 -1.3730  2.2372 -0.6453
 8863SOL     OW38047   3.251   0.889   4.482 -0.4356 -0.0547  0.5711
 8863SOL    HW138048   3.329   0.926   4.522 -0.7827  1.1384  0.1301
 8863SOL    HW238049   3.215   0.972   4.453  2.0778  2.2946  4.1432
 8864SOL     OW38050   0.442   2.753   4.747  0.0841  0.5420 -0.4400
 8864SOL    HW138051   0.515   2.747   4.685  0.4634  0.5078  0.0087
 8864SOL    HW238052   0.407   2.665   4.763  1.5458  0.2227  1.1294
 8865SOL     OW38053   0.749   2.382   5.036 -0.1170  0.1953  0.2904
 8865SOL    HW138054   0.690   2.326   5.087 -0.3268  1.0438  0.9902
 8865SOL    HW238055   0.817   2.416   5.094 -0.4884 -1.0264  1.4405
 8866SOL     OW38056   1.302   2.866   3.406  0.1698 -0.2568  0.0574
 8866SOL    HW138057   1.357   2.876   3.484 -0.6226  0.0123  0.5867
 8866SOL    HW238058   1.348   2.917   3.340 -1.4736  1.6235  0.3331
 8867SOL     OW38059   4.315   0.476   6.388  0.2590 -0.2076  0.5948
 8867SOL    HW138060   4.375   0.541   6.350 -1.7520  1.6352  0.6348
 8867SOL    HW238061   4.363   0.469   6.470 -1.4875 -2.6682  1.4113
 8868SOL     OW38062   0.099   0.303   8.357  0.2581 -0.2262 -0.5873
 8868SOL    HW138063   0.006   0.329   8.358 -0.3798 -2.5510  0.5974
 8868SOL    HW238064   0.103   0.223   8.408  0.7941  0.5965  0.6704
 8869SOL     OW38065   0.854   3.718   7.242  0.0885  0.6916 -0.2637
 8869SOL    HW138066   0.926   3.674   7.197  1.0751  2.9326 -0.8687
 8869SOL    HW238067   0.808   3.768   7.174  1.6958 -0.3873 -2.1343
 8870SOL     OW38068   2.622   0.594   5.179 -0.2754 -0.1911 -0.3133
 8870SOL    HW138069   2.532   0.589   5.148  0.1525 -0.0164 -1.5856
 8870SOL    HW238070   2.633   0.504   5.208  2.5947  0.3640  0.3983
 8871SOL     OW38071   3.317   4.333   9.272  0.1610  0.5347 -0.2673
 8871SOL    HW138072   3.374   4.263   9.243 -1.2301  0.3501 -2.5397
 8871SOL    HW238073   3.318   4.320   9.367  2.3298  0.0733 -0.3648
 8872SOL     OW38074   4.482   0.164   4.502 -0.4096  0.0048  0.2755
 8872SOL    HW138075   4.461   0.255   4.481  0.9829  0.3390  0.3715
 8872SOL    HW238076   4.501   0.169   4.596 -1.5483 -2.2458  0.6335
 8873SOL     OW38077   2.640   1.014   1.907 -0.3293  0.0381 -0.3792
 8873SOL    HW138078   2.664   1.072   1.979  3.1077  0.7218 -2.0288
 8873SOL    HW238079   2.627   0.931   1.953 -1.4218  0.6702  0.4274
 8874SOL     OW38080   3.019   0.553  15.564  0.3174 -0.3277 -0.1227
 8874SOL    HW138081   2.950   0.575  15.501 -1.6233 -0.4353  1.9309
 8874SOL    HW238082   2.974   0.557  15.649  0.8543 -0.5973  0.1715
 8875SOL     OW38083   1.184   2.637   8.951  0.2405  0.1806  0.4004
 8875SOL    HW138084   1.177   2.597   8.865 -1.4584 -2.3623  1.7054
 8875SOL    HW238085   1.267   2.684   8.940 -0.0908  0.8448  0.7518
 8876SOL     OW38086   3.449   0.560   3.294  0.7189  0.2159 -0.2707
 8876SOL    HW138087   3.395   0.483   3.310  1.0699  0.0249  0.0001
 8876SOL    HW238088   3.462   0.549   3.200  0.0718  0.3788 -0.3736
 8877SOL     OW38089   3.879   2.260  10.689  0.1445 -0.4780 -0.4238
 8877SOL    HW138090   3.802   2.235  10.638 -0.3570 -0.1526  0.1646
 8877SOL    HW238091   3.949   2.252  10.625  1.2989  0.6630  0.7034
 8878SOL     OW38092   1.169   2.706   5.920 -0.6442 -0.0080  0.1110
 8878SOL    HW138093   1.149   2.737   6.008 -0.8928 -0.0269  0.0619
 8878SOL    HW238094   1.111   2.759   5.866 -0.6014  1.9290  1.9491
 8879SOL     OW38095   4.356   2.663   9.665 -0.3236 -0.2913 -0.2092
 8879SOL    HW138096   4.323   2.736   9.612  4.2845  2.1296  0.2515
 8879SOL    HW238097   4.423   2.701   9.722 -2.2139  3.8226 -0.7365
 8880SOL     OW38098   4.556   1.163  12.633  0.1448  0.4189  0.4080
 8880SOL    HW138099   4.557   1.129  12.544  0.2465  0.2535  0.4727
 8880SOL    HW238100   4.638   1.132  12.672  0.6842  2.4830  0.9057
 8881SOL     OW38101   3.235   1.194   8.430 -1.0826 -0.0273  0.1727
 8881SOL    HW138102   3.221   1.286   8.411 -1.1235  0.3915  2.2217
 8881SOL    HW238103   3.149   1.169   8.464 -0.0061 -1.2113  2.0495
 8882SOL     OW38104   2.646   1.833   6.924 -0.0232  0.4344  0.5477
 8882SOL    HW138105   2.671   1.743   6.904 -4.0967 -0.8232  1.0144
 8882SOL    HW238106   2.674   1.874   6.842  0.6540 -1.2705 -0.0803
 8883SOL     OW38107   0.143   1.717   7.513 -0.6493 -0.0054  0.6700
 8883SOL    HW138108   0.190   1.638   7.485  0.2577 -0.3441  3.1678
 8883SOL    HW238109   0.129   1.690   7.604 -0.5392  3.2659  1.6636
 8884SOL     OW38110   2.174   2.893   0.497  0.1241  0.2861 -0.0173
 8884SOL    HW138111   2.240   2.945   0.543  0.5237 -0.6207  0.4328
 8884SOL    HW238112   2.176   2.930   0.409  1.4339  2.1342  0.7916
 8885SOL     OW38113   4.567   1.232  11.211  0.0468 -0.2529  0.0176
 8885SOL    HW138114   4.573   1.307  11.270  0.2912  0.6220 -1.1093
 8885SOL    HW238115   4.635   1.172  11.241  0.4488  0.6384  0.8900
 8886SOL     OW38116   0.078   2.306   5.022  0.2066  0.0830  0.1491
 8886SOL    HW138117   0.045   2.305   5.112  0.9423  0.0822  0.4130
 8886SOL    HW238118   0.146   2.373   5.031 -0.4950  0.6953  0.9610
 8887SOL     OW38119   2.127   1.476   4.610  0.1443  0.7003  0.2929
 8887SOL    HW138120   2.107   1.388   4.577  0.5363  1.0587 -0.8925
 8887SOL    HW238121   2.218   1.498   4.590  0.8132 -0.2952  2.2247
 8888SOL     OW38122   1.373   1.278   3.704 -0.3761 -0.1055  0.7551
 8888SOL    HW138123   1.406   1.361   3.670  1.6658 -1.7703 -1.3369
 8888SOL    HW238124   1.397   1.224   3.629 -3.2358  0.2991 -0.4372
 8889SOL     OW38125   2.423   3.080   0.037  0.0351  0.0140  0.0056
 8889SOL    HW138126   2.486   3.011   0.017 -2.0272 -1.6795 -0.6924
 8889SOL    HW238127   2.462   3.106   0.120  0.6157  0.1404 -0.3089
 8890SOL     OW38128   1.599   1.373  13.239  0.2400 -0.2236 -0.1431
 8890SOL    HW138129   1.559   1.455  13.209 -0.1156 -0.1511  0.5354
 8890SOL    HW238130   1.690   1.401  13.249  0.1259 -0.2273  0.9035
 8891SOL     OW38131   2.128   4.684   5.489  0.1371 -0.5800  0.3339
 8891SOL    HW138132   2.083   0.013   5.421  3.0607 -0.8304 -1.7677
 8891SOL    HW238133   2.164   4.609   5.442  0.3096 -0.3268  0.0650
 8892SOL     OW38134   1.033   0.985  11.129  0.1668 -0.2696  0.1017
 8892SOL    HW138135   1.098   0.917  11.148  0.3860 -0.4479 -1.2957
 8892SOL    HW238136   1.083   1.017  11.053 -0.0661  2.3453  1.0597
 8893SOL     OW38137   4.456   3.485   9.382 -0.0530  0.3358  0.0348
 8893SOL    HW138138   4.450   3.571   9.425  2.0985  0.6090 -0.2301
 8893SOL    HW238139   4.550   3.485   9.366 -0.1384  2.1662 -0.5260
 8894SOL     OW38140   1.822   0.004   6.856 -0.0549  0.0948  0.5938
 8894SOL    HW138141   1.807   4.684   6.771 -1.2954  1.4780  0.1549
 8894SOL    HW238142   1.812   0.096   6.834  1.5392  0.4951  1.5466
 8895SOL     OW38143   3.300   0.426   2.099  0.3235 -0.3174 -0.3138
 8895SOL    HW138144   3.316   0.400   2.009 -0.5832 -1.8831 -0.0241
 8895SOL    HW238145   3.249   0.351   2.129  0.3374 -1.2723 -2.6849
 8896SOL     OW38146   2.374   1.013  10.331 -0.2087 -0.1771  0.5501
 8896SOL    HW138147   2.465   0.982  10.330 -1.1128 -2.8918  0.3317
 8896SOL    HW238148   2.326   0.966  10.400 -2.7384 -0.6735 -1.5683
 8897SOL     OW38149   2.218   2.938   1.025 -0.1178 -0.3815 -0.4752
 8897SOL    HW138150   2.264   3.019   1.046 -2.1706  0.5196  0.6271
 8897SOL    HW238151   2.285   2.877   1.053 -0.9112 -0.9212  0.2493
 8898SOL     OW38152   0.988   1.879   5.611  0.7067  0.0929  0.0027
 8898SOL    HW138153   0.972   1.798   5.660  0.7268 -0.1175 -0.3375
 8898SOL    HW238154   1.080   1.862   5.588  0.9143  1.4530 -0.1816
 8899SOL     OW38155   0.998   3.434   5.751 -0.4217  0.0858  0.2515
 8899SOL    HW138156   1.061   3.488   5.703  0.2724 -0.4083  0.6131
 8899SOL    HW238157   1.056   3.367   5.788  0.7598  0.1576 -1.4235
 8900SOL     OW38158   0.328   1.727  13.520  0.4489 -0.5971 -0.1324
 8900SOL    HW138159   0.394   1.718  13.451 -1.5999 -1.8233 -1.9478
 8900SOL    HW238160   0.250   1.682  13.485 -0.2510 -0.2713  1.0164
 8901SOL     OW38161   2.135   3.481  13.455 -0.4545  0.6840 -0.0066
 8901SOL    HW138162   2.045   3.484  13.423 -0.7303 -0.0338  0.6920
 8901SOL    HW238163   2.171   3.568  13.441 -1.0228  0.7129 -1.3489
 8902SOL     OW38164   4.719   0.754  16.375 -0.1319 -0.8112 -0.3515
 8902SOL    HW138165   0.017   0.812  16.302 -3.5884 -0.3123 -0.8388
 8902SOL    HW238166   4.623   0.750  16.376 -0.1812  0.0691 -1.5745
 8903SOL     OW38167   3.230   3.147  16.949 -0.4627 -0.9197 -0.3129
 8903SOL    HW138168   3.219   3.067  17.001 -0.2487 -0.5378  0.3128
 8903SOL    HW238169   3.243   3.210  17.019  0.5993 -1.0021 -0.4303
 8904SOL     OW38170   1.198   2.496   5.268  0.5095  0.1516  0.0464
 8904SOL    HW138171   1.255   2.550   5.323  0.7135  0.0524 -0.0664
 8904SOL    HW238172   1.259   2.479   5.197  2.8825 -3.5745  2.9949
 8905SOL     OW38173   0.805   4.160   7.031  0.0911 -0.3442 -0.4525
 8905SOL    HW138174   0.781   4.220   6.960  0.8079  0.4429 -0.0270
 8905SOL    HW238175   0.837   4.224   7.094 -1.9888  2.0503 -1.8149
 8906SOL     OW38176   2.137   2.321   3.301  0.1334 -0.0767  0.1724
 8906SOL    HW138177   2.105   2.291   3.216 -0.3507 -0.6132  0.5401
 8906SOL    HW238178   2.049   2.314   3.340 -0.7013  0.5663 -1.6137
 8907SOL     OW38179   3.854   1.744   0.058  0.0463  0.8685  0.7183
 8907SOL    HW138180   3.772   1.694   0.067 -0.2355  1.2944  0.4809
 8907SOL    HW238181   3.913   1.670   0.045 -2.0826 -0.6097 -0.5796
 8908SOL     OW38182   3.140   3.515   2.603  0.2219  0.0881  0.0938
 8908SOL    HW138183   3.054   3.496   2.566  0.4163 -1.1356  0.2373
 8908SOL    HW238184   3.121   3.505   2.696  1.0725  0.2565  0.2878
 8909SOL     OW38185   3.645   2.252   1.801 -0.4400 -0.3908  0.1295
 8909SOL    HW138186   3.604   2.338   1.811  1.6408  0.7394 -1.0334
 8909SOL    HW238187   3.659   2.251   1.707  3.3969  0.0357  0.6939
 8910SOL     OW38188   1.090   0.444  16.009 -0.2753 -0.2352 -0.2558
 8910SOL    HW138189   1.180   0.455  16.039 -0.8147 -0.3709  1.4161
 8910SOL    HW238190   1.106   0.429  15.916 -0.6621  2.2138 -0.7313
 8911SOL     OW38191   1.897   1.398   7.904  0.3032 -0.1968  0.3613
 8911SOL    HW138192   1.990   1.421   7.898  0.4825 -0.2125  3.3909
 8911SOL    HW238193   1.872   1.467   7.965 -0.7856 -1.8393  1.7742
 8912SOL     OW38194   2.866   3.492  15.405 -0.0313  0.2847  0.0819
 8912SOL    HW138195   2.781   3.492  15.360 -0.4468  1.4386  0.8894
 8912SOL    HW238196   2.917   3.505  15.325  2.2162 -3.0553  0.9521
 8913SOL     OW38197   3.519   2.159   1.009  0.5737 -0.1674 -0.8316
 8913SOL    HW138198   3.571   2.222   1.060 -1.3182  3.0744 -2.8868
 8913SOL    HW238199   3.566   2.149   0.926 -0.3150 -2.4782 -1.0523
 8914SOL     OW38200   4.276   1.975  14.997 -0.4115  0.0810  0.2357
 8914SOL    HW138201   4.285   2.058  15.043 -0.8986 -0.0931  0.6432
 8914SOL    HW238202   4.314   2.006  14.914  1.6015  0.1323  1.1687
 8915SOL     OW38203   0.554   1.462   4.571 -0.3023 -0.4680  0.2190
 8915SOL    HW138204   0.499   1.536   4.544  0.4535 -0.3781 -1.0855
 8915SOL    HW238205   0.552   1.476   4.666 -0.9270  2.5029 -0.2224
 8916SOL     OW38206   3.568   4.201  15.070 -1.1638  0.7469  0.4615
 8916SOL    HW138207   3.565   4.273  15.132 -0.6564 -0.6966  2.1561
 8916SOL    HW238208   3.510   4.240  15.005 -1.2571  0.2468  0.2430
 8917SOL     OW38209   3.087   3.679   4.756  0.1708 -0.2750  0.4548
 8917SOL    HW138210   3.180   3.687   4.778  0.4597 -2.3399  0.0049
 8917SOL    HW238211   3.064   3.772   4.752 -0.1605 -0.3677  0.1252
 8918SOL     OW38212   2.129   2.633   3.250  0.5790 -0.1591 -0.6272
 8918SOL    HW138213   2.220   2.659   3.266  1.0859 -1.6147 -1.1978
 8918SOL    HW238214   2.136   2.544   3.282 -0.1967  0.3689  0.9902
 8919SOL     OW38215   2.176   2.276   6.671 -0.7046  0.3399 -0.1415
 8919SOL    HW138216   2.118   2.206   6.700  0.6553 -0.8031 -0.1858
 8919SOL    HW238217   2.229   2.279   6.751  0.2429  0.8049 -0.7790
 8920SOL     OW38218   2.613   1.870   6.032  0.8236 -0.6105 -0.0797
 8920SOL    HW138219   2.608   1.913   6.117  1.1318 -0.9975  0.1387
 8920SOL    HW238220   2.670   1.797   6.057 -1.4868 -2.3007  0.2494
 8921SOL     OW38221   2.420   1.861  11.908  0.0871 -0.3434  0.3608
 8921SOL    HW138222   2.447   1.928  11.845 -1.8479  0.4462  0.3760
 8921SOL    HW238223   2.454   1.786  11.859  0.4322 -0.4659  0.7829
 8922SOL     OW38224   4.417   3.542   2.415 -0.0190  0.0004 -0.2340
 8922SOL    HW138225   4.482   3.577   2.476 -2.0604 -0.6642  2.3144
 8922SOL    HW238226   4.341   3.531   2.471 -0.3597  1.6103 -0.4058
 8923SOL     OW38227   2.272   1.397  14.353  1.1766 -0.0334  0.0633
 8923SOL    HW138228   2.201   1.460  14.366  1.8203  0.3611  1.7295
 8923SOL    HW238229   2.220   1.320  14.333 -2.0200  2.0584  0.2654
 8924SOL     OW38230   0.953   4.205   6.699  0.1856  1.1846 -0.6566
 8924SOL    HW138231   1.006   4.231   6.774  1.6211 -2.8252 -0.2794
 8924SOL    HW238232   0.908   4.129   6.734  0.1439  1.2089 -0.6576
 8925SOL     OW38233   1.768   2.728   6.315 -0.1828 -0.2766  0.8084
 8925SOL    HW138234   1.836   2.795   6.317 -0.3030 -0.1515  0.6791
 8925SOL    HW238235   1.787   2.677   6.394  2.3594  1.9598  1.6353
 8926SOL     OW38236   4.200   1.098   9.452 -0.2983 -0.3987  0.8031
 8926SOL    HW138237   4.213   1.118   9.359  0.7746 -3.4531  0.3043
 8926SOL    HW238238   4.271   1.038   9.474 -3.5218 -3.7227  2.1927
 8927SOL     OW38239   2.553   0.241   7.465  0.0340 -0.4017  0.0467
 8927SOL    HW138240   2.470   0.196   7.480  0.1477 -0.3425  0.8373
 8927SOL    HW238241   2.539   0.335   7.455 -1.0781 -0.2958  2.8608
 8928SOL     OW38242   1.005   4.567   2.149  0.4121  0.4483 -0.1840
 8928SOL    HW138243   0.967   4.649   2.179  0.8804  0.6633 -0.1719
 8928SOL    HW238244   1.077   4.600   2.095  0.3186  0.1818 -0.4690
 8929SOL     OW38245   3.531   1.432  13.595  0.5174  0.2114  0.0364
 8929SOL    HW138246   3.470   1.502  13.573 -0.6395 -0.9131 -0.2748
 8929SOL    HW238247   3.553   1.403  13.507  2.0247  1.2991  0.0435
 8930SOL     OW38248   3.947   1.903   1.811  0.5567 -0.2972 -0.3978
 8930SOL    HW138249   3.893   1.930   1.736 -0.0094  0.3611  0.2434
 8930SOL    HW238250   3.916   1.813   1.824  1.1439 -0.5113 -0.4901
 8931SOL     OW38251   2.776   2.791   6.292  0.0342  0.4805  0.1589
 8931SOL    HW138252   2.845   2.742   6.247 -1.0617  0.1304 -1.1697
 8931SOL    HW238253   2.703   2.730   6.277  1.7445 -1.8247  1.2204
 8932SOL     OW38254   2.110   1.827   3.529 -0.2595  0.0739  0.4811
 8932SOL    HW138255   2.122   1.867   3.443 -2.9042  0.9795  0.5176
 8932SOL    HW238256   2.179   1.761   3.527  0.0358  0.3620  1.3666
 8933SOL     OW38257   3.200   0.290   8.402 -0.6043 -0.1309  0.2273
 8933SOL    HW138258   3.195   0.366   8.344  2.3237  0.4319  0.7061
 8933SOL    HW238259   3.242   0.223   8.347 -0.3291  1.0555 -1.0010
 8934SOL     OW38260   3.509   1.593  16.559  0.5253 -0.0761 -1.0085
 8934SOL    HW138261   3.516   1.503  16.589 -1.3147 -0.3636 -1.4290
 8934SOL    HW238262   3.567   1.635  16.623  1.0932 -0.5869 -1.1921
 8935SOL     OW38263   2.865   1.355   4.885  0.2183 -0.2648  0.0174
 8935SOL    HW138264   2.913   1.303   4.949  0.1443  0.0817  0.3540
 8935SOL    HW238265   2.776   1.345   4.920  0.2896 -1.6656 -0.2278
 8936SOL     OW38266   2.561   2.510   0.671 -0.1992 -0.1364  0.9905
 8936SOL    HW138267   2.492   2.458   0.630  0.0806 -0.6445  1.1629
 8936SOL    HW238268   2.510   2.576   0.718 -1.6606 -0.7614  0.2721
 8937SOL     OW38269   1.081   1.946   9.621  0.9761 -0.2741 -0.0808
 8937SOL    HW138270   1.025   1.952   9.544  1.5694  2.4729 -0.3177
 8937SOL    HW238271   1.129   1.866   9.599  1.2872  0.1869 -1.1004
 8938SOL     OW38272   2.459   3.430   5.132 -0.3050  1.3107  0.1929
 8938SOL    HW138273   2.468   3.395   5.221 -2.1158 -1.7954 -0.8427
 8938SOL    HW238274   2.516   3.369   5.087 -2.6437 -1.9797  1.6620
 8939SOL     OW38275   0.514   1.498  11.691 -0.0586  0.1931 -0.0717
 8939SOL    HW138276   0.425   1.478  11.663  0.4656 -1.2663 -0.6830
 8939SOL    HW238277   0.541   1.406  11.684  0.7300  0.4776 -0.7503
 8940SOL     OW38278   2.724   3.657  14.239 -0.0496  0.3978 -0.1012
 8940SOL    HW138279   2.765   3.624  14.159  0.5249  1.7639 -0.3711
 8940SOL    HW238280   2.781   3.728  14.269  0.2157 -0.5205  1.5532
 8941SOL     OW38281   0.920   3.508   9.768 -0.0214 -0.5549 -0.4935
 8941SOL    HW138282   0.995   3.566   9.757  0.3942 -1.0596 -0.3051
 8941SOL    HW238283   0.930   3.495   9.862 -0.0866  1.3354 -0.2088
 8942SOL     OW38284   4.182   2.764   2.676  0.1719 -0.5939  0.1031
 8942SOL    HW138285   4.138   2.807   2.603  1.1188  0.5160  0.1847
 8942SOL    HW238286   4.239   2.829   2.717  1.0879 -2.5478  1.9574
 8943SOL     OW38287   0.565   0.939   4.211  0.1362  0.6664  0.3473
 8943SOL    HW138288   0.611   1.015   4.176 -1.9687  0.7368 -2.2546
 8943SOL    HW238289   0.473   0.966   4.219  0.2821  0.9801  0.9901
 8944SOL     OW38290   4.351   1.846  11.778 -0.2243 -0.1702  0.4167
 8944SOL    HW138291   4.440   1.815  11.795  0.5513  0.2008 -2.9499
 8944SOL    HW238292   4.336   1.896  11.858 -0.3127  0.8229 -0.2226
 8945SOL     OW38293   2.378   2.773   6.244 -0.5073 -0.2331 -0.2084
 8945SOL    HW138294   2.427   2.702   6.285 -1.4679  0.0750  1.5032
 8945SOL    HW238295   2.285   2.751   6.246 -0.6727  0.6753  2.6783
 8946SOL     OW38296   0.320   0.856   5.973 -0.2660  0.1781 -0.0076
 8946SOL    HW138297   0.273   0.907   6.039  0.5605  1.7171 -0.6293
 8946SOL    HW238298   0.331   0.918   5.901 -2.1366 -1.4809 -1.7299
 8947SOL     OW38299   0.850   2.825   0.507  0.2079 -0.1978 -0.3169
 8947SOL    HW138300   0.926   2.807   0.451  1.6582  0.3627  1.4854
 8947SOL    HW238301   0.893   2.884   0.568  0.6725 -0.5825 -0.2697
 8948SOL     OW38302   4.156   1.521  15.135  0.6868 -0.6274  0.2295
 8948SOL    HW138303   4.148   1.606  15.092 -1.3618  0.6296  3.1318
 8948SOL    HW238304   4.109   1.458  15.080  0.1795 -0.4152  0.4231
 8949SOL     OW38305   4.202   0.836  11.688  0.1608  0.0222  0.0232
 8949SOL    HW138306   4.158   0.754  11.665 -0.2828  0.1833  0.2978
 8949SOL    HW238307   4.142   0.904  11.718 -0.4115 -1.1349  1.4831
 8950SOL     OW38308   4.287   2.838  12.451 -0.4712 -0.8205 -0.3263
 8950SOL    HW138309   4.304   2.747  12.425  0.1795 -1.0455  0.8923
 8950SOL    HW238310   4.364   2.845  12.507 -0.7336 -0.0385 -0.0707
 8951SOL     OW38311   2.726   0.772  15.657 -0.1383 -0.2142 -0.2916
 8951SOL    HW138312   2.764   0.711  15.593 -0.1385 -1.1375  0.5844
 8951SOL    HW238313   2.757   0.730  15.737 -1.3397 -1.1417 -0.3069
 8952SOL     OW38314   0.665   3.068   1.922 -0.0621  0.4351 -0.0572
 8952SOL    HW138315   0.668   3.152   1.969  1.1973  1.9920 -2.9611
 8952SOL    HW238316   0.573   3.054   1.900  0.7480 -1.4138 -2.2668
 8953SOL     OW38317   2.059   3.841  10.359  0.0456 -0.1959  0.3206
 8953SOL    HW138318   2.150   3.863  10.338  0.0105  1.0104  1.3854
 8953SOL    HW238319   2.081   3.794  10.440 -0.4772  1.1556  1.2501
 8954SOL     OW38320   0.366   4.720   4.077 -0.5302 -0.4629 -0.1619
 8954SOL    HW138321   0.295   4.706   4.015 -0.2909 -0.7434 -0.3743
 8954SOL    HW238322   0.412   4.637   4.060 -0.0937  0.1508 -1.9329
 8955SOL     OW38323   3.013   0.079  13.677 -0.1980 -0.1974 -0.4273
 8955SOL    HW138324   3.027   4.711  13.709  0.4494  0.3420  0.7882
 8955SOL    HW238325   2.918   0.084  13.688  0.0070  0.7330  0.9629
 8956SOL     OW38326   2.650   3.727   9.321 -0.0669  0.1446 -0.3706
 8956SOL    HW138327   2.724   3.726   9.381 -0.2419 -0.7124 -0.1699
 8956SOL    HW238328   2.683   3.802   9.271  1.3054 -1.6071 -2.0630
 8957SOL     OW38329   1.897   3.454   6.588  0.1257 -0.6886  0.2141
 8957SOL    HW138330   1.853   3.370   6.603  0.4896 -0.6295  1.6672
 8957SOL    HW238331   1.935   3.442   6.501 -0.5084  1.1362 -0.3028
 8958SOL     OW38332   0.498   0.089   2.218 -0.2721  0.1571 -0.3943
 8958SOL    HW138333   0.447   0.170   2.226  0.0702  0.6565 -3.0458
 8958SOL    HW238334   0.531   0.080   2.307 -0.1507 -0.8052 -0.5401
 8959SOL     OW38335   0.331   1.068   8.810  0.2019  0.2290  0.1117
 8959SOL    HW138336   0.426   1.055   8.807  0.1034 -0.0073 -1.9611
 8959SOL    HW238337   0.335   1.139   8.875 -1.1578  1.6035 -1.2967
 8960SOL     OW38338   2.376   3.428  10.274 -0.7520  0.5670  0.2990
 8960SOL    HW138339   2.432   3.499  10.305 -0.7736 -0.4602  2.6849
 8960SOL    HW238340   2.375   3.432  10.178  1.0608  0.4569  0.2819
 8961SOL     OW38341   2.702   1.675   5.102 -0.5072  0.2121 -0.3732
 8961SOL    HW138342   2.767   1.606   5.113 -1.1049 -0.3837 -0.5502
 8961SOL    HW238343   2.625   1.619   5.091  0.1687 -0.1464 -3.3193
 8962SOL     OW38344   4.528   4.617   4.435 -0.1786  0.0537 -0.8585
 8962SOL    HW138345   4.506   4.710   4.428 -0.1656  0.2644  1.8389
 8962SOL    HW238346   4.437   4.593   4.453 -0.3346 -0.3819 -2.2208
 8963SOL     OW38347   4.635   1.901   9.332  0.3680 -0.8632 -0.5295
 8963SOL    HW138348   0.005   1.912   9.361  0.2420  3.8597 -1.8887
 8963SOL    HW238349   4.593   1.971   9.381  2.0517 -1.0071  1.0818
 8964SOL     OW38350   0.332   2.816   5.674 -0.4444 -0.0335  0.0748
 8964SOL    HW138351   0.329   2.866   5.592  0.7018  1.0491  0.6943
 8964SOL    HW238352   0.417   2.847   5.705  0.5667 -0.2360 -2.4622
 8965SOL     OW38353   3.510   2.491   8.865 -0.6667  0.0885  0.1340
 8965SOL    HW138354   3.551   2.517   8.947 -0.1439  2.4703 -0.8873
 8965SOL    HW238355   3.584   2.471   8.807 -0.2743  4.7424 -1.0201
 8966SOL     OW38356   2.648   1.483  15.456  0.5514  0.3275 -0.2656
 8966SOL    HW138357   2.621   1.574  15.472  0.6148  0.0292  1.5374
 8966SOL    HW238358   2.734   1.493  15.498  1.1880 -0.3421 -1.4051
 8967SOL     OW38359   1.436   2.810   8.054 -0.2446  0.2289 -0.1027
 8967SOL    HW138360   1.464   2.856   8.133  2.2637 -1.6747  0.0840
 8967SOL    HW238361   1.456   2.882   7.994 -3.0106  0.1493 -1.1199
 8968SOL     OW38362   4.079   0.176   8.963  0.3702  0.3020 -0.0066
 8968SOL    HW138363   4.068   0.128   9.045 -0.8789 -0.8474 -0.8558
 8968SOL    HW238364   4.139   0.243   8.996  0.9728 -0.5759  0.6940
 8969SOL     OW38365   3.639   4.524   2.589 -0.5379 -0.1702  0.1098
 8969SOL    HW138366   3.583   4.568   2.525 -3.5566 -1.8323  1.5837
 8969SOL    HW238367   3.724   4.523   2.545 -0.6564  0.2970 -0.1326
 8970SOL     OW38368   2.480   0.489   8.309  0.1581 -0.2974 -0.1022
 8970SOL    HW138369   2.561   0.437   8.304 -0.0780 -0.7527  0.7455
 8970SOL    HW238370   2.438   0.470   8.225  0.4769 -3.6965  0.4958
 8971SOL     OW38371   1.874   4.615   5.601 -0.0594 -0.3991 -0.2654
 8971SOL    HW138372   1.827   4.641   5.522 -2.0096 -0.7451  0.7877
 8971SOL    HW238373   1.958   4.658   5.586 -0.9484  0.5999 -2.4421
 8972SOL     OW38374   1.105   0.427   8.338  0.9358  0.2936  0.2056
 8972SOL    HW138375   1.167   0.459   8.403  0.9123 -2.9209  1.8056
 8972SOL    HW238376   1.094   0.505   8.284 -1.7835 -0.9342 -1.0558
 8973SOL     OW38377   0.032   1.763   3.249  0.2231 -0.5333  0.0756
 8973SOL    HW138378   0.060   1.675   3.223  0.1714 -0.8331  1.0670
 8973SOL    HW238379   4.720   1.742   3.336  0.1590 -2.1713 -0.3424
 8974SOL     OW38380   3.895   2.424   1.247 -0.0731  0.5339  0.1222
 8974SOL    HW138381   3.889   2.455   1.337  0.4520 -0.8574  0.6484
 8974SOL    HW238382   3.926   2.505   1.207 -0.1512  0.2867 -0.4505
 8975SOL     OW38383   2.473   0.170   8.507 -0.4878 -0.1167 -0.3475
 8975SOL    HW138384   2.461   0.165   8.602 -3.3017 -1.5928 -0.7700
 8975SOL    HW238385   2.544   0.231   8.490  0.3114 -0.6137  1.2030
 8976SOL     OW38386   3.609   1.167   7.699 -0.5296  0.0890  0.1015
 8976SOL    HW138387   3.628   1.127   7.784 -0.5717  2.0076  1.0241
 8976SOL    HW238388   3.637   1.259   7.696 -1.2924  0.3092 -0.2644
 8977SOL     OW38389   4.099   4.473   7.804  0.2200 -0.7701 -0.1540
 8977SOL    HW138390   4.138   4.489   7.718 -0.8196 -1.7994 -0.8111
 8977SOL    HW238391   4.111   4.378   7.802  0.0522 -0.8381  1.9394
 8978SOL     OW38392   2.037   0.419   9.873  0.4658  0.2765 -0.1379
 8978SOL    HW138393   2.078   0.390   9.954  0.5805  3.5075  0.9781
 8978SOL    HW238394   2.066   0.361   9.802 -0.2274  2.1646 -1.9685
 8979SOL     OW38395   1.636   0.321   7.414 -0.1554  0.7586  0.1632
 8979SOL    HW138396   1.679   0.399   7.449 -2.3174  2.2385 -0.3882
 8979SOL    HW238397   1.636   0.337   7.320 -0.6370  1.9853  0.3616
 8980SOL     OW38398   2.276   0.815   0.970 -0.4241 -0.3010  0.3920
 8980SOL    HW138399   2.289   0.724   0.995  1.7278 -0.4191 -1.1498
 8980SOL    HW238400   2.317   0.872   1.036 -1.1616  1.7158 -0.8673
 8981SOL     OW38401   1.961   3.426   8.356 -0.3220  0.2015  0.2679
 8981SOL    HW138402   2.003   3.504   8.390 -0.5450  1.5814 -2.6053
 8981SOL    HW238403   2.028   3.368   8.319 -1.4070 -0.6954 -0.3130
 8982SOL     OW38404   1.564   3.038  15.322  0.3528  0.0372  0.2843
 8982SOL    HW138405   1.621   3.064  15.250 -1.2426 -1.1548 -1.4058
 8982SOL    HW238406   1.499   2.995  15.267 -0.8017 -0.6943  2.2242
 8983SOL     OW38407   3.748   0.168   3.375  0.2919  0.1868 -0.0472
 8983SOL    HW138408   3.814   0.106   3.345  1.8622  1.2422  1.2869
 8983SOL    HW238409   3.744   0.151   3.469 -2.1886 -0.3296 -0.2290
 8984SOL     OW38410   0.284   2.503   5.148 -0.1314 -0.4405  0.4820
 8984SOL    HW138411   0.350   2.562   5.111  0.1580 -0.2879  1.2299
 8984SOL    HW238412   0.209   2.561   5.165  1.0472  0.9915  0.8442
 8985SOL     OW38413   0.934   0.553   5.205  0.4637 -0.1006  0.0021
 8985SOL    HW138414   1.013   0.558   5.152  0.5608  0.8815  0.2239
 8985SOL    HW238415   0.916   0.647   5.204  2.0928  0.2029 -0.5266
 8986SOL     OW38416   1.649   4.006   8.894  0.2088  0.9028  0.5275
 8986SOL    HW138417   1.573   3.978   8.843  0.9182  1.2274 -0.7238
 8986SOL    HW238418   1.614   4.012   8.983  1.3123  1.8159  0.8970
 8987SOL     OW38419   4.388   3.154  14.820  0.0976 -0.0461  0.7147
 8987SOL    HW138420   4.308   3.194  14.855 -0.2145 -0.2791  0.2618
 8987SOL    HW238421   4.371   3.062  14.840  2.2705 -0.3151  1.3163
 8988SOL     OW38422   3.128   3.677   7.185  0.0685  0.6274  0.5408
 8988SOL    HW138423   3.211   3.681   7.139  0.0414  1.1260  0.5356
 8988SOL    HW238424   3.108   3.770   7.195  0.4463  0.7718 -0.0372
 8989SOL     OW38425   0.917   2.461   5.258 -0.4478 -0.7553  0.8546
 8989SOL    HW138426   0.911   2.455   5.354  1.2095 -1.6999  0.8963
 8989SOL    HW238427   1.011   2.469   5.246 -0.5083  0.0283  0.8494
 8990SOL     OW38428   2.041   0.857   2.530  0.2837 -0.0491  0.2480
 8990SOL    HW138429   2.079   0.858   2.442  1.3661  1.6444  0.7303
 8990SOL    HW238430   1.986   0.935   2.525  0.9865  0.3404 -1.4222
 8991SOL     OW38431   3.546   2.890   9.699  0.4913  0.5988  0.3519
 8991SOL    HW138432   3.466   2.874   9.748  1.0561 -0.1948  1.0187
 8991SOL    HW238433   3.513   2.945   9.628  0.6675 -0.4477 -0.5584
 8992SOL     OW38434   2.556   0.027  11.799 -0.2263 -0.6988  0.1637
 8992SOL    HW138435   2.608   4.673  11.768 -0.4280 -1.3561  1.4177
 8992SOL    HW238436   2.471   4.704  11.804  0.7751 -2.7116 -0.4308
 8993SOL     OW38437   0.674   0.299  14.146 -0.2785 -0.4151  0.2570
 8993SOL    HW138438   0.699   0.288  14.054 -0.2253  0.7797  0.1263
 8993SOL    HW238439   0.707   0.213  14.171 -1.3968 -0.5099  1.3868
 8994SOL     OW38440   4.247   1.853   6.031 -0.2299 -0.2337  0.1086
 8994SOL    HW138441   4.184   1.922   6.051  0.7827  1.5580 -2.8835
 8994SOL    HW238442   4.271   1.873   5.941  0.3417 -0.7983  0.1350
 8995SOL     OW38443   1.088   2.393  14.978  0.0748  0.8284  0.4864
 8995SOL    HW138444   1.114   2.336  15.051 -0.9327  1.3206  1.2257
 8995SOL    HW238445   1.011   2.437  15.014 -0.3886 -1.0589  1.7931
 8996SOL     OW38446   2.774   2.704   2.613  0.1041  0.1197  0.4812
 8996SOL    HW138447   2.745   2.646   2.684 -1.1414 -0.3473 -0.4137
 8996SOL    HW238448   2.713   2.674   2.545 -0.3374  0.4878  0.7117
 8997SOL     OW38449   3.593   0.758   7.626  0.3636  0.2705 -0.2948
 8997SOL    HW138450   3.631   0.681   7.670  1.7041  2.1567  1.8278
 8997SOL    HW238451   3.598   0.821   7.698 -0.6504 -0.6570  0.5905
 8998SOL     OW38452   2.175   3.077  15.719  0.3908  0.4739  0.1407
 8998SOL    HW138453   2.144   3.162  15.688 -0.3607  0.4824  0.9133
 8998SOL    HW238454   2.125   3.015  15.666  0.1951  1.4321 -0.8076
 8999SOL     OW38455   1.353   1.118   0.671  0.1296 -0.2797 -0.1020
 8999SOL    HW138456   1.363   1.023   0.657  2.7263  0.1141 -0.9153
 8999SOL    HW238457   1.263   1.131   0.698 -0.5766  0.4197 -2.7943
 9000SOL     OW38458   4.249   1.639  13.934  0.2185  0.3952  0.4047
 9000SOL    HW138459   4.193   1.696  13.882 -1.5746 -1.6505  0.0754
 9000SOL    HW238460   4.257   1.701  14.007  1.1800  3.0302 -1.9545
 9001SOL     OW38461   1.222   2.788   8.599  0.1780 -0.4188  0.3570
 9001SOL    HW138462   1.222   2.848   8.673  1.8636  1.5798 -1.2850
 9001SOL    HW238463   1.309   2.805   8.563  0.3879 -1.2746  0.4589
 9002SOL     OW38464   0.385   2.422   9.157 -0.3224 -0.7850  0.6425
 9002SOL    HW138465   0.476   2.436   9.133 -0.1275 -2.3005  0.5177
 9002SOL    HW238466   0.357   2.514   9.154  1.5661 -0.2680 -0.5180
 9003SOL     OW38467   2.801   4.061   4.083  0.1040  1.0868  0.0390
 9003SOL    HW138468   2.785   4.086   3.992 -1.3033  1.6408  0.4348
 9003SOL    HW238469   2.843   4.143   4.108  1.2620  0.0423  1.4719
 9004SOL     OW38470   2.538   1.014   5.033 -0.3226 -0.1066  0.4621
 9004SOL    HW138471   2.545   1.057   4.947  0.9372  0.2160  0.7391
 9004SOL    HW238472   2.541   1.088   5.094  2.6678 -0.7142  1.0157
 9005SOL     OW38473   4.406   4.125  10.625  0.2873 -0.2712  0.2493
 9005SOL    HW138474   4.456   4.102  10.703  1.0834 -0.0742 -0.2024
 9005SOL    HW238475   4.315   4.098  10.637 -0.3526  1.1025 -1.3676
 9006SOL     OW38476   2.885   2.706  17.455  0.0259  0.7793  0.1623
 9006SOL    HW138477   2.911   2.624  17.496  1.3087  0.9018 -0.4041
 9006SOL    HW238478   2.864   2.676  17.367  1.4006 -1.1772  0.5085
 9007SOL     OW38479   4.544   0.323   8.331  0.4965  0.1304  0.0771
 9007SOL    HW138480   4.534   0.266   8.255 -0.2641 -1.1787  1.1725
 9007SOL    HW238481   4.467   0.306   8.385  0.5572  1.0466  0.4520
 9008SOL     OW38482   4.255   2.037   3.473 -0.1409  0.3217  0.3701
 9008SOL    HW138483   4.159   2.036   3.472 -0.1315 -0.8297 -0.0394
 9008SOL    HW238484   4.271   1.943   3.481  0.7468  0.1484 -3.5437
 9009SOL     OW38485   0.904   4.127   9.217  0.2991  0.0185 -0.4798
 9009SOL    HW138486   0.856   4.045   9.226  0.6220 -0.1540 -0.2993
 9009SOL    HW238487   0.923   4.119   9.124 -1.3483 -1.7331 -0.6747
 9010SOL     OW38488   4.670   3.026   6.338 -0.0988 -0.2627  1.3474
 9010SOL    HW138489   0.015   3.089   6.309 -1.9411  2.0253  2.0837
 9010SOL    HW238490   4.637   3.014   6.249 -0.1104 -1.0458  1.4538
 9011SOL     OW38491   0.234   1.036   6.805 -0.8305 -0.0064  0.3187
 9011SOL    HW138492   0.326   1.026   6.830 -0.1888 -0.5091 -2.2483
 9011SOL    HW238493   0.236   1.007   6.713  1.2452 -2.4879  1.1484
 9012SOL     OW38494   1.415   1.033   2.580  0.0922 -0.3333 -0.2821
 9012SOL    HW138495   1.384   0.943   2.569 -1.5868  0.2110 -0.0341
 9012SOL    HW238496   1.460   1.032   2.665  1.0891  0.7160 -0.8110
 9013SOL     OW38497   2.288   2.235   7.333 -0.2727 -0.0293  0.2470
 9013SOL    HW138498   2.349   2.257   7.403  1.4332  1.5257 -1.7454
 9013SOL    HW238499   2.264   2.326   7.318 -1.3611 -0.2596  0.5564
 9014SOL     OW38500   2.554   1.565   7.271 -0.2312  0.3028  0.0158
 9014SOL    HW138501   2.635   1.616   7.269 -0.3433  0.3520 -2.5169
 9014SOL    HW238502   2.499   1.636   7.237  1.3444  0.7956 -1.4574
 9015SOL     OW38503   3.454   4.139   4.581 -0.6724  0.2319 -0.3547
 9015SOL    HW138504   3.365   4.121   4.610 -0.5534  1.6407  0.9303
 9015SOL    HW238505   3.452   4.088   4.501  1.2364 -0.2175 -0.1260
 9016SOL     OW38506   0.090   0.457   1.979 -0.0425  0.3123  0.0132
 9016SOL    HW138507   0.031   0.386   2.005  0.4396  0.8914  2.6611
 9016SOL    HW238508   0.055   0.459   1.890 -0.8123  2.8501  0.3795
 9017SOL     OW38509   2.036   3.085   6.046 -0.3300  0.2076 -0.0443
 9017SOL    HW138510   2.079   3.128   6.121 -1.4859  0.0053  0.7401
 9017SOL    HW238511   1.958   3.141   6.037 -0.4993 -0.1064 -0.4992
 9018SOL     OW38512   3.541   1.272   6.535  0.1905 -0.0288  0.4516
 9018SOL    HW138513   3.532   1.176   6.540 -0.2273  0.0575  1.5099
 9018SOL    HW238514   3.455   1.308   6.513  1.2973  1.9756 -0.5962
 9019SOL     OW38515   0.081   1.506   2.806  0.3338 -0.8707  0.1668
 9019SOL    HW138516   0.112   1.535   2.892 -0.0713 -3.5666  1.2330
 9019SOL    HW238517   4.711   1.537   2.804  0.2880 -1.1646 -2.0915
 9020SOL     OW38518   4.525   4.670   8.370 -0.3087 -0.4068 -0.3795
 9020SOL    HW138519   4.516   4.576   8.386 -1.4640 -0.0283  1.2155
 9020SOL    HW238520   4.620   4.667   8.364 -0.0340  2.8332  2.6356
 9021SOL     OW38521   3.512   4.573  10.714  0.1723 -0.4791  0.0104
 9021SOL    HW138522   3.499   4.620  10.797  2.4634  1.5448 -0.7986
 9021SOL    HW238523   3.572   4.507  10.749 -0.2713  0.3717  2.3570
 9022SOL     OW38524   0.376   2.344   0.075  0.0327  0.3696  0.2329
 9022SOL    HW138525   0.457   2.292   0.075  0.0463  0.3972 -1.9283
 9022SOL    HW238526   0.403   2.424   0.120  0.9556 -0.9209  1.9970
 9023SOL     OW38527   2.072   2.851   7.550  0.3778 -0.1525 -0.0263
 9023SOL    HW138528   2.024   2.816   7.475 -0.3125 -0.3161  0.4953
 9023SOL    HW238529   2.136   2.781   7.563 -0.3642 -0.5507  1.4733
 9024SOL     OW38530   0.649   4.316   1.962 -0.1572 -0.9234  0.0703
 9024SOL    HW138531   0.594   4.285   2.035 -2.6865  1.1462 -0.9272
 9024SOL    HW238532   0.719   4.252   1.967 -0.3625 -0.9701  2.3035
 9025SOL     OW38533   3.850   1.268   4.408 -0.4047  0.1836  0.8776
 9025SOL    HW138534   3.828   1.283   4.316  0.1292  0.3052  0.7743
 9025SOL    HW238535   3.843   1.173   4.414 -4.0548  0.4833  1.3309
 9026SOL     OW38536   2.433   2.578  11.283 -0.0640 -0.0188  0.7537
 9026SOL    HW138537   2.421   2.637  11.209  2.6008  1.3941  1.4250
 9026SOL    HW238538   2.381   2.503  11.255 -0.5129  0.7772 -0.5204
 9027SOL     OW38539   2.729   1.146   7.498  0.4545  0.4266  0.1099
 9027SOL    HW138540   2.673   1.184   7.565 -1.4185 -0.8120 -0.7713
 9027SOL    HW238541   2.761   1.226   7.455  1.3918 -0.3353 -0.6196
 9028SOL     OW38542   1.579   2.929   8.274 -0.3811 -0.1528 -0.8031
 9028SOL    HW138543   1.529   2.868   8.329 -3.2786  3.1888  0.2903
 9028SOL    HW238544   1.523   3.006   8.287 -1.2849 -0.7205 -1.4221
 9029SOL     OW38545   0.945   1.454   6.239  0.5654 -0.1020 -0.3629
 9029SOL    HW138546   0.874   1.462   6.174  0.0906  1.7275  0.3866
 9029SOL    HW238547   0.907   1.506   6.310  1.5783  2.2405 -1.5049
 9030SOL     OW38548   0.476   0.070  13.063  0.4052  0.3155  0.3333
 9030SOL    HW138549   0.550   0.073  13.122  2.1435  0.9857 -1.8823
 9030SOL    HW238550   0.489   0.155  13.021  1.8828 -0.4669 -0.7803
 9031SOL     OW38551   4.570   1.237   5.679  0.4992  0.2750  0.1542
 9031SOL    HW138552   4.474   1.243   5.680  0.4072 -1.0389 -1.5300
 9031SOL    HW238553   4.583   1.177   5.752 -0.6962  0.2841  0.3795
 9032SOL     OW38554   3.294   4.707   5.694  0.4865 -0.0632  0.5902
 9032SOL    HW138555   3.331   4.684   5.780  1.7055 -0.7181 -0.1140
 9032SOL    HW238556   3.200   4.701   5.708  0.5061  0.7473  1.0427
 9033SOL     OW38557   1.386   1.047   6.207 -0.0458  0.1462  0.1484
 9033SOL    HW138558   1.479   1.043   6.184 -0.3129  1.9633 -1.3018
 9033SOL    HW238559   1.361   0.955   6.216 -0.2849  0.3410  1.4344
 9034SOL     OW38560   3.617   4.612   8.641 -0.0691 -0.1743  0.3802
 9034SOL    HW138561   3.571   4.535   8.606  2.5907 -1.1944 -0.8832
 9034SOL    HW238562   3.553   4.662   8.690 -1.0940 -0.8887 -0.2296
 9035SOL     OW38563   1.335   4.483   8.605  0.0420 -0.6151 -0.9747
 9035SOL    HW138564   1.298   4.524   8.683 -0.0331  0.5333 -1.6151
 9035SOL    HW238565   1.421   4.525   8.604 -0.8903  1.3358  0.6920
 9036SOL     OW38566   0.372   3.259   7.065 -0.1241  0.4465 -0.3791
 9036SOL    HW138567   0.395   3.230   6.977  0.7685  1.5735 -0.5241
 9036SOL    HW238568   0.302   3.201   7.093  1.6654 -1.4673  0.1154
 9037SOL     OW38569   2.176   0.895   2.296  0.0663  0.0691  0.3217
 9037SOL    HW138570   2.265   0.903   2.332  1.4288 -1.4392 -2.6784
 9037SOL    HW238571   2.193   0.921   2.205  0.0646  0.0787  0.3242
 9038SOL     OW38572   4.470   0.618   2.564 -0.4230  0.3574 -0.5163
 9038SOL    HW138573   4.527   0.557   2.517  0.5273  1.5490 -0.9264
 9038SOL    HW238574   4.454   0.567   2.643  1.0640 -2.2835 -1.8865
 9039SOL     OW38575   0.862   0.894  16.877  0.0433  0.1496  0.0853
 9039SOL    HW138576   0.864   0.809  16.921  0.7827 -0.0349 -0.3128
 9039SOL    HW238577   0.801   0.937  16.937 -1.5446 -0.3393 -1.1864
 9040SOL     OW38578   0.730   2.162   7.225 -0.4014 -0.2300  0.1209
 9040SOL    HW138579   0.743   2.108   7.303 -1.5627 -0.9506 -0.1768
 9040SOL    HW238580   0.790   2.234   7.246 -0.7584  0.4585 -1.2249
 9041SOL     OW38581   1.401   1.329   4.013 -0.3287 -0.9452 -0.3515
 9041SOL    HW138582   1.491   1.306   3.991 -0.6991 -2.0870 -0.6294
 9041SOL    HW238583   1.361   1.299   3.932  0.6196 -2.2727 -0.3295
 9042SOL     OW38584   1.955   1.381   3.930 -0.0302  0.1984 -0.0635
 9042SOL    HW138585   1.946   1.444   3.858 -0.2784 -0.2959 -0.4638
 9042SOL    HW238586   1.876   1.327   3.926  0.0752  0.0915 -0.7341
 9043SOL     OW38587   2.623   3.731  13.768  0.1746  0.4582  0.4320
 9043SOL    HW138588   2.585   3.702  13.686 -1.0790  0.0061  1.1718
 9043SOL    HW238589   2.680   3.657  13.790 -0.0210  0.5223  1.1628
 9044SOL     OW38590   0.935   4.596  11.871 -0.3528  0.3616 -0.2262
 9044SOL    HW138591   0.853   4.636  11.841 -1.0402 -1.2006 -0.4548
 9044SOL    HW238592   0.983   4.592  11.789 -1.2184 -0.0229 -0.7224
 9045SOL     OW38593   2.463   2.468   9.535 -0.0372  0.0045  0.7088
 9045SOL    HW138594   2.529   2.485   9.602  1.5558  0.9397 -1.0737
 9045SOL    HW238595   2.476   2.375   9.517 -0.4125  0.5096 -2.1818
 9046SOL     OW38596   1.191   1.891  12.834 -0.9684  0.2314 -0.2631
 9046SOL    HW138597   1.250   1.822  12.864  0.0104  1.0499 -0.3238
 9046SOL    HW238598   1.103   1.853  12.839 -0.4028 -0.7399  1.9838
 9047SOL     OW38599   0.498   0.280   4.833  0.0075  0.7509 -0.0016
 9047SOL    HW138600   0.493   0.282   4.928  0.9735 -0.9113  0.0895
 9047SOL    HW238601   0.583   0.319   4.812 -1.4388  2.3818 -2.8585
 9048SOL     OW38602   3.151   3.950   9.350  0.4662  0.2458 -0.2397
 9048SOL    HW138603   3.244   3.937   9.370  0.5068  1.1606  0.1528
 9048SOL    HW238604   3.134   3.855   9.349  0.0524  0.3177  0.4502
 9049SOL     OW38605   1.819   1.025  12.063 -0.4842  0.4238 -0.1742
 9049SOL    HW138606   1.817   1.120  12.075 -0.9945  0.3231  0.5032
 9049SOL    HW238607   1.901   1.002  12.106 -1.4487 -2.4245  0.1499
 9050SOL     OW38608   3.366   3.882   5.962  0.2981 -0.1955 -0.0034
 9050SOL    HW138609   3.386   3.851   5.874 -0.4230 -1.7145  0.3607
 9050SOL    HW238610   3.315   3.962   5.948 -1.9147 -1.3363  1.6217
 9051SOL     OW38611   1.528   0.443  15.589 -0.3184 -0.0442  0.6998
 9051SOL    HW138612   1.499   0.379  15.654  0.1486  0.8595  1.7931
 9051SOL    HW238613   1.468   0.513  15.616  0.3171  0.1954  1.5098
 9052SOL     OW38614   0.238   1.194  11.202  0.5453 -0.2310 -0.0107
 9052SOL    HW138615   0.318   1.247  11.207  1.1603 -1.3365  1.6543
 9052SOL    HW238616   0.269   1.114  11.159 -0.7649 -0.5465 -0.3500
 9053SOL     OW38617   4.227   3.190  10.195  0.0830  0.0037 -0.0163
 9053SOL    HW138618   4.245   3.097  10.205 -1.0179  0.1813  3.6994
 9053SOL    HW238619   4.296   3.217  10.134 -0.7124  0.6220 -0.6521
 9054SOL     OW38620   3.274   2.756   7.444 -0.1991  0.1000 -0.6534
 9054SOL    HW138621   3.350   2.725   7.394 -0.0268 -0.5265 -0.0094
 9054SOL    HW238622   3.247   2.827   7.386 -0.7659  0.6393  0.2757
 9055SOL     OW38623   1.718   1.043  14.784  0.4085 -0.2877 -0.5752
 9055SOL    HW138624   1.804   1.010  14.759  1.4177  2.2374 -0.4610
 9055SOL    HW238625   1.740   1.096  14.860 -0.0201 -0.4351 -0.3509
 9056SOL     OW38626   3.913   0.265   4.734  0.0738 -0.5668  0.1155
 9056SOL    HW138627   3.902   0.335   4.798 -0.3684 -1.1504  0.6756
 9056SOL    HW238628   3.924   0.202   4.805 -0.3557  0.5028  1.1350
 9057SOL     OW38629   2.957   1.457   2.875 -0.4591 -0.2051  0.1310
 9057SOL    HW138630   2.887   1.398   2.905 -1.2141  0.0645 -1.0959
 9057SOL    HW238631   2.924   1.494   2.793  0.8918  0.2220 -0.2157
 9058SOL     OW38632   3.335   0.631  16.161 -0.1544  0.0112 -0.3395
 9058SOL    HW138633   3.430   0.640  16.153  0.0489  0.7224  2.7189
 9058SOL    HW238634   3.333   0.633  16.257  2.8371  0.3800 -0.2640
 9059SOL     OW38635   1.691   4.017  13.479  0.2598  0.1842 -0.2374
 9059SOL    HW138636   1.665   4.109  13.470 -1.0522 -0.3567 -1.7769
 9059SOL    HW238637   1.773   4.022  13.430  0.1545  1.6732 -0.2470
 9060SOL     OW38638   1.815   0.598  10.456  0.3212 -0.4783 -0.2954
 9060SOL    HW138639   1.724   0.587  10.429  0.0621  1.2166 -0.0985
 9060SOL    HW238640   1.853   0.530  10.400 -0.4533  0.1933 -1.6264
 9061SOL     OW38641   2.946   2.411   9.184  0.3765  0.1045 -0.1727
 9061SOL    HW138642   2.863   2.365   9.199 -0.3829  1.9223  1.3164
 9061SOL    HW238643   2.937   2.431   9.091 -0.6831  0.1704 -0.0606
 9062SOL     OW38644   4.351   0.126   3.548  0.1192  0.5000  0.1505
 9062SOL    HW138645   4.328   0.065   3.478  1.6852 -2.2591  2.0026
 9062SOL    HW238646   4.281   0.191   3.545  0.7413  1.1095 -0.9968
 9063SOL     OW38647   4.505   3.883   4.943  0.4552  0.2342  0.0441
 9063SOL    HW138648   4.600   3.882   4.934  0.3803  1.6183 -0.9142
 9063SOL    HW238649   4.481   3.877   4.850 -0.8684 -2.4165  0.5711
 9064SOL     OW38650   3.233   1.530   8.891  0.4550 -0.0861  0.4325
 9064SOL    HW138651   3.274   1.547   8.806  1.0786  1.2070  1.0057
 9064SOL    HW238652   3.251   1.608   8.942  2.2592  0.1916 -0.6395
 9065SOL     OW38653   1.941   1.097  10.870 -0.0182  0.2850 -0.2860
 9065SOL    HW138654   1.954   1.180  10.917 -0.5537  0.6054 -0.6998
 9065SOL    HW238655   1.903   1.124  10.787  1.0987  2.0057 -0.2385
 9066SOL     OW38656   2.721   2.182   4.644 -0.5039  0.4998  0.0771
 9066SOL    HW138657   2.781   2.168   4.717  0.7859  0.4967 -0.9773
 9066SOL    HW238658   2.635   2.205   4.678 -0.6036  0.8213 -0.4008
 9067SOL     OW38659   0.114   0.827   0.689 -0.2042  0.4693  0.3659
 9067SOL    HW138660   0.100   0.761   0.621 -1.3956 -0.0067  1.0812
 9067SOL    HW238661   0.113   0.790   0.777 -0.4384 -1.0148 -0.2618
 9068SOL     OW38662   1.371   4.186   4.638 -0.3523  0.3190 -0.0102
 9068SOL    HW138663   1.297   4.127   4.650  0.3791 -0.1019  2.3955
 9068SOL    HW238664   1.416   4.153   4.560  0.0058  1.6186 -0.3488
 9069SOL     OW38665   2.849   0.948  14.796 -0.1830 -0.4614 -0.2046
 9069SOL    HW138666   2.777   0.941  14.733 -0.5973 -1.2106  0.3518
 9069SOL    HW238667   2.853   0.861  14.837 -1.0110 -0.1355  0.5578
 9070SOL     OW38668   3.004   0.866   0.314  0.0073 -0.1024 -0.2122
 9070SOL    HW138669   2.958   0.944   0.344 -0.4464 -0.9941  1.3828
 9070SOL    HW238670   3.090   0.881   0.355 -1.1247  1.0363  1.7362
 9071SOL     OW38671   3.764   1.817   5.314 -0.1309  0.0294  0.6339
 9071SOL    HW138672   3.760   1.875   5.238 -0.6804 -2.0337 -0.9049
 9071SOL    HW238673   3.679   1.772   5.310  1.1863 -2.2012 -2.2024
 9072SOL     OW38674   2.833   4.492   8.095  0.6245 -0.2556 -0.0381
 9072SOL    HW138675   2.909   4.434   8.087 -0.0749 -1.5583  2.5946
 9072SOL    HW238676   2.875   4.569   8.133  1.6046 -1.5045  1.4606
 9073SOL     OW38677   1.593   0.661   7.340 -0.3784  0.1365  0.5367
 9073SOL    HW138678   1.651   0.615   7.400  0.4191  2.1637  1.3310
 9073SOL    HW238679   1.650   0.651   7.263 -0.1920  1.5968  0.4877
 9074SOL     OW38680   3.802   1.973   4.021  0.1412  0.5668  0.2178
 9074SOL    HW138681   3.818   1.920   4.099  2.7852  1.6584  0.4170
 9074SOL    HW238682   3.826   1.914   3.950  1.1957 -0.1704  1.1944
 9075SOL     OW38683   2.536   0.879   4.685  0.4306  0.3615  0.0567
 9075SOL    HW138684   2.540   0.891   4.590  1.8234 -2.2069 -0.1976
 9075SOL    HW238685   2.619   0.916   4.715  1.7288 -1.5456 -1.1566
 9076SOL     OW38686   0.363   4.250   4.580 -0.4566  0.3145  0.5847
 9076SOL    HW138687   0.437   4.202   4.618  0.1510 -0.1189 -1.1618
 9076SOL    HW238688   0.405   4.336   4.576 -0.5430  0.2944 -0.8338
 9077SOL     OW38689   3.496   4.144  16.495 -0.1992  0.5222 -0.0513
 9077SOL    HW138690   3.491   4.114  16.585 -0.9861  0.7805 -0.0073
 9077SOL    HW238691   3.420   4.203  16.499  0.4129  1.4144 -1.4521
 9078SOL     OW38692   4.339   0.588  11.014 -0.5599 -0.6576  0.1541
 9078SOL    HW138693   4.291   0.626  10.940 -3.2611 -1.1269  1.6880
 9078SOL    HW238694   4.320   0.640  11.092  0.7379 -1.0700  0.7461
 9079SOL     OW38695   3.916   2.386   6.109  0.2502  0.1535  0.4812
 9079SOL    HW138696   3.997   2.336   6.118  0.8204  1.2481  1.4899
 9079SOL    HW238697   3.865   2.341   6.176  0.3484 -0.4273  0.1697
 9080SOL     OW38698   1.318   3.236  11.334 -0.4191 -0.3507  0.4669
 9080SOL    HW138699   1.294   3.281  11.253  1.6393 -1.3276 -0.6787
 9080SOL    HW238700   1.312   3.317  11.386  1.9657 -1.1748  1.9905
 9081SOL     OW38701   3.692   4.391   6.854  0.0741  0.5044 -0.0875
 9081SOL    HW138702   3.748   4.384   6.776 -0.9823 -0.8140 -0.7197
 9081SOL    HW238703   3.605   4.414   6.822  0.2101 -0.5719 -1.2609
 9082SOL     OW38704   2.597   0.351   1.137 -0.5762 -0.1722 -0.4545
 9082SOL    HW138705   2.548   0.409   1.196  2.1305  0.3604  1.2937
 9082SOL    HW238706   2.623   0.414   1.070  2.7199 -0.5023  0.4861
 9083SOL     OW38707   1.225   3.248   8.841  0.0091  0.5983 -0.2805
 9083SOL    HW138708   1.139   3.207   8.834  0.3671  0.4488 -3.5609
 9083SOL    HW238709   1.217   3.320   8.904 -0.2314  1.1388 -0.9310
 9084SOL     OW38710   1.916   2.818   6.696 -1.0708 -0.5411 -0.7710
 9084SOL    HW138711   1.906   2.910   6.674  2.4232 -0.3670 -1.6094
 9084SOL    HW238712   1.983   2.788   6.634  1.8074  1.8433  1.2166
 9085SOL     OW38713   1.233   4.404   4.525 -0.4080  0.2405  0.1590
 9085SOL    HW138714   1.277   4.324   4.552  2.0025  1.3581 -0.5124
 9085SOL    HW238715   1.212   4.375   4.436  0.5792 -1.1193  0.3835
 9086SOL     OW38716   1.097   0.433   3.179 -0.1573  0.3393 -0.2709
 9086SOL    HW138717   1.072   0.497   3.112 -2.5465 -2.1219 -1.6936
 9086SOL    HW238718   1.115   0.478   3.262  1.9423 -1.9372  0.4973
 9087SOL     OW38719   2.579   0.872   5.798 -0.3695 -0.1452 -0.1451
 9087SOL    HW138720   2.547   0.834   5.717  1.8142 -0.8446 -0.6713
 9087SOL    HW238721   2.610   0.793   5.843  1.4719  1.2939  1.1288
 9088SOL     OW38722   2.954   2.966  17.519 -0.1440 -0.3062  0.0476
 9088SOL    HW138723   2.932   2.874  17.505 -2.8117  0.3270  0.0353
 9088SOL    HW238724   2.964   2.987  17.427  1.4003 -0.8754  0.0813
 9089SOL     OW38725   3.279   2.175  17.622  1.0574 -0.2535  0.0692
 9089SOL    HW138726   3.233   2.094  17.643  1.3008  0.1070  1.9760
 9089SOL    HW238727   3.285   2.218   0.022  2.0787 -0.1411 -0.0540
 9090SOL     OW38728   0.690   1.441   1.899  0.2083  0.3438 -0.2634
 9090SOL    HW138729   0.751   1.456   1.827 -1.3146  0.0706 -1.6013
 9090SOL    HW238730   0.660   1.354   1.873 -0.5230  0.5121  0.0135
 9091SOL     OW38731   4.106   0.873   9.724 -0.2996 -0.2628 -0.0604
 9091SOL    HW138732   4.160   0.909   9.795 -0.0422  0.0745 -0.4256
 9091SOL    HW238733   4.042   0.825   9.776 -1.6370  0.7740 -0.7613
 9092SOL     OW38734   3.201   4.053   5.403 -0.2337  0.6581  0.1167
 9092SOL    HW138735   3.154   4.078   5.323 -0.2822 -1.6447 -0.5672
 9092SOL    HW238736   3.286   4.036   5.364 -0.3002  0.6112 -0.0073
 9093SOL     OW38737   4.444   1.461   3.425  0.2171 -0.3907  0.0145
 9093SOL    HW138738   4.411   1.549   3.405  1.3546 -0.2969 -1.4694
 9093SOL    HW238739   4.503   1.488   3.495 -0.6416 -1.0003  0.9709
 9094SOL     OW38740   1.106   3.675   1.052  0.2503 -0.0223  0.1097
 9094SOL    HW138741   1.185   3.725   1.031  0.4897 -0.7328 -0.7217
 9094SOL    HW238742   1.140   3.587   1.036  1.0460  0.1055  1.1025
 9095SOL     OW38743   0.373   4.703   7.898  0.2679  0.2122 -0.2411
 9095SOL    HW138744   0.317   4.689   7.974 -2.2787  4.6873 -1.2799
 9095SOL    HW238745   0.458   0.018   7.927  1.5806 -0.4388 -3.2928
 9096SOL     OW38746   1.595   2.077   5.523 -0.0768 -0.2582  0.4540
 9096SOL    HW138747   1.535   2.152   5.520  2.6754  1.9177  0.0093
 9096SOL    HW238748   1.606   2.059   5.430 -0.0855  2.0272  0.0059
 9097SOL     OW38749   2.272   1.853  14.737 -0.0511  0.5595  0.2844
 9097SOL    HW138750   2.351   1.907  14.740 -0.5675  1.3642 -0.7122
 9097SOL    HW238751   2.227   1.904  14.804 -1.8214 -0.4430 -0.1451
 9098SOL     OW38752   0.192   3.077   7.172  0.3849  0.0939  0.0350
 9098SOL    HW138753   0.253   3.020   7.219  1.3380  0.9891 -0.0999
 9098SOL    HW238754   0.132   3.012   7.135 -2.4388  2.0127  1.2997
 9099SOL     OW38755   4.284   2.815   2.041 -0.0870 -0.0129  0.1056
 9099SOL    HW138756   4.333   2.744   2.083  0.5000  0.7008  0.5997
 9099SOL    HW238757   4.240   2.769   1.969  0.5061 -0.1689 -0.1569
 9100SOL     OW38758   1.120   0.131   2.362  0.2508  0.1284  0.0238
 9100SOL    HW138759   1.134   0.126   2.267 -0.2483  0.8043 -0.0918
 9100SOL    HW238760   1.155   0.217   2.384  0.8365  0.0423 -0.5655
 9101SOL     OW38761   1.101   1.708   3.863 -0.2696  0.3554 -0.5493
 9101SOL    HW138762   1.055   1.661   3.933 -0.5977  4.2442  1.8308
 9101SOL    HW238763   1.054   1.791   3.869 -2.2541 -0.8371  0.4593
 9102SOL     OW38764   3.733   0.219   3.640 -0.1765 -0.1442 -0.4372
 9102SOL    HW138765   3.725   0.313   3.658 -0.0063 -0.5654  1.8658
 9102SOL    HW238766   3.738   0.178   3.727 -0.1810  3.7256  1.3964
 9103SOL     OW38767   4.413   1.501   6.268 -0.3474  0.0276 -0.5342
 9103SOL    HW138768   4.497   1.532   6.233 -0.4485 -0.0970 -0.8816
 9103SOL    HW238769   4.446   1.423   6.314 -0.8196 -0.9613 -1.8883
 9104SOL     OW38770   0.490   3.619   2.097 -0.2315  0.6881 -0.0800
 9104SOL    HW138771   0.579   3.608   2.131  0.1908 -1.2888 -1.8581
 9104SOL    HW238772   0.506   3.649   2.008 -1.7530  2.9617  0.4128
 9105SOL     OW38773   2.980   1.227   4.129 -0.2049  0.0992  0.0311
 9105SOL    HW138774   3.005   1.193   4.043 -0.2391 -0.1237  0.1068
 9105SOL    HW238775   2.994   1.147   4.181  0.1098  0.9471  1.2603
 9106SOL     OW38776   2.307   0.526   3.420  0.4767 -0.4344 -0.1941
 9106SOL    HW138777   2.346   0.440   3.434 -0.8018 -0.9020  0.4824
 9106SOL    HW238778   2.367   0.558   3.353 -2.1129 -0.3887 -2.5131
 9107SOL     OW38779   1.242   3.687   3.961 -0.0776  0.0257  0.2572
 9107SOL    HW138780   1.159   3.677   3.913  0.6760  0.2301 -1.0858
 9107SOL    HW238781   1.294   3.741   3.902 -2.3291 -0.7955 -2.4522
 9108SOL     OW38782   1.667   4.675   2.396  0.3688 -0.3467  0.9829
 9108SOL    HW138783   1.584   4.708   2.362  0.3659  0.2283  1.5555
 9108SOL    HW238784   1.636   4.625   2.471 -1.6561 -0.5693 -0.0150
 9109SOL     OW38785   1.676   2.577   5.140  0.2327  0.1506  0.1971
 9109SOL    HW138786   1.605   2.601   5.080 -1.4157  0.9025  2.4545
 9109SOL    HW238787   1.647   2.627   5.216  0.0032  1.4530 -0.7557
 9110SOL     OW38788   4.104   3.687   3.004  0.3283  0.5113 -0.2003
 9110SOL    HW138789   4.198   3.701   3.020  0.1988 -0.0160  1.0721
 9110SOL    HW238790   4.072   3.673   3.093  1.5069  0.7478  0.2665
 9111SOL     OW38791   1.769   2.568   8.308 -0.3635  0.6415  0.0659
 9111SOL    HW138792   1.773   2.636   8.241 -1.6227  0.0503 -0.6292
 9111SOL    HW238793   1.693   2.591   8.362 -0.4134 -1.7932  1.0299
 9112SOL     OW38794   4.111   2.594   3.652  0.5041  0.3846  0.4209
 9112SOL    HW138795   4.197   2.567   3.621  0.9640  0.8719  1.2498
 9112SOL    HW238796   4.140   2.670   3.703  1.0137 -1.4163  2.7896
 9113SOL     OW38797   0.921   4.140   4.870  0.0011  0.2318  0.7496
 9113SOL    HW138798   0.900   4.229   4.844 -0.1171 -0.0432 -0.0863
 9113SOL    HW238799   0.988   4.140   4.939  0.9040 -0.8266 -0.1114
 9114SOL     OW38800   1.603   0.606  10.286  0.1084  0.7346 -0.8889
 9114SOL    HW138801   1.576   0.578  10.199  2.4482  0.1531 -1.4179
 9114SOL    HW238802   1.528   0.571  10.333  0.5390  0.3247 -0.5110
 9115SOL     OW38803   1.053   1.762  11.807 -0.0395  0.3080 -0.3978
 9115SOL    HW138804   0.975   1.706  11.808 -2.3872  3.6077 -1.1029
 9115SOL    HW238805   1.119   1.700  11.778  0.2929  0.4823 -0.0102
 9116SOL     OW38806   4.104   1.234   6.565  0.1778 -0.0446  0.5254
 9116SOL    HW138807   4.160   1.240   6.487  1.3451 -1.3124  1.2858
 9116SOL    HW238808   4.064   1.321   6.561 -0.5613 -0.4459 -0.9902
 9117SOL     OW38809   2.089   0.196   3.577  0.2911 -0.2860 -0.3166
 9117SOL    HW138810   2.041   0.120   3.544 -0.3764  0.6386 -1.4892
 9117SOL    HW238811   2.175   0.160   3.598 -0.4650 -0.5684  2.3590
 9118SOL     OW38812   0.289   2.527   4.796  0.6074  0.6395  0.0699
 9118SOL    HW138813   0.265   2.544   4.705  0.9978 -0.5932 -0.2609
 9118SOL    HW238814   0.312   2.435   4.785  2.5480  1.1853 -0.5649
 9119SOL     OW38815   2.020   3.765   3.603 -0.0226 -0.1159  0.4348
 9119SOL    HW138816   1.925   3.775   3.608  0.1379  1.5435  0.0301
 9119SOL    HW238817   2.035   3.830   3.534 -1.3408  1.2151  1.3897
 9120SOL     OW38818   1.168   3.104  12.803  0.0190 -0.5816 -0.2267
 9120SOL    HW138819   1.261   3.121  12.792 -0.4450  2.4016  0.5561
 9120SOL    HW238820   1.121   3.185  12.823 -1.3457 -0.9223 -1.9418
 9121SOL     OW38821   0.627   2.952   0.418  0.2979  0.3583  0.0998
 9121SOL    HW138822   0.544   2.955   0.467 -0.5755  0.3324 -1.3740
 9121SOL    HW238823   0.691   2.935   0.487 -2.1108 -0.9083  2.0475
 9122SOL     OW38824   0.382   3.378   3.927  0.3180  0.0032 -0.3315
 9122SOL    HW138825   0.349   3.383   3.837  0.0988 -2.1858 -0.3822
 9122SOL    HW238826   0.424   3.292   3.920 -1.5270 -0.9642  0.5191
 9123SOL     OW38827   4.325   4.019   8.348 -0.3021 -0.2567 -0.2630
 9123SOL    HW138828   4.358   3.979   8.267  2.7090 -0.4743  1.0518
 9123SOL    HW238829   4.308   3.937   8.395 -1.3279  0.4011  0.5093
 9124SOL     OW38830   4.544   0.186   5.578  0.2882 -0.2872 -0.2262
 9124SOL    HW138831   4.590   0.140   5.508  0.6397 -2.3308  1.3543
 9124SOL    HW238832   4.504   0.259   5.530  2.1473  1.6766  1.2123
 9125SOL     OW38833   3.267   1.409   8.028  0.0728  0.0782  0.3423
 9125SOL    HW138834   3.260   1.314   8.027 -2.0018  0.2221  1.1613
 9125SOL    HW238835   3.207   1.430   7.957 -2.5404 -0.9719  2.2413
 9126SOL     OW38836   0.760   1.523   8.829 -0.2949  0.0808 -0.1529
 9126SOL    HW138837   0.772   1.617   8.812 -0.6165 -0.2838 -2.3673
 9126SOL    HW238838   0.722   1.534   8.916  1.1210 -1.4899  0.6510
 9127SOL     OW38839   2.986   3.367   2.047  0.0504 -0.8159 -0.0271
 9127SOL    HW138840   2.980   3.460   2.069 -0.9730 -1.2879  1.6842
 9127SOL    HW238841   3.043   3.333   2.116  0.0831 -1.0218 -0.1534
 9128SOL     OW38842   3.367   3.898   7.240 -0.0366  0.3408 -0.1176
 9128SOL    HW138843   3.274   3.921   7.230 -0.2132 -0.0947  0.4956
 9128SOL    HW238844   3.386   3.852   7.159 -0.3000 -1.7803  1.0407
 9129SOL     OW38845   2.402   3.066   6.202 -0.0572 -0.5026 -0.0832
 9129SOL    HW138846   2.396   2.971   6.195  0.3033 -0.4123 -1.6323
 9129SOL    HW238847   2.421   3.083   6.110 -1.0604  1.7058  0.1261
 9130SOL     OW38848   2.549   4.062   2.681  0.2268  0.2478 -0.0572
 9130SOL    HW138849   2.539   4.069   2.586  2.3495  1.6134 -0.1749
 9130SOL    HW238850   2.484   3.998   2.712 -0.3938  1.3473  0.8967
 9131SOL     OW38851   1.074   1.565  11.396  0.2932  0.0792 -0.0478
 9131SOL    HW138852   1.088   1.477  11.430  2.8897  0.4671 -0.1296
 9131SOL    HW238853   1.162   1.601  11.404  0.1506  1.1329 -2.9130
 9132SOL     OW38854   2.840   3.330   5.429  0.1984  0.2518 -0.0432
 9132SOL    HW138855   2.837   3.426   5.431  0.1573  0.2215  1.3091
 9132SOL    HW238856   2.856   3.313   5.336  0.2052 -0.4342  0.0853
 9133SOL     OW38857   2.508   3.867   7.444 -0.3308 -0.3863  0.0854
 9133SOL    HW138858   2.515   3.871   7.540 -0.1930  4.9941 -0.1536
 9133SOL    HW238859   2.416   3.892   7.439 -0.0898  0.9042  2.2240
 9134SOL     OW38860   3.621   3.438   2.607  0.2509  0.0115 -0.3527
 9134SOL    HW138861   3.562   3.513   2.616  2.1791  1.5782 -0.8057
 9134SOL    HW238862   3.568   3.379   2.554  1.1074  0.1646 -1.4012
 9135SOL     OW38863   2.417   0.463   4.510 -0.0929  0.4670 -0.5107
 9135SOL    HW138864   2.347   0.401   4.489  0.2670  0.2345 -1.0192
 9135SOL    HW238865   2.450   0.482   4.422  1.5904 -1.0351 -0.2120
 9136SOL     OW38866   0.386   1.953   8.150 -0.9967  0.6107 -0.1449
 9136SOL    HW138867   0.364   1.909   8.068  0.7199 -1.6100  0.5801
 9136SOL    HW238868   0.375   1.883   8.214 -2.3783 -0.1684 -1.2397
 9137SOL     OW38869   2.325   0.084   3.700 -0.9716  0.1148  0.8422
 9137SOL    HW138870   2.272   0.012   3.735 -1.5045 -0.1776 -0.5625
 9137SOL    HW238871   2.361   0.110   3.784 -0.8008 -1.9172  1.3950
 9138SOL     OW38872   1.298   2.032  14.426  0.0193 -0.7948 -0.3652
 9138SOL    HW138873   1.305   1.938  14.412 -4.3777 -1.4650  1.7421
 9138SOL    HW238874   1.283   2.027  14.520  0.4979  1.1773 -0.1926
 9139SOL     OW38875   2.384   4.566   6.050  0.3777  0.2660  0.4752
 9139SOL    HW138876   2.328   4.517   5.991  1.5597 -0.1782 -0.2627
 9139SOL    HW238877   2.310   4.621   6.080  0.6716  0.8041  0.2149
 9140SOL     OW38878   4.506   2.827   5.923  0.2812 -0.1921 -0.3328
 9140SOL    HW138879   4.541   2.789   5.843  1.5398 -2.9828  1.5303
 9140SOL    HW238880   4.581   2.862   5.971  0.7223 -1.5758 -0.0082
 9141SOL     OW38881   3.001   1.398  14.591 -0.1137 -0.0617  0.0537
 9141SOL    HW138882   2.982   1.440  14.507 -0.4193 -0.9351 -0.3141
 9141SOL    HW238883   3.047   1.319  14.561  2.0768  0.5939  1.6760
 9142SOL     OW38884   3.657   0.425   9.294 -0.2275 -0.0976  0.1587
 9142SOL    HW138885   3.685   0.515   9.312 -1.8184  0.2508  0.8722
 9142SOL    HW238886   3.740   0.378   9.295  0.8372  1.8080  0.6218
 9143SOL     OW38887   1.831   1.228   3.310 -0.2406  0.9918 -0.1532
 9143SOL    HW138888   1.908   1.221   3.253 -0.8035  1.6236 -0.9884
 9143SOL    HW238889   1.760   1.212   3.249  0.3620  2.4375 -1.2368
 9144SOL     OW38890   3.102   1.664   1.808  0.5264  0.1460  0.3344
 9144SOL    HW138891   3.175   1.706   1.854  0.2860  1.0937 -0.1475
 9144SOL    HW238892   3.040   1.736   1.794 -1.0228 -0.9698  1.4159
 9145SOL     OW38893   4.009   1.328   3.301  0.1864  0.2578 -0.3620
 9145SOL    HW138894   4.046   1.276   3.230 -1.0068 -1.2930  0.1533
 9145SOL    HW238895   4.077   1.393   3.318  1.4734 -0.9391 -0.9399
 9146SOL     OW38896   0.306   3.765  11.388  0.2876 -0.1547 -0.6189
 9146SOL    HW138897   0.270   3.705  11.454  0.0841  0.1813 -0.4236
 9146SOL    HW238898   0.369   3.705  11.347  1.2841  0.0235  0.6508
 9147SOL     OW38899   1.851   2.600   5.855 -0.3727  0.2438 -0.2489
 9147SOL    HW138900   1.930   2.616   5.907 -0.9051  6.2118 -1.1798
 9147SOL    HW238901   1.848   2.509   5.883  1.2709 -0.4329 -2.2046
 9148SOL     OW38902   1.338   4.551  15.633 -0.9233 -0.1506  0.4051
 9148SOL    HW138903   1.266   4.569  15.692 -1.8309 -0.5475 -0.5822
 9148SOL    HW238904   1.306   4.493  15.564 -0.6747  0.1243  0.0563
 9149SOL     OW38905   1.861   0.923   1.638 -0.4957 -0.3360  0.1087
 9149SOL    HW138906   1.906   0.938   1.721  1.2692  0.7348 -1.0422
 9149SOL    HW238907   1.770   0.909   1.662 -0.3186 -0.6032  0.6191
 9150SOL     OW38908   4.129   4.386  12.073  0.1861  0.0827 -0.0841
 9150SOL    HW138909   4.123   4.446  12.148  2.3311 -0.1819  0.3031
 9150SOL    HW238910   4.224   4.391  12.071  0.2332 -0.9504 -0.2092
 9151SOL     OW38911   0.650   2.257   7.840 -0.5201 -0.1780 -0.0739
 9151SOL    HW138912   0.623   2.200   7.913 -0.4894 -1.3460 -0.9794
 9151SOL    HW238913   0.741   2.281   7.860  0.0393 -1.7554 -0.7514
 9152SOL     OW38914   0.149   3.956   0.147 -0.6516 -0.2750  0.2061
 9152SOL    HW138915   0.141   3.979   0.239  0.6519  0.6193  0.0982
 9152SOL    HW238916   0.240   3.985   0.136 -1.0421  0.7032 -0.4208
 9153SOL     OW38917   2.543   3.393   3.230 -0.2521 -0.0491 -0.4106
 9153SOL    HW138918   2.542   3.475   3.279 -0.3791 -0.2869 -0.0210
 9153SOL    HW238919   2.625   3.400   3.182  0.3300  0.3204  0.6455
 9154SOL     OW38920   3.392   1.025  16.286  0.0290  0.4212  0.2526
 9154SOL    HW138921   3.320   1.004  16.345  0.1406  2.2415  1.0292
 9154SOL    HW238922   3.343   1.019  16.204  0.2161  1.9115  0.0285
 9155SOL     OW38923   4.530   3.709   0.410  0.0983 -0.0960  0.1757
 9155SOL    HW138924   4.576   3.627   0.393 -0.4774 -0.2255 -0.7379
 9155SOL    HW238925   4.595   3.766   0.451  0.6193 -1.1121  0.7554
 9156SOL     OW38926   3.083   1.760   2.468  0.5062 -0.3260 -0.0576
 9156SOL    HW138927   3.132   1.766   2.386 -0.1359  1.3757 -0.3012
 9156SOL    HW238928   3.106   1.840   2.514  0.1716  0.4382 -1.2090
 9157SOL     OW38929   2.407   0.092   2.165 -0.3274 -0.0838 -0.5073
 9157SOL    HW138930   2.332   0.043   2.197 -0.7207 -0.7548 -2.4514
 9157SOL    HW238931   2.475   0.024   2.166 -0.0741  0.1314 -2.4020
 9158SOL     OW38932   1.063   3.976   3.889  0.2461 -0.3647  0.2741
 9158SOL    HW138933   1.057   3.903   3.952 -0.7639 -0.2224  0.3524
 9158SOL    HW238934   1.119   3.945   3.819 -0.6999 -0.0549 -0.6144
 9159SOL     OW38935   1.984   2.168   7.888 -0.9549 -0.6268 -0.0919
 9159SOL    HW138936   1.958   2.250   7.930 -1.8425 -1.2287  0.5450
 9159SOL    HW238937   1.911   2.163   7.826  1.0579 -0.7270 -2.4654
 9160SOL     OW38938   4.048   1.023   5.338  0.0252 -0.4802  0.6376
 9160SOL    HW138939   4.126   1.021   5.394 -1.0572  2.3203  2.2930
 9160SOL    HW238940   4.086   0.990   5.257  0.4111  2.1895 -0.2873
 9161SOL     OW38941   2.997   4.482  13.478 -1.0853 -0.4501  0.1005
 9161SOL    HW138942   3.037   4.529  13.405  0.7000  0.0429  1.3709
 9161SOL    HW238943   2.906   4.506  13.460 -0.4740  0.1642 -2.1410
 9162SOL     OW38944   2.814   4.266   2.172  0.5641 -0.6688 -0.2587
 9162SOL    HW138945   2.772   4.305   2.249  0.2266  0.9912 -1.2843
 9162SOL    HW238946   2.889   4.319   2.144  1.2876 -3.4465 -3.5488
 9163SOL     OW38947   1.512   3.039   9.276 -0.0134  0.2131  0.8298
 9163SOL    HW138948   1.454   3.114   9.286  0.2853  0.6441 -0.7021
 9163SOL    HW238949   1.456   2.963   9.292  1.8683 -1.6184 -1.1523
 9164SOL     OW38950   3.415   4.366  13.077  0.5150 -0.4202 -0.1119
 9164SOL    HW138951   3.397   4.401  12.990 -1.4465 -0.0320  0.4355
 9164SOL    HW238952   3.339   4.307  13.083 -1.2656  1.5172 -3.0959
 9165SOL     OW38953   0.487   0.150   8.158  0.4179 -0.3519  0.0080
 9165SOL    HW138954   0.496   0.209   8.233  1.9199 -1.4046  0.6708
 9165SOL    HW238955   0.556   0.195   8.109 -0.7792  1.3791 -0.0744
 9166SOL     OW38956   1.517   4.052   7.383  0.0620  0.0385 -0.7577
 9166SOL    HW138957   1.577   4.092   7.445 -0.2663  0.5893 -0.7977
 9166SOL    HW238958   1.503   4.117   7.314  1.0351 -0.4734 -1.4526
 9167SOL     OW38959   1.931   1.219  13.378 -0.0416  0.4181 -0.0523
 9167SOL    HW138960   1.874   1.294  13.391 -0.2739  0.5878 -2.1557
 9167SOL    HW238961   1.945   1.221  13.284  1.2217  0.2774  0.1227
 9168SOL     OW38962   4.618   3.580   3.307 -0.3948 -0.0773 -0.7969
 9168SOL    HW138963   4.641   3.499   3.354  0.0180 -0.3914 -1.5402
 9168SOL    HW238964   4.663   3.563   3.224  0.6947 -0.4318 -0.1419
 9169SOL     OW38965   2.171   1.437   7.885  0.1320 -0.0567 -0.1559
 9169SOL    HW138966   2.233   1.401   7.822  0.2073  0.2124 -0.2369
 9169SOL    HW238967   2.193   1.529   7.872  2.6327 -0.2397  2.8880
 9170SOL     OW38968   2.225   3.711   3.089 -0.4146 -0.6635  0.5798
 9170SOL    HW138969   2.173   3.679   3.015 -0.2203  0.5998 -0.1037
 9170SOL    HW238970   2.211   3.636   3.146 -0.8804 -0.4195  0.7909
 9171SOL     OW38971   1.867   0.215   7.057 -0.3731  0.4778  0.6955
 9171SOL    HW138972   1.871   0.133   7.009 -1.4018  2.2548 -2.4518
 9171SOL    HW238973   1.906   0.184   7.139 -0.5475 -0.2033  0.5210
 9172SOL     OW38974   4.079   1.206   0.373  0.5194  0.9347  0.6197
 9172SOL    HW138975   4.006   1.261   0.400 -0.2380  1.1763 -1.9533
 9172SOL    HW238976   4.105   1.253   0.294  2.2206 -0.4475  0.3635
 9173SOL     OW38977   1.883   2.568   4.257  0.4061 -0.4726 -0.4285
 9173SOL    HW138978   1.939   2.615   4.318 -1.0240 -0.5714  0.9828
 9173SOL    HW238979   1.916   2.597   4.172  0.3958  1.3427  0.1831
 9174SOL     OW38980   2.680   2.860  15.146  0.1166 -0.1735  0.3559
 9174SOL    HW138981   2.705   2.953  15.145 -1.9374  0.3678  0.5121
 9174SOL    HW238982   2.607   2.860  15.084  0.7700 -0.1437 -0.4068
 9175SOL     OW38983   1.195   4.547   1.952 -0.1062  0.0596  0.0727
 9175SOL    HW138984   1.204   4.465   1.904 -1.0347 -0.4496  0.7948
 9175SOL    HW238985   1.146   4.591   1.882  0.2585  1.0057  0.4008
 9176SOL     OW38986   4.652   0.313   4.113  0.3035 -0.0138 -0.6300
 9176SOL    HW138987   4.718   0.372   4.148  0.4517 -0.0825 -0.7910
 9176SOL    HW238988   4.675   0.228   4.151 -0.0007 -0.6389 -1.8349
 9177SOL     OW38989   2.805   3.719   1.029 -0.2750  0.1794 -0.4515
 9177SOL    HW138990   2.811   3.670   0.947  1.9027 -0.0106 -0.1737
 9177SOL    HW238991   2.756   3.796   0.999 -0.2717  0.0284 -0.8439
 9178SOL     OW38992   4.284   4.663  10.034 -0.4070  0.3273  0.1390
 9178SOL    HW138993   4.228   0.014  10.062  0.6455 -0.2098  3.5888
 9178SOL    HW238994   4.360   4.707   9.996  0.1332 -2.8844 -2.5242
 9179SOL     OW38995   3.935   3.949   5.898  0.2543  0.3964 -0.2754
 9179SOL    HW138996   3.957   3.885   5.831  1.6247 -1.1350  1.6178
 9179SOL    HW238997   4.010   3.941   5.958  0.6547 -1.7755 -1.0921
 9180SOL     OW38998   0.877   3.752  12.343 -0.5791 -0.4524 -0.3077
 9180SOL    HW138999   0.826   3.671  12.344 -0.7377 -0.3518 -0.2214
 9180SOL    HW239000   0.940   3.742  12.414 -2.9616  0.1878  1.9067
 9181SOL     OW39001   0.606   1.506  14.287  0.4744  0.7253  0.7615
 9181SOL    HW139002   0.648   1.587  14.259  0.9719  0.2645  0.1695
 9181SOL    HW239003   0.644   1.449  14.219 -2.4928 -0.9509  0.5150
 9182SOL     OW39004   0.151   1.033   6.125 -0.4563 -0.6290  0.4984
 9182SOL    HW139005   0.136   1.126   6.109  0.9043 -0.7957 -1.8098
 9182SOL    HW239006   0.096   1.016   6.201  0.8527  0.9323  1.7736
 9183SOL     OW39007   2.502   3.110  16.644 -0.3959 -0.4747  0.3852
 9183SOL    HW139008   2.582   3.129  16.594 -0.4630  0.4671  0.6230
 9183SOL    HW239009   2.441   3.152  16.583  1.5238  0.0767 -1.1748
 9184SOL     OW39010   3.478   0.272   3.604 -0.2443  0.3445 -0.4125
 9184SOL    HW139011   3.567   0.249   3.579  0.2405  0.9802  0.7819
 9184SOL    HW239012   3.433   0.192   3.575  0.8887 -0.2948 -0.4098
 9185SOL     OW39013   2.294   0.026   8.073  0.3476  0.2815  0.3986
 9185SOL    HW139014   2.212   0.048   8.029  0.3833 -2.0395 -0.8239
 9185SOL    HW239015   2.258   4.685   8.137 -0.1382 -1.3779 -1.4534
 9186SOL     OW39016   0.094   0.485   3.100 -0.2238 -0.0674  0.4949
 9186SOL    HW139017   0.005   0.517   3.091 -0.3443 -0.0212  1.9737
 9186SOL    HW239018   0.099   0.406   3.046 -0.9756 -0.1016  0.4852
 9187SOL     OW39019   0.357   1.157   4.852 -0.1282 -0.1325  0.1281
 9187SOL    HW139020   0.326   1.201   4.931  0.3899 -0.3904  0.4748
 9187SOL    HW239021   0.274   1.116   4.829  0.1275 -1.2328  1.1932
 9188SOL     OW39022   1.187   0.672   7.478  0.2248  0.4586 -0.6554
 9188SOL    HW139023   1.172   0.613   7.551  0.3162  2.2627  0.8267
 9188SOL    HW239024   1.171   0.759   7.514 -1.4616 -0.2405  0.2628
 9189SOL     OW39025   0.609   4.103   9.525  0.1541 -0.1279  0.1301
 9189SOL    HW139026   0.623   4.018   9.485  1.8031  0.3734 -0.3557
 9189SOL    HW239027   0.608   4.158   9.446  0.6790 -1.7007 -0.9603
 9190SOL     OW39028   2.784   3.145  10.463 -0.1162  0.2759  0.1049
 9190SOL    HW139029   2.870   3.111  10.486  0.9683  0.8677 -2.9977
 9190SOL    HW239030   2.763   3.211  10.528  0.7643 -1.0263  1.7314
 9191SOL     OW39031   2.980   2.066   4.189  0.1803  0.4046  0.0111
 9191SOL    HW139032   2.954   2.063   4.281  0.0554  0.8379 -0.0111
 9191SOL    HW239033   2.898   2.072   4.141 -0.6037  1.9860  1.5557
 9192SOL     OW39034   0.550   0.055  10.737 -0.6703  0.2374  0.0002
 9192SOL    HW139035   0.540   0.150  10.731 -0.2110  0.1887 -1.4940
 9192SOL    HW239036   0.584   0.042  10.825  0.7001  0.6868 -0.4582
 9193SOL     OW39037   1.915   0.886   8.718 -0.1581  0.0103  0.1716
 9193SOL    HW139038   2.009   0.870   8.708 -0.0939 -0.1169  0.9547
 9193SOL    HW239039   1.885   0.883   8.628 -2.0780  0.0617  0.8162
 9194SOL     OW39040   2.098   0.105  14.792 -0.4700 -0.0415 -0.3040
 9194SOL    HW139041   2.065   0.194  14.783 -1.3483 -0.0859  2.6053
 9194SOL    HW239042   2.152   0.108  14.871 -1.4569  0.4667  0.3480
 9195SOL     OW39043   3.062   1.856   9.850 -0.8087 -0.1197  0.1149
 9195SOL    HW139044   3.036   1.946   9.835 -0.1735  0.2001  0.9394
 9195SOL    HW239045   3.002   1.842   9.923 -0.9215  0.2200  0.0873
 9196SOL     OW39046   3.191   4.630   6.660 -0.0736 -0.0102 -0.8498
 9196SOL    HW139047   3.100   4.643   6.687  0.5083 -0.1114  1.1746
 9196SOL    HW239048   3.193   4.538   6.632 -0.9982 -0.2082 -0.2588
 9197SOL     OW39049   1.439   1.405   2.730 -0.7858  0.4144  0.1967
 9197SOL    HW139050   1.397   1.362   2.655 -0.1451  3.7965 -2.0704
 9197SOL    HW239051   1.511   1.346   2.754 -2.4494 -2.1454 -0.9872
 9198SOL     OW39052   3.350   0.712   6.670 -0.6838 -0.0897  0.7184
 9198SOL    HW139053   3.362   0.782   6.735 -0.8476  0.9667 -0.3979
 9198SOL    HW239054   3.352   0.634   6.725  4.6567 -0.8823 -0.6097
 9199SOL     OW39055   1.817   1.210   8.697 -0.3149  0.1650  0.0436
 9199SOL    HW139056   1.890   1.213   8.635  0.6603 -0.1237  1.1963
 9199SOL    HW239057   1.793   1.303   8.695  1.6553  0.6520 -0.8866
 9200SOL     OW39058   4.540   1.481   9.007 -0.3228 -0.5443  0.0331
 9200SOL    HW139059   4.491   1.561   9.024  1.0360  0.4396 -0.7138
 9200SOL    HW239060   4.497   1.422   9.068 -2.8048 -1.0337 -2.1933
 9201SOL     OW39061   2.577   0.923  15.863 -0.3819  0.2055 -0.2147
 9201SOL    HW139062   2.614   1.011  15.863 -0.8835  0.4131  2.8205
 9201SOL    HW239063   2.601   0.886  15.778 -1.2202  1.3298 -0.9353
 9202SOL     OW39064   2.037   0.139  11.654 -0.2646 -0.2101  0.4493
 9202SOL    HW139065   2.030   0.058  11.604  0.5313  0.2991 -0.5104
 9202SOL    HW239066   2.070   0.207  11.594 -1.8186 -2.0588 -2.4747
 9203SOL     OW39067   3.830   0.822   4.680 -0.0959 -0.3794 -0.3327
 9203SOL    HW139068   3.821   0.773   4.598 -3.1848 -1.2420  0.5327
 9203SOL    HW239069   3.755   0.882   4.675 -0.0770 -0.1347  2.2447
 9204SOL     OW39070   3.896   4.493   4.673 -0.0813  0.0503  0.1700
 9204SOL    HW139071   3.880   4.535   4.588 -0.7710  0.5507  0.5462
 9204SOL    HW239072   3.808   4.461   4.692 -0.7465  2.0635  0.3754
 9205SOL     OW39073   4.290   0.752   6.934  0.3118  0.7935 -1.0275
 9205SOL    HW139074   4.378   0.714   6.938  0.2781  0.9715  1.6826
 9205SOL    HW239075   4.274   0.722   6.845 -0.8414  0.6190 -0.7678
 9206SOL     OW39076   3.113   0.097  16.915  0.3654  0.3663 -0.2885
 9206SOL    HW139077   3.058   0.159  16.868 -1.5039 -0.9777  0.1279
 9206SOL    HW239078   3.044   0.068  16.974  1.9010  0.8821  1.7833
 9207SOL     OW39079   3.757   2.304   8.970  0.0868  0.0402  0.1933
 9207SOL    HW139080   3.703   2.226   8.955  2.5819 -1.7972  0.7907
 9207SOL    HW239081   3.768   2.331   8.879 -0.2956  0.8285  0.3782
 9208SOL     OW39082   2.756   4.287   6.814  0.3815  0.1878  0.1985
 9208SOL    HW139083   2.835   4.331   6.843 -0.2391  1.9676 -0.8141
 9208SOL    HW239084   2.693   4.302   6.884  0.6274  2.0727 -0.0053
 9209SOL     OW39085   3.540   3.275   5.191 -0.0593 -0.0949  0.1789
 9209SOL    HW139086   3.488   3.296   5.114 -0.5757  1.3478  0.9214
 9209SOL    HW239087   3.623   3.249   5.150 -0.3558  0.2067 -0.6134
 9210SOL     OW39088   0.607   2.704  14.230 -0.1417  0.0369 -0.2510
 9210SOL    HW139089   0.695   2.690  14.263 -0.2210 -0.8531 -0.4180
 9210SOL    HW239090   0.581   2.615  14.208 -0.0529  0.2828 -1.3409
 9211SOL     OW39091   2.228   4.190  10.912  0.2570  0.1694 -0.4797
 9211SOL    HW139092   2.318   4.198  10.943  0.0367  2.8575 -0.5351
 9211SOL    HW239093   2.187   4.231  10.988 -0.3986 -0.6794 -0.3700
 9212SOL     OW39094   0.951   0.078   6.067 -0.1996  0.0455 -0.0246
 9212SOL    HW139095   0.901   0.119   5.997  0.5757 -2.6289 -2.1831
 9212SOL    HW239096   0.893   0.095   6.141  0.4866 -1.0763  0.7753
 9213SOL     OW39097   2.532   4.038   8.492  0.3379  0.3187  0.4797
 9213SOL    HW139098   2.515   3.947   8.516  1.5565  0.6716  2.6998
 9213SOL    HW239099   2.443   4.069   8.473 -0.6904 -2.5956  0.5686
 9214SOL     OW39100   3.484   1.896  10.316  0.8759  0.1133  0.3220
 9214SOL    HW139101   3.576   1.881  10.335  0.7628 -1.1307 -0.1378
 9214SOL    HW239102   3.447   1.809  10.325 -2.8739  1.6460  0.0215
 9215SOL     OW39103   1.788   3.317  14.797  0.2066 -0.2764 -0.1873
 9215SOL    HW139104   1.726   3.368  14.745  1.6035  2.0987  0.4623
 9215SOL    HW239105   1.793   3.231  14.755  0.5872 -0.1621 -0.3759
 9216SOL     OW39106   4.408   4.127   7.572  0.2479 -0.5130 -0.4306
 9216SOL    HW139107   4.410   4.036   7.601 -2.3664 -0.3843  0.1947
 9216SOL    HW239108   4.359   4.116   7.491 -1.6459 -0.6768  0.7328
 9217SOL     OW39109   1.252   4.454   2.557  0.5329  0.2376 -0.2720
 9217SOL    HW139110   1.240   4.447   2.463  1.3980 -0.2723 -0.3457
 9217SOL    HW239111   1.238   4.547   2.576 -1.3680 -0.1233  0.0353
 9218SOL     OW39112   1.269   2.281   2.090 -0.1466 -0.4251  0.4262
 9218SOL    HW139113   1.310   2.346   2.147  1.9195 -0.9079 -0.5039
 9218SOL    HW239114   1.279   2.316   2.001 -0.3104  0.9343  0.9425
 9219SOL     OW39115   3.584   2.321   9.210 -0.3285  0.1545 -0.0530
 9219SOL    HW139116   3.579   2.355   9.300  2.7430 -0.6000  0.3927
 9219SOL    HW239117   3.494   2.331   9.178  0.6853  1.4190 -2.5170
 9220SOL     OW39118   0.616   0.410  15.386  0.4389  0.1953  0.3083
 9220SOL    HW139119   0.603   0.317  15.368  1.3921  0.7627 -3.2491
 9220SOL    HW239120   0.528   0.432  15.416  0.1037  1.1071 -1.3812
 9221SOL     OW39121   0.687   3.928   2.241  0.1960  0.5444 -0.1258
 9221SOL    HW139122   0.622   3.869   2.280  0.3564 -0.1037 -0.8403
 9221SOL    HW239123   0.675   3.918   2.147 -1.3187  1.4073 -0.0303
 9222SOL     OW39124   4.547   0.403  14.324 -0.0090 -0.0242  0.0183
 9222SOL    HW139125   4.521   0.430  14.236  0.2778 -2.3225 -0.7930
 9222SOL    HW239126   4.469   0.352  14.344 -0.3468  0.0177 -1.1726
 9223SOL     OW39127   4.339   2.186   9.018 -0.3456  0.0035 -0.1133
 9223SOL    HW139128   4.389   2.154   9.093  2.1421  2.6909 -0.6349
 9223SOL    HW239129   4.253   2.159   9.051  0.2199 -2.3971 -0.5764
 9224SOL     OW39130   1.632   4.446   2.004  0.2131 -0.5026  0.0384
 9224SOL    HW139131   1.554   4.487   2.041 -0.5532 -1.0772 -0.9578
 9224SOL    HW239132   1.664   4.406   2.085  0.4726 -2.6129 -1.1212
 9225SOL     OW39133   0.122   2.986   5.331  0.3091 -0.6558 -0.3184
 9225SOL    HW139134   0.078   3.065   5.364  0.8412  0.2150 -1.7062
 9225SOL    HW239135   0.142   3.032   5.250 -0.4956 -0.4354 -0.3866
 9226SOL     OW39136   3.999   4.541   5.519 -0.3651 -0.1622 -0.0978
 9226SOL    HW139137   4.089   4.539   5.485 -0.0378 -0.1861  0.7662
 9226SOL    HW239138   4.004   4.625   5.565  0.2245  0.2316 -0.8744
 9227SOL     OW39139   2.224   4.377  10.694  0.2005 -0.0689 -0.1279
 9227SOL    HW139140   2.216   4.329  10.777  1.6320 -2.7075 -1.5072
 9227SOL    HW239141   2.178   4.322  10.631  1.1680  0.7127 -1.5218
 9228SOL     OW39142   2.573   3.378  14.800 -0.1556  0.5910 -0.0562
 9228SOL    HW139143   2.494   3.413  14.843 -0.1313  0.7373 -0.1341
 9228SOL    HW239144   2.594   3.452  14.745  1.4627 -1.3786 -2.0780
 9229SOL     OW39145   4.701   2.694   2.168  0.0583  0.0159 -0.3669
 9229SOL    HW139146   0.043   2.658   2.230  1.6493  1.8560 -0.9174
 9229SOL    HW239147   4.647   2.615   2.155 -0.3661 -0.0977  2.1925
 9230SOL     OW39148   2.677   3.775  10.720  0.5930  0.0776  0.0091
 9230SOL    HW139149   2.714   3.824  10.793 -0.7117  1.5362 -0.3157
 9230SOL    HW239150   2.648   3.694  10.762 -1.0409 -0.0303 -1.3231
 9231SOL     OW39151   4.624   0.714   8.985 -0.0863 -0.0585 -0.4944
 9231SOL    HW139152   4.707   0.684   8.949 -0.2555  0.0367 -0.9624
 9231SOL    HW239153   4.659   0.741   9.070 -1.3213 -0.5447  0.1747
 9232SOL     OW39154   0.731   2.583  11.994 -0.7951  0.7525  0.4911
 9232SOL    HW139155   0.812   2.533  11.983 -0.4771  1.1342  1.0852
 9232SOL    HW239156   0.758   2.610  12.082 -0.4054  1.4429  0.1582
 9233SOL     OW39157   4.442   2.782   0.929  0.0806 -0.0386 -0.1692
 9233SOL    HW139158   4.438   2.845   1.001  0.6322 -0.8356  0.5617
 9233SOL    HW239159   4.358   2.805   0.890 -0.6573 -1.1665  0.7418
 9234SOL     OW39160   3.456   3.115   4.594 -0.4552 -0.0823  0.6301
 9234SOL    HW139161   3.480   3.060   4.520 -0.3401  2.3031 -1.0885
 9234SOL    HW239162   3.533   3.099   4.648 -1.6381 -0.3845  2.2304
 9235SOL     OW39163   2.878   3.120  12.966  0.5356 -0.0356  0.4585
 9235SOL    HW139164   2.855   3.122  12.873 -0.4231  0.9051  0.7082
 9235SOL    HW239165   2.926   3.203  12.974  2.0089 -0.6678 -1.9232
 9236SOL     OW39166   0.847   0.390  14.454  0.8027 -0.4651 -0.2501
 9236SOL    HW139167   0.755   0.386  14.480  1.4955 -2.6122  1.9095
 9236SOL    HW239168   0.837   0.448  14.379  0.5814  0.4404  0.4681
 9237SOL     OW39169   3.723   3.104   2.680  0.1202  0.4282  0.0503
 9237SOL    HW139170   3.770   3.085   2.599 -0.5090  1.6277 -0.6118
 9237SOL    HW239171   3.798   3.132   2.732 -1.7847  1.3242  2.3140
 9238SOL     OW39172   2.804   4.299  13.044 -0.1368  0.6527  0.3162
 9238SOL    HW139173   2.796   4.204  13.036 -0.3379  0.5410  1.9469
 9238SOL    HW239174   2.807   4.326  12.952 -0.6028  0.8710  0.3639
 9239SOL     OW39175   1.439   1.902  13.791 -0.1751  0.1646  0.7472
 9239SOL    HW139176   1.510   1.878  13.850  0.5516  2.9725  0.9952
 9239SOL    HW239177   1.487   1.946  13.721 -2.0969 -3.3191 -2.7575
 9240SOL     OW39178   3.655   2.526   5.639  0.0554  0.3375  1.0080
 9240SOL    HW139179   3.621   2.612   5.664 -0.8211  1.0596 -2.6325
 9240SOL    HW239180   3.712   2.545   5.565 -1.0428  0.4220  0.1768
 9241SOL     OW39181   2.790   4.707   6.495  0.2258  0.1569  0.4765
 9241SOL    HW139182   2.802   4.615   6.516  0.5430 -0.0292 -0.5254
 9241SOL    HW239183   2.754   4.699   6.406 -0.7631 -0.3018  0.9185
 9242SOL     OW39184   4.456   0.553   5.959  0.9707 -0.4697 -0.0420
 9242SOL    HW139185   4.396   0.479   5.965  0.5796 -0.3187 -1.8873
 9242SOL    HW239186   4.478   0.554   6.052  0.7382  2.0458 -0.0080
 9243SOL     OW39187   4.587   4.417  17.238 -0.1869  0.7340 -0.1748
 9243SOL    HW139188   4.528   4.416  17.163  2.2926 -0.6264 -2.1077
 9243SOL    HW239189   4.528   4.450  17.306  0.8237  1.4462  0.3647
 9244SOL     OW39190   1.328   2.545   8.253 -0.2123  0.5365 -0.1913
 9244SOL    HW139191   1.264   2.612   8.276 -1.1892 -0.1531 -0.9158
 9244SOL    HW239192   1.271   2.472   8.230  0.2503 -0.1286  0.7832
 9245SOL     OW39193   0.322   3.141   8.132 -0.5408 -0.3045  0.2713
 9245SOL    HW139194   0.256   3.073   8.115 -1.2832  0.1826  1.2511
 9245SOL    HW239195   0.288   3.169   8.216  2.2171  1.2970  0.8377
 9246SOL     OW39196   0.857   1.931   4.815 -0.7467 -0.2621 -0.5177
 9246SOL    HW139197   0.774   1.942   4.861 -1.4549 -0.4522 -1.7454
 9246SOL    HW239198   0.914   1.914   4.890 -1.3096 -1.7198 -0.4078
 9247SOL     OW39199   4.331   0.896  16.588 -0.2902 -0.5151 -0.0305
 9247SOL    HW139200   4.263   0.858  16.532 -0.2399  0.3877 -0.7142
 9247SOL    HW239201   4.351   0.813  16.632  0.1183  0.2270  1.1687
 9248SOL     OW39202   3.411   0.829   9.568 -0.0465 -0.0975  0.5257
 9248SOL    HW139203   3.505   0.809   9.568 -0.1471 -0.5752  1.3500
 9248SOL    HW239204   3.415   0.916   9.527  0.1196  0.1247  1.0193
 9249SOL     OW39205   3.653   2.839   6.377 -0.4964 -0.9031 -0.0429
 9249SOL    HW139206   3.607   2.888   6.445  1.3159  0.0912  0.4886
 9249SOL    HW239207   3.731   2.816   6.429 -0.6862 -1.6913 -0.1014
 9250SOL     OW39208   0.267   3.513   0.531  0.2690  0.2193 -0.0268
 9250SOL    HW139209   0.320   3.502   0.452  0.8722 -2.4361  0.7296
 9250SOL    HW239210   0.325   3.582   0.563  1.6522 -1.2763  0.7003
 9251SOL     OW39211   3.458   2.639   3.786  0.2810 -0.1030 -0.4719
 9251SOL    HW139212   3.400   2.617   3.714 -0.8082 -2.5023  1.1340
 9251SOL    HW239213   3.535   2.671   3.741  0.6931 -0.0284  0.2828
 9252SOL     OW39214   0.925   2.634   9.056  0.4951  0.2386 -0.4659
 9252SOL    HW139215   1.008   2.667   9.021  0.0076  2.7840  0.7252
 9252SOL    HW239216   0.950   2.558   9.108 -0.7479 -0.2918 -0.6502
 9253SOL     OW39217   3.881   0.352   9.104 -0.0462  0.3741 -0.2743
 9253SOL    HW139218   3.896   0.270   9.152  0.5840  1.4974  1.4609
 9253SOL    HW239219   3.951   0.348   9.038 -0.6621  0.0370 -0.9058
 9254SOL     OW39220   3.902   3.698  12.293 -0.2175 -0.1215 -0.2421
 9254SOL    HW139221   3.988   3.664  12.269 -0.5377 -1.2142  0.1470
 9254SOL    HW239222   3.912   3.793  12.293  0.5277 -0.1986  0.1306
 9255SOL     OW39223   3.586   4.303   8.054  0.1163 -0.3637 -0.0845
 9255SOL    HW139224   3.654   4.241   8.076  0.6884  0.2813 -0.0319
 9255SOL    HW239225   3.630   4.353   7.985 -1.1452  0.0239 -0.6236
 9256SOL     OW39226   1.016   3.923   9.595 -0.4687  0.2469 -0.0083
 9256SOL    HW139227   1.025   3.852   9.658  3.0514  1.5498  0.9073
 9256SOL    HW239228   0.949   3.877   9.544 -1.9245  0.2763  1.8609
 9257SOL     OW39229   3.300   4.471   3.895  0.3163  0.3744  0.1548
 9257SOL    HW139230   3.394   4.464   3.909  0.4672  0.6341 -0.7300
 9257SOL    HW239231   3.283   4.527   3.971  1.1047  0.9036 -0.0564
 9258SOL     OW39232   3.168   3.883   3.429 -0.1088 -0.5585 -0.2568
 9258SOL    HW139233   3.136   3.876   3.519 -3.3784 -0.2598 -1.4049
 9258SOL    HW239234   3.086   3.875   3.381  0.3199 -1.5612 -0.8180
 9259SOL     OW39235   3.879   3.749   4.182  0.4209 -0.4287  0.1734
 9259SOL    HW139236   3.969   3.729   4.156 -0.1462 -1.2130 -1.1696
 9259SOL    HW239237   3.834   3.671   4.151 -0.1748 -0.4536  1.0986
 9260SOL     OW39238   2.178   1.444   5.075  0.2430  0.3227 -0.5970
 9260SOL    HW139239   2.132   1.360   5.083 -3.7713  2.4421 -1.3438
 9260SOL    HW239240   2.133   1.472   4.995 -0.5857  0.1015 -0.2064
 9261SOL     OW39241   3.492   2.491   1.811  0.5177 -0.1299  0.3287
 9261SOL    HW139242   3.405   2.453   1.795 -0.0240  1.1875  0.1774
 9261SOL    HW239243   3.501   2.555   1.740 -0.2199 -0.3356  0.0529
 9262SOL     OW39244   4.695   2.802   4.497 -0.2203 -0.1591  0.0528
 9262SOL    HW139245   4.634   2.862   4.540 -0.7486 -0.9268  0.3594
 9262SOL    HW239246   0.017   2.778   4.579  2.0557  0.7080 -0.8737
 9263SOL     OW39247   0.602   2.567   8.439  0.9871 -0.6250 -0.3564
 9263SOL    HW139248   0.544   2.622   8.490  2.0118  0.2680 -0.1453
 9263SOL    HW239249   0.653   2.522   8.507  1.2964 -0.6599 -0.6079
 9264SOL     OW39250   2.403   3.283  10.906 -0.2030 -0.1599  0.1590
 9264SOL    HW139251   2.354   3.296  10.825 -0.9311  4.8046  1.3976
 9264SOL    HW239252   2.496   3.288  10.884 -1.1858 -0.6101 -4.0079
 9265SOL     OW39253   3.951   1.451   3.971  0.0606 -0.3666 -0.0318
 9265SOL    HW139254   3.948   1.414   4.059  0.2147 -1.7951 -0.6208
 9265SOL    HW239255   3.910   1.390   3.910 -1.9939  1.4967 -0.4984
 9266SOL     OW39256   2.645   2.701   6.915 -0.3936  0.7020 -0.2244
 9266SOL    HW139257   2.620   2.783   6.872  0.2012 -0.7406 -3.3641
 9266SOL    HW239258   2.735   2.691   6.883  0.5135  2.1582  1.8487
 9267SOL     OW39259   1.361   0.370   4.761 -0.2506 -0.0551  0.0118
 9267SOL    HW139260   1.335   0.434   4.695  1.7504  1.3095  0.5525
 9267SOL    HW239261   1.347   0.293   4.705  3.4006 -0.8025  0.1815
 9268SOL     OW39262   3.405   1.796   7.443 -0.3788 -0.2163 -0.1627
 9268SOL    HW139263   3.464   1.868   7.420  0.5431 -1.4032 -1.4788
 9268SOL    HW239264   3.442   1.721   7.396 -1.9033 -0.7367 -0.5267
 9269SOL     OW39265   3.080   0.189   9.527  0.1770  0.0884  0.0526
 9269SOL    HW139266   3.168   0.225   9.520  0.6016 -0.8378  0.6535
 9269SOL    HW239267   3.108   0.101   9.503  0.6426 -0.2279  1.7863
 9270SOL     OW39268   3.047   2.484   3.241 -0.2824 -0.4318 -0.3726
 9270SOL    HW139269   3.118   2.447   3.293 -1.4612 -0.0537  1.5212
 9270SOL    HW239270   2.983   2.413   3.241  0.3231 -0.9744  0.7582
 9271SOL     OW39271   0.432   0.315  14.274  0.0171  0.1633 -0.3646
 9271SOL    HW139272   0.521   0.311  14.242  0.2327  0.2478  0.2166
 9271SOL    HW239273   0.397   0.230  14.245  0.0937  0.5058 -1.4408
 9272SOL     OW39274   1.613   0.241   4.596  0.1508  0.5424 -0.3940
 9272SOL    HW139275   1.666   0.286   4.661 -1.2144  2.9481 -0.9457
 9272SOL    HW239276   1.623   0.152   4.630 -1.1958  0.8330  0.7376
 9273SOL     OW39277   4.121   2.544  10.015 -0.0894 -0.4887  0.4879
 9273SOL    HW139278   4.156   2.476  10.072  0.0132 -0.2122  0.7598
 9273SOL    HW239279   4.087   2.507   9.934  1.2333 -0.1113 -0.2343
 9274SOL     OW39280   1.252   2.083  16.359 -0.0014 -0.0421  0.0799
 9274SOL    HW139281   1.247   2.172  16.323 -0.7308 -0.1852 -0.1759
 9274SOL    HW239282   1.216   2.041  16.281  2.7301  0.6098 -1.5198
 9275SOL     OW39283   4.549   3.382   0.452  0.7236 -0.4378  0.6534
 9275SOL    HW139284   4.512   3.350   0.369  2.0358 -2.1479  0.7434
 9275SOL    HW239285   4.489   3.342   0.515  1.3313 -2.1421  0.1674
 9276SOL     OW39286   0.102   4.487   7.785  0.4438  0.2659  0.1500
 9276SOL    HW139287   0.191   4.502   7.755  1.1316  2.9494  3.4420
 9276SOL    HW239288   0.084   4.581   7.782 -1.2420 -0.0906 -1.3248
 9277SOL     OW39289   0.803   0.329   4.664  0.1724 -0.0885  0.4444
 9277SOL    HW139290   0.775   0.419   4.648 -0.9658 -1.0747 -2.9638
 9277SOL    HW239291   0.827   0.313   4.756 -0.5147 -0.5583  0.5375
 9278SOL     OW39292   3.137   0.435  15.031  0.0540 -0.8557 -0.4947
 9278SOL    HW139293   3.108   0.345  15.044 -0.3688 -0.4366  1.5996
 9278SOL    HW239294   3.116   0.470  15.118  0.3150  1.4844 -1.3633
 9279SOL     OW39295   3.675   2.968  15.369  0.5434  0.5108  0.1485
 9279SOL    HW139296   3.753   2.944  15.321 -0.4613 -3.2350  0.4247
 9279SOL    HW239297   3.687   3.063  15.381  0.5016  0.2576  2.2862
 9280SOL     OW39298   0.257   1.999   8.504 -0.6170  0.0521  0.3985
 9280SOL    HW139299   0.309   2.058   8.559 -2.1429  2.1533 -0.4372
 9280SOL    HW239300   0.201   1.950   8.563  1.5079 -1.0632  1.5100
 9281SOL     OW39301   1.510   3.157   2.194  0.4789  0.0229 -0.2686
 9281SOL    HW139302   1.598   3.166   2.231  0.3008 -2.0376  0.6788
 9281SOL    HW239303   1.494   3.062   2.193  0.9197 -0.0527 -0.0848
 9282SOL     OW39304   2.965   4.246   9.782 -0.4396  0.0273  0.0228
 9282SOL    HW139305   2.920   4.292   9.854 -1.7112  0.1123 -0.8276
 9282SOL    HW239306   2.950   4.155   9.807 -1.7112  0.1146 -0.4020
 9283SOL     OW39307   3.287   3.026   8.439 -0.2262  0.1354 -0.3377
 9283SOL    HW139308   3.325   3.114   8.443 -2.0415  0.8839  0.9228
 9283SOL    HW239309   3.220   3.027   8.508  0.0842  0.4771 -0.0406
 9284SOL     OW39310   4.707   2.188   1.369 -0.5625  0.2315 -0.4875
 9284SOL    HW139311   4.712   2.283   1.353  2.5510  0.0318 -0.8029
 9284SOL    HW239312   0.054   2.163   1.305  1.3297  1.5143  1.0053
 9285SOL     OW39313   2.422   0.707   7.972  0.0260  0.0068 -0.7963
 9285SOL    HW139314   2.470   0.724   7.891  1.9940 -0.9066  0.1712
 9285SOL    HW239315   2.453   0.776   8.030 -0.3837  1.3481 -2.1797
 9286SOL     OW39316   1.458   0.456   2.879 -0.3261 -0.1480  0.2030
 9286SOL    HW139317   1.485   0.385   2.937 -4.7561 -1.0167  1.2786
 9286SOL    HW239318   1.530   0.455   2.816  1.7656 -1.8388  2.6512
 9287SOL     OW39319   1.425   0.859  15.416 -0.1544  0.4198 -0.2902
 9287SOL    HW139320   1.487   0.800  15.372 -0.7953 -1.1789  0.9226
 9287SOL    HW239321   1.404   0.808  15.495  0.0952  0.5719 -0.1224
 9288SOL     OW39322   4.218   0.761   0.545 -0.4050 -0.3554  0.3245
 9288SOL    HW139323   4.241   0.834   0.602 -1.9232  0.0358  0.4333
 9288SOL    HW239324   4.170   0.807   0.476  2.6710  3.5355  0.8343
 9289SOL     OW39325   2.556   1.747  15.496  0.0605  0.3704 -0.0799
 9289SOL    HW139326   2.498   1.791  15.435  1.8961  1.9229 -0.7189
 9289SOL    HW239327   2.549   1.805  15.572  0.6441  1.0268 -0.5279
 9290SOL     OW39328   0.039   0.321   8.719 -0.2526 -0.1407  0.3804
 9290SOL    HW139329   0.134   0.318   8.732  0.4878  2.1948 -4.1225
 9290SOL    HW239330   0.031   0.416   8.727  1.7990 -0.1448  2.2551
 9291SOL     OW39331   2.207   2.676  12.010 -0.1984  0.2123  0.1211
 9291SOL    HW139332   2.169   2.755  11.973 -0.6697 -0.2239 -0.3393
 9291SOL    HW239333   2.133   2.614  12.010  1.2468 -1.5144 -1.3374
 9292SOL     OW39334   1.426   1.683   2.700 -0.5069  0.3498 -0.7496
 9292SOL    HW139335   1.333   1.690   2.725 -0.3153 -0.1055  0.1093
 9292SOL    HW239336   1.427   1.587   2.696  0.3340  0.3047  0.5366
 9293SOL     OW39337   3.964   1.178   4.912 -0.1315 -0.0221 -0.2404
 9293SOL    HW139338   3.983   1.199   5.004 -0.4790 -1.8437  0.2471
 9293SOL    HW239339   4.041   1.222   4.877 -1.6108  1.8218 -1.1594
 9294SOL     OW39340   1.776   1.990   8.587 -0.3247  0.0369  0.2053
 9294SOL    HW139341   1.804   1.956   8.502 -0.2124 -1.2408  0.7571
 9294SOL    HW239342   1.739   1.913   8.630 -0.3536  1.4201  2.6365
 9295SOL     OW39343   1.371   0.148   6.263  0.2412 -0.0673  0.2645
 9295SOL    HW139344   1.305   0.202   6.218  2.3111  3.2225  1.1770
 9295SOL    HW239345   1.399   0.086   6.195 -3.4089 -1.4384 -0.0298
 9296SOL     OW39346   0.938   1.641  10.441  0.1062  0.4839 -0.2284
 9296SOL    HW139347   0.963   1.552  10.416 -0.1680  0.0646  1.0240
 9296SOL    HW239348   1.019   1.659  10.488  0.2429 -0.0933 -0.2434
 9297SOL     OW39349   1.447   0.976  15.723 -0.1628  0.1377  0.1645
 9297SOL    HW139350   1.541   0.990  15.736 -0.0343 -0.4297 -0.1377
 9297SOL    HW239351   1.439   0.881  15.736  1.7233 -0.2366 -1.3784
 9298SOL     OW39352   1.127   2.095   7.973 -0.0427 -0.1334  0.0575
 9298SOL    HW139353   1.176   2.097   7.890  0.8016 -2.8559  0.4999
 9298SOL    HW239354   1.184   2.152   8.024 -1.1866  0.0319  1.1482
 9299SOL     OW39355   4.144   1.642  12.707  0.2306  0.4693  0.1739
 9299SOL    HW139356   4.082   1.591  12.656  0.6111  0.9178 -0.7247
 9299SOL    HW239357   4.132   1.600  12.793  0.7671  3.2513  1.5925
 9300SOL     OW39358   2.689   2.561  11.388  0.4564 -0.4759 -0.1793
 9300SOL    HW139359   2.693   2.466  11.401 -2.2999 -0.1308  3.0901
 9300SOL    HW239360   2.600   2.560  11.352  1.0903 -1.3875 -1.7385
 9301SOL     OW39361   0.873   2.012   4.553 -0.2184 -0.0272 -0.0962
 9301SOL    HW139362   0.911   2.099   4.559  2.1644 -1.1718  1.3194
 9301SOL    HW239363   0.876   1.989   4.646  1.1180 -0.5257 -0.2653
 9302SOL     OW39364   3.864   3.265   9.322  0.1026  0.1107  0.2962
 9302SOL    HW139365   3.943   3.215   9.302  0.2118 -0.1499  1.3391
 9302SOL    HW239366   3.831   3.210   9.393 -1.0181 -0.3191 -0.5749
 9303SOL     OW39367   2.181   3.904  14.184 -0.1655 -0.0884  0.0788
 9303SOL    HW139368   2.271   3.871  14.182 -0.4104 -0.8610  2.0195
 9303SOL    HW239369   2.148   3.861  14.263 -1.6795  2.2967  0.7572
 9304SOL     OW39370   1.014   0.828   9.036 -0.4146  0.3822 -0.4075
 9304SOL    HW139371   0.938   0.830   9.095 -0.7440 -3.7148 -0.6868
 9304SOL    HW239372   1.044   0.740   9.057 -1.2530  0.0589 -0.5453
 9305SOL     OW39373   2.729   1.693  15.865  0.1936  0.3021 -0.3090
 9305SOL    HW139374   2.802   1.664  15.920  0.5772  3.8654  1.0891
 9305SOL    HW239375   2.756   1.785  15.858 -0.5347  0.6019  0.7571
 9306SOL     OW39376   2.698   4.022   1.059  0.1683  0.3148  0.6992
 9306SOL    HW139377   2.637   3.999   1.129 -0.6139  1.2874  0.3264
 9306SOL    HW239378   2.635   4.077   1.012  0.3182  0.1686  0.3225
 9307SOL     OW39379   1.000   3.633   6.177  0.0974 -0.3324 -0.0964
 9307SOL    HW139380   1.045   3.696   6.234 -3.3412  1.0174  1.1560
 9307SOL    HW239381   1.057   3.559   6.199  0.4472  0.9261  3.2211
 9308SOL     OW39382   4.718   0.844  11.295  0.5154 -0.0908  0.2810
 9308SOL    HW139383   0.038   0.795  11.223 -2.7742 -1.9594 -0.3101
 9308SOL    HW239384   4.644   0.881  11.246  0.7307  1.3273  1.0327
 9309SOL     OW39385   4.256   2.436   4.588  0.0152 -0.0693  0.1420
 9309SOL    HW139386   4.317   2.377   4.543  0.9681  2.1947 -1.5500
 9309SOL    HW239387   4.267   2.525   4.553  0.6884  0.1184  0.8195
 9310SOL     OW39388   4.299   1.069   5.501 -0.3839  0.0834  0.2678
 9310SOL    HW139389   4.347   0.987   5.497  2.0050  1.4644  0.8085
 9310SOL    HW239390   4.306   1.067   5.597  0.0616  2.0061  0.2731
 9311SOL     OW39391   2.392   2.327   0.524  0.0788 -0.4887  0.2497
 9311SOL    HW139392   2.356   2.372   0.447 -0.0601 -0.3298  0.4072
 9311SOL    HW239393   2.324   2.344   0.590 -1.6960 -2.5500 -1.0704
 9312SOL     OW39394   2.314   2.512   7.282 -0.1671 -0.5027  0.1705
 9312SOL    HW139395   2.260   2.576   7.234  1.0735  1.7256  1.7580
 9312SOL    HW239396   2.384   2.491   7.221 -1.2616  1.7326 -1.8839
 9313SOL     OW39397   4.062   4.126   8.478 -0.6128 -0.0758  0.4712
 9313SOL    HW139398   4.038   4.187   8.408  0.4309 -3.0421 -2.4540
 9313SOL    HW239399   4.156   4.113   8.464 -0.5604  0.1451  0.6131
 9314SOL     OW39400   1.574   0.323   4.939 -0.0857  0.2658 -0.2562
 9314SOL    HW139401   1.493   0.339   4.890 -1.6344 -0.3128  2.1305
 9314SOL    HW239402   1.572   0.401   4.994  0.8193 -0.9937  1.5619
 9315SOL     OW39403   3.899   2.457   5.784 -0.0445  0.0259  0.0005
 9315SOL    HW139404   3.838   2.470   5.713 -1.2899 -0.1504  1.0388
 9315SOL    HW239405   3.847   2.488   5.858 -0.8330 -0.7799 -0.2187
 9316SOL     OW39406   0.133   2.963   6.748 -0.7037 -0.5624 -0.2126
 9316SOL    HW139407   0.228   2.964   6.737 -0.6474 -3.1730  0.1038
 9316SOL    HW239408   0.095   2.908   6.680 -1.1150 -0.9228  0.3101
 9317SOL     OW39409   1.748   2.898   2.143  0.4245 -0.1513 -0.4663
 9317SOL    HW139410   1.708   2.824   2.188  1.0594 -0.1991  0.0265
 9317SOL    HW239411   1.725   2.873   2.054 -1.5731 -0.7130  0.2236
 9318SOL     OW39412   4.235   0.620   2.407  0.7465  0.4485 -0.0718
 9318SOL    HW139413   4.211   0.587   2.493 -1.2319 -0.7670 -1.0898
 9318SOL    HW239414   4.326   0.644   2.424  1.1204  0.5610 -2.1773
 9319SOL     OW39415   0.398   0.605   0.559  0.0753  0.1580 -0.1765
 9319SOL    HW139416   0.412   0.699   0.544 -0.5613  0.0479 -1.4027
 9319SOL    HW239417   0.455   0.574   0.489  0.7567  1.6942 -0.3189
 9320SOL     OW39418   2.420   1.126   1.105  0.1292  0.4453 -0.2566
 9320SOL    HW139419   2.453   1.110   1.193 -0.5251 -0.0272 -0.0921
 9320SOL    HW239420   2.495   1.097   1.053  0.5612 -0.0003  0.6062
 9321SOL     OW39421   2.681   2.885  12.785 -0.2905 -0.2409  0.3391
 9321SOL    HW139422   2.762   2.840  12.760  1.0676  0.2822  3.6731
 9321SOL    HW239423   2.703   2.978  12.779  1.1988 -0.5752  0.6278
 9322SOL     OW39424   3.709   0.691  10.582  0.7182 -0.0924  0.6256
 9322SOL    HW139425   3.742   0.733  10.661 -1.5346  0.7058  1.1520
 9322SOL    HW239426   3.772   0.727  10.519  1.0577  0.4282  1.2629
 9323SOL     OW39427   4.135   2.305   7.740  0.3030  0.3095  0.8758
 9323SOL    HW139428   4.114   2.398   7.737 -0.0625  0.1357 -2.1275
 9323SOL    HW239429   4.057   2.259   7.772 -0.1681 -0.2485 -1.0730
 9324SOL     OW39430   2.270   2.100   8.185 -0.6688  0.0626  0.3377
 9324SOL    HW139431   2.175   2.106   8.174 -0.7384 -2.6973 -0.5081
 9324SOL    HW239432   2.296   2.191   8.175  0.6321 -0.1783  1.4783
 9325SOL     OW39433   1.676   3.975   9.845  0.0569 -0.2667 -0.4079
 9325SOL    HW139434   1.690   3.891   9.802 -3.4702 -0.3164 -1.4698
 9325SOL    HW239435   1.718   3.962   9.930 -1.8015  0.7079  0.6643
 9326SOL     OW39436   2.592   1.475   8.393  0.2128 -0.3645  0.7522
 9326SOL    HW139437   2.681   1.509   8.407  0.4133  0.2572 -1.9602
 9326SOL    HW239438   2.568   1.521   8.312  0.7285 -0.6769  0.4177
 9327SOL     OW39439   4.456   1.519   1.705 -0.7293  0.2157 -0.1628
 9327SOL    HW139440   4.437   1.569   1.626  2.5487 -1.4992 -2.0520
 9327SOL    HW239441   4.429   1.581   1.772  0.1131  0.9870 -0.5422
 9328SOL     OW39442   0.323   4.469  16.105 -0.2387  0.5610 -0.5257
 9328SOL    HW139443   0.327   4.563  16.092 -1.6196  0.8331  0.9749
 9328SOL    HW239444   0.241   4.464  16.154  1.6950 -2.0315  2.4817
 9329SOL     OW39445   0.757   0.686   6.333  0.1811  0.0078  0.0679
 9329SOL    HW139446   0.795   0.664   6.247 -0.2398 -0.1315 -0.0813
 9329SOL    HW239447   0.804   0.764   6.362  0.1527  0.2422 -0.5180
 9330SOL     OW39448   3.328   3.939   1.217 -0.5474 -0.1942  0.3291
 9330SOL    HW139449   3.296   4.002   1.281  2.4685  0.6999  0.9506
 9330SOL    HW239450   3.256   3.883   1.188 -0.8424  0.0368  0.6346
 9331SOL     OW39451   0.735   2.835   6.740 -0.3143  0.3423 -0.3711
 9331SOL    HW139452   0.701   2.819   6.652  0.0187 -0.8340 -0.2755
 9331SOL    HW239453   0.739   2.745   6.771  1.6930  0.6711  0.2627
 9332SOL     OW39454   4.363   3.184   9.061  0.1620  0.4039 -0.2346
 9332SOL    HW139455   4.303   3.245   9.017 -0.2853 -0.3943 -0.7441
 9332SOL    HW239456   4.446   3.225   9.040  0.7505 -0.3776  0.5921
 9333SOL     OW39457   0.763   4.233  13.323  0.2645  0.1681 -0.4320
 9333SOL    HW139458   0.850   4.199  13.343 -0.8376 -1.6450  1.3578
 9333SOL    HW239459   0.760   4.221  13.228  2.3351  0.1567 -0.4864
 9334SOL     OW39460   4.279   0.117   3.845 -0.0687 -0.5576  0.4060
 9334SOL    HW139461   4.358   0.145   3.891  1.4877 -1.4713 -1.6899
 9334SOL    HW239462   4.319   0.096   3.760 -0.5348 -1.2847  0.3647
 9335SOL     OW39463   0.932   2.408   8.777 -0.3192  0.3681 -0.4687
 9335SOL    HW139464   0.867   2.410   8.707 -2.7496 -1.0630  1.7220
 9335SOL    HW239465   1.018   2.425   8.740  1.0439 -1.3928  1.8690
 9336SOL     OW39466   2.560   2.634   1.548  0.4430  0.2843  0.4258
 9336SOL    HW139467   2.467   2.637   1.568  0.2114  1.6975 -0.8403
 9336SOL    HW239468   2.577   2.728   1.553  1.1759 -0.0151  3.7766
 9337SOL     OW39469   2.659   2.063  17.498 -0.6849  0.8444 -0.5791
 9337SOL    HW139470   2.565   2.049  17.506 -0.7214  1.3013 -0.1269
 9337SOL    HW239471   2.674   2.068  17.404 -0.0975  1.4186 -0.4608
 9338SOL     OW39472   3.617   1.801   0.584  0.1663 -0.2786 -0.1098
 9338SOL    HW139473   3.675   1.848   0.644 -0.1325 -3.0717  2.3715
 9338SOL    HW239474   3.671   1.800   0.505  0.6485  2.0684  0.1868
 9339SOL     OW39475   0.857   1.899  17.421 -0.1530  0.4126 -0.5359
 9339SOL    HW139476   0.797   1.922  17.350 -2.2137 -1.7799  0.4771
 9339SOL    HW239477   0.930   1.861  17.372 -0.6463 -0.9643 -0.1929
 9340SOL     OW39478   4.541   0.122   7.082  0.0624  0.1851 -0.2684
 9340SOL    HW139479   4.587   0.039   7.081 -0.2579 -0.0186  2.2145
 9340SOL    HW239480   4.451   0.097   7.104  0.4213  1.2822  2.3959
 9341SOL     OW39481   0.185   3.945   2.408  1.0634  0.4422  0.0278
 9341SOL    HW139482   0.163   3.855   2.383 -0.0557  0.2632  1.7193
 9341SOL    HW239483   0.255   3.970   2.347  0.8650  1.7085  0.3248
 9342SOL     OW39484   3.122   3.457   4.993  0.6930 -0.6809 -0.7475
 9342SOL    HW139485   3.101   3.500   4.910  0.5646 -1.7375 -1.2535
 9342SOL    HW239486   3.036   3.446   5.033 -0.3965  0.7080 -2.7365
 9343SOL     OW39487   1.217   1.326   7.049  0.0185  0.2710 -0.0078
 9343SOL    HW139488   1.290   1.265   7.034  0.9321  0.8153  2.2271
 9343SOL    HW239489   1.192   1.351   6.960 -2.7144 -0.5366  0.5441
 9344SOL     OW39490   2.029   2.251   2.565 -0.0820  0.5811  0.1212
 9344SOL    HW139491   2.095   2.321   2.566  0.7658 -0.2246  0.2920
 9344SOL    HW239492   2.073   2.197   2.630  2.2125  0.4344 -1.5600
 9345SOL     OW39493   3.101   3.616   3.205 -0.7812  0.2145 -0.8143
 9345SOL    HW139494   3.056   3.545   3.160  0.9142 -1.1366 -0.3628
 9345SOL    HW239495   3.045   3.692   3.190 -0.8432  0.1708 -0.8029
 9346SOL     OW39496   3.519   1.431   6.922  0.3088 -0.1966 -0.1976
 9346SOL    HW139497   3.537   1.369   6.993  1.1085  1.0454  0.6910
 9346SOL    HW239498   3.577   1.500   6.955 -0.6104 -0.0332  1.0550
 9347SOL     OW39499   4.612   2.769   9.432  0.6102 -0.3699 -0.2708
 9347SOL    HW139500   4.524   2.796   9.458 -0.0859 -0.8670 -2.0928
 9347SOL    HW239501   4.631   2.835   9.365 -0.2844  0.0369 -0.1256
 9348SOL     OW39502   0.412   4.414   5.833  0.4200  0.6901 -0.5438
 9348SOL    HW139503   0.503   4.438   5.813  0.0779  0.0834 -2.8649
 9348SOL    HW239504   0.361   4.495   5.827  0.0812  0.5158 -0.0401
 9349SOL     OW39505   3.141   0.669   5.277  0.7882  0.2622  0.0650
 9349SOL    HW139506   3.186   0.707   5.353 -1.4443 -0.7779  1.8921
 9349SOL    HW239507   3.207   0.635   5.216  0.5832 -0.3788  0.2128
 9350SOL     OW39508   4.099   1.755   0.751 -0.9159 -0.4479  0.1561
 9350SOL    HW139509   4.110   1.815   0.677 -1.2521 -1.4529 -0.7017
 9350SOL    HW239510   4.048   1.813   0.807  0.3720 -0.0939  0.9769
 9351SOL     OW39511   4.281   0.737   7.208  0.2001 -0.1403  0.4740
 9351SOL    HW139512   4.353   0.678   7.229  0.1041 -0.0341  1.0961
 9351SOL    HW239513   4.279   0.725   7.113  0.5748  1.6662  0.2378
 9352SOL     OW39514   1.256   4.021  11.763  0.0426 -0.2195  0.0847
 9352SOL    HW139515   1.330   3.985  11.810 -0.5683  1.2619  2.1650
 9352SOL    HW239516   1.274   3.989  11.674 -1.8935  0.4765 -0.5694
 9353SOL     OW39517   2.194   1.155   7.143  0.3164  0.0491 -0.2888
 9353SOL    HW139518   2.136   1.087   7.111  0.6212 -0.5953  0.5199
 9353SOL    HW239519   2.271   1.149   7.087  0.1570 -1.2569 -0.3553
 9354SOL     OW39520   3.259   3.131   7.610  0.1908  0.0018 -0.5829
 9354SOL    HW139521   3.351   3.151   7.625 -0.4788  0.6264  2.6415
 9354SOL    HW239522   3.263   3.044   7.651 -1.6896  0.1270 -0.1346
 9355SOL     OW39523   4.483   3.319  13.096 -0.2372 -0.0537 -0.4457
 9355SOL    HW139524   4.535   3.388  13.055  1.6882  0.6037  3.0566
 9355SOL    HW239525   4.403   3.368  13.116  0.1788  0.7575 -0.7738
 9356SOL     OW39526   1.599   2.785   6.635  0.0560  0.2350  0.0114
 9356SOL    HW139527   1.627   2.849   6.570  0.0441  0.0293 -0.1976
 9356SOL    HW239528   1.639   2.703   6.606  0.3781  0.0347  1.0044
 9357SOL     OW39529   2.626   0.490   2.072  0.6809  0.2010  0.2662
 9357SOL    HW139530   2.711   0.463   2.105  0.5397  0.0612  0.5175
 9357SOL    HW239531   2.569   0.489   2.149  0.3619  0.9855  0.0495
 9358SOL     OW39532   3.363   0.104   7.184  0.1296 -0.0368  1.0284
 9358SOL    HW139533   3.402   0.039   7.124 -2.2702 -0.6039  0.0933
 9358SOL    HW239534   3.420   0.089   7.259  0.9093  2.2498  0.8925
 9359SOL     OW39535   0.532   0.035  16.071  0.5800  0.0778  0.4920
 9359SOL    HW139536   0.576   0.120  16.071 -2.3346  1.5949  1.8252
 9359SOL    HW239537   0.437   0.051  16.079  0.7691  1.4725 -0.0124
 9360SOL     OW39538   3.790   0.987  17.414 -0.2277  0.1470 -0.0311
 9360SOL    HW139539   3.875   0.946  17.430 -0.0285  0.1239 -1.1232
 9360SOL    HW239540   3.813   1.075  17.444 -1.5946  0.9142 -1.2343
 9361SOL     OW39541   2.692   4.263   7.078  0.3570 -0.4629 -0.0839
 9361SOL    HW139542   2.755   4.309   7.135 -0.3832  2.0446 -1.3229
 9361SOL    HW239543   2.729   4.175   7.075  1.2109 -0.1728  1.4089
 9362SOL     OW39544   3.144   0.456  16.493  0.1432 -0.2488  0.3593
 9362SOL    HW139545   3.108   0.501  16.570 -2.0079  0.7527 -1.2199
 9362SOL    HW239546   3.211   0.518  16.464 -0.8091  0.6182  0.0072
 9363SOL     OW39547   1.450   2.620  14.519  0.0274 -0.7089  0.2652
 9363SOL    HW139548   1.487   2.683  14.458 -1.9359 -3.2589 -3.5109
 9363SOL    HW239549   1.522   2.565  14.551 -0.4507 -0.0709  2.4672
 9364SOL     OW39550   2.157   3.385   9.334  0.2147 -0.0996  0.2825
 9364SOL    HW139551   2.181   3.466   9.290 -3.0953 -0.0792 -1.4978
 9364SOL    HW239552   2.164   3.324   9.261  1.0878 -0.5333  0.7352
 9365SOL     OW39553   1.831   0.717   1.077 -0.4306 -0.1112  0.4613
 9365SOL    HW139554   1.913   0.707   1.123 -0.0613 -1.6881 -0.5019
 9365SOL    HW239555   1.828   0.627   1.043  0.6146 -0.2551  0.7510
 9366SOL     OW39556   3.128   1.261   7.388  0.0012 -0.0164 -0.1769
 9366SOL    HW139557   3.120   1.250   7.483  0.1621 -0.5157 -0.2190
 9366SOL    HW239558   3.035   1.273   7.367 -0.3847 -2.4340  0.0976
 9367SOL     OW39559   2.268   1.579   8.862 -0.1173  0.4855 -0.3924
 9367SOL    HW139560   2.336   1.519   8.831 -0.4295  0.1620 -0.4503
 9367SOL    HW239561   2.324   1.655   8.876  1.9665 -1.1506  0.1308
 9368SOL     OW39562   2.776   2.421  13.348 -0.2416  0.6305  0.2833
 9368SOL    HW139563   2.758   2.393  13.258  0.3689  0.1653  0.3032
 9368SOL    HW239564   2.782   2.515  13.333 -3.2710  1.1506  2.3152
 9369SOL     OW39565   2.977   1.427   1.590  0.1857 -0.0531 -0.2693
 9369SOL    HW139566   2.918   1.353   1.608  0.4852 -0.6202 -1.6657
 9369SOL    HW239567   2.995   1.460   1.678 -0.9920  1.1875 -0.5033
 9370SOL     OW39568   2.031   4.318  14.489 -0.4781 -0.9013  0.6887
 9370SOL    HW139569   2.009   4.410  14.503  2.2659 -0.2735  0.9327
 9370SOL    HW239570   1.981   4.266  14.552 -0.9000  0.0772  1.1576
 9371SOL     OW39571   4.036   4.132   1.002 -0.1024 -0.4064  0.3556
 9371SOL    HW139572   4.128   4.156   0.998 -0.4913  0.9532 -0.4750
 9371SOL    HW239573   4.026   4.079   1.081 -0.8977 -1.5487 -0.5022
 9372SOL     OW39574   0.222   0.213   6.924  0.0613  0.1379 -0.1552
 9372SOL    HW139575   0.273   0.142   6.885  0.9123 -0.0557  1.3145
 9372SOL    HW239576   0.133   0.208   6.890 -0.0794 -0.9581  0.3829
 9373SOL     OW39577   0.481   3.166   3.351  0.5926 -1.1465 -0.5457
 9373SOL    HW139578   0.483   3.177   3.256  0.2926 -0.7059 -0.5028
 9373SOL    HW239579   0.524   3.248   3.377 -4.3617  1.0463  0.7448
 9374SOL     OW39580   4.298   4.199   4.055 -0.3372 -0.2517  0.0797
 9374SOL    HW139581   4.364   4.133   4.072  1.6809  1.6867 -0.2408
 9374SOL    HW239582   4.340   4.247   3.983 -0.8573  1.0753  0.6733
 9375SOL     OW39583   3.304   1.232   0.308  0.0516  0.4241  0.2755
 9375SOL    HW139584   3.291   1.264   0.218  1.2438 -2.0548 -0.7755
 9375SOL    HW239585   3.399   1.229   0.314  0.0053  1.3633  1.3702
 9376SOL     OW39586   2.423   0.669   2.554  0.0560 -0.4303  0.6559
 9376SOL    HW139587   2.375   0.752   2.553 -1.5475 -1.3935 -1.1286
 9376SOL    HW239588   2.417   0.642   2.646 -0.7106 -0.9697  0.4459
 9377SOL     OW39589   0.056   0.211   0.518 -0.2297  0.4612 -0.3638
 9377SOL    HW139590   0.134   0.265   0.503  0.0170 -0.1604 -1.3655
 9377SOL    HW239591   0.055   0.207   0.613  0.3844 -1.5386 -0.4474
 9378SOL     OW39592   1.390   2.645  12.151  0.4747  0.0453  0.0925
 9378SOL    HW139593   1.482   2.661  12.169  0.1366 -0.8449  2.7038
 9378SOL    HW239594   1.359   2.735  12.141 -1.8783 -0.7770 -0.1951
 9379SOL     OW39595   3.151   2.159   3.983  0.2868 -0.4925 -0.1973
 9379SOL    HW139596   3.130   2.105   4.059 -1.2946  1.0589  0.4474
 9379SOL    HW239597   3.074   2.215   3.980  0.5688 -0.0518  0.8647
 9380SOL     OW39598   1.418   4.409   6.636 -0.2579 -0.3536 -0.0654
 9380SOL    HW139599   1.337   4.405   6.583 -0.5521 -0.0889  0.3686
 9380SOL    HW239600   1.465   4.464   6.573 -0.4088 -0.2347 -0.0742
 9381SOL     OW39601   0.105   4.585   6.556  0.6824 -0.4461  0.4707
 9381SOL    HW139602   0.166   4.522   6.517  1.5808  1.6312 -1.4929
 9381SOL    HW239603   0.153   4.668   6.554  0.8316 -0.5373  0.2701
 9382SOL     OW39604   4.031   1.942   0.342  0.0870 -0.6741  0.0088
 9382SOL    HW139605   4.070   1.943   0.254 -2.5259  0.3091 -1.1332
 9382SOL    HW239606   4.101   1.899   0.392  1.2176  0.9233 -0.1775
 9383SOL     OW39607   1.898   2.485   6.222  0.1301  0.6279 -0.1608
 9383SOL    HW139608   1.860   2.550   6.281  0.7791 -0.1822  1.1384
 9383SOL    HW239609   1.817   2.437   6.201 -0.0289  0.1100  1.6858
 9384SOL     OW39610   3.554   2.100   6.988 -0.3920 -0.3983 -0.1336
 9384SOL    HW139611   3.488   2.108   7.057 -0.5363 -2.5971 -0.0315
 9384SOL    HW239612   3.631   2.135   7.032 -1.2795 -2.4532  3.0554
 9385SOL     OW39613   2.369   1.373  15.462 -0.8607 -0.4177 -0.6093
 9385SOL    HW139614   2.456   1.409  15.481 -1.2443 -0.1601  0.6331
 9385SOL    HW239615   2.317   1.416  15.529 -1.7516 -1.6281 -0.5186
 9386SOL     OW39616   3.991   3.066  11.706 -0.7775 -0.0896  0.1758
 9386SOL    HW139617   4.054   3.126  11.745  0.7596 -1.0673 -0.8156
 9386SOL    HW239618   4.049   3.010  11.655 -1.4870 -1.0282  0.3944
 9387SOL     OW39619   1.493   0.333   6.866  0.1495  0.6642 -0.1265
 9387SOL    HW139620   1.455   0.420   6.881  0.4934  0.9396 -0.8367
 9387SOL    HW239621   1.411   0.284   6.861  1.7657 -2.5688  5.2203
 9388SOL     OW39622   2.273   1.348   8.583  0.2030 -0.1694 -0.2116
 9388SOL    HW139623   2.333   1.310   8.518  1.6120 -2.1489  2.2611
 9388SOL    HW239624   2.333   1.408   8.627 -0.4829 -0.0842  0.5951
 9389SOL     OW39625   0.921   1.918   3.869 -0.5474  0.2209 -0.1377
 9389SOL    HW139626   0.851   1.884   3.814 -1.3084 -0.3789  1.2025
 9389SOL    HW239627   0.869   1.904   3.948 -4.5783  3.2231 -2.2977
 9390SOL     OW39628   2.303   2.805   8.388 -0.1095 -0.1310  0.0374
 9390SOL    HW139629   2.247   2.881   8.375  1.6469  0.7197 -2.6101
 9390SOL    HW239630   2.244   2.734   8.414 -0.2218  0.5456  1.6781
 9391SOL     OW39631   3.518   1.073   8.409 -0.5823  0.3546 -0.4392
 9391SOL    HW139632   3.559   1.156   8.384  0.3457 -0.0895 -0.3800
 9391SOL    HW239633   3.438   1.103   8.451 -1.3497 -0.7686 -1.0982
 9392SOL     OW39634   4.487   0.473   0.865  0.8434  0.7827 -0.0907
 9392SOL    HW139635   4.440   0.556   0.864  0.2692  0.4365 -1.6896
 9392SOL    HW239636   4.454   0.432   0.784 -1.1182  2.1580  0.0073
 9393SOL     OW39637   1.436   1.036   8.219  0.3567 -0.5693  0.0476
 9393SOL    HW139638   1.363   1.058   8.161  0.3532 -2.7405 -0.7978
 9393SOL    HW239639   1.430   1.100   8.290  1.6334 -1.8289  1.3033
 9394SOL     OW39640   3.497   3.979  13.871  0.5472  0.3421 -0.0640
 9394SOL    HW139641   3.509   3.989  13.966  0.6571 -2.8913  0.2610
 9394SOL    HW239642   3.402   3.971  13.874  0.5254 -0.3719 -2.8849
 9395SOL     OW39643   2.264   0.431  12.086  0.2547  0.3193 -0.5442
 9395SOL    HW139644   2.223   0.507  12.045  1.8186  0.8953 -1.0500
 9395SOL    HW239645   2.232   0.449  12.174  0.0340 -1.4177 -0.2697
 9396SOL     OW39646   4.086   4.437   3.566  0.3120 -0.1693 -0.1364
 9396SOL    HW139647   4.122   4.451   3.479 -2.7347  0.6434 -1.2657
 9396SOL    HW239648   4.156   4.471   3.623 -0.0430  0.1702  0.1014
 9397SOL     OW39649   1.571   0.650   6.672 -0.3618  0.2062  0.1475
 9397SOL    HW139650   1.501   0.713   6.689 -1.1714 -0.6893  0.1418
 9397SOL    HW239651   1.649   0.698   6.698  0.2850 -1.3620  1.0976
 9398SOL     OW39652   3.654   3.741   2.807  0.0704  0.0800  0.2378
 9398SOL    HW139653   3.644   3.713   2.898  2.7998 -3.8713 -0.7007
 9398SOL    HW239654   3.746   3.767   2.806  0.3621 -1.0152 -0.8643
 9399SOL     OW39655   3.168   3.272   3.835 -0.1072 -0.2121  0.0554
 9399SOL    HW139656   3.200   3.187   3.803 -0.2689 -1.2503  2.6800
 9399SOL    HW239657   3.250   3.320   3.835 -1.0573  1.3752  2.1725
 9400SOL     OW39658   0.292   2.971  14.022  0.0717 -1.1389  0.0665
 9400SOL    HW139659   0.256   2.897  14.071 -0.2252 -0.1834  1.2693
 9400SOL    HW239660   0.327   3.023  14.094  1.5523 -1.5988 -0.3347
 9401SOL     OW39661   2.081   1.187   4.578  0.0170 -0.2040 -0.3857
 9401SOL    HW139662   2.144   1.181   4.649  0.6601 -0.7664 -1.0081
 9401SOL    HW239663   2.027   1.109   4.592 -0.2820 -0.1863 -1.4047
 9402SOL     OW39664   1.622   1.842   3.623 -0.2727  0.1437  0.1180
 9402SOL    HW139665   1.714   1.817   3.631  0.3250  1.9254 -1.2189
 9402SOL    HW239666   1.614   1.917   3.681  1.3435  0.5728 -0.2249
 9403SOL     OW39667   3.132   0.196  13.319  0.0842 -0.1289  0.0798
 9403SOL    HW139668   3.070   0.132  13.354  0.4821 -0.1707  0.7073
 9403SOL    HW239669   3.066   0.262  13.298 -1.3611 -1.2059  1.2533
 9404SOL     OW39670   4.152   4.392   7.294 -0.4137 -0.6101 -0.2478
 9404SOL    HW139671   4.204   4.459   7.249 -1.1423 -0.9553 -1.5940
 9404SOL    HW239672   4.091   4.375   7.223 -0.1412 -0.5358 -0.5014
 9405SOL     OW39673   2.102   1.233   6.316 -0.4040 -0.3143  0.3992
 9405SOL    HW139674   2.184   1.233   6.267  0.5775 -0.1390  2.0177
 9405SOL    HW239675   2.087   1.324   6.340  0.0484 -0.0271 -0.4029
 9406SOL     OW39676   1.052   3.871   1.933 -0.4440 -0.3667  0.1371
 9406SOL    HW139677   1.093   3.946   1.890  0.8252  0.3942  2.6354
 9406SOL    HW239678   1.116   3.852   2.003  0.8793 -1.1151 -1.2647
 9407SOL     OW39679   3.781   2.031  15.781 -0.4889  0.0585 -0.7974
 9407SOL    HW139680   3.757   1.968  15.713  2.0634 -0.8979 -0.7988
 9407SOL    HW239681   3.832   1.985  15.846 -1.5140  1.4774  1.0185
 9408SOL     OW39682   1.708   2.251   6.469  0.7540 -0.0852  0.5775
 9408SOL    HW139683   1.783   2.288   6.516  1.1183  0.3881 -0.3663
 9408SOL    HW239684   1.637   2.298   6.512 -0.5791 -3.1432  1.7281
 9409SOL     OW39685   2.309   3.280   4.063 -0.1557  0.5619  0.6104
 9409SOL    HW139686   2.291   3.309   3.973 -0.3047 -1.5545 -0.0501
 9409SOL    HW239687   2.342   3.360   4.102 -0.4193  0.2510  1.4584
 9410SOL     OW39688   4.462   1.325   3.748 -0.3554  0.0926 -0.1557
 9410SOL    HW139689   4.508   1.282   3.676 -1.1719  0.0351 -0.6482
 9410SOL    HW239690   4.463   1.413   3.711  2.4562 -0.0839 -0.4900
 9411SOL     OW39691   3.421   2.867   6.661  0.4563 -0.5905  0.1986
 9411SOL    HW139692   3.399   2.872   6.754  1.4940  0.5829  0.3820
 9411SOL    HW239693   3.407   2.773   6.652 -1.6668 -0.5316  2.7975
 9412SOL     OW39694   0.257   0.116  14.903 -0.7505  0.1630 -0.4405
 9412SOL    HW139695   0.183   0.173  14.921 -0.3304  0.3709  0.6150
 9412SOL    HW239696   0.276   0.117  14.809  0.2422  1.1071 -0.2334
 9413SOL     OW39697   4.204   3.895  10.912 -0.1591 -0.8875  0.0132
 9413SOL    HW139698   4.109   3.888  10.917 -0.0383 -2.2549  0.3673
 9413SOL    HW239699   4.208   3.962  10.843  0.0358 -0.9092  0.0035
 9414SOL     OW39700   2.997   4.372   3.448 -0.2324 -0.1456 -0.2475
 9414SOL    HW139701   3.052   4.321   3.388 -0.1883  1.2959 -1.4387
 9414SOL    HW239702   3.060   4.378   3.520 -0.0425  0.2006 -0.4389
 9415SOL     OW39703   3.799   3.104  17.346  0.0361 -0.0770  0.5300
 9415SOL    HW139704   3.787   3.160  17.270 -2.7180  0.0783  1.0885
 9415SOL    HW239705   3.761   3.142  17.425  1.8109 -1.0054  1.8303
 9416SOL     OW39706   4.582   0.703   1.515 -0.7175  0.3289 -0.2904
 9416SOL    HW139707   4.635   0.654   1.452 -1.6466  0.0038 -0.8058
 9416SOL    HW239708   4.649   0.769   1.536  0.0595 -0.5497  0.0155
 9417SOL     OW39709   3.101   1.859   6.008  0.1689 -0.4705  0.3364
 9417SOL    HW139710   3.181   1.876   6.058 -0.1786  0.5499  0.5378
 9417SOL    HW239711   3.042   1.843   6.082 -1.9202 -4.2102 -2.1261
 9418SOL     OW39712   4.139   0.743  15.280 -0.3266  0.7747 -0.0676
 9418SOL    HW139713   4.132   0.698  15.195  0.2931 -0.2526  0.4217
 9418SOL    HW239714   4.162   0.833  15.258  1.6486  0.8048  2.1788
 9419SOL     OW39715   2.864   3.958   9.814 -0.0889  0.5969 -0.8148
 9419SOL    HW139716   2.901   3.885   9.863 -0.3841 -0.0877 -1.6119
 9419SOL    HW239717   2.913   3.955   9.732  1.8309  0.3120  0.3424
 9420SOL     OW39718   2.446   3.776  10.958  0.4242 -0.0038 -0.1857
 9420SOL    HW139719   2.353   3.799  10.952  0.8605  1.7380 -0.1883
 9420SOL    HW239720   2.481   3.842  11.017  0.1016  1.0809 -1.2095
 9421SOL     OW39721   2.841   1.621  14.648  0.1903  0.0883  0.3755
 9421SOL    HW139722   2.787   1.599  14.572  0.0186 -0.5295  0.6797
 9421SOL    HW239723   2.886   1.539  14.668 -0.4055  0.0384  1.5220
 9422SOL     OW39724   0.526   2.450  14.272  0.4361 -0.4419  0.2027
 9422SOL    HW139725   0.501   2.445  14.180 -0.7996 -0.1171  0.5133
 9422SOL    HW239726   0.436   2.450  14.305  0.9505 -1.1183  1.5800
 9423SOL     OW39727   3.723   3.689   7.635  0.3144 -0.0173 -0.6077
 9423SOL    HW139728   3.682   3.769   7.668  0.9802 -0.3055  0.9232
 9423SOL    HW239729   3.732   3.631   7.711 -1.0209 -1.8248 -1.8279
 9424SOL     OW39730   3.744   1.785   8.153 -0.0975 -0.1080 -0.0432
 9424SOL    HW139731   3.809   1.822   8.213  1.9507  0.1279 -2.3946
 9424SOL    HW239732   3.706   1.867   8.121  0.5158  1.1675  2.5254
 9425SOL     OW39733   4.111   3.053   9.760  0.4551 -0.2904  0.2217
 9425SOL    HW139734   4.020   3.027   9.772  0.3500  0.5142  1.1283
 9425SOL    HW239735   4.140   3.014   9.842  1.4793  1.1047  0.5200
 9426SOL     OW39736   2.526   2.395   6.799  0.1738 -0.2407  0.2026
 9426SOL    HW139737   2.557   2.411   6.888 -0.2960 -1.7527  0.6377
 9426SOL    HW239738   2.594   2.340   6.760 -1.4148 -1.1219 -1.3440
 9427SOL     OW39739   1.451   3.280   6.579  0.3896  0.1733 -0.0490
 9427SOL    HW139740   1.401   3.245   6.653  0.6576  1.0983  0.5629
 9427SOL    HW239741   1.447   3.374   6.596 -0.3011  0.2908 -0.8534
 9428SOL     OW39742   3.703   3.403   6.636  0.0181 -0.2107 -0.5607
 9428SOL    HW139743   3.724   3.403   6.543 -0.6623  0.7376 -0.7097
 9428SOL    HW239744   3.775   3.459   6.667  1.8342 -2.1808 -1.2319
 9429SOL     OW39745   2.560   3.301  17.591  0.3537 -0.4546  0.0279
 9429SOL    HW139746   2.499   3.241  17.635  1.8222 -1.6958  0.3765
 9429SOL    HW239747   2.511   3.318  17.511 -1.2629 -1.2269  0.8269
 9430SOL     OW39748   1.273   0.701   9.965 -0.2618  0.4069  0.1950
 9430SOL    HW139749   1.274   0.718   9.871 -1.7152  0.7461  0.2453
 9430SOL    HW239750   1.213   0.767   9.999 -0.3669 -0.1532  1.0983
 9431SOL     OW39751   0.162   4.199   8.740 -0.2684  0.2775 -0.3617
 9431SOL    HW139752   0.243   4.146   8.736  0.5131  1.4137  0.4850
 9431SOL    HW239753   0.192   4.261   8.806 -0.5843  1.2825 -1.1587
 9432SOL     OW39754   1.446   3.029   3.233  0.1746  0.0280 -0.0904
 9432SOL    HW139755   1.523   2.972   3.226  2.0372  2.5042  0.0442
 9432SOL    HW239756   1.427   3.047   3.140  0.5572  0.6350 -0.0514
 9433SOL     OW39757   2.888   1.986  12.802  0.3551 -0.4714 -0.4757
 9433SOL    HW139758   2.954   1.996  12.870 -1.5750 -1.6632  1.5756
 9433SOL    HW239759   2.940   2.016  12.728 -1.1203 -0.1176 -1.3611
 9434SOL     OW39760   1.150   3.533   5.340 -0.5534 -0.7724  0.7736
 9434SOL    HW139761   1.100   3.610   5.312 -0.9764 -0.8358  1.3447
 9434SOL    HW239762   1.101   3.472   5.286 -1.4511 -0.8354  1.6488
 9435SOL     OW39763   2.505   4.252   6.270  0.2191  0.2820  0.3915
 9435SOL    HW139764   2.528   4.320   6.333 -0.1222  2.0331 -1.4052
 9435SOL    HW239765   2.451   4.314   6.222 -0.0162 -1.3581 -1.5040
 9436SOL     OW39766   2.999   1.969   5.565  0.4425  0.5528 -0.0851
 9436SOL    HW139767   3.038   2.053   5.589  1.8643  0.5581 -2.3519
 9436SOL    HW239768   2.987   1.928   5.651  1.2800 -0.2397 -0.3404
 9437SOL     OW39769   3.664   3.600   1.621 -0.4784 -0.1808 -0.0830
 9437SOL    HW139770   3.727   3.623   1.553  1.7006 -1.1996  1.6361
 9437SOL    HW239771   3.640   3.512   1.589 -0.4555 -0.2720  0.1503
 9438SOL     OW39772   2.947   2.510   6.897  0.2975  0.0465 -0.0523
 9438SOL    HW139773   2.941   2.451   6.821 -0.4641 -0.0722  0.1019
 9438SOL    HW239774   2.937   2.597   6.857 -0.7485  0.3629  0.9186
 9439SOL     OW39775   4.558   3.177   7.092 -0.5715  0.1513 -0.7173
 9439SOL    HW139776   4.526   3.256   7.137  0.0151 -0.4095  0.6836
 9439SOL    HW239777   4.638   3.211   7.053 -0.2694 -1.1385 -1.2086
 9440SOL     OW39778   0.333   4.321   2.274 -0.1480  0.2317  0.1382
 9440SOL    HW139779   0.255   4.299   2.326 -0.9833  1.0801 -0.7436
 9440SOL    HW239780   0.385   4.241   2.272  0.1839  0.4462  0.3396
 9441SOL     OW39781   0.672   1.595  10.392  0.0848  0.6826 -0.0219
 9441SOL    HW139782   0.715   1.510  10.389 -3.6175 -1.1682 -1.1921
 9441SOL    HW239783   0.749   1.651  10.383  1.4340 -0.7491  2.6562
 9442SOL     OW39784   1.877   0.273   2.893  0.1821 -0.0477  0.0747
 9442SOL    HW139785   1.822   0.199   2.867  0.3140  0.0093 -0.3647
 9442SOL    HW239786   1.932   0.223   2.955 -0.7996 -2.6589 -1.1615
 9443SOL     OW39787   1.288   0.215  16.844  0.1156  0.0783 -0.0860
 9443SOL    HW139788   1.217   0.257  16.797 -1.5256 -0.1838  2.1360
 9443SOL    HW239789   1.367   0.269  16.847  0.9143 -1.0562 -0.3904
 9444SOL     OW39790   1.342   0.804   5.775  0.3938  0.1213 -0.2390
 9444SOL    HW139791   1.326   0.882   5.721  2.2024  0.5005 -0.2253
 9444SOL    HW239792   1.263   0.755   5.754  0.5873 -0.8773  1.3395
 9445SOL     OW39793   2.296   2.592   2.338  0.6005 -0.1427 -0.2564
 9445SOL    HW139794   2.336   2.517   2.380  0.2138 -0.7445 -0.9563
 9445SOL    HW239795   2.349   2.616   2.262 -0.4090  1.6070 -0.4217
 9446SOL     OW39796   2.403   4.492  16.838 -0.4567 -0.2121  0.2584
 9446SOL    HW139797   2.487   4.458  16.871  0.9518  0.4429 -2.7182
 9446SOL    HW239798   2.438   4.557  16.778 -0.4343 -0.4477  0.0180
 9447SOL     OW39799   1.518   2.490   7.371  0.3189  0.0954  0.4974
 9447SOL    HW139800   1.560   2.572   7.345 -0.1523  0.0069 -0.5495
 9447SOL    HW239801   1.433   2.526   7.395 -0.7188 -1.3846 -0.9450
 9448SOL     OW39802   3.518   4.454   5.025  0.1514  0.3220  0.1445
 9448SOL    HW139803   3.515   4.455   5.120 -0.5372  0.1120  0.1280
 9448SOL    HW239804   3.430   4.489   5.007  0.7570  1.9765  0.4190
 9449SOL     OW39805   4.476   0.353   0.325  0.2635 -0.7815  0.1514
 9449SOL    HW139806   4.524   0.277   0.294  0.4860 -0.5550 -0.0509
 9449SOL    HW239807   4.539   0.420   0.299  1.6182 -1.1566  2.4363
 9450SOL     OW39808   4.236   3.655   7.549 -0.0600  0.7161  0.3548
 9450SOL    HW139809   4.152   3.696   7.570  0.6096  1.0602  2.4004
 9450SOL    HW239810   4.236   3.682   7.457  2.6067 -1.4113 -0.2784
 9451SOL     OW39811   1.609   2.618   3.797  0.7408 -0.4525  0.2455
 9451SOL    HW139812   1.677   2.567   3.841 -0.0312 -3.1060 -1.6737
 9451SOL    HW239813   1.532   2.561   3.792  1.3765 -1.1734 -1.3152
 9452SOL     OW39814   2.071   1.919  15.419  0.0058 -0.3042 -0.5844
 9452SOL    HW139815   1.987   1.929  15.464 -0.5823 -1.5083 -1.4356
 9452SOL    HW239816   2.060   1.828  15.394 -0.8647  0.3616 -2.6125
 9453SOL     OW39817   1.134   3.958  15.297 -0.3040 -0.1710 -0.5698
 9453SOL    HW139818   1.227   3.974  15.287 -0.2268  0.8167  1.7563
 9453SOL    HW239819   1.132   3.864  15.280 -0.5304 -0.4007  0.6864
 9454SOL     OW39820   0.039   2.482   0.254 -0.3348  0.5018  0.5871
 9454SOL    HW139821   0.006   2.472   0.165 -0.7443  0.5286  0.7364
 9454SOL    HW239822   4.680   2.481   0.307  0.8668  0.8769  2.4278
 9455SOL     OW39823   3.114   1.364  15.985  0.6572 -0.3560  0.4562
 9455SOL    HW139824   3.139   1.300  15.918 -0.5890 -1.1503  0.7350
 9455SOL    HW239825   3.191   1.421  15.982  1.5104 -1.7506 -3.4413
 9456SOL     OW39826   3.010   4.180   6.597  0.2096 -0.2484 -0.5132
 9456SOL    HW139827   2.974   4.112   6.540  1.2636 -0.9372 -0.3715
 9456SOL    HW239828   3.041   4.132   6.674  2.5661 -0.9066 -1.8621
 9457SOL     OW39829   3.623   1.371   9.367 -0.2605  0.1835  0.1911
 9457SOL    HW139830   3.671   1.451   9.392  0.9902 -0.4085 -0.3368
 9457SOL    HW239831   3.580   1.410   9.291  1.5393 -0.7314 -1.2762
 9458SOL     OW39832   3.571   0.848  16.841 -0.6095 -0.4806 -0.6028
 9458SOL    HW139833   3.658   0.886  16.853 -0.7648 -0.4609  0.4084
 9458SOL    HW239834   3.534   0.879  16.923 -1.4238 -1.6829 -0.5230
 9459SOL     OW39835   4.578   0.858  16.853 -0.2019 -0.4846 -0.1360
 9459SOL    HW139836   4.557   0.790  16.916  1.4773 -1.2984 -0.4570
 9459SOL    HW239837   4.604   0.925  16.916 -0.8620 -0.3464 -0.0129
 9460SOL     OW39838   4.067   4.009   6.157  1.0847 -0.0660 -0.1269
 9460SOL    HW139839   4.061   4.053   6.242  2.6688 -0.5099  0.2162
 9460SOL    HW239840   4.076   3.921   6.195 -1.8292  0.7783  2.4717
 9461SOL     OW39841   1.166   0.501   6.802 -0.0454 -0.1295 -0.4461
 9461SOL    HW139842   1.173   0.552   6.721  1.0149  1.1158  0.4245
 9461SOL    HW239843   1.232   0.543   6.858 -1.1608  1.1648 -0.0917
 9462SOL     OW39844   4.455   1.352   3.151 -0.2624 -0.5087 -0.2230
 9462SOL    HW139845   4.400   1.275   3.162 -0.4928 -0.3805 -0.4887
 9462SOL    HW239846   4.472   1.391   3.237  1.0647  1.4400 -1.3683
 9463SOL     OW39847   0.322   3.936  14.729  0.0529  0.1831  0.4482
 9463SOL    HW139848   0.287   3.856  14.768 -0.7076 -0.4894 -1.6298
 9463SOL    HW239849   0.351   3.887  14.652  1.2875  3.0759 -0.9222
 9464SOL     OW39850   1.735   0.163  16.662 -0.4810 -0.0476 -0.0005
 9464SOL    HW139851   1.702   0.231  16.721  2.7595  2.0805 -0.6510
 9464SOL    HW239852   1.735   0.088  16.721 -0.3480 -0.1502 -0.1306
 9465SOL     OW39853   0.744   0.721   1.821 -0.4380 -0.4931 -0.2844
 9465SOL    HW139854   0.764   0.632   1.792 -1.1179 -0.5898 -0.4443
 9465SOL    HW239855   0.693   0.697   1.898 -1.3851 -0.3250 -0.8594
 9466SOL     OW39856   4.683   4.402   4.526 -0.3480 -0.2632 -0.3815
 9466SOL    HW139857   4.632   4.363   4.597  1.3087 -1.0750  0.3585
 9466SOL    HW239858   4.625   4.477   4.507  0.5373  1.2417  2.7742
 9467SOL     OW39859   2.868   2.663   9.456  0.4221 -0.1103  0.8952
 9467SOL    HW139860   2.907   2.591   9.506  1.9782 -0.5462 -0.9428
 9467SOL    HW239861   2.866   2.736   9.517 -0.2084  1.1965 -0.7076
 9468SOL     OW39862   0.046   0.420   9.947 -0.7814  0.5059  0.4449
 9468SOL    HW139863   0.059   0.358   9.876  0.9512  1.8263 -0.3765
 9468SOL    HW239864   0.082   0.503   9.914 -1.2625  0.9037  0.9048
 9469SOL     OW39865   1.592   0.879   9.051  0.9006  0.2438  0.1852
 9469SOL    HW139866   1.635   0.955   9.013 -1.5971  1.2024 -0.7458
 9469SOL    HW239867   1.643   0.802   9.027  0.5770  0.3493 -0.8487
 9470SOL     OW39868   3.397   0.689  11.988  0.7656  0.6407  0.2686
 9470SOL    HW139869   3.350   0.737  11.920  0.4821  0.2991  0.2234
 9470SOL    HW239870   3.463   0.756  12.006  0.4482  0.3488  2.5385
 9471SOL     OW39871   0.328   4.494   5.295  0.4301 -0.2089  0.3768
 9471SOL    HW139872   0.368   4.429   5.353 -0.9673  1.9241  3.7549
 9471SOL    HW239873   0.349   4.577   5.339 -1.4763  0.1116  0.6788
 9472SOL     OW39874   3.725   3.786   3.396  0.3233 -0.1426 -0.6602
 9472SOL    HW139875   3.722   3.691   3.408 -1.2840  0.2181  1.8149
 9472SOL    HW239876   3.638   3.813   3.426  0.1974  0.8423 -1.8711
 9473SOL     OW39877   1.598   1.330   6.161  0.2699 -0.3854 -0.7095
 9473SOL    HW139878   1.629   1.309   6.249  2.1855  1.8800 -0.8446
 9473SOL    HW239879   1.663   1.284   6.108  1.0056  0.6642 -0.7079
 9474SOL     OW39880   4.041   2.342   5.116  0.4410  0.1653  0.6598
 9474SOL    HW139881   4.103   2.369   5.047  1.1464 -1.1861  0.7699
 9474SOL    HW239882   3.966   2.391   5.084 -0.2903 -2.3365 -1.4767
 9475SOL     OW39883   1.767   4.297   2.638  0.5049  0.4089  0.1567
 9475SOL    HW139884   1.764   4.251   2.555 -0.2739  0.5026  0.1316
 9475SOL    HW239885   1.696   4.249   2.680 -1.4387  0.7106 -2.8339
 9476SOL     OW39886   0.941   1.472   8.067 -0.3660 -0.5336 -0.1777
 9476SOL    HW139887   1.021   1.424   8.089  1.1710  3.0390  1.9444
 9476SOL    HW239888   0.885   1.414   8.015  0.1119 -0.7733 -0.4207
 9477SOL     OW39889   4.191   4.058   1.712 -0.2654  0.3290 -0.1522
 9477SOL    HW139890   4.114   4.031   1.761 -0.7954  1.4251 -0.3752
 9477SOL    HW239891   4.246   3.980   1.713  0.4985  0.8749  0.7408
 9478SOL     OW39892   2.318   1.871   2.835 -0.0582 -0.1920 -0.4169
 9478SOL    HW139893   2.240   1.874   2.891  1.1140 -1.9698  1.3276
 9478SOL    HW239894   2.377   1.927   2.886 -2.2288  0.4612  1.3786
 9479SOL     OW39895   3.354   1.196   3.693  0.2546  0.2232  0.5575
 9479SOL    HW139896   3.378   1.237   3.777  1.9903 -1.0355  0.6860
 9479SOL    HW239897   3.424   1.131   3.682  0.4066  0.1694  1.7729
 9480SOL     OW39898   4.481   2.025   1.296 -0.1526  0.3586 -0.3677
 9480SOL    HW139899   4.547   2.093   1.311  0.4089 -0.1261 -0.6278
 9480SOL    HW239900   4.405   2.077   1.321  0.6151  0.8684  0.9657
 9481SOL     OW39901   3.440   0.410   8.584  0.1698 -0.1216 -0.3752
 9481SOL    HW139902   3.431   0.502   8.560 -1.0927  0.1939  1.3228
 9481SOL    HW239903   3.368   0.387   8.524  2.3452 -0.8060 -2.7554
 9482SOL     OW39904   0.538   0.743   3.515  0.0899  0.0154 -0.0101
 9482SOL    HW139905   0.528   0.812   3.581 -0.4984 -0.9238  0.8902
 9482SOL    HW239906   0.474   0.684   3.556  0.1320  1.1273  1.6329
 9483SOL     OW39907   1.159   4.273   6.251 -0.0021 -0.1348  0.0532
 9483SOL    HW139908   1.250   4.284   6.278  0.0843 -0.2786 -0.1846
 9483SOL    HW239909   1.139   4.188   6.291  0.5530  0.0041  0.6209
 9484SOL     OW39910   3.127   4.359  16.735  0.2789 -0.1287  0.2117
 9484SOL    HW139911   3.131   4.454  16.728 -2.2386 -0.0905 -0.8300
 9484SOL    HW239912   3.043   4.348  16.781 -0.9091  1.0968 -1.6779
 9485SOL     OW39913   1.687   4.575  10.745  0.5587 -0.4848 -0.0943
 9485SOL    HW139914   1.720   4.650  10.695  0.2966  0.3855  1.0417
 9485SOL    HW239915   1.605   4.612  10.777  1.4324  1.4332 -0.0605
 9486SOL     OW39916   0.661   0.470   7.503  0.2232 -0.0562 -0.4588
 9486SOL    HW139917   0.584   0.522   7.524  0.8975  1.8851 -2.8284
 9486SOL    HW239918   0.618   0.423   7.432  0.4723 -1.2367  0.1710
 9487SOL     OW39919   0.578   1.600   0.140  0.1917 -0.5291 -0.0172
 9487SOL    HW139920   0.509   1.625   0.202  1.0038 -0.4846  0.8633
 9487SOL    HW239921   0.655   1.627   0.190  0.5431 -0.7169 -0.4662
 9488SOL     OW39922   1.125   3.809  14.548 -0.5608 -0.2198 -0.1166
 9488SOL    HW139923   1.141   3.725  14.591  0.5548  0.1230  0.1195
 9488SOL    HW239924   1.120   3.785  14.455 -0.0523 -0.2943 -0.1232
 9489SOL     OW39925   2.313   0.164  12.021 -0.8171  0.0119  0.3085
 9489SOL    HW139926   2.293   0.257  12.017  1.5321  0.6046  2.1039
 9489SOL    HW239927   2.290   0.132  12.108  1.6521  0.4839  1.1433
 9490SOL     OW39928   3.079   3.595   6.093  0.1969 -0.0280  0.5851
 9490SOL    HW139929   3.019   3.522   6.097 -3.1752  2.6854 -0.5596
 9490SOL    HW239930   3.035   3.670   6.052  1.6140  0.4531 -0.0827
 9491SOL     OW39931   4.171   3.658   6.515 -0.2453  0.1398 -0.1455
 9491SOL    HW139932   4.263   3.665   6.541  0.3214 -2.8804 -1.2873
 9491SOL    HW239933   4.121   3.723   6.564  2.6275  2.8416 -0.7468
 9492SOL     OW39934   4.255   2.073   5.774 -0.1499 -0.2416 -0.1021
 9492SOL    HW139935   4.163   2.098   5.772 -0.2179 -0.5329 -0.8611
 9492SOL    HW239936   4.268   2.020   5.696  0.4783  0.3311 -0.3948
 9493SOL     OW39937   4.343   1.936   7.809 -0.5904 -0.3491 -0.4788
 9493SOL    HW139938   4.260   1.947   7.762 -0.4071 -1.8215 -1.1625
 9493SOL    HW239939   4.318   1.889   7.888 -0.7775  1.0079  0.2631
 9494SOL     OW39940   3.239   4.304   2.054 -0.0877 -0.5017 -0.0046
 9494SOL    HW139941   3.177   4.336   2.121  0.0485 -2.1256  0.9054
 9494SOL    HW239942   3.193   4.357   1.989 -2.0888 -1.5152  0.5718
 9495SOL     OW39943   2.100   3.650   5.645 -0.5309  0.1239  0.2505
 9495SOL    HW139944   2.098   3.719   5.711 -0.0181 -0.3520  0.7706
 9495SOL    HW239945   2.040   3.687   5.580 -1.0242 -0.4259  0.3902
 9496SOL     OW39946   1.415   2.112   6.802  0.1920  0.2712  0.3535
 9496SOL    HW139947   1.390   2.125   6.893 -0.9389 -1.0108  0.2194
 9496SOL    HW239948   1.393   2.192   6.753 -1.9416  0.1010  1.0623
 9497SOL     OW39949   3.718   1.569   7.444  0.3838 -0.1628 -0.2240
 9497SOL    HW139950   3.765   1.489   7.420  1.1292  0.3516 -0.4707
 9497SOL    HW239951   3.783   1.617   7.496  0.8671  0.0014 -0.9797
 9498SOL     OW39952   3.514   2.857   8.484  0.2412 -0.1561  0.0263
 9498SOL    HW139953   3.487   2.790   8.547  0.1427 -1.2539 -1.1709
 9498SOL    HW239954   3.433   2.887   8.441 -0.9649  0.4063  2.7151
 9499SOL     OW39955   3.697   0.814  10.205 -0.1101  0.3152  0.2202
 9499SOL    HW139956   3.749   0.743  10.244  2.1891  2.7163  1.5945
 9499SOL    HW239957   3.730   0.885  10.260 -0.5172  1.4390 -0.9925
 9500SOL     OW39958   2.758   0.203   7.901  0.6371  0.2320 -0.5060
 9500SOL    HW139959   2.788   0.147   7.831  0.9199  0.8422 -0.8703
 9500SOL    HW239960   2.667   0.173   7.908  1.2558 -0.8086  3.2683
 9501SOL     OW39961   0.390   1.175   6.547  0.8353  0.1458  0.3309
 9501SOL    HW139962   0.351   1.228   6.617  0.2836 -2.0212  1.6491
 9501SOL    HW239963   0.462   1.235   6.529 -0.6129  2.0261  0.7809
 9502SOL     OW39964   1.898   3.359   6.106  0.1927  0.1127  0.0088
 9502SOL    HW139965   1.936   3.432   6.056  0.2672 -0.5065 -0.8401
 9502SOL    HW239966   1.811   3.393   6.125 -0.3205 -0.7405 -0.7958
 9503SOL     OW39967   1.339   3.198   9.595 -0.1195 -0.0337  0.6095
 9503SOL    HW139968   1.249   3.188   9.566  0.1648 -1.8550  0.3700
 9503SOL    HW239969   1.361   3.274   9.540 -0.6672  0.1034  0.5827
 9504SOL     OW39970   3.426   0.340   7.432 -0.2033 -0.1132  0.0645
 9504SOL    HW139971   3.355   0.277   7.422  0.5461 -1.0857  0.8104
 9504SOL    HW239972   3.457   0.328   7.522 -1.8545  1.4160  0.8194
 9505SOL     OW39973   2.843   1.760   2.320 -0.2020  0.3528  0.0588
 9505SOL    HW139974   2.923   1.743   2.369  1.0268  1.9477 -1.3962
 9505SOL    HW239975   2.891   1.751   2.238  1.3268  0.4356  0.9370
 9506SOL     OW39976   2.752   0.045  10.521  0.3345 -1.0602 -0.4859
 9506SOL    HW139977   2.659   0.029  10.535  0.4633 -0.6679  0.7963
 9506SOL    HW239978   2.766   0.137  10.546  2.3541 -1.6326  0.5303
 9507SOL     OW39979   0.017   0.094   9.484 -0.2839 -0.1998  0.2685
 9507SOL    HW139980   0.008   4.720   9.496  1.8430 -0.2324  1.5877
 9507SOL    HW239981   0.111   0.106   9.498 -0.0512  0.4815 -1.8969
 9508SOL     OW39982   4.164   0.561   8.177 -0.5124 -0.2194  0.3462
 9508SOL    HW139983   4.252   0.599   8.177  0.3012 -2.1117 -1.1178
 9508SOL    HW239984   4.180   0.485   8.121  1.7965 -0.7444  1.7067
 9509SOL     OW39985   4.696   4.259   3.533  0.1308 -0.0934 -0.0552
 9509SOL    HW139986   4.638   4.275   3.459 -0.0693 -1.2636 -0.1476
 9509SOL    HW239987   4.664   4.177   3.569 -0.6995  0.9832  1.6867
 9510SOL     OW39988   4.717   3.474   9.516 -0.3046 -0.0047 -0.0083
 9510SOL    HW139989   4.713   3.494   9.423 -2.2587 -2.4382 -0.4408
 9510SOL    HW239990   0.047   3.394   9.518  1.1140  0.8923 -0.4002
 9511SOL     OW39991   3.083   3.839   6.856 -0.4526  0.5535  0.1677
 9511SOL    HW139992   3.048   3.838   6.767 -2.4636  1.5188  0.9346
 9511SOL    HW239993   3.004   3.799   6.892  0.1499  1.2240  2.2500
 9512SOL     OW39994   3.647   2.961   1.624  0.4768 -0.5499 -0.2178
 9512SOL    HW139995   3.725   3.007   1.593  0.6086 -1.2095 -0.8478
 9512SOL    HW239996   3.630   2.914   1.543  0.8763 -2.7868  0.9991
 9513SOL     OW39997   0.263   0.919  17.543 -0.0560  0.8548  0.4998
 9513SOL    HW139998   0.353   0.897  17.564 -0.0651 -0.1076 -0.4557
 9513SOL    HW239999   0.265   0.995  17.601  0.2046 -0.3175  2.0195
 9514SOL     OW40000   2.570   1.259   6.917 -0.5895 -0.0510  0.1870
 9514SOL    HW140001   2.589   1.258   6.823 -0.0747 -1.4424  0.3117
 9514SOL    HW240002   2.474   1.263   6.917 -0.5854  0.0747 -0.9198
 9515SOL     OW40003   4.619   3.158   1.952  0.0646 -0.1037 -0.0653
 9515SOL    HW140004   4.559   3.102   2.000 -0.5777 -0.1678 -0.9649
 9515SOL    HW240005   4.658   3.206   2.026 -0.5424  0.3601 -0.0456
 9516SOL     OW40006   4.578   2.565   1.162  0.3433 -0.5644  0.0446
 9516SOL    HW140007   4.600   2.598   1.075 -0.5981  0.2835  0.1402
 9516SOL    HW240008   4.502   2.510   1.148 -0.2683 -0.2620  2.2210
 9517SOL     OW40009   2.474   4.312  11.018 -0.5192  0.5504  0.1724
 9517SOL    HW140010   2.465   4.400  11.056 -2.6608  1.2558 -1.9723
 9517SOL    HW240011   2.569   4.304  11.003 -0.1216  2.1658  1.8579
 9518SOL     OW40012   0.990   0.865   8.131 -0.4620  0.2603 -0.0598
 9518SOL    HW140013   0.928   0.792   8.130 -0.8834  0.6173 -0.1218
 9518SOL    HW240014   1.056   0.832   8.192  0.3657  0.2231 -0.9815
 9519SOL     OW40015   0.751   0.945   8.386  0.1411 -0.0869 -0.3889
 9519SOL    HW140016   0.837   0.945   8.426 -0.9638 -1.1273  1.9768
 9519SOL    HW240017   0.771   0.996   8.307 -0.9473 -2.8148 -2.4299
 9520SOL     OW40018   3.721   4.169   0.152  0.1137  0.3797 -0.0787
 9520SOL    HW140019   3.807   4.207   0.172 -0.7449  1.5750  1.3509
 9520SOL    HW240020   3.737   4.077   0.132 -1.3294 -0.0600  0.8163
 9521SOL     OW40021   3.942   1.557  14.648 -0.0387  0.0654  0.0306
 9521SOL    HW140022   3.997   1.576  14.572 -0.7993 -1.7229 -0.9824
 9521SOL    HW240023   4.005   1.567  14.719  0.4526  3.1736 -0.8419
 9522SOL     OW40024   3.719   2.861  12.627  0.3079 -0.1995 -0.4458
 9522SOL    HW140025   3.795   2.828  12.581  0.3568 -0.0695 -0.4575
 9522SOL    HW240026   3.733   2.955  12.617 -1.2886  0.0767 -0.1896
 9523SOL     OW40027   4.393   3.234   0.620  0.9387 -0.1998 -0.0037
 9523SOL    HW140028   4.429   3.217   0.707  0.3952  1.1818  0.5017
 9523SOL    HW240029   4.302   3.220   0.647  0.3572  2.5504 -0.4517
 9524SOL     OW40030   2.648   1.917   2.502 -0.6747 -0.2977  0.2750
 9524SOL    HW140031   2.594   1.875   2.568 -2.0485 -1.2790 -1.4998
 9524SOL    HW240032   2.670   1.848   2.440  0.3373  0.8188 -0.6343
 9525SOL     OW40033   2.053   1.151   7.698  0.3031  0.7570  0.2646
 9525SOL    HW140034   2.129   1.147   7.640  0.4881 -1.1721  0.6348
 9525SOL    HW240035   1.983   1.182   7.641 -0.0646 -1.2941 -0.4001
 9526SOL     OW40036   0.341   2.690   4.163 -0.0030  0.1981  0.6425
 9526SOL    HW140037   0.265   2.740   4.133  0.3216  0.8331  0.8865
 9526SOL    HW240038   0.388   2.676   4.081  0.3269  1.9839  0.5386
 9527SOL     OW40039   1.959   4.173   9.253  0.3007  0.5743  0.3127
 9527SOL    HW140040   1.956   4.119   9.332  4.0497  2.7521  1.8942
 9527SOL    HW240041   1.989   4.110   9.188 -1.5250 -0.4083  0.4167
 9528SOL     OW40042   0.550   4.512  13.767  0.0931  0.1512  0.6209
 9528SOL    HW140043   0.569   4.424  13.734  0.5285  0.9092 -1.1573
 9528SOL    HW240044   0.606   4.557  13.704  1.6284 -2.0464  0.4228
 9529SOL     OW40045   4.053   3.423   6.365 -0.5036  0.1383 -0.4799
 9529SOL    HW140046   4.085   3.394   6.450  0.3761  0.2537 -0.7734
 9529SOL    HW240047   4.059   3.518   6.379  1.7991 -0.0854  0.1241
 9530SOL     OW40048   4.138   1.615  11.106  0.0370 -0.2621  0.2299
 9530SOL    HW140049   4.146   1.655  11.192 -1.0586 -1.7198  0.9997
 9530SOL    HW240050   4.159   1.686  11.044  1.6180 -1.0270 -0.1038
 9531SOL     OW40051   0.607   1.153   2.061  0.0950  0.0364 -0.3480
 9531SOL    HW140052   0.673   1.116   2.002  1.3452 -0.3407  1.3005
 9531SOL    HW240053   0.529   1.134   2.009  0.4268 -0.3868 -0.6976
 9532SOL     OW40054   1.747   4.432  13.655 -0.2797 -0.1114  0.2382
 9532SOL    HW140055   1.736   4.483  13.735 -2.4463 -1.5949  0.8803
 9532SOL    HW240056   1.820   4.378  13.685 -1.2233 -1.2785  0.4191
 9533SOL     OW40057   3.912   1.801   2.667  0.2294 -0.0858  0.0614
 9533SOL    HW140058   3.928   1.752   2.586 -0.0616  1.5793 -0.9996
 9533SOL    HW240059   3.846   1.743   2.705 -1.7045  2.2161  0.1610
 9534SOL     OW40060   2.084   2.049  14.170  0.2616  0.2951 -0.2468
 9534SOL    HW140061   2.133   2.018  14.246  1.9152  0.2777 -1.3201
 9534SOL    HW240062   2.147   2.031  14.099 -0.5574  0.1364 -0.9357
 9535SOL     OW40063   2.151   4.659   1.232 -0.1684 -0.0288 -0.3298
 9535SOL    HW140064   2.124   4.618   1.150  1.4064  0.0891 -0.9004
 9535SOL    HW240065   2.101   0.020   1.239 -1.5012 -0.9482  1.1509
 9536SOL     OW40066   1.281   1.369   5.525  0.1869  0.1732  0.4830
 9536SOL    HW140067   1.222   1.345   5.597  0.0149  0.9631  0.6099
 9536SOL    HW240068   1.348   1.301   5.528 -0.2812 -0.3612 -1.6598
 9537SOL     OW40069   1.381   2.914  15.205  0.1691  0.7985  0.0789
 9537SOL    HW140070   1.314   2.852  15.234 -0.8784  1.3240 -1.1837
 9537SOL    HW240071   1.381   2.906  15.110 -1.3957 -2.6402  0.3626
 9538SOL     OW40072   4.382   2.715   8.510  0.9780  0.0921  0.2496
 9538SOL    HW140073   4.411   2.765   8.586 -0.4225  0.9889  0.1783
 9538SOL    HW240074   4.411   2.629   8.542  1.9122 -0.6889 -2.6084
 9539SOL     OW40075   0.247   0.226   3.618 -0.0009  0.5137  0.3413
 9539SOL    HW140076   0.185   0.154   3.628  1.4452 -0.2855  3.6900
 9539SOL    HW240077   0.309   0.175   3.566 -0.3083 -0.0887  0.5684
 9540SOL     OW40078   3.786   0.123   1.911 -0.5974 -0.0001  0.2701
 9540SOL    HW140079   3.823   0.132   1.823  0.0144 -0.5811  0.4632
 9540SOL    HW240080   3.812   0.032   1.926 -3.5882 -0.7522  0.8619
 9541SOL     OW40081   2.751   0.880   7.524 -0.2784 -0.5091 -0.0001
 9541SOL    HW140082   2.746   0.971   7.494  1.5549 -1.6777 -3.9242
 9541SOL    HW240083   2.821   0.891   7.588 -0.3414 -1.7504  0.2759
 9542SOL     OW40084   2.095   2.723   6.523 -0.2204 -0.2622 -1.0438
 9542SOL    HW140085   2.100   2.734   6.429 -0.4131  3.5882 -0.5994
 9542SOL    HW240086   2.153   2.793   6.554 -0.4614 -0.3635 -0.3664
 9543SOL     OW40087   4.558   4.215  11.552  0.5306 -0.0953  0.2456
 9543SOL    HW140088   4.556   4.133  11.501  1.0905 -0.3341  0.6066
 9543SOL    HW240089   4.650   4.233  11.533  0.3670 -0.3090 -0.7776
 9544SOL     OW40090   3.251   0.766  11.786 -0.0288  0.4402  0.3886
 9544SOL    HW140091   3.167   0.782  11.829  0.4621  1.5798  0.9138
 9544SOL    HW240092   3.226   0.708  11.714 -1.0524 -0.8759  1.7913
 9545SOL     OW40093   1.118   1.042   5.202 -0.3050 -0.5245  0.2092
 9545SOL    HW140094   1.030   1.020   5.233 -0.6168  1.0583  0.4418
 9545SOL    HW240095   1.155   0.953   5.199  0.6932 -0.1017  0.1226
 9546SOL     OW40096   0.646   2.634   3.542  0.2847  0.0693 -0.0948
 9546SOL    HW140097   0.579   2.583   3.588 -0.4781  0.4224 -0.8253
 9546SOL    HW240098   0.604   2.674   3.466 -0.0203  1.1138  0.6242
 9547SOL     OW40099   4.666   0.370  12.909 -0.0943  0.4077 -0.3183
 9547SOL    HW140100   4.669   0.365  12.813  0.5166  3.3084 -0.4540
 9547SOL    HW240101   0.021   0.419  12.941 -0.6679 -0.4752  2.3875
 9548SOL     OW40102   3.045   4.625   6.164 -0.6286 -0.7058  0.0666
 9548SOL    HW140103   3.123   4.680   6.177 -0.4977 -0.2640 -2.5645
 9548SOL    HW240104   2.984   4.691   6.130  0.2143  0.3845  0.6700
 9549SOL     OW40105   3.387   4.347   5.977 -0.2502  0.0138 -0.3458
 9549SOL    HW140106   3.437   4.408   6.031  0.4158 -1.0223  0.2036
 9549SOL    HW240107   3.463   4.299   5.947 -0.1749 -1.0883  1.5998
 9550SOL     OW40108   3.138   4.622   9.778  0.2542  0.3215  0.7431
 9550SOL    HW140109   3.159   4.655   9.690  2.5349  0.2900  1.2748
 9550SOL    HW240110   3.059   4.573   9.756 -0.0561  1.3779 -0.5038
 9551SOL     OW40111   3.027   3.516   8.312 -0.0305 -0.1560 -0.0033
 9551SOL    HW140112   3.053   3.593   8.262  1.7444 -2.3599 -2.5116
 9551SOL    HW240113   3.017   3.552   8.400  1.8244  0.0595  0.1256
 9552SOL     OW40114   0.599   3.034   7.884 -0.3185 -0.1189 -0.2117
 9552SOL    HW140115   0.580   3.016   7.976 -0.5153 -1.5229 -0.5378
 9552SOL    HW240116   0.672   2.974   7.868 -1.0085 -0.4942 -1.8690
 9553SOL     OW40117   2.972   4.638   4.072  0.2809  0.5667  0.1370
 9553SOL    HW140118   2.876   4.633   4.070  0.3599 -1.1212  0.4870
 9553SOL    HW240119   2.998   4.638   3.980  0.1189 -0.3800  0.0924
 9554SOL     OW40120   4.529   3.735   4.247 -0.0331  0.3795  0.2649
 9554SOL    HW140121   4.601   3.699   4.194 -0.2995  1.1319 -0.6038
 9554SOL    HW240122   4.578   3.789   4.309 -0.1944  0.3187  0.4447
 9555SOL     OW40123   0.839   4.305   7.916 -0.2042  0.3010 -0.1501
 9555SOL    HW140124   0.821   4.280   8.007  0.8943  1.7173  0.4532
 9555SOL    HW240125   0.773   4.258   7.865 -1.2195  0.7165  0.7613
 9556SOL     OW40126   2.657   2.249   6.601 -0.0757  0.0725 -0.6004
 9556SOL    HW140127   2.636   2.164   6.641  1.6979 -0.0232  0.1246
 9556SOL    HW240128   2.634   2.223   6.512 -0.2982 -2.6793  0.2524
 9557SOL     OW40129   0.417   3.141   5.232 -0.4622 -0.5367 -0.2975
 9557SOL    HW140130   0.333   3.131   5.186 -1.1906  2.2971  0.4219
 9557SOL    HW240131   0.460   3.185   5.159 -1.9427  0.4093 -0.5896
 9558SOL     OW40132   1.910   0.166  14.182 -0.2512 -0.1436  0.3605
 9558SOL    HW140133   1.929   0.253  14.217  0.5377 -0.9161  1.8859
 9558SOL    HW240134   1.847   0.133  14.246  1.4463  1.9188  3.0907
 9559SOL     OW40135   1.335   2.448   1.879 -0.0942  0.6830  0.3358
 9559SOL    HW140136   1.255   2.463   1.829  0.1771  0.3851 -0.1866
 9559SOL    HW240137   1.382   2.530   1.897  0.3612 -0.0120  2.3028
 9560SOL     OW40138   4.571   3.004   6.836  0.5448  0.0548  0.3169
 9560SOL    HW140139   4.656   2.966   6.817  0.4289  0.3481 -0.7924
 9560SOL    HW240140   4.543   2.960   6.916  0.6471  1.9306  1.3854
 9561SOL     OW40141   0.098   2.269   7.100  0.0538 -0.2696 -0.2748
 9561SOL    HW140142   0.145   2.279   7.018 -0.4281  0.7550 -0.4195
 9561SOL    HW240143   0.057   2.183   7.095  0.0048 -0.2747  0.2008
 9562SOL     OW40144   2.648   0.805   1.272 -0.2009  0.1866 -0.3228
 9562SOL    HW140145   2.743   0.789   1.274 -0.3193 -0.7315 -1.3924
 9562SOL    HW240146   2.628   0.711   1.277 -1.3242  0.3919 -0.9738
 9563SOL     OW40147   0.007   0.618   8.675 -0.0282 -0.2044  0.3930
 9563SOL    HW140148   4.637   0.642   8.691 -0.4770 -0.6400 -1.5579
 9563SOL    HW240149   0.045   0.691   8.724 -0.9614 -0.0092  0.8305
 9564SOL     OW40150   4.379   3.118   0.128 -0.4817 -0.0418 -0.4557
 9564SOL    HW140151   4.391   3.211   0.151  0.2753  0.3593 -2.4389
 9564SOL    HW240152   4.286   3.106   0.112 -0.2388 -1.3923 -0.8428
 9565SOL     OW40153   3.238   2.132   6.631 -0.0884  0.5384  0.0975
 9565SOL    HW140154   3.329   2.119   6.658  0.7803  3.0966 -1.6444
 9565SOL    HW240155   3.239   2.228   6.630  3.9564  0.5216  3.9184
   4.72077   4.72077  17.68556
